                         Program Version 6.0.0  -   RELEASE  -
|  1> !r2SCAN aug-cc-pVTZ d3 TightSCF SlowConv RIJCOSX defgrid2
|  2>
|  3> %pal
|  4> nprocs 4
|  5> end
|  6>
|  7> %scf
|  8> MaxIter 1500
|  9> end
| 10>
| 11> %maxcore 3000
| 12>
| 13> !CPCM
| 14> %cpcm smd true
| 15> SMDsolvent "MeCN"
| 16> surfacetype gepol_ses
| 17> rsolv 2.19
| 18> end
| 19>
| 20> * xyz 1 2
| 21> C          -0.71556742602470      1.41147124580485      0.02484351393648
| 22> C          -1.89485758612148      0.71255037175673      0.02185452188149
| 23> C          -1.89490487228878     -0.71243606709823     -0.02184786737407
| 24> C          -0.71566014748267     -1.41143906203058     -0.02485534134414
| 25> C           0.52378178615536     -0.72580780509331      0.02738184725448
| 26> N           1.67880733273848     -1.40323460000137      0.12447426704281
| 27> H           2.54767175517770     -0.96635780966427      0.41412881989197
| 28> H           1.66526481618075     -2.41979612436391      0.15230682810719
| 29> C           0.52382964238816      0.72575250329787     -0.02740743022416
| 30> N           1.67888414838919      1.40311105146924     -0.12454542200936
| 31> H           2.54775915845719      0.96616221930099     -0.41405341714921
| 32> H           1.66540525229882      2.41967119375531     -0.15237138517056
| 33> H          -0.71326686493866     -2.50469578941709     -0.02461886159088
| 34> H          -2.84575934012086     -1.25136953209334     -0.03502634075607
| 35> H          -2.84567429105713      1.25154580034325      0.03504989002360
| 36> H          -0.71309356375136      2.50472700403386      0.02461197748042
| 37> *
| 38>
| 39>                          ****END OF INPUT****

CARTESIAN COORDINATES (ANGSTROEM)
---------------------------------
  C     -0.715567    1.411471    0.024844
  C     -1.894858    0.712550    0.021855
  C     -1.894905   -0.712436   -0.021848
  C     -0.715660   -1.411439   -0.024855
  C      0.523782   -0.725808    0.027382
  N      1.678807   -1.403235    0.124474
  H      2.547672   -0.966358    0.414129
  H      1.665265   -2.419796    0.152307
  C      0.523830    0.725753   -0.027407
  N      1.678884    1.403111   -0.124545
  H      2.547759    0.966162   -0.414053
  H      1.665405    2.419671   -0.152371
  H     -0.713267   -2.504696   -0.024619
  H     -2.845759   -1.251370   -0.035026
  H     -2.845674    1.251546    0.035050
  H     -0.713094    2.504727    0.024612

 Total Charge           Charge          ....    1
 Multiplicity           Mult            ....    2
 Number of Electrons    NEL             ....   57
 Basis Dimension        Dim             ....  552

ORBITAL ENERGIES
----------------
                 SPIN UP ORBITALS
  NO   OCC          E(Eh)            E(eV)
   0   1.0000     -14.229814      -387.2129
   1   1.0000     -14.229793      -387.2123
   2   1.0000     -10.135373      -275.7975
   3   1.0000     -10.135106      -275.7903
   4   1.0000     -10.069497      -274.0049
   5   1.0000     -10.069153      -273.9956
   6   1.0000     -10.063960      -273.8543
   7   1.0000     -10.063941      -273.8538
   8   1.0000      -0.961386       -26.1607
   9   1.0000      -0.920564       -25.0498
  10   1.0000      -0.832729       -22.6597
  11   1.0000      -0.738173       -20.0867
  12   1.0000      -0.724116       -19.7042
  13   1.0000      -0.621643       -16.9158
  14   1.0000      -0.611956       -16.6522
  15   1.0000      -0.551354       -15.0031
  16   1.0000      -0.523009       -14.2318
  17   1.0000      -0.517164       -14.0727
  18   1.0000      -0.486133       -13.2284
  19   1.0000      -0.445024       -12.1097
  20   1.0000      -0.426184       -11.5971
  21   1.0000      -0.423549       -11.5253
  22   1.0000      -0.420317       -11.4374
  23   1.0000      -0.359582        -9.7847
  24   1.0000      -0.356262        -9.6944
  25   1.0000      -0.339270        -9.2320
  26   1.0000      -0.329708        -8.9718
  27   1.0000      -0.247446        -6.7333
  28   1.0000      -0.210883        -5.7384
  29   0.0000      -0.057245        -1.5577
  30   0.0000      -0.053739        -1.4623
  31   0.0000      -0.001819        -0.0495
  32   0.0000       0.013915         0.3786
  33   0.0000       0.018708         0.5091

                 SPIN DOWN ORBITALS
  NO   OCC          E(Eh)            E(eV)
   0   1.0000     -14.223765      -387.0483
   1   1.0000     -14.223742      -387.0477
   2   1.0000     -10.132435      -275.7176
   3   1.0000     -10.132171      -275.7104
   4   1.0000     -10.067283      -273.9447
   5   1.0000     -10.066943      -273.9354
   6   1.0000     -10.064379      -273.8657
   7   1.0000     -10.064362      -273.8652
   8   1.0000      -0.951840       -25.9009
   9   1.0000      -0.910447       -24.7745
  10   1.0000      -0.826294       -22.4846
  11   1.0000      -0.735340       -20.0096
  12   1.0000      -0.711838       -19.3701
  13   1.0000      -0.618228       -16.8228
  14   1.0000      -0.606555       -16.5052
  15   1.0000      -0.548195       -14.9171
  16   1.0000      -0.520906       -14.1746
  17   1.0000      -0.513899       -13.9839
  18   1.0000      -0.481818       -13.1109
  19   1.0000      -0.442542       -12.0422
  20   1.0000      -0.420556       -11.4439
  21   1.0000      -0.419280       -11.4092
  22   1.0000      -0.403091       -10.9687
  23   1.0000      -0.357896        -9.7389
  24   1.0000      -0.341514        -9.2931
  25   1.0000      -0.327999        -8.9253
  26   1.0000      -0.311019        -8.4633
  27   1.0000      -0.236614        -6.4386
  28   0.0000      -0.175151        -4.7661
  29   0.0000      -0.044734        -1.2173
  30   0.0000      -0.026809        -0.7295
  31   0.0000       0.000582         0.0158
  32   0.0000       0.016101         0.4381

MULLIKEN ATOMIC CHARGES AND SPIN POPULATIONS
--------------------------------------------
   0 C :   -0.759258   -0.072288
   1 C :   -0.387995    0.131336
   2 C :   -0.388236    0.131594
   3 C :   -0.759056   -0.072539
   4 C :    1.170883    0.195508
   5 N :   -0.498568    0.260060
   6 H :    0.078680   -0.006063
   7 H :    0.055292   -0.008887
   8 C :    1.172249    0.195312
   9 N :   -0.498598    0.260217
  10 H :    0.078468   -0.006080
  11 H :    0.055127   -0.008888
  12 H :    0.403961   -0.001163
  13 H :    0.436687    0.001524
  14 H :    0.436723    0.001521
  15 H :    0.403641   -0.001163
Sum of atomic charges         :    1.0000000

LOEWDIN ATOMIC CHARGES AND SPIN POPULATIONS
-------------------------------------------
   0 C :    0.247391    0.034781
   1 C :    0.225256    0.091621
   2 C :    0.225247    0.091685
   3 C :    0.247355    0.034739
   4 C :   -0.152921    0.137588
   5 N :    0.935876    0.176413
   6 H :   -0.233776    0.024517
   7 H :   -0.215752    0.021802
   8 C :   -0.152855    0.137577
   9 N :    0.935972    0.176479
  10 H :   -0.233703    0.024526
  11 H :   -0.215754    0.021815
  12 H :   -0.150345   -0.003370
  13 H :   -0.155828    0.016603
  14 H :   -0.155831    0.016579
  15 H :   -0.150334   -0.003354

  Mayer bond orders larger than 0.100000
B(  0-C ,  1-C ) :   1.3384 B(  0-C ,  8-C ) :   0.6440 B(  0-C ,  9-N ) :  -0.1503
B(  0-C , 15-H ) :   0.5019 B(  1-C ,  2-C ) :   0.9769 B(  1-C ,  8-C ) :  -0.1592
B(  1-C , 14-H ) :   0.6325 B(  2-C ,  3-C ) :   1.3391 B(  2-C ,  4-C ) :  -0.1590
B(  2-C , 13-H ) :   0.6327 B(  3-C ,  4-C ) :   0.6444 B(  3-C ,  5-N ) :  -0.1502
B(  3-C , 12-H ) :   0.5015 B(  4-C ,  5-N ) :   0.4247 B(  4-C ,  7-H ) :  -0.1103
B(  4-C ,  8-C ) :   0.5853 B(  5-N ,  6-H ) :   1.0972 B(  5-N ,  7-H ) :   1.1414
B(  8-C ,  9-N ) :   0.4245 B(  8-C , 11-H ) :  -0.1104 B(  9-N , 10-H ) :   1.0978
B(  9-N , 11-H ) :   1.1414

Dispersion correction           -0.004675772
FINAL SINGLE POINT ENERGY      -342.745286442421

DIPOLE MOMENT
-------------

Method             : SCF
Type of density    : Electron Density
Multiplicity       :   2
Irrep              :   0
Energy             :  -342.7406106699916677 Eh
Relativity type    :
Basis              : AO
                                X                 Y                 Z
Electronic contribution:      0.788361897       0.000509554      -0.000324207
Nuclear contribution   :      1.369385413      -0.000054655       0.000118438
                        -----------------------------------------
Total Dipole Moment    :      2.157747310       0.000454899      -0.000205769
                        -----------------------------------------
Magnitude (a.u.)       :      2.157747367
Magnitude (Debye)      :      5.484557943

Rotational constants in cm-1:             0.106540             0.076353             0.044639
Rotational constants in MHz :          3194.002568          2289.017521          1338.230325

                             ****ORCA TERMINATED NORMALLY****
TOTAL RUN TIME: 0 days 0 hours 3 minutes 45 seconds 118 msec
