                         Program Version 6.0.0  -   RELEASE  -
|  1> !B3LYP opt aug-cc-pVTZ d3 TightSCF SlowConv RIJCOSX defgrid2
|  2>
|  3> %pal
|  4> nprocs 8
|  5> end
|  6>
|  7> %scf
|  8> MaxIter 1500
|  9> end
| 10>
| 11> %maxcore 3500
| 12>
| 13> !CPCM
| 14> %cpcm smd true
| 15> SMDsolvent "MeCN"
| 16> surfacetype gepol_ses
| 17> rsolv 2.19
| 18> end
| 19>
| 20> * xyz 0 1
| 21>   C           0.69139522684059     -1.22664316199288     -0.00221797916935
| 22>   C          -0.69208843426613     -1.22326302618807     -0.00196525733051
| 23>   C          -1.34616039220304      0.00368865913958     -0.00023297142970
| 24>   C          -0.66844027654226      1.21468227709966      0.00138953263473
| 25>   C           0.71843497009282      1.19248771948923      0.00066270652995
| 26>   C           1.40687036809188     -0.02425170438717     -0.00101619596594
| 27>   C           2.90525430739599     -0.08038259963976     -0.00146963485712
| 28>   O           3.47382029732778     -1.16302464690175      0.00111415420213
| 29>   C           3.67189657948305      1.21206200897054     -0.00465317637956
| 30>   H           3.41916712103349      1.80793633317031      0.87637239446926
| 31>   H           4.73910184710129      1.00122370195943     -0.00799457044905
| 32>   H           3.41331173583201      1.80745504721735     -0.88415133468888
| 33>   H           1.25644606715329      2.13013407948356      0.00099979092485
| 34>   H          -1.21526162161310      2.14578953100855      0.00342527162178
| 35>   N          -2.81540793846571      0.01898129684798      0.00093485387668
| 36>   O          -3.38103867502306      1.10941225945787      0.00330237637192
| 37>   O          -3.40288918840984     -1.05983019471924     -0.00027163185462
| 38>   H          -1.25884617768305     -2.14248628889820     -0.00267181367981
| 39>   H           1.23537608385400     -2.16135779111698     -0.00359121482675
| 40> *
| 41>
| 42>                          ****END OF INPUT****
 Total Charge           Charge          ....    0
 Multiplicity           Mult            ....    1
 Number of Electrons    NEL             ....   86
Dispersion correction           -0.036005001
FINAL SINGLE POINT ENERGY      -589.353283490078
Dispersion correction             ... done (  0.1 sec)
Dispersion correction           -0.036014097
FINAL SINGLE POINT ENERGY      -589.353374101546
Dispersion correction             ... done (  0.1 sec)
Dispersion correction           -0.036013322
FINAL SINGLE POINT ENERGY      -589.353372990394
Dispersion correction             ... done (  0.0 sec)
FINAL SINGLE POINT ENERGY      -589.353353389255
FINAL SINGLE POINT ENERGY      -589.353383976653
Dispersion correction             ... done (  0.1 sec)
Dispersion correction           -0.036010176
FINAL SINGLE POINT ENERGY      -589.353379133502
Dispersion correction             ... done (  0.1 sec)
Dispersion correction           -0.036009765
FINAL SINGLE POINT ENERGY      -589.353383458183
Dispersion correction             ... done (  0.0 sec)
                    ***********************HURRAY********************

CARTESIAN COORDINATES (ANGSTROEM)
---------------------------------
  C      0.690415   -1.223814   -0.002045
  C     -0.691663   -1.219940   -0.002087
  C     -1.349266    0.003650   -0.000250
  C     -0.668309    1.211313    0.001719
  C      0.717054    1.189555    0.001306
  C      1.406986   -0.024246   -0.000454
  C      2.906938   -0.079957   -0.000941
  O      3.475693   -1.157934    0.001742
  C      3.673272    1.211295   -0.005086
  H      3.422371    1.808313    0.873653
  H      4.739218    1.000508   -0.007990
  H      3.416953    1.806012   -0.883681
  H      1.251074    2.126922    0.001812
  H     -1.209101    2.143666    0.003796
  N     -2.817849    0.018675    0.000646
  O     -3.384177    1.104797    0.004184
  O     -3.405286   -1.056190   -0.001713
  H     -1.252247   -2.140655   -0.003096
  H      1.228868   -2.159358   -0.003549

 Multiplicity           Mult            ....    1
 Number of Electrons    NEL             ....   86
 Basis Dimension        Dim             ....  713

ORBITAL ENERGIES
----------------

  NO   OCC          E(Eh)            E(eV)
   0   2.0000     -19.173523      -521.7381
   1   2.0000     -19.173468      -521.7366
   2   2.0000     -19.125485      -520.4309
   3   2.0000     -14.565769      -396.3547
   4   2.0000     -10.272191      -279.5205
   5   2.0000     -10.245051      -278.7820
   6   2.0000     -10.205050      -277.6935
   7   2.0000     -10.202208      -277.6162
   8   2.0000     -10.201511      -277.5972
   9   2.0000     -10.198297      -277.5098
  10   2.0000     -10.195372      -277.4302
  11   2.0000     -10.166761      -276.6516
  12   2.0000      -1.242922       -33.8216
  13   2.0000      -1.068129       -29.0653
  14   2.0000      -1.051343       -28.6085
  15   2.0000      -0.896473       -24.3943
  16   2.0000      -0.820557       -22.3285
  17   2.0000      -0.775430       -21.1005
  18   2.0000      -0.751056       -20.4373
  19   2.0000      -0.708182       -19.2706
  20   2.0000      -0.632429       -17.2093
  21   2.0000      -0.615051       -16.7364
  22   2.0000      -0.572759       -15.5856
  23   2.0000      -0.561555       -15.2807
  24   2.0000      -0.548674       -14.9302
  25   2.0000      -0.530756       -14.4426
  26   2.0000      -0.492936       -13.4135
  27   2.0000      -0.483082       -13.1453
  28   2.0000      -0.463265       -12.6061
  29   2.0000      -0.447397       -12.1743
  30   2.0000      -0.445709       -12.1284
  31   2.0000      -0.430350       -11.7104
  32   2.0000      -0.418318       -11.3830
  33   2.0000      -0.394386       -10.7318
  34   2.0000      -0.383152       -10.4261
  35   2.0000      -0.365191        -9.9374
  36   2.0000      -0.364968        -9.9313
  37   2.0000      -0.330825        -9.0022
  38   2.0000      -0.328165        -8.9298
  39   2.0000      -0.309596        -8.4245
  40   2.0000      -0.285410        -7.7664
  41   2.0000      -0.279313        -7.6005
  42   2.0000      -0.265735        -7.2310
  43   0.0000      -0.111955        -3.0464
  44   0.0000      -0.051460        -1.4003
  45   0.0000      -0.031519        -0.8577
  46   0.0000      -0.004703        -0.1280
  47   0.0000       0.008833         0.2403

MULLIKEN ATOMIC CHARGES
-----------------------
   0 C :   -0.844384
   1 C :   -0.403287
   2 C :    0.493801
   3 C :   -0.655678
   4 C :   -0.314507
   5 C :    1.299667
   6 C :    0.653183
   7 O :   -0.925327
   8 C :   -0.584266
   9 H :    0.255243
  10 H :    0.182280
  11 H :    0.254614
  12 H :    0.097920
  13 H :    0.459375
  14 N :    0.755283
  15 O :   -0.684836
  16 O :   -0.683711
  17 H :    0.518919
  18 H :    0.125713
Sum of atomic charges:   -0.0000000

LOEWDIN ATOMIC CHARGES
----------------------
   0 C :    0.224351
   1 C :    0.226084
   2 C :   -0.221020
   3 C :    0.231388
   4 C :    0.238301
   5 C :   -0.102411
   6 C :   -0.521592
   7 O :    0.492076
   8 C :    0.577912
   9 H :   -0.159276
  10 H :   -0.176370
  11 H :   -0.159395
  12 H :   -0.174443
  13 H :   -0.186530
  14 N :   -0.730546
  15 O :    0.405565
  16 O :    0.405862
  17 H :   -0.187973
  18 H :   -0.181986

  Mayer bond orders larger than 0.100000
B(  0-C ,  1-C ) :   1.3463 B(  0-C ,  2-C ) :  -0.3272 B(  0-C ,  4-C ) :  -0.3778
B(  0-C ,  5-C ) :   0.3186 B(  0-C ,  6-C ) :   0.2726 B(  0-C , 16-O ) :  -0.1074
B(  0-C , 18-H ) :   1.1453 B(  1-C ,  2-C ) :   0.9870 B(  1-C ,  3-C ) :   0.1362
B(  1-C ,  4-C ) :  -0.1033 B(  1-C ,  5-C ) :   0.1874 B(  1-C , 14-N ) :  -0.1249
B(  1-C , 17-H ) :   0.4258 B(  2-C ,  3-C ) :   0.8659 B(  2-C ,  4-C ) :  -0.2548
B(  2-C , 14-N ) :   1.1416 B(  2-C , 15-O ) :   0.4196 B(  2-C , 16-O ) :   0.4366
B(  3-C ,  4-C ) :   0.9559 B(  3-C ,  5-C ) :   0.2279 B(  3-C , 13-H ) :   0.5047
B(  3-C , 14-N ) :  -0.1870 B(  4-C ,  5-C ) :   0.5054 B(  4-C ,  6-C ) :   0.1285
B(  4-C , 12-H ) :   1.2826 B(  5-C ,  6-C ) :   0.2232 B(  5-C ,  7-O ) :   0.1729
B(  5-C , 12-H ) :  -0.1781 B(  5-C , 18-H ) :  -0.1188 B(  6-C ,  7-O ) :   0.8716
B(  6-C ,  8-C ) :   0.9282 B(  7-O , 18-H ) :   0.1624 B(  8-C ,  9-H ) :   0.9640
B(  8-C , 10-H ) :   0.9615 B(  8-C , 11-H ) :   0.9644 B( 14-N , 15-O ) :   0.8660
B( 14-N , 16-O ) :   0.8741 B( 15-O , 16-O ) :   0.1987

Dispersion correction           -0.036009486
FINAL SINGLE POINT ENERGY      -589.353383752820

DIPOLE MOMENT
-------------

Method             : SCF
Type of density    : Electron Density
Multiplicity       :   1
Irrep              :   0
Energy             :  -589.3173742667870556 Eh
Relativity type    :
Basis              : AO
                                X                 Y                 Z
Electronic contribution:     -9.356641645      -2.934824004       0.011225225
Nuclear contribution   :     10.835588484       4.287157368      -0.016333345
                        -----------------------------------------
Total Dipole Moment    :      1.478946839       1.352333364      -0.005108120
                        -----------------------------------------
Magnitude (a.u.)       :      2.004024793
Magnitude (Debye)      :      5.093826211

Rotational constants in cm-1:             0.096504             0.015913             0.013695
Rotational constants in MHz :          2893.104406           477.047621           410.557317

                             ****ORCA TERMINATED NORMALLY****
TOTAL RUN TIME: 0 days 0 hours 37 minutes 21 seconds 187 msec
