                         Program Version 6.0.0  -   RELEASE  -
|  1> !r2SCANh opt aug-cc-pVTZ d3 TightSCF SlowConv RIJCOSX defgrid2
|  2>
|  3> %pal
|  4> nprocs 8
|  5> end
|  6>
|  7> %scf
|  8> MaxIter 1500
|  9> end
| 10>
| 11> %maxcore 3500
| 12>
| 13> !CPCM
| 14> %cpcm smd true
| 15> SMDsolvent "MeCN"
| 16> surfacetype gepol_ses
| 17> rsolv 2.19
| 18> end
| 19>
| 20> * xyz 0 1
| 21>   C           1.35417777117907     -0.65406995240560      0.79948726944426
| 22>   C           2.60438513280883     -1.25994276894922      0.84954003747904
| 23>   C           3.68344790380097     -0.71999641049965      0.15497211057626
| 24>   C           3.50660738351577      0.43947194664888     -0.59401215387855
| 25>   C           2.26060390365759      1.05304135560245     -0.65888291426072
| 26>   C           1.19171004686849      0.49898658044043      0.03645013929688
| 27>   O          -0.00001641304932      1.19288277645614      0.00010190817305
| 28>   C          -1.19171118388442      0.49900233774687     -0.03638058606476
| 29>   C          -2.26073143386919      1.05309671680890      0.65874573635241
| 30>   C          -3.50672129933369      0.43951119140539      0.59370893351233
| 31>   C          -3.68343750339537     -0.72003192620985     -0.15518626198969
| 32>   C          -2.60425130219278     -1.26007972735717     -0.84947443996517
| 33>   C          -1.35407111022235     -0.65417339438681     -0.79927336088568
| 34>   H          -0.51726340198580     -1.06965515696509     -1.34679672259882
| 35>   H          -2.73380230233493     -2.15751438471684     -1.44311666275030
| 36>   H          -4.65433657701428     -1.19810235944476     -0.20028196634197
| 37>   H          -4.34007086552899      0.87022201246994      1.13631011439279
| 38>   H          -2.10719151371809      1.95492125572489      1.23885613902283
| 39>   H           2.10696960257248      1.95483629764118     -1.23902045617933
| 40>   H           4.33987477531195      0.87015227662086     -1.13676761059202
| 41>   H           4.65436181626334     -1.19805192085525      0.19996962143919
| 42>   H           2.73406310958975     -2.15728853568205      1.44329395480944
| 43>   H           0.51745176096101     -1.06946241009361      1.34721687100852
| 44> *
| 45>
| 46>                          ****END OF INPUT****
 Total Charge           Charge          ....    0
 Multiplicity           Mult            ....    1
 Number of Electrons    NEL             ....   90
Dispersion correction           -0.008649336
FINAL SINGLE POINT ENERGY      -538.395280682465
Dispersion correction             ... done (  0.0 sec)
Dispersion correction           -0.008664526
FINAL SINGLE POINT ENERGY      -538.395421838401
Dispersion correction             ... done (  0.0 sec)
Dispersion correction           -0.008666372
FINAL SINGLE POINT ENERGY      -538.395427734405
Dispersion correction             ... done (  0.0 sec)
                    ***********************HURRAY********************

CARTESIAN COORDINATES (ANGSTROEM)
---------------------------------
  C      1.349159   -0.643006    0.808185
  C      2.594850   -1.251607    0.858317
  C      3.670791   -0.722045    0.156781
  C      3.495163    0.429448   -0.599331
  C      2.253315    1.045224   -0.664046
  C      1.187416    0.502067    0.038434
  O     -0.000014    1.193675    0.000295
  C     -1.187401    0.502103   -0.038173
  C     -2.253537    1.045313    0.663936
  C     -3.495375    0.429546    0.598862
  C     -3.670788   -0.722025   -0.157176
  C     -2.594621   -1.251718   -0.858259
  C     -1.348951   -0.643104   -0.807781
  H     -0.514157   -1.050936   -1.360294
  H     -2.723118   -2.143381   -1.457129
  H     -4.638463   -1.202106   -0.202494
  H     -4.326548    0.852199    1.147091
  H     -2.101106    1.941076    1.249990
  H      2.100712    1.940963   -1.250096
  H      4.326177    0.852047   -1.147848
  H      4.638477   -1.202129    0.201859
  H      2.723562   -2.143180    1.457283
  H      0.514506   -1.050666    1.361056

 Multiplicity           Mult            ....    1
 Number of Electrons    NEL             ....   90
 Basis Dimension        Dim             ....  828

ORBITAL ENERGIES
----------------

  NO   OCC          E(Eh)            E(eV)
   0   2.0000     -19.164441      -521.4910
   1   2.0000     -10.224679      -278.2276
   2   2.0000     -10.224640      -278.2266
   3   2.0000     -10.162543      -276.5369
   4   2.0000     -10.162512      -276.5360
   5   2.0000     -10.162198      -276.5275
   6   2.0000     -10.162172      -276.5268
   7   2.0000     -10.160348      -276.4771
   8   2.0000     -10.160294      -276.4757
   9   2.0000     -10.158759      -276.4339
  10   2.0000     -10.158736      -276.4333
  11   2.0000     -10.155456      -276.3440
  12   2.0000     -10.155437      -276.3435
  13   2.0000      -1.093064       -29.7438
  14   2.0000      -0.870014       -23.6743
  15   2.0000      -0.855558       -23.2809
  16   2.0000      -0.769047       -20.9268
  17   2.0000      -0.755388       -20.5552
  18   2.0000      -0.751415       -20.4470
  19   2.0000      -0.727540       -19.7974
  20   2.0000      -0.635546       -17.2941
  21   2.0000      -0.616909       -16.7870
  22   2.0000      -0.605234       -16.4692
  23   2.0000      -0.578064       -15.7299
  24   2.0000      -0.543131       -14.7793
  25   2.0000      -0.504325       -13.7234
  26   2.0000      -0.480124       -13.0648
  27   2.0000      -0.472683       -12.8623
  28   2.0000      -0.464760       -12.6468
  29   2.0000      -0.436585       -11.8801
  30   2.0000      -0.432404       -11.7663
  31   2.0000      -0.416483       -11.3331
  32   2.0000      -0.415643       -11.3102
  33   2.0000      -0.400981       -10.9112
  34   2.0000      -0.393470       -10.7069
  35   2.0000      -0.366039        -9.9604
  36   2.0000      -0.355019        -9.6606
  37   2.0000      -0.349243        -9.5034
  38   2.0000      -0.348477        -9.4825
  39   2.0000      -0.328535        -8.9399
  40   2.0000      -0.322456        -8.7745
  41   2.0000      -0.262381        -7.1398
  42   2.0000      -0.255875        -6.9627
  43   2.0000      -0.253171        -6.8891
  44   2.0000      -0.221048        -6.0150
  45   0.0000      -0.035929        -0.9777
  46   0.0000      -0.027634        -0.7519
  47   0.0000      -0.020166        -0.5487
  48   0.0000      -0.009428        -0.2565
  49   0.0000       0.009209         0.2506

MULLIKEN ATOMIC CHARGES
-----------------------
   0 C :   -0.463164
   1 C :   -0.636661
   2 C :   -0.529382
   3 C :   -0.396664
   4 C :   -1.323662
   5 C :    1.491010
   6 O :   -0.834809
   7 C :    1.486630
   8 C :   -1.324291
   9 C :   -0.394497
  10 C :   -0.530307
  11 C :   -0.636601
  12 C :   -0.461342
  13 H :    0.554867
  14 H :    0.353554
  15 H :    0.484861
  16 H :    0.378031
  17 H :    0.505250
  18 H :    0.506780
  19 H :    0.373578
  20 H :    0.485461
  21 H :    0.353891
  22 H :    0.557469
Sum of atomic charges:   -0.0000000

LOEWDIN ATOMIC CHARGES
----------------------
   0 C :    0.201449
   1 C :    0.192340
   2 C :    0.187573
   3 C :    0.185640
   4 C :    0.206394
   5 C :   -0.401494
   6 O :    0.622283
   7 C :   -0.401551
   8 C :    0.206367
   9 C :    0.185636
  10 C :    0.187587
  11 C :    0.192350
  12 C :    0.201363
  13 H :   -0.172197
  14 H :   -0.175751
  15 H :   -0.182998
  16 H :   -0.177148
  17 H :   -0.174897
  18 H :   -0.174900
  19 H :   -0.177164
  20 H :   -0.183012
  21 H :   -0.175775
  22 H :   -0.172095

  Mayer bond orders larger than 0.100000
B(  0-C ,  1-C ) :   1.0779 B(  0-C ,  2-C ) :   0.1080 B(  0-C ,  3-C ) :  -0.1209
B(  0-C ,  4-C ) :   0.4214 B(  0-C ,  5-C ) :   0.8192 B(  0-C ,  7-C ) :  -0.1294
B(  0-C , 12-C ) :   0.3319 B(  0-C , 22-H ) :   0.3566 B(  1-C ,  2-C ) :   1.1914
B(  1-C ,  3-C ) :  -0.1009 B(  1-C ,  4-C ) :  -0.2089 B(  1-C ,  5-C ) :  -0.3134
B(  1-C , 21-H ) :   0.8561 B(  2-C ,  3-C ) :   1.1900 B(  2-C ,  4-C ) :   0.4927
B(  2-C ,  5-C ) :  -0.1608 B(  2-C , 20-H ) :   0.5920 B(  3-C ,  4-C ) :   1.2167
B(  3-C ,  5-C ) :  -0.3583 B(  3-C , 19-H ) :   0.8092 B(  4-C ,  6-O ) :   0.1621
B(  4-C , 18-H ) :   0.2776 B(  5-C ,  6-O ) :   0.5160 B(  5-C , 12-C ) :  -0.1305
B(  6-O ,  7-C ) :   0.5183 B(  6-O ,  8-C ) :   0.1610 B(  7-C ,  9-C ) :  -0.3562
B(  7-C , 10-C ) :  -0.1604 B(  7-C , 11-C ) :  -0.3126 B(  7-C , 12-C ) :   0.8208
B(  8-C ,  9-C ) :   1.2194 B(  8-C , 10-C ) :   0.4904 B(  8-C , 11-C ) :  -0.2100
B(  8-C , 12-C ) :   0.4188 B(  8-C , 17-H ) :   0.2805 B(  9-C , 10-C ) :   1.1894
B(  9-C , 12-C ) :  -0.1222 B(  9-C , 16-H ) :   0.8023 B( 10-C , 11-C ) :   1.1934
B( 10-C , 12-C ) :   0.1079 B( 10-C , 15-H ) :   0.5941 B( 11-C , 12-C ) :   1.0806
B( 11-C , 14-H ) :   0.8561 B( 12-C , 13-H ) :   0.3586

Dispersion correction           -0.008667322
FINAL SINGLE POINT ENERGY      -538.395428090794

DIPOLE MOMENT
-------------

Method             : SCF
Type of density    : Electron Density
Multiplicity       :   1
Irrep              :   0
Energy             :  -538.3867607683715732 Eh
Relativity type    :
Basis              : AO
                                X                 Y                 Z
Electronic contribution:     -0.000504307       2.490977343       0.000659196
Nuclear contribution   :      0.000036378      -3.017522520      -0.000604395
                        -----------------------------------------
Total Dipole Moment    :     -0.000467929      -0.526545177       0.000054800
                        -----------------------------------------
Magnitude (a.u.)       :      0.526545387
Magnitude (Debye)      :      1.338372013

Rotational constants in cm-1:             0.080206             0.014645             0.013738
Rotational constants in MHz :          2404.521702           439.049082           411.863425

                             ****ORCA TERMINATED NORMALLY****
TOTAL RUN TIME: 0 days 0 hours 27 minutes 39 seconds 715 msec
