                         Program Version 6.0.0  -   RELEASE  -
|  1> !PBE0 aug-cc-pVTZ d3 TightSCF SlowConv RIJCOSX defgrid2
|  2>
|  3> %pal
|  4> nprocs 4
|  5> end
|  6>
|  7> %scf
|  8> MaxIter 1500
|  9> end
| 10>
| 11> %maxcore 3000
| 12>
| 13> !CPCM
| 14> %cpcm smd true
| 15> SMDsolvent "MeCN"
| 16> surfacetype gepol_ses
| 17> rsolv 2.19
| 18> end
| 19>
| 20> * xyz 0 1
| 21> C           1.70794904224376      1.04467574002160     -0.00082115823630
| 22> C           0.54506091843343      1.80041636987342      0.00092727542514
| 23> C          -0.71995737134675      1.20789382518015      0.00266725175734
| 24> C          -0.79928034034382     -0.18958869725345      0.00203404950996
| 25> C           0.36555187029785     -0.96292788679972     -0.00127682462626
| 26> C           1.62853570763603     -0.36210788791669     -0.00033727635058
| 27> N           2.77536570496609     -1.13072452733301      0.04605337906448
| 28> H           2.68782736481958     -2.09774939602609     -0.24334837672475
| 29> H           3.63153622370525     -0.68698285577236     -0.26446400959356
| 30> H           0.26012985099536     -2.05117646749275      0.00119199205899
| 31> O          -1.95887797909201     -0.88292631196206      0.00111465750073
| 32> C          -3.16473217214371     -0.17733625608172      0.00517658162857
| 33> H          -3.96763161416444     -0.93012200833219      0.00565020749220
| 34> H          -3.27146637162925      0.46046835612956     -0.89370073464759
| 35> H          -3.26716187551626      0.45698983325543      0.90693586054833
| 36> H          -1.61360225529630      1.83287965977611      0.00353042246975
| 37> H           0.61871381842504      2.89254399544489      0.00007743154790
| 38> H           2.68668417801016      1.53365321528886      0.00373907117562
| 39> *
| 40>
| 41>                          ****END OF INPUT****

CARTESIAN COORDINATES (ANGSTROEM)
---------------------------------
  C      1.707949    1.044676   -0.000821
  C      0.545061    1.800416    0.000927
  C     -0.719957    1.207894    0.002667
  C     -0.799280   -0.189589    0.002034
  C      0.365552   -0.962928   -0.001277
  C      1.628536   -0.362108   -0.000337
  N      2.775366   -1.130725    0.046053
  H      2.687827   -2.097749   -0.243348
  H      3.631536   -0.686983   -0.264464
  H      0.260130   -2.051176    0.001192
  O     -1.958878   -0.882926    0.001115
  C     -3.164732   -0.177336    0.005177
  H     -3.967632   -0.930122    0.005650
  H     -3.271466    0.460468   -0.893701
  H     -3.267162    0.456990    0.906936
  H     -1.613602    1.832880    0.003530
  H      0.618714    2.892544    0.000077
  H      2.686684    1.533653    0.003739

 Total Charge           Charge          ....    0
 Multiplicity           Mult            ....    1
 Number of Electrons    NEL             ....   66
 Basis Dimension        Dim             ....  621

ORBITAL ENERGIES
----------------

  NO   OCC          E(Eh)            E(eV)
   0   2.0000     -19.241675      -523.5926
   1   2.0000     -14.385374      -391.4459
   2   2.0000     -10.288380      -279.9610
   3   2.0000     -10.271446      -279.5002
   4   2.0000     -10.264466      -279.3103
   5   2.0000     -10.229997      -278.3724
   6   2.0000     -10.215944      -277.9900
   7   2.0000     -10.215806      -277.9862
   8   2.0000     -10.215750      -277.9847
   9   2.0000      -1.104220       -30.0474
  10   2.0000      -0.943910       -25.6851
  11   2.0000      -0.860469       -23.4146
  12   2.0000      -0.778441       -21.1825
  13   2.0000      -0.747026       -20.3276
  14   2.0000      -0.709151       -19.2970
  15   2.0000      -0.628930       -17.1140
  16   2.0000      -0.605759       -16.4835
  17   2.0000      -0.551492       -15.0069
  18   2.0000      -0.529436       -14.4067
  19   2.0000      -0.495953       -13.4956
  20   2.0000      -0.481979       -13.1153
  21   2.0000      -0.480368       -13.0715
  22   2.0000      -0.471374       -12.8268
  23   2.0000      -0.430207       -11.7065
  24   2.0000      -0.415088       -11.2951
  25   2.0000      -0.404932       -11.0188
  26   2.0000      -0.379207       -10.3188
  27   2.0000      -0.370756       -10.0888
  28   2.0000      -0.354185        -9.6379
  29   2.0000      -0.336249        -9.1498
  30   2.0000      -0.312733        -8.5099
  31   2.0000      -0.239318        -6.5122
  32   2.0000      -0.217277        -5.9124
  33   0.0000      -0.004442        -0.1209
  34   0.0000       0.001351         0.0368
  35   0.0000       0.011790         0.3208
  36   0.0000       0.014926         0.4062
  37   0.0000       0.016419         0.4468

MULLIKEN ATOMIC CHARGES
-----------------------
   0 C :   -0.855738
   1 C :   -0.507790
   2 C :   -0.638678
   3 C :    0.915178
   4 C :   -1.078444
   5 C :    0.999262
   6 N :   -0.596539
   7 H :    0.059585
   8 H :    0.061383
   9 H :    0.488570
  10 O :   -0.596642
  11 C :   -0.701062
  12 H :    0.266151
  13 H :    0.279892
  14 H :    0.282702
  15 H :    0.552604
  16 H :    0.558311
  17 H :    0.511255
Sum of atomic charges:   -0.0000000

LOEWDIN ATOMIC CHARGES
----------------------
   0 C :    0.190742
   1 C :    0.154605
   2 C :    0.177548
   3 C :   -0.428865
   4 C :    0.206534
   5 C :   -0.285937
   6 N :    0.853269
   7 H :   -0.283416
   8 H :   -0.284179
   9 H :   -0.169586
  10 O :    0.591926
  11 C :    0.306672
  12 H :   -0.168601
  13 H :   -0.160344
  14 H :   -0.160357
  15 H :   -0.198522
  16 H :   -0.168895
  17 H :   -0.172595

  Mayer bond orders larger than 0.100000
B(  0-C ,  1-C ) :   1.3092 B(  0-C ,  2-C ) :   0.2753 B(  0-C ,  3-C ) :  -0.1343
B(  0-C ,  4-C ) :   0.4940 B(  0-C ,  5-C ) :   0.7465 B(  0-C , 17-H ) :   0.4188
B(  1-C ,  2-C ) :   1.0762 B(  1-C ,  3-C ) :  -0.2486 B(  1-C ,  4-C ) :  -0.1358
B(  1-C ,  5-C ) :  -0.1943 B(  1-C , 16-H ) :   0.4947 B(  2-C ,  3-C ) :   0.9137
B(  2-C ,  4-C ) :   0.4225 B(  2-C ,  5-C ) :  -0.1277 B(  2-C , 10-O ) :  -0.1002
B(  2-C , 15-H ) :   0.3666 B(  3-C ,  4-C ) :   0.6147 B(  3-C ,  5-C ) :  -0.1525
B(  3-C , 10-O ) :   0.4545 B(  4-C ,  5-C ) :   0.7776 B(  4-C ,  9-H ) :   0.3343
B(  4-C , 10-O ) :   0.2809 B(  5-C ,  6-N ) :   0.5803 B(  5-C ,  9-H ) :   0.1292
B(  6-N ,  7-H ) :   1.0895 B(  6-N ,  8-H ) :   1.0897 B( 10-O , 11-C ) :   1.0266
B( 11-C , 12-H ) :   0.9384 B( 11-C , 13-H ) :   0.9049 B( 11-C , 14-H ) :   0.9036

Dispersion correction           -0.015080841
FINAL SINGLE POINT ENERGY      -401.837025896566

DIPOLE MOMENT
-------------

Method             : SCF
Type of density    : Electron Density
Multiplicity       :   1
Irrep              :   0
Energy             :  -401.8219450557629102 Eh
Relativity type    :
Basis              : AO
                                X                 Y                 Z
Electronic contribution:      2.274094866      -1.324527414       0.030024154
Nuclear contribution   :     -2.112843888       1.316658506      -0.469607068
                        -----------------------------------------
Total Dipole Moment    :      0.161250978      -0.007868907      -0.439582914
                        -----------------------------------------
Magnitude (a.u.)       :      0.468291507
Magnitude (Debye)      :      1.190302417

Rotational constants in cm-1:             0.120502             0.037824             0.028965
Rotational constants in MHz :          3612.547947          1133.927652           868.354096

                             ****ORCA TERMINATED NORMALLY****
TOTAL RUN TIME: 0 days 0 hours 5 minutes 9 seconds 995 msec
