                         Program Version 6.0.0  -   RELEASE  -
|  1> !B3LYP freq aug-cc-pVTZ d3 TightSCF SlowConv RIJCOSX defgrid2
|  2>
|  3> %pal
|  4> nprocs 12
|  5>
|  6> end
|  7>
|  8> %scf
|  9> MaxIter 1500
| 10> end
| 11>
| 12> %maxcore 5000
| 13>
| 14> !CPCM
| 15> %cpcm smd true
| 16> SMDsolvent "MeCN"
| 17> surfacetype gepol_ses
| 18> rsolv 2.19
| 19> end
| 20>
| 21> * xyz 1 2
| 22>   C          -0.33586887131186      0.86326290349335      0.00275975385528
| 23>   C          -1.60369240806671      0.30149112444294      0.00128495501917
| 24>   C          -1.75512191342163     -1.11775868949832      0.00072619271776
| 25>   C          -0.63448935719653     -1.93391616894448      0.00393994290950
| 26>   C           0.62783531805343     -1.38021404759853      0.00602565784888
| 27>   C           0.79500882314234      0.04916214103711      0.00397573350195
| 28>   C           2.08873509723352      0.65092524331811      0.00357066437085
| 29>   C           3.27546200958122     -0.01864301417899     -0.00254359396505
| 30>   C           4.59162538023309      0.64202609847884     -0.00322927701473
| 31>   H           5.16611682932617      0.31962411174294     -0.87853380820332
| 32>   H           5.17259064558549      0.30699856591939      0.86296984050660
| 33>   H           4.51905219066811      1.72745155310174      0.00466268324061
| 34>   H           3.28581316959379     -1.10126630981156     -0.00836906575839
| 35>   H           2.11321140360627      1.73434723837472      0.00640776542937
| 36>   H           1.49064209532812     -2.02640760768408      0.01002450556494
| 37>   H          -0.75669877471184     -3.00669209822086      0.00487677059878
| 38>   H          -2.73923743799183     -1.55892896120857     -0.00318364974669
| 39>   O          -2.63663949115467      1.13697726010298      0.00050172486190
| 40>   C          -3.98484758956115      0.62459720748230     -0.00340146610714
| 41>   H          -4.62248330680524      1.50205284406544     -0.00187029304885
| 42>   H          -4.16908785815216      0.03065617981517      0.89025271189061
| 43>   H          -4.16517027559859      0.03650103969865     -0.90163209598474
| 44>   H          -0.23559307837931      1.93908738607171      0.00202024751272
| 45> *
| 46>
| 47>                          ****END OF INPUT****

CARTESIAN COORDINATES (ANGSTROEM)
---------------------------------
  C     -0.335869    0.863263    0.002760
  C     -1.603692    0.301491    0.001285
  C     -1.755122   -1.117759    0.000726
  C     -0.634489   -1.933916    0.003940
  C      0.627835   -1.380214    0.006026
  C      0.795009    0.049162    0.003976
  C      2.088735    0.650925    0.003571
  C      3.275462   -0.018643   -0.002544
  C      4.591625    0.642026   -0.003229
  H      5.166117    0.319624   -0.878534
  H      5.172591    0.306999    0.862970
  H      4.519052    1.727452    0.004663
  H      3.285813   -1.101266   -0.008369
  H      2.113211    1.734347    0.006408
  H      1.490642   -2.026408    0.010025
  H     -0.756699   -3.006692    0.004877
  H     -2.739237   -1.558929   -0.003184
  O     -2.636639    1.136977    0.000502
  C     -3.984848    0.624597   -0.003401
  H     -4.622483    1.502053   -0.001870
  H     -4.169088    0.030656    0.890253
  H     -4.165170    0.036501   -0.901632
  H     -0.235593    1.939087    0.002020

 Total Charge           Charge          ....    1
 Multiplicity           Mult            ....    2
 Number of Electrons    NEL             ....   79
 Basis Dimension        Dim             ....  782

ORBITAL ENERGIES
----------------
                 SPIN UP ORBITALS
  NO   OCC          E(Eh)            E(eV)
   0   1.0000     -19.198887      -522.4283
   1   1.0000     -10.282325      -279.7963
   2   1.0000     -10.235962      -278.5347
   3   1.0000     -10.229455      -278.3576
   4   1.0000     -10.229182      -278.3502
   5   1.0000     -10.228489      -278.3313
   6   1.0000     -10.226250      -278.2704
   7   1.0000     -10.212738      -277.9027
   8   1.0000     -10.206030      -277.7202
   9   1.0000     -10.197858      -277.4978
  10   1.0000     -10.177510      -276.9441
  11   1.0000      -1.107514       -30.1370
  12   1.0000      -0.901839       -24.5403
  13   1.0000      -0.842555       -22.9271
  14   1.0000      -0.794949       -21.6317
  15   1.0000      -0.787177       -21.4202
  16   1.0000      -0.726287       -19.7633
  17   1.0000      -0.710918       -19.3451
  18   1.0000      -0.640951       -17.4412
  19   1.0000      -0.634225       -17.2581
  20   1.0000      -0.579926       -15.7806
  21   1.0000      -0.556909       -15.1543
  22   1.0000      -0.523391       -14.2422
  23   1.0000      -0.514481       -13.9997
  24   1.0000      -0.495239       -13.4761
  25   1.0000      -0.493736       -13.4352
  26   1.0000      -0.463489       -12.6122
  27   1.0000      -0.448697       -12.2097
  28   1.0000      -0.434039       -11.8108
  29   1.0000      -0.427549       -11.6342
  30   1.0000      -0.417790       -11.3686
  31   1.0000      -0.414977       -11.2921
  32   1.0000      -0.401946       -10.9375
  33   1.0000      -0.387110       -10.5338
  34   1.0000      -0.374117       -10.1802
  35   1.0000      -0.370492       -10.0816
  36   1.0000      -0.354450        -9.6451
  37   1.0000      -0.332628        -9.0513
  38   1.0000      -0.266791        -7.2598
  39   1.0000      -0.262159        -7.1337
  40   0.0000      -0.083770        -2.2795
  41   0.0000      -0.037414        -1.0181
  42   0.0000      -0.006187        -0.1684
  43   0.0000       0.001746         0.0475
  44   0.0000       0.006798         0.1850

                 SPIN DOWN ORBITALS
  NO   OCC          E(Eh)            E(eV)
   0   1.0000     -19.197002      -522.3770
   1   1.0000     -10.281797      -279.7819
   2   1.0000     -10.234797      -278.5030
   3   1.0000     -10.228556      -278.3332
   4   1.0000     -10.225660      -278.2543
   5   1.0000     -10.224274      -278.2166
   6   1.0000     -10.221350      -278.1371
   7   1.0000     -10.211880      -277.8794
   8   1.0000     -10.207754      -277.7671
   9   1.0000     -10.198473      -277.5146
  10   1.0000     -10.177583      -276.9461
  11   1.0000      -1.103995       -30.0412
  12   1.0000      -0.895638       -24.3716
  13   1.0000      -0.834980       -22.7209
  14   1.0000      -0.793158       -21.5829
  15   1.0000      -0.778924       -21.1956
  16   1.0000      -0.720537       -19.6068
  17   1.0000      -0.707864       -19.2620
  18   1.0000      -0.637832       -17.3563
  19   1.0000      -0.629937       -17.1414
  20   1.0000      -0.576763       -15.6945
  21   1.0000      -0.554551       -15.0901
  22   1.0000      -0.521104       -14.1800
  23   1.0000      -0.511665       -13.9231
  24   1.0000      -0.492106       -13.3909
  25   1.0000      -0.487211       -13.2577
  26   1.0000      -0.462714       -12.5911
  27   1.0000      -0.447726       -12.1832
  28   1.0000      -0.425912       -11.5896
  29   1.0000      -0.424343       -11.5470
  30   1.0000      -0.412700       -11.2301
  31   1.0000      -0.407312       -11.0835
  32   1.0000      -0.400351       -10.8941
  33   1.0000      -0.385705       -10.4956
  34   1.0000      -0.372302       -10.1308
  35   1.0000      -0.358233        -9.7480
  36   1.0000      -0.352548        -9.5933
  37   1.0000      -0.315496        -8.5851
  38   1.0000      -0.255188        -6.9440
  39   0.0000      -0.190371        -5.1803
  40   0.0000      -0.061328        -1.6688
  41   0.0000      -0.028130        -0.7655
  42   0.0000      -0.005934        -0.1615
  43   0.0000       0.001925         0.0524

MULLIKEN ATOMIC CHARGES AND SPIN POPULATIONS
--------------------------------------------
   0 C :   -0.850654   -0.066473
   1 C :    0.853768    0.044462
   2 C :    0.003625    0.344703
   3 C :   -0.922741   -0.120256
   4 C :   -0.396839    0.342573
   5 C :    1.810049    0.096114
   6 C :   -0.206188    0.080940
   7 C :   -0.258653    0.250962
   8 C :   -0.747743   -0.020066
   9 H :    0.218842    0.019418
  10 H :    0.220368    0.019256
  11 H :    0.256672   -0.003217
  12 H :    0.171698   -0.016658
  13 H :    0.049170    0.000123
  14 H :    0.272997   -0.023258
  15 H :    0.530464    0.004091
  16 H :    0.263356   -0.020598
  17 O :   -0.624269    0.064863
  18 C :   -0.615686   -0.001283
  19 H :    0.256379    0.000199
  20 H :    0.279750    0.001032
  21 H :    0.279137    0.001041
  22 H :    0.156496    0.002035
Sum of atomic charges         :    1.0000000

LOEWDIN ATOMIC CHARGES AND SPIN POPULATIONS
-------------------------------------------
   0 C :    0.252800   -0.001014
   1 C :   -0.342539    0.071284
   2 C :    0.291906    0.169540
   3 C :    0.270234    0.047749
   4 C :    0.291594    0.167515
   5 C :   -0.088350    0.088968
   6 C :    0.282091    0.087434
   7 C :    0.294373    0.143450
   8 C :    0.612116    0.047258
   9 H :   -0.146739    0.010651
  10 H :   -0.146917    0.010603
  11 H :   -0.161825    0.001183
  12 H :   -0.163962    0.023252
  13 H :   -0.158331    0.008725
  14 H :   -0.168919    0.034135
  15 H :   -0.152930   -0.008674
  16 H :   -0.166613    0.037187
  17 O :    0.635312    0.056423
  18 C :    0.412024    0.005564
  19 H :   -0.169002   -0.000264
  20 H :   -0.160338    0.001418
  21 H :   -0.160240    0.001413
  22 H :   -0.155744   -0.003801

  Mayer bond orders larger than 0.100000
B(  0-C ,  1-C ) :   0.6371 B(  0-C ,  2-C ) :  -0.1418 B(  0-C ,  3-C ) :   0.1191
B(  0-C ,  4-C ) :  -0.2990 B(  0-C ,  5-C ) :   0.2090 B(  0-C ,  6-C ) :  -0.2568
B(  0-C ,  7-C ) :   0.1565 B(  0-C , 17-O ) :   0.3748 B(  0-C , 18-C ) :   0.1184
B(  0-C , 22-H ) :   1.1993 B(  1-C ,  2-C ) :   1.0197 B(  1-C ,  4-C ) :  -0.2260
B(  1-C ,  6-C ) :   0.1345 B(  1-C ,  7-C ) :   0.1144 B(  1-C , 17-O ) :   0.2025
B(  1-C , 22-H ) :  -0.1298 B(  2-C ,  3-C ) :   1.0395 B(  2-C ,  5-C ) :  -0.1081
B(  2-C , 16-H ) :   1.0701 B(  2-C , 17-O ) :  -0.1737 B(  2-C , 18-C ) :  -0.1614
B(  3-C ,  4-C ) :   1.0281 B(  3-C ,  5-C ) :  -0.1304 B(  3-C ,  7-C ) :  -0.1036
B(  3-C , 14-H ) :  -0.1360 B(  3-C , 15-H ) :   0.3923 B(  4-C ,  5-C ) :   0.4672
B(  4-C ,  6-C ) :   0.1391 B(  4-C , 14-H ) :   0.9898 B(  5-C ,  7-C ) :  -0.1363
B(  5-C ,  8-C ) :   0.1072 B(  5-C , 12-H ) :  -0.2061 B(  5-C , 17-O ) :   0.1629
B(  5-C , 22-H ) :  -0.1290 B(  6-C ,  7-C ) :   0.7801 B(  6-C , 13-H ) :   1.2998
B(  7-C ,  8-C ) :   0.6464 B(  7-C , 12-H ) :   1.3098 B(  7-C , 13-H ) :  -0.1361
B(  8-C ,  9-H ) :   0.9936 B(  8-C , 10-H ) :   0.9931 B(  8-C , 11-H ) :   0.9565
B(  8-C , 12-H ) :  -0.1067 B( 16-H , 18-C ) :  -0.1216 B( 17-O , 18-C ) :   0.9321
B( 18-C , 19-H ) :   0.9549 B( 18-C , 20-H ) :   0.9270 B( 18-C , 21-H ) :   0.9277

Dispersion correction           -0.039108037
FINAL SINGLE POINT ENERGY      -463.217284749360

DIPOLE MOMENT
-------------

Method             : SCF
Type of density    : Electron Density
Multiplicity       :   2
Irrep              :   0
Energy             :  -463.1781767128065894 Eh
Relativity type    :
Basis              : AO
                                X                 Y                 Z
Electronic contribution:     -4.228233515      -0.712306713       0.018607223
Nuclear contribution   :      4.728265502      -0.244919274      -0.023239617
                        -----------------------------------------
Total Dipole Moment    :      0.500031987      -0.957225987      -0.004632395
                        -----------------------------------------
Magnitude (a.u.)       :      1.079969925
Magnitude (Debye)      :      2.745065395

VIBRATIONAL FREQUENCIES
-----------------------

Scaling factor for frequencies =  1.000000000  (already applied!)

     0:       0.00 cm**-1
     1:       0.00 cm**-1
     2:       0.00 cm**-1
     3:       0.00 cm**-1
     4:       0.00 cm**-1
     5:       0.00 cm**-1
     6:     -11.27 cm**-1 ***imaginary mode***
     7:      73.49 cm**-1
     8:     104.91 cm**-1
     9:     123.53 cm**-1
    10:     155.91 cm**-1
    11:     164.45 cm**-1
    12:     216.07 cm**-1
    13:     247.89 cm**-1
    14:     257.73 cm**-1
    15:     333.07 cm**-1
    16:     363.42 cm**-1
    17:     410.44 cm**-1
    18:     426.05 cm**-1
    19:     549.51 cm**-1
    20:     591.52 cm**-1
    21:     609.14 cm**-1
    22:     620.80 cm**-1
    23:     752.63 cm**-1
    24:     784.41 cm**-1
    25:     821.70 cm**-1
    26:     880.42 cm**-1
    27:     889.38 cm**-1
    28:     909.61 cm**-1
    29:     945.30 cm**-1
    30:     960.69 cm**-1
    31:     990.07 cm**-1
    32:     999.98 cm**-1
    33:    1028.14 cm**-1
    34:    1038.46 cm**-1
    35:    1124.68 cm**-1
    36:    1131.07 cm**-1
    37:    1149.02 cm**-1
    38:    1173.79 cm**-1
    39:    1191.74 cm**-1
    40:    1225.07 cm**-1
    41:    1278.54 cm**-1
    42:    1318.07 cm**-1
    43:    1334.17 cm**-1
    44:    1346.01 cm**-1
    45:    1366.79 cm**-1
    46:    1388.39 cm**-1
    47:    1429.65 cm**-1
    48:    1439.29 cm**-1
    49:    1463.56 cm**-1
    50:    1469.46 cm**-1
    51:    1476.94 cm**-1
    52:    1482.57 cm**-1
    53:    1487.74 cm**-1
    54:    1512.75 cm**-1
    55:    1575.96 cm**-1
    56:    1614.48 cm**-1
    57:    2999.08 cm**-1
    58:    3037.56 cm**-1
    59:    3047.05 cm**-1
    60:    3118.21 cm**-1
    61:    3124.68 cm**-1
    62:    3157.21 cm**-1
    63:    3163.41 cm**-1
    64:    3174.62 cm**-1
    65:    3197.06 cm**-1
    66:    3204.53 cm**-1
    67:    3223.43 cm**-1
    68:    3227.44 cm**-1

IR SPECTRUM
-----------

 Mode   freq       eps      Int      T**2         TX        TY        TZ
       cm**-1   L/(mol*cm) km/mol    a.u.
----------------------------------------------------------------------------
  7:     73.49   0.000494    2.50  0.002098  ( 0.001801  0.000875  0.045761)
  8:    104.91   0.000042    0.21  0.000125  ( 0.004574  0.000452 -0.010182)
  9:    123.53   0.000148    0.75  0.000374  ( 0.005891  0.018427 -0.000465)
 10:    155.91   0.000249    1.26  0.000499  ( 0.002401 -0.000038  0.022201)
 11:    164.45   0.000473    2.39  0.000898  (-0.000026 -0.000546  0.029965)
 12:    216.07   0.000344    1.74  0.000496  (-0.001809  0.000757  0.022194)
 13:    247.89   0.006713   33.93  0.008451  (-0.090655  0.015248 -0.000215)
 14:    257.73   0.000001    0.01  0.000001  ( 0.000763 -0.000572  0.000630)
 15:    333.07   0.012573   63.54  0.011780  ( 0.107970  0.011076  0.000073)
 16:    363.42   0.002855   14.43  0.002451  (-0.047745 -0.013101  0.000012)
 17:    410.44   0.000026    0.13  0.000020  (-0.002178 -0.000049 -0.003910)
 18:    426.05   0.139101  702.96  0.101885  ( 0.318220  0.024924 -0.000167)
 19:    549.51   0.075166  379.86  0.042686  (-0.206548  0.004929  0.000393)
 20:    591.52   0.000694    3.51  0.000366  (-0.002615 -0.000440 -0.018955)
 21:    609.14   0.010501   53.07  0.005380  ( 0.001271 -0.000285  0.073336)
 22:    620.80   0.002161   10.92  0.001086  (-0.032951  0.000419 -0.000448)
 23:    752.63   0.039800  201.13  0.016502  ( 0.123337  0.035918 -0.000293)
 24:    784.41   0.007560   38.20  0.003008  ( 0.001733  0.000444  0.054812)
 25:    821.70   0.001813    9.16  0.000689  (-0.001900 -0.000149  0.026174)
 26:    880.42   0.009167   46.33  0.003249  ( 0.047099  0.032099  0.000801)
 27:    889.38   0.004645   23.48  0.001630  (-0.002444  0.000299 -0.040298)
 28:    909.61   0.000149    0.76  0.000051  ( 0.001960  0.000558  0.006864)
 29:    945.30   0.163679  827.17  0.054034  ( 0.232303  0.008225 -0.001316)
 30:    960.69   0.013239   66.90  0.004300  ( 0.000544 -0.000592  0.065573)
 31:    990.07   0.046128  233.11  0.014539  (-0.120366 -0.007153 -0.000013)
 32:    999.98   0.000432    2.18  0.000135  ( 0.003197  0.000173 -0.011164)
 33:   1028.14   0.043672  220.70  0.013255  (-0.113571 -0.018891 -0.000370)
 34:   1038.46   0.000423    2.14  0.000127  (-0.002952  0.000032 -0.010876)
 35:   1124.68   0.003998   20.20  0.001109  ( 0.009075  0.032045  0.000138)
 36:   1131.07   0.483158  2441.68  0.133304  ( 0.364442  0.022045 -0.000057)
 37:   1149.02   0.013065   66.03  0.003548  (-0.059520  0.002408 -0.000213)
 38:   1173.79   0.000192    0.97  0.000051  ( 0.003650  0.000716 -0.006096)
 39:   1191.74   0.038911  196.64  0.010189  (-0.100917  0.002151  0.000020)
 40:   1225.07   0.137718  695.97  0.035081  (-0.186384  0.018494 -0.000017)
 41:   1278.54   0.556689  2813.28  0.135875  ( 0.368390  0.012810 -0.000211)
 42:   1318.07   0.028248  142.76  0.006688  ( 0.077597 -0.025821  0.000178)
 43:   1334.17   0.024269  122.64  0.005676  ( 0.073472  0.016680 -0.000040)
 44:   1346.01   0.071959  363.65  0.016683  (-0.129031  0.005837 -0.000062)
 45:   1366.79   0.000192    0.97  0.000044  (-0.006399 -0.001621 -0.000572)
 46:   1388.39   0.018460   93.29  0.004149  (-0.058190 -0.027623  0.000162)
 47:   1429.65   0.004166   21.05  0.000909  ( 0.005978 -0.001654  0.029510)
 48:   1439.29   0.110044  556.12  0.023860  (-0.153344  0.018462  0.002052)
 49:   1463.56   0.047749  241.30  0.010181  (-0.098786  0.020545  0.000574)
 50:   1469.46   0.007726   39.04  0.001641  (-0.036168 -0.018237 -0.000256)
 51:   1476.94   0.004179   21.12  0.000883  (-0.009559  0.002283 -0.028043)
 52:   1482.57   0.049726  251.29  0.010467  (-0.101540  0.012453  0.001138)
 53:   1487.74   0.080491  406.77  0.016884  (-0.127209 -0.026472 -0.000783)
 54:   1512.75   0.435780  2202.25  0.089897  (-0.298947 -0.022963  0.000370)
 55:   1575.96   0.022115  111.76  0.004379  ( 0.065851  0.006544 -0.000047)
 56:   1614.48   0.077907  393.71  0.015059  ( 0.106600  0.060786  0.000028)
 57:   2999.08   0.007346   37.12  0.000764  (-0.027000 -0.005943  0.000121)
 58:   3037.56   0.000410    2.07  0.000042  ( 0.000712  0.000081  0.006452)
 59:   3047.05   0.028521  144.13  0.002921  (-0.052929 -0.010934  0.000029)
 60:   3118.21   0.013884   70.17  0.001390  ( 0.030110  0.021975  0.000072)
 61:   3124.68   0.003903   19.72  0.000390  ( 0.000115  0.000106  0.019742)
 62:   3157.21   0.007515   37.98  0.000743  (-0.025608 -0.009325 -0.000113)
 63:   3163.41   0.003025   15.29  0.000298  (-0.011120  0.013219  0.000062)
 64:   3174.62   0.001470    7.43  0.000144  ( 0.007095 -0.009702  0.000055)
 65:   3197.06   0.000352    1.78  0.000034  ( 0.005861 -0.000051 -0.000062)
 66:   3204.53   0.001153    5.83  0.000112  (-0.008785 -0.005925  0.000011)
 67:   3223.43   0.001229    6.21  0.000119  (-0.010311  0.003550  0.000160)
 68:   3227.44   0.000068    0.34  0.000007  ( 0.002558 -0.000029  0.000001)

--------------------------
THERMOCHEMISTRY AT 298.15K
--------------------------

Temperature         ...   298.15 K
Pressure            ...     1.00 atm
Total Mass          ...   148.21 AMU
Quasi RRHO          ...     True
Cut-Off Frequency   ...     1.00 cm^-1

Throughout the following assumptions are being made:
  (1) The electronic state is orbitally nondegenerate
      but the spin degeneracy is treated
  (2) There are no thermally accessible electronically excited states
  (3) Hindered rotations indicated by low frequency modes are not
      treated as such but are treated as vibrations and this may
      cause some error
  (4) All equations used are the standard statistical mechanics
      equations for an ideal gas
  (5) All vibrations are strictly harmonic

freq.      73.49  E(vib)   ...       0.49
freq.     104.91  E(vib)   ...       0.46
freq.     123.53  E(vib)   ...       0.43
freq.     155.91  E(vib)   ...       0.40
freq.     164.45  E(vib)   ...       0.39
freq.     216.07  E(vib)   ...       0.34
freq.     247.89  E(vib)   ...       0.31
freq.     257.73  E(vib)   ...       0.30
freq.     333.07  E(vib)   ...       0.24
freq.     363.42  E(vib)   ...       0.22
freq.     410.44  E(vib)   ...       0.19
freq.     426.05  E(vib)   ...       0.18
freq.     549.51  E(vib)   ...       0.12
freq.     591.52  E(vib)   ...       0.10
freq.     609.14  E(vib)   ...       0.10
freq.     620.80  E(vib)   ...       0.09
freq.     752.63  E(vib)   ...       0.06
freq.     784.41  E(vib)   ...       0.05
freq.     821.70  E(vib)   ...       0.05
freq.     880.42  E(vib)   ...       0.04
freq.     889.38  E(vib)   ...       0.04
freq.     909.61  E(vib)   ...       0.03
freq.     945.30  E(vib)   ...       0.03
freq.     960.69  E(vib)   ...       0.03
freq.     990.07  E(vib)   ...       0.02
freq.     999.98  E(vib)   ...       0.02
freq.    1028.14  E(vib)   ...       0.02
freq.    1038.46  E(vib)   ...       0.02
freq.    1124.68  E(vib)   ...       0.01
freq.    1131.07  E(vib)   ...       0.01
freq.    1149.02  E(vib)   ...       0.01
freq.    1173.79  E(vib)   ...       0.01
freq.    1191.74  E(vib)   ...       0.01
freq.    1225.07  E(vib)   ...       0.01
freq.    1278.54  E(vib)   ...       0.01
freq.    1318.07  E(vib)   ...       0.01
freq.    1334.17  E(vib)   ...       0.01
freq.    1346.01  E(vib)   ...       0.01
freq.    1366.79  E(vib)   ...       0.01
freq.    1388.39  E(vib)   ...       0.00
freq.    1429.65  E(vib)   ...       0.00
freq.    1439.29  E(vib)   ...       0.00
freq.    1463.56  E(vib)   ...       0.00
freq.    1469.46  E(vib)   ...       0.00
freq.    1476.94  E(vib)   ...       0.00
freq.    1482.57  E(vib)   ...       0.00
freq.    1487.74  E(vib)   ...       0.00
freq.    1512.75  E(vib)   ...       0.00
freq.    1575.96  E(vib)   ...       0.00
freq.    1614.48  E(vib)   ...       0.00
freq.    2999.08  E(vib)   ...       0.00
freq.    3037.56  E(vib)   ...       0.00
freq.    3047.05  E(vib)   ...       0.00
freq.    3118.21  E(vib)   ...       0.00
freq.    3124.68  E(vib)   ...       0.00
freq.    3157.21  E(vib)   ...       0.00
freq.    3163.41  E(vib)   ...       0.00
freq.    3174.62  E(vib)   ...       0.00
freq.    3197.06  E(vib)   ...       0.00
freq.    3204.53  E(vib)   ...       0.00
freq.    3223.43  E(vib)   ...       0.00
freq.    3227.44  E(vib)   ...       0.00

------------
INNER ENERGY
------------

The inner energy is: U= E(el) + E(ZPE) + E(vib) + E(rot) + E(trans)
    E(el)   - is the total energy from the electronic structure calculation
              = E(kin-el) + E(nuc-el) + E(el-el) + E(nuc-nuc)
    E(ZPE)  - the the zero temperature vibrational energy from the frequency calculation
    E(vib)  - the the finite temperature correction to E(ZPE) due to population
              of excited vibrational states
    E(rot)  - is the rotational thermal energy
    E(trans)- is the translational thermal energy

Summary of contributions to the inner energy U:
Electronic energy                ...   -463.21728475 Eh
Zero point energy                ...      0.19114452 Eh     119.94 kcal/mol
Thermal vibrational correction   ...      0.00779437 Eh       4.89 kcal/mol
Thermal rotational correction    ...      0.00141627 Eh       0.89 kcal/mol
Thermal translational correction ...      0.00141627 Eh       0.89 kcal/mol
-----------------------------------------------------------------------
Total thermal energy                   -463.01551332 Eh

Summary of corrections to the electronic energy:
(perhaps to be used in another calculation)
Total thermal correction                  0.01062691 Eh       6.67 kcal/mol
Non-thermal (ZPE) correction              0.19114452 Eh     119.94 kcal/mol
-----------------------------------------------------------------------
Total correction                          0.20177143 Eh     126.61 kcal/mol

--------
ENTHALPY
--------

The enthalpy is H = U + kB*T
                kB is Boltzmann's constant
Total thermal energy              ...   -463.01551332 Eh
Thermal Enthalpy correction       ...      0.00094421 Eh       0.59 kcal/mol
-----------------------------------------------------------------------
Total Enthalpy                    ...   -463.01456911 Eh

Note: Only C1 symmetry has been detected, increase convergence thresholds
      if your molecule has a higher symmetry. Symmetry factor of 1.0 is
      used for the rotational entropy correction.

Note: Rotational entropy computed according to Herzberg
Infrared and Raman Spectra, Chapter V,1, Van Nostrand Reinhold, 1945
Point Group:  C1, Symmetry Number:   1
Rotational constants in cm-1:     0.104944     0.017152     0.014824

Vibrational entropy computed according to the QRRHO of S. Grimme
Chem.Eur.J. 2012 18 9955 using a reference frequency of 100.0 cm-1

-------
ENTROPY
-------

The entropy contributions are T*S = T*(S(el)+S(vib)+S(rot)+S(trans))
     S(el)   - electronic entropy
     S(vib)  - vibrational entropy
     S(rot)  - rotational entropy
     S(trans)- translational entropy
The entropies will be listed as multiplied by the temperature to get
units of energy

Electronic entropy                ...      0.00065446 Eh      0.41 kcal/mol
Vibrational entropy               ...      0.01336426 Eh      8.39 kcal/mol
Rotational entropy                ...      0.01448260 Eh      9.09 kcal/mol
Translational entropy             ...      0.01942844 Eh     12.19 kcal/mol
-----------------------------------------------------------------------
Final entropy term                ...      0.04792975 Eh     30.08 kcal/mol

In case the symmetry of your molecule has not been determined correctly
or in case you have a reason to use a different symmetry number we print

                             ****ORCA TERMINATED NORMALLY****
TOTAL RUN TIME: 0 days 1 hours 33 minutes 29 seconds 433 msec
