                         Program Version 6.0.0  -   RELEASE  -
|  1> !PBE0 opt aug-cc-pVTZ d3 TightSCF SlowConv RIJCOSX defgrid2
|  2>
|  3> %pal
|  4> nprocs 8
|  5> end
|  6>
|  7> %scf
|  8> MaxIter 1500
|  9> end
| 10>
| 11> %maxcore 3500
| 12>
| 13> !CPCM
| 14> %cpcm smd true
| 15> SMDsolvent "MeCN"
| 16> surfacetype gepol_ses
| 17> rsolv 2.19
| 18> end
| 19>
| 20> * xyz 1 2
| 21> C           0.96002552011709     -1.32253975774944      0.00002107203161
| 22> C           2.30946577689281     -1.05292578484351     -0.00001183018851
| 23> C           2.75162476164071      0.28756052755572     -0.00002650301661
| 24> C           1.83902538005307      1.36187223575537     -0.00000118304244
| 25> C           0.48711647576379      1.10797066538425      0.00002893131122
| 26> C           0.02041417697925     -0.24724272024865      0.00003631726405
| 27> C          -1.36049677571781     -0.55035510408661      0.00004151636512
| 28> N          -2.24435922885682      0.43165315940707      0.00003462017491
| 29> O          -3.46568256477989     -0.02410885729296      0.00002059528734
| 30> H          -4.06414072403569      0.75247060999126      0.00003013023410
| 31> H          -1.71241527206750     -1.59215357045924      0.00004127844656
| 32> H          -0.24324441524782      1.92013568517355      0.00004228420146
| 33> H           2.20910910746605      2.39016696582870     -0.00001172730682
| 34> H           3.82614866589464      0.49606739820897     -0.00005739041351
| 35> H           3.03863533465800     -1.86708723654366     -0.00002808352063
| 36> H           0.59646668124012     -2.35410821608081      0.00003057217215
| 37> *
| 38>
| 39>                          ****END OF INPUT****
 Total Charge           Charge          ....    1
 Multiplicity           Mult            ....    2
 Number of Electrons    NEL             ....   63
Dispersion correction           -0.013877272
FINAL SINGLE POINT ENERGY      -400.353497865394
Dispersion correction             ... done (  0.1 sec)
Dispersion correction           -0.013940625
FINAL SINGLE POINT ENERGY      -400.354905671947
Dispersion correction             ... done (  0.1 sec)
Dispersion correction           -0.013948218
FINAL SINGLE POINT ENERGY      -400.354977164577
Dispersion correction             ... done (  0.1 sec)
Dispersion correction           -0.013947740
FINAL SINGLE POINT ENERGY      -400.354999502904
Dispersion correction             ... done (  0.1 sec)
                    ***********************HURRAY********************

CARTESIAN COORDINATES (ANGSTROEM)
---------------------------------
  C      0.951804   -1.311882    0.001515
  C      2.293098   -1.048277   -0.002159
  C      2.735504    0.282840   -0.002344
  C      1.832598    1.355501    0.000963
  C      0.489240    1.109702    0.003456
  C      0.024165   -0.237434    0.003541
  C     -1.345797   -0.548495    0.003542
  N     -2.225836    0.430450   -0.001121
  O     -3.457699   -0.043693   -0.006008
  H     -4.039307    0.739507   -0.007196
  H     -1.680211   -1.582948    0.006236
  H     -0.227970    1.918461    0.006001
  H      2.204965    2.370795    0.000875
  H      3.799168    0.485587   -0.005028
  H      3.013901   -1.854319   -0.004706
  H      0.580070   -2.328420    0.002624

 Multiplicity           Mult            ....    2
 Number of Electrons    NEL             ....   63
 Basis Dimension        Dim             ....  575

ORBITAL ENERGIES
----------------
                 SPIN UP ORBITALS
  NO   OCC          E(Eh)            E(eV)
   0   1.0000     -19.340094      -526.2707
   1   1.0000     -14.518585      -395.0708
   2   1.0000     -10.321309      -280.8571
   3   1.0000     -10.305392      -280.4240
   4   1.0000     -10.290280      -280.0127
   5   1.0000     -10.280150      -279.7371
   6   1.0000     -10.279227      -279.7120
   7   1.0000     -10.265647      -279.3424
   8   1.0000     -10.263588      -279.2864
   9   1.0000      -1.225437       -33.3458
  10   1.0000      -0.966724       -26.3059
  11   1.0000      -0.923273       -25.1235
  12   1.0000      -0.829958       -22.5843
  13   1.0000      -0.817507       -22.2455
  14   1.0000      -0.717798       -19.5323
  15   1.0000      -0.672206       -18.2917
  16   1.0000      -0.638310       -17.3693
  17   1.0000      -0.606866       -16.5137
  18   1.0000      -0.578301       -15.7364
  19   1.0000      -0.542768       -14.7695
  20   1.0000      -0.532664       -14.4945
  21   1.0000      -0.512518       -13.9463
  22   1.0000      -0.492489       -13.4013
  23   1.0000      -0.474185       -12.9032
  24   1.0000      -0.467771       -12.7287
  25   1.0000      -0.444469       -12.0946
  26   1.0000      -0.403122       -10.9695
  27   1.0000      -0.391396       -10.6504
  28   1.0000      -0.370467       -10.0809
  29   1.0000      -0.355821        -9.6824
  30   1.0000      -0.312757        -8.5106
  31   1.0000      -0.298861        -8.1324
  32   0.0000      -0.110960        -3.0194
  33   0.0000      -0.041809        -1.1377
  34   0.0000      -0.005738        -0.1561
  35   0.0000      -0.002563        -0.0697
  36   0.0000       0.004833         0.1315

                 SPIN DOWN ORBITALS
  NO   OCC          E(Eh)            E(eV)
   0   1.0000     -19.333516      -526.0917
   1   1.0000     -14.510964      -394.8634
   2   1.0000     -10.322056      -280.8774
   3   1.0000     -10.302634      -280.3489
   4   1.0000     -10.286030      -279.8971
   5   1.0000     -10.278403      -279.6896
   6   1.0000     -10.278111      -279.6816
   7   1.0000     -10.266195      -279.3574
   8   1.0000     -10.264552      -279.3127
   9   1.0000      -1.211285       -32.9607
  10   1.0000      -0.955915       -26.0118
  11   1.0000      -0.913651       -24.8617
  12   1.0000      -0.820914       -22.3382
  13   1.0000      -0.814085       -22.1524
  14   1.0000      -0.712659       -19.3925
  15   1.0000      -0.669059       -18.2060
  16   1.0000      -0.633764       -17.2456
  17   1.0000      -0.601093       -16.3566
  18   1.0000      -0.575439       -15.6585
  19   1.0000      -0.539152       -14.6711
  20   1.0000      -0.510196       -13.8831
  21   1.0000      -0.491134       -13.3644
  22   1.0000      -0.489836       -13.3291
  23   1.0000      -0.473622       -12.8879
  24   1.0000      -0.465380       -12.6636
  25   1.0000      -0.423262       -11.5175
  26   1.0000      -0.402173       -10.9437
  27   1.0000      -0.389210       -10.5909
  28   1.0000      -0.348213        -9.4754
  29   1.0000      -0.338605        -9.2139
  30   1.0000      -0.308900        -8.4056
  31   0.0000      -0.204735        -5.5711
  32   0.0000      -0.079705        -2.1689
  33   0.0000      -0.032299        -0.8789
  34   0.0000      -0.001954        -0.0532
  35   0.0000       0.005554         0.1511

MULLIKEN ATOMIC CHARGES AND SPIN POPULATIONS
--------------------------------------------
   0 C :   -0.786640    0.043756
   1 C :   -0.620380   -0.023055
   2 C :   -0.247306    0.256990
   3 C :   -0.802227   -0.058868
   4 C :   -0.669614    0.090207
   5 C :    1.385475    0.215256
   6 C :    0.138891   -0.035169
   7 N :   -0.331127    0.321967
   8 O :   -0.206865    0.206593
   9 H :    0.227089   -0.008080
  10 H :    0.520397    0.003902
  11 H :    0.233435   -0.010204
  12 H :    0.706900    0.003297
  13 H :    0.574231   -0.001723
  14 H :    0.700778    0.003260
  15 H :    0.176963   -0.008130
Sum of atomic charges         :    1.0000000

LOEWDIN ATOMIC CHARGES AND SPIN POPULATIONS
-------------------------------------------
   0 C :    0.269067    0.058275
   1 C :    0.270116    0.038907
   2 C :    0.285594    0.134086
   3 C :    0.266046    0.031002
   4 C :    0.261601    0.071748
   5 C :   -0.108269    0.111191
   6 C :    0.088299    0.053211
   7 N :    0.214784    0.247720
   8 O :    0.758291    0.203421
   9 H :   -0.418502    0.013343
  10 H :   -0.143205   -0.006169
  11 H :   -0.166377    0.009788
  12 H :   -0.150686   -0.004143
  13 H :   -0.136564    0.030958
  14 H :   -0.149243   -0.001249
  15 H :   -0.140952    0.007911

  Mayer bond orders larger than 0.100000
B(  0-C ,  1-C ) :   1.4057 B(  0-C ,  2-C ) :  -0.1167 B(  0-C ,  4-C ) :  -0.3656
B(  0-C ,  5-C ) :   0.3590 B(  0-C ,  6-C ) :  -0.1056 B(  0-C , 14-H ) :  -0.1700
B(  0-C , 15-H ) :   1.3809 B(  1-C ,  2-C ) :   1.3238 B(  1-C ,  3-C ) :   0.1459
B(  1-C , 14-H ) :   0.2476 B(  2-C ,  3-C ) :   1.2810 B(  2-C ,  4-C ) :  -0.1651
B(  2-C ,  5-C ) :  -0.1821 B(  2-C ,  6-C ) :   0.1447 B(  2-C , 12-H ) :   0.1226
B(  2-C , 13-H ) :   0.4903 B(  3-C ,  4-C ) :   1.4144 B(  3-C , 12-H ) :   0.2098
B(  4-C ,  5-C ) :   0.5822 B(  4-C ,  6-C ) :   0.1173 B(  4-C , 11-H ) :   1.0546
B(  4-C , 15-H ) :   0.1087 B(  5-C ,  6-C ) :   0.5511 B(  5-C ,  7-N ) :  -0.1016
B(  5-C , 14-H ) :   0.1049 B(  6-C ,  7-N ) :   0.8327 B(  6-C , 10-H ) :   0.5095
B(  6-C , 15-H ) :  -0.1726 B(  7-N ,  8-O ) :   0.8067 B(  7-N , 10-H ) :  -0.1037
B(  8-O ,  9-H ) :   0.9755 B( 11-H , 15-H ) :   0.1493

Dispersion correction           -0.013946201
FINAL SINGLE POINT ENERGY      -400.355002541839

DIPOLE MOMENT
-------------

Method             : SCF
Type of density    : Electron Density
Multiplicity       :   2
Irrep              :   0
Energy             :  -400.3410563406518463 Eh
Relativity type    :
Basis              : AO
                                X                 Y                 Z
Electronic contribution:     -3.339289150       0.144537537       0.001343347
Nuclear contribution   :      3.305684800      -0.250170310      -0.000628945
                        -----------------------------------------
Total Dipole Moment    :     -0.033604350      -0.105632773       0.000714402
                        -----------------------------------------
Magnitude (a.u.)       :      0.110851456
Magnitude (Debye)      :      0.281762010

Rotational constants in cm-1:             0.168196             0.031343             0.026420
Rotational constants in MHz :          5042.391602           939.628821           792.039356

                             ****ORCA TERMINATED NORMALLY****
TOTAL RUN TIME: 0 days 0 hours 43 minutes 36 seconds 17 msec
