                         Program Version 6.0.0  -   RELEASE  -
|  1> !r2SCANh aug-cc-pVTZ d3 TightSCF SlowConv RIJCOSX defgrid2
|  2>
|  3> %pal
|  4> nprocs 4
|  5> end
|  6>
|  7> %scf
|  8> MaxIter 1500
|  9> end
| 10>
| 11> %maxcore 3000
| 12>
| 13> !CPCM
| 14> %cpcm smd true
| 15> SMDsolvent "MeCN"
| 16> surfacetype gepol_ses
| 17> rsolv 2.19
| 18> end
| 19>
| 20> * xyz 1 2
| 21> C          -1.44785730295075      0.00004383668014      0.19466020963487
| 22> C          -0.70463361625558     -1.25916288948137     -0.22052956548119
| 23> C           0.75402143901141     -1.23290095960195      0.33947310722511
| 24> N           1.35243621618336     -0.00003237928940     -0.05272629159437
| 25> H           2.03239855808840     -0.00001354242890     -0.81929831940591
| 26> C           0.75406824525088      1.23284300442693      0.33954722989484
| 27> C          -0.70453653205886      1.25917936755808     -0.22058410201994
| 28> H          -1.17735315978030      2.17530279259209      0.17075301961950
| 29> H          -0.65902932856967      1.35407679956949     -1.31943227945387
| 30> H           1.35320797568110      2.07738723598631     -0.02945728358028
| 31> H           0.70381655246538      1.26167123212667      1.44376020833185
| 32> H           1.35302530838177     -2.07746967992292     -0.02968877997992
| 33> H           0.70390247903722     -1.26179946828858      1.44369537598949
| 34> H          -1.17752329445998     -2.17518232566056      0.17094554694672
| 35> H          -0.65911553793050     -1.35406143771193     -1.31937325462627
| 36> H          -2.44852309487375      0.00006008079951     -0.27520329299314
| 37> H          -1.61728600722014      0.00008813264640      1.28682627149251
| 38> *
| 39>
| 40>                          ****END OF INPUT****

CARTESIAN COORDINATES (ANGSTROEM)
---------------------------------
  C     -1.447857    0.000044    0.194660
  C     -0.704634   -1.259163   -0.220530
  C      0.754021   -1.232901    0.339473
  N      1.352436   -0.000032   -0.052726
  H      2.032399   -0.000014   -0.819298
  C      0.754068    1.232843    0.339547
  C     -0.704537    1.259179   -0.220584
  H     -1.177353    2.175303    0.170753
  H     -0.659029    1.354077   -1.319432
  H      1.353208    2.077387   -0.029457
  H      0.703817    1.261671    1.443760
  H      1.353025   -2.077470   -0.029689
  H      0.703902   -1.261799    1.443695
  H     -1.177523   -2.175182    0.170946
  H     -0.659116   -1.354061   -1.319373
  H     -2.448523    0.000060   -0.275203
  H     -1.617286    0.000088    1.286826

 Total Charge           Charge          ....    1
 Multiplicity           Mult            ....    2
 Number of Electrons    NEL             ....   47
 Basis Dimension        Dim             ....  529

ORBITAL ENERGIES
----------------
                 SPIN UP ORBITALS
  NO   OCC          E(Eh)            E(eV)
   0   1.0000     -14.436745      -392.8438
   1   1.0000     -10.220191      -278.1055
   2   1.0000     -10.220182      -278.1053
   3   1.0000     -10.180394      -277.0226
   4   1.0000     -10.180393      -277.0226
   5   1.0000     -10.165531      -276.6182
   6   1.0000      -1.017779       -27.6952
   7   1.0000      -0.814685       -22.1687
   8   1.0000      -0.792634       -21.5687
   9   1.0000      -0.673870       -18.3369
  10   1.0000      -0.658720       -17.9247
  11   1.0000      -0.598735       -16.2924
  12   1.0000      -0.550688       -14.9850
  13   1.0000      -0.493061       -13.4169
  14   1.0000      -0.482434       -13.1277
  15   1.0000      -0.461903       -12.5690
  16   1.0000      -0.438293       -11.9266
  17   1.0000      -0.426167       -11.5966
  18   1.0000      -0.400551       -10.8996
  19   1.0000      -0.365500        -9.9458
  20   1.0000      -0.364533        -9.9194
  21   1.0000      -0.338585        -9.2134
  22   1.0000      -0.330480        -8.9928
  23   1.0000      -0.291620        -7.9354
  24   0.0000       0.010017         0.2726
  25   0.0000       0.022532         0.6131
  26   0.0000       0.028062         0.7636
  27   0.0000       0.029638         0.8065
  28   0.0000       0.045442         1.2365

                 SPIN DOWN ORBITALS
  NO   OCC          E(Eh)            E(eV)
   0   1.0000     -14.415763      -392.2728
   1   1.0000     -10.220491      -278.1137
   2   1.0000     -10.220483      -278.1135
   3   1.0000     -10.178227      -276.9636
   4   1.0000     -10.178225      -276.9636
   5   1.0000     -10.165673      -276.6220
   6   1.0000      -0.981431       -26.7061
   7   1.0000      -0.806086       -21.9347
   8   1.0000      -0.788394       -21.4533
   9   1.0000      -0.662987       -18.0408
  10   1.0000      -0.653955       -17.7950
  11   1.0000      -0.591177       -16.0867
  12   1.0000      -0.540146       -14.6981
  13   1.0000      -0.486498       -13.2383
  14   1.0000      -0.462133       -12.5753
  15   1.0000      -0.452087       -12.3019
  16   1.0000      -0.434783       -11.8310
  17   1.0000      -0.413978       -11.2649
  18   1.0000      -0.391737       -10.6597
  19   1.0000      -0.359867        -9.7925
  20   1.0000      -0.342093        -9.3088
  21   1.0000      -0.336785        -9.1644
  22   1.0000      -0.328741        -8.9455
  23   0.0000      -0.174655        -4.7526
  24   0.0000       0.012750         0.3469
  25   0.0000       0.025030         0.6811
  26   0.0000       0.029380         0.7995
  27   0.0000       0.030602         0.8327

MULLIKEN ATOMIC CHARGES AND SPIN POPULATIONS
--------------------------------------------
   0 C :   -0.172700   -0.008942
   1 C :   -0.305448    0.105412
   2 C :   -0.165902   -0.077716
   3 N :   -0.033320    0.802657
   4 H :    0.142629   -0.006043
   5 C :   -0.166011   -0.077728
   6 C :   -0.305568    0.105416
   7 H :    0.217207    0.021287
   8 H :    0.140800    0.006680
   9 H :    0.280485   -0.001139
  10 H :    0.205446    0.041554
  11 H :    0.280408   -0.001160
  12 H :    0.205452    0.041589
  13 H :    0.217175    0.021289
  14 H :    0.140774    0.006685
  15 H :    0.169103    0.016105
  16 H :    0.149471    0.004053
Sum of atomic charges         :    1.0000000

LOEWDIN ATOMIC CHARGES AND SPIN POPULATIONS
-------------------------------------------
   0 C :    0.290004    0.014733
   1 C :    0.335618    0.056392
   2 C :    0.296853    0.098348
   3 N :    0.699955    0.517852
   4 H :   -0.145315    0.069296
   5 C :    0.296860    0.098343
   6 C :    0.335612    0.056397
   7 H :   -0.115316    0.012278
   8 H :   -0.118421    0.005696
   9 H :   -0.100970    0.002566
  10 H :   -0.101252    0.018771
  11 H :   -0.100975    0.002566
  12 H :   -0.101245    0.018778
  13 H :   -0.115316    0.012275
  14 H :   -0.118425    0.005697
  15 H :   -0.117029    0.008781
  16 H :   -0.120638    0.001232

  Mayer bond orders larger than 0.100000
B(  0-C ,  1-C ) :   0.9242 B(  0-C ,  6-C ) :   0.9244 B(  0-C , 15-H ) :   0.9758
B(  0-C , 16-H ) :   0.9779 B(  1-C ,  2-C ) :   0.8697 B(  1-C ,  3-N ) :   0.1255
B(  1-C ,  6-C ) :   0.1146 B(  1-C , 13-H ) :   0.9083 B(  1-C , 14-H ) :   1.0228
B(  2-C ,  3-N ) :   0.9086 B(  2-C , 11-H ) :   0.9160 B(  2-C , 12-H ) :   0.9202
B(  3-N ,  4-H ) :   0.8931 B(  3-N ,  5-C ) :   0.9087 B(  3-N ,  6-C ) :   0.1255
B(  5-C ,  6-C ) :   0.8697 B(  5-C ,  9-H ) :   0.9159 B(  5-C , 10-H ) :   0.9202
B(  6-C ,  7-H ) :   0.9082 B(  6-C ,  8-H ) :   1.0228

Dispersion correction           -0.004230503
FINAL SINGLE POINT ENERGY      -251.651711887988

DIPOLE MOMENT
-------------

Method             : SCF
Type of density    : Electron Density
Multiplicity       :   2
Irrep              :   0
Energy             :  -251.6474813852290140 Eh
Relativity type    :
Basis              : AO
                                X                 Y                 Z
Electronic contribution:      2.976145863      -0.000109583      -0.271020107
Nuclear contribution   :     -1.624364743       0.000100191       0.049600711
                        -----------------------------------------
Total Dipole Moment    :      1.351781120      -0.000009392      -0.221419396
                        -----------------------------------------
Magnitude (a.u.)       :      1.369795147
Magnitude (Debye)      :      3.481742566

Rotational constants in cm-1:             0.150674             0.148298             0.085270
Rotational constants in MHz :          4517.103915          4445.872601          2556.320795

                             ****ORCA TERMINATED NORMALLY****
TOTAL RUN TIME: 0 days 0 hours 4 minutes 21 seconds 292 msec
