                         Program Version 6.0.0  -   RELEASE  -
|  1> !r2SCAN aug-cc-pVTZ d3 TightSCF SlowConv RIJCOSX defgrid2
|  2>
|  3> %pal
|  4> nprocs 4
|  5> end
|  6>
|  7> %scf
|  8> MaxIter 1500
|  9> end
| 10>
| 11> %maxcore 3000
| 12>
| 13> !CPCM
| 14> %cpcm smd true
| 15> SMDsolvent "MeCN"
| 16> surfacetype gepol_ses
| 17> rsolv 2.19
| 18> end
| 19>
| 20> * xyz 0 1
| 21> C          -0.45962349392076      1.19930168964946      0.00062202556794
| 22> C           0.93187577371451      1.21292315738455      0.00021003045593
| 23> C           1.62461355579551      0.00264447710890     -0.00023259743760
| 24> C           0.94147031950354     -1.21572927971146     -0.00024754015947
| 25> C          -0.44629067380136     -1.21277951487668      0.00019404075702
| 26> C          -1.16457141606032     -0.01003943569872      0.00066278241731
| 27> C          -2.65943474979432     -0.08619562751851      0.00125896770752
| 28> O          -3.21849789447990     -1.16065283026292     -0.00068065256956
| 29> C          -3.44514706371262      1.20360842703596     -0.00042582391608
| 30> H          -3.20900994320141      1.81348807306859      0.88908099447108
| 31> H          -3.20722570566812      1.81245947226407     -0.89017014718689
| 32> H          -4.51791848417965      0.96213295731483     -0.00129821423503
| 33> H          -1.01178782473404     -2.14828242074604      0.00023169281017
| 34> H           1.50422972929259     -2.15194601130068     -0.00059587432262
| 35> Cl          3.35241439280556      0.01090662049481     -0.00078466924471
| 36> H           1.48532961925900      2.15441464352816      0.00021462148241
| 37> H          -0.99337054081820      2.15308200226567      0.00096246340259
| 38> *
| 39>
| 40>                          ****END OF INPUT****

CARTESIAN COORDINATES (ANGSTROEM)
---------------------------------
  C     -0.459623    1.199302    0.000622
  C      0.931876    1.212923    0.000210
  C      1.624614    0.002644   -0.000233
  C      0.941470   -1.215729   -0.000248
  C     -0.446291   -1.212780    0.000194
  C     -1.164571   -0.010039    0.000663
  C     -2.659435   -0.086196    0.001259
  O     -3.218498   -1.160653   -0.000681
  C     -3.445147    1.203608   -0.000426
  H     -3.209010    1.813488    0.889081
  H     -3.207226    1.812459   -0.890170
  H     -4.517918    0.962133   -0.001298
  H     -1.011788   -2.148282    0.000232
  H      1.504230   -2.151946   -0.000596
  Cl     3.352414    0.010907   -0.000785
  H      1.485330    2.154415    0.000215
  H     -0.993371    2.153082    0.000962

 Total Charge           Charge          ....    0
 Multiplicity           Mult            ....    1
 Number of Electrons    NEL             ....   80
 Basis Dimension        Dim             ....  625

ORBITAL ENERGIES
----------------

  NO   OCC          E(Eh)            E(eV)
   0   2.0000    -101.234582     -2754.7330
   1   2.0000     -18.945479      -515.5327
   2   2.0000     -10.127518      -275.5838
   3   2.0000     -10.115047      -275.2444
   4   2.0000     -10.059488      -273.7326
   5   2.0000     -10.057490      -273.6782
   6   2.0000     -10.057405      -273.6759
   7   2.0000     -10.056759      -273.6583
   8   2.0000     -10.055596      -273.6267
   9   2.0000     -10.030978      -272.9568
  10   2.0000      -9.387608      -255.4498
  11   2.0000      -7.132737      -194.0916
  12   2.0000      -7.124224      -193.8600
  13   2.0000      -7.123485      -193.8399
  14   2.0000      -1.012548       -27.5528
  15   2.0000      -0.869157       -23.6510
  16   2.0000      -0.815132       -22.1809
  17   2.0000      -0.735057       -20.0019
  18   2.0000      -0.728029       -19.8107
  19   2.0000      -0.690212       -18.7816
  20   2.0000      -0.595067       -16.1926
  21   2.0000      -0.589215       -16.0334
  22   2.0000      -0.525655       -14.3038
  23   2.0000      -0.479019       -13.0348
  24   2.0000      -0.452121       -12.3028
  25   2.0000      -0.435326       -11.8458
  26   2.0000      -0.419897       -11.4260
  27   2.0000      -0.413648       -11.2559
  28   2.0000      -0.401835       -10.9345
  29   2.0000      -0.392078       -10.6690
  30   2.0000      -0.380429       -10.3520
  31   2.0000      -0.365054        -9.9336
  32   2.0000      -0.341736        -9.2991
  33   2.0000      -0.339810        -9.2467
  34   2.0000      -0.327358        -8.9079
  35   2.0000      -0.315635        -8.5889
  36   2.0000      -0.294790        -8.0217
  37   2.0000      -0.254940        -6.9373
  38   2.0000      -0.238825        -6.4988
  39   2.0000      -0.224739        -6.1155
  40   0.0000      -0.091445        -2.4883
  41   0.0000      -0.051784        -1.4091
  42   0.0000      -0.003973        -0.1081
  43   0.0000      -0.002622        -0.0713
  44   0.0000       0.007282         0.1982

MULLIKEN ATOMIC CHARGES
-----------------------
   0 C :   -0.247527
   1 C :   -0.900530
   2 C :    0.585889
   3 C :   -0.709296
   4 C :   -0.851765
   5 C :    1.433664
   6 C :    0.756865
   7 O :   -0.944862
   8 C :   -0.531136
   9 H :    0.234012
  10 H :    0.234492
  11 H :    0.145326
  12 H :    0.199315
  13 H :    0.449680
  14 Cl:   -0.410297
  15 H :    0.405425
  16 H :    0.150745
Sum of atomic charges:   -0.0000000

LOEWDIN ATOMIC CHARGES
----------------------
   0 C :    0.203298
   1 C :    0.122511
   2 C :   -0.797352
   3 C :    0.119953
   4 C :    0.189064
   5 C :   -0.134235
   6 C :   -0.548818
   7 O :    0.487456
   8 C :    0.572655
   9 H :   -0.157407
  10 H :   -0.157349
  11 H :   -0.177265
  12 H :   -0.183201
  13 H :   -0.185661
  14 Cl:    1.001357
  15 H :   -0.184544
  16 H :   -0.170462

  Mayer bond orders larger than 0.100000
B(  0-C ,  1-C ) :   0.7936 B(  0-C ,  3-C ) :  -0.1543 B(  0-C ,  4-C ) :  -0.3234
B(  0-C ,  5-C ) :   0.4824 B(  0-C , 16-H ) :   1.1637 B(  1-C ,  2-C ) :   1.2301
B(  1-C ,  3-C ) :   0.1788 B(  1-C , 14-Cl) :   0.1208 B(  1-C , 15-H ) :   0.6417
B(  2-C ,  3-C ) :   1.2016 B(  2-C ,  4-C ) :  -0.1441 B(  2-C , 14-Cl) :   0.4140
B(  3-C ,  4-C ) :   1.2434 B(  3-C ,  5-C ) :  -0.1034 B(  3-C , 13-H ) :   0.6067
B(  3-C , 14-Cl) :   0.1364 B(  4-C ,  5-C ) :   0.2982 B(  4-C ,  6-C ) :   0.2472
B(  4-C , 12-H ) :   0.9318 B(  5-C ,  6-C ) :   0.3381 B(  5-C ,  7-O ) :   0.1741
B(  5-C ,  8-C ) :   0.1323 B(  5-C , 16-H ) :  -0.1315 B(  6-C ,  7-O ) :   0.8582
B(  6-C ,  8-C ) :   0.9285 B(  8-C ,  9-H ) :   0.9618 B(  8-C , 10-H ) :   0.9611
B(  8-C , 11-H ) :   0.9619

Dispersion correction           -0.005820466
FINAL SINGLE POINT ENERGY      -844.428103094869

DIPOLE MOMENT
-------------

Method             : SCF
Type of density    : Electron Density
Multiplicity       :   1
Irrep              :   0
Energy             :  -844.4222826292514128 Eh
Relativity type    :
Basis              : AO
                                X                 Y                 Z
Electronic contribution:     14.111174786      -2.968222874       0.001070614
Nuclear contribution   :    -13.920982286       4.293464133       0.000100521
                        -----------------------------------------
Total Dipole Moment    :      0.190192500       1.325241259       0.001171135
                        -----------------------------------------
Magnitude (a.u.)       :      1.338819986
Magnitude (Debye)      :      3.403009962

Rotational constants in cm-1:             0.122841             0.018421             0.016068
Rotational constants in MHz :          3682.693671           552.250394           481.695849

                             ****ORCA TERMINATED NORMALLY****
TOTAL RUN TIME: 0 days 0 hours 3 minutes 12 seconds 136 msec
