                         Program Version 6.0.0  -   RELEASE  -
|  1> !PBE0 freq aug-cc-pVTZ d3 TightSCF SlowConv RIJCOSX defgrid2
|  2>
|  3> %pal
|  4> nprocs 12
|  5> end
|  6>
|  7> %scf
|  8> MaxIter 1500
|  9> end
| 10>
| 11> %maxcore 5000
| 12>
| 13> !CPCM
| 14> %cpcm smd true
| 15> SMDsolvent "MeCN"
| 16> surfacetype gepol_ses
| 17> rsolv 2.19
| 18> end
| 19>
| 20> * xyz -1 2
| 21> C          -1.16669932303902     -1.24661778050607     -0.00057069329861
| 22> C          -2.50853491718452     -0.94349967674146     -0.00057847861653
| 23> C          -2.95456363945989      0.38441366230929     -0.00016924503100
| 24> C          -1.99575315687571      1.40665774728040      0.00031838351739
| 25> C          -0.64734683944280      1.12988742085636      0.00034190558652
| 26> C          -0.17375015588379     -0.21437888096886     -0.00008464102259
| 27> C           1.17407818866636     -0.61760437086791      0.00022518029817
| 28> O           1.68404276173032     -1.72914847236677      0.00023736933057
| 29> Cl          2.40298514651830      0.82550908342540      0.00035717375424
| 30> H           0.06653155792849      1.94226390097078      0.00105464951015
| 31> H          -2.31761194049840      2.44304411341244      0.00121721437418
| 32> H          -4.01260446519463      0.61468605427010      0.00005755581313
| 33> H          -3.23146169229486     -1.75301057341705     -0.00095727835064
| 34> H          -0.83998882496983     -2.27919222765666     -0.00090359586498
| 35> *
| 36>
| 37>                          ****END OF INPUT****

CARTESIAN COORDINATES (ANGSTROEM)
---------------------------------
  C     -1.166699   -1.246618   -0.000571
  C     -2.508535   -0.943500   -0.000578
  C     -2.954564    0.384414   -0.000169
  C     -1.995753    1.406658    0.000318
  C     -0.647347    1.129887    0.000342
  C     -0.173750   -0.214379   -0.000085
  C      1.174078   -0.617604    0.000225
  O      1.684043   -1.729148    0.000237
  Cl     2.402985    0.825509    0.000357
  H      0.066532    1.942264    0.001055
  H     -2.317612    2.443044    0.001217
  H     -4.012604    0.614686    0.000058
  H     -3.231462   -1.753011   -0.000957
  H     -0.839989   -2.279192   -0.000904

 Total Charge           Charge          ....   -1
 Multiplicity           Mult            ....    2
 Number of Electrons    NEL             ....   73
 Basis Dimension        Dim             ....  533

ORBITAL ENERGIES
----------------
                 SPIN UP ORBITALS
  NO   OCC          E(Eh)            E(eV)
   0   1.0000    -101.692679     -2767.1985
   1   1.0000     -19.169632      -521.6322
   2   1.0000     -10.299180      -280.2549
   3   1.0000     -10.218299      -278.0540
   4   1.0000     -10.210981      -277.8549
   5   1.0000     -10.210430      -277.8399
   6   1.0000     -10.208647      -277.7914
   7   1.0000     -10.208586      -277.7898
   8   1.0000     -10.203171      -277.6424
   9   1.0000      -9.495004      -258.3722
  10   1.0000      -7.228537      -196.6985
  11   1.0000      -7.222953      -196.5465
  12   1.0000      -7.222391      -196.5312
  13   1.0000      -1.045167       -28.4404
  14   1.0000      -0.866725       -23.5848
  15   1.0000      -0.815312       -22.1858
  16   1.0000      -0.763092       -20.7648
  17   1.0000      -0.754212       -20.5232
  18   1.0000      -0.648425       -17.6445
  19   1.0000      -0.601948       -16.3798
  20   1.0000      -0.553116       -15.0511
  21   1.0000      -0.502814       -13.6823
  22   1.0000      -0.463155       -12.6031
  23   1.0000      -0.452520       -12.3137
  24   1.0000      -0.427513       -11.6332
  25   1.0000      -0.422462       -11.4958
  26   1.0000      -0.415707       -11.3120
  27   1.0000      -0.407490       -11.0884
  28   1.0000      -0.365950        -9.9580
  29   1.0000      -0.354201        -9.6383
  30   1.0000      -0.327798        -8.9198
  31   1.0000      -0.303848        -8.2681
  32   1.0000      -0.301261        -8.1977
  33   1.0000      -0.264314        -7.1923
  34   1.0000      -0.263107        -7.1595
  35   1.0000      -0.262809        -7.1514
  36   1.0000      -0.119865        -3.2617
  37   0.0000       0.001575         0.0428
  38   0.0000       0.004825         0.1313
  39   0.0000       0.016988         0.4623
  40   0.0000       0.019865         0.5406
  41   0.0000       0.033263         0.9051

                 SPIN DOWN ORBITALS
  NO   OCC          E(Eh)            E(eV)
   0   1.0000    -101.692670     -2767.1982
   1   1.0000     -19.163883      -521.4758
   2   1.0000     -10.294082      -280.1162
   3   1.0000     -10.218179      -278.0508
   4   1.0000     -10.212536      -277.8972
   5   1.0000     -10.211880      -277.8794
   6   1.0000     -10.205709      -277.7115
   7   1.0000     -10.205602      -277.7085
   8   1.0000     -10.198646      -277.5193
   9   1.0000      -9.494994      -258.3719
  10   1.0000      -7.228801      -196.7057
  11   1.0000      -7.222625      -196.5376
  12   1.0000      -7.222401      -196.5315
  13   1.0000      -1.034125       -28.1400
  14   1.0000      -0.862270       -23.4636
  15   1.0000      -0.812386       -22.1062
  16   1.0000      -0.757418       -20.6104
  17   1.0000      -0.750541       -20.4233
  18   1.0000      -0.635548       -17.2941
  19   1.0000      -0.600486       -16.3400
  20   1.0000      -0.549054       -14.9405
  21   1.0000      -0.497513       -13.5380
  22   1.0000      -0.460258       -12.5243
  23   1.0000      -0.447388       -12.1740
  24   1.0000      -0.426001       -11.5921
  25   1.0000      -0.414812       -11.2876
  26   1.0000      -0.404043       -10.9946
  27   1.0000      -0.395200       -10.7539
  28   1.0000      -0.351722        -9.5708
  29   1.0000      -0.349748        -9.5171
  30   1.0000      -0.326816        -8.8931
  31   1.0000      -0.300661        -8.1814
  32   1.0000      -0.295103        -8.0302
  33   1.0000      -0.259543        -7.0625
  34   1.0000      -0.252141        -6.8611
  35   1.0000      -0.240740        -6.5509
  36   0.0000      -0.031005        -0.8437
  37   0.0000       0.003656         0.0995
  38   0.0000       0.010120         0.2754
  39   0.0000       0.018657         0.5077
  40   0.0000       0.021485         0.5846

MULLIKEN ATOMIC CHARGES AND SPIN POPULATIONS
--------------------------------------------
   0 C :   -0.953613    0.220040
   1 C :   -0.509640   -0.086487
   2 C :   -0.517739    0.294292
   3 C :   -0.740177   -0.084083
   4 C :   -0.991342    0.212198
   5 C :    1.348112    0.041642
   6 C :    0.434817    0.244080
   7 O :   -0.810774    0.210959
   8 Cl:   -0.470292    0.004162
   9 H :    0.356023   -0.014173
  10 H :    0.572579   -0.004827
  11 H :    0.547670   -0.008545
  12 H :    0.537372   -0.006351
  13 H :    0.197003   -0.022908
Sum of atomic charges         :   -1.0000000

LOEWDIN ATOMIC CHARGES AND SPIN POPULATIONS
-------------------------------------------
   0 C :    0.136458    0.097595
   1 C :    0.136481    0.027248
   2 C :    0.146886    0.132853
   3 C :    0.134091    0.028022
   4 C :    0.100305    0.094637
   5 C :   -0.338111    0.113652
   6 C :   -1.166604    0.210096
   7 O :    0.285137    0.198796
   8 Cl:    0.629891    0.029349
   9 H :   -0.273020    0.020938
  10 H :   -0.189951   -0.006114
  11 H :   -0.204488    0.036838
  12 H :   -0.189108   -0.006648
  13 H :   -0.207967    0.022737

  Mayer bond orders larger than 0.100000
B(  0-C ,  1-C ) :   1.3710 B(  0-C ,  4-C ) :  -0.2028 B(  0-C ,  5-C ) :   0.4532
B(  0-C ,  6-C ) :   0.1490 B(  0-C , 12-H ) :  -0.1168 B(  0-C , 13-H ) :   0.9464
B(  1-C ,  2-C ) :   1.1945 B(  1-C , 12-H ) :   0.5474 B(  2-C ,  3-C ) :   1.2298
B(  2-C ,  5-C ) :  -0.1328 B(  2-C ,  6-C ) :   0.1079 B(  2-C , 11-H ) :   0.5500
B(  3-C ,  4-C ) :   1.3636 B(  3-C , 10-H ) :   0.4731 B(  4-C ,  5-C ) :   0.2816
B(  4-C ,  6-C ) :   0.3152 B(  4-C ,  9-H ) :   1.0454 B(  5-C ,  6-C ) :   0.8066
B(  5-C ,  7-O ) :   0.2312 B(  6-C ,  7-O ) :   0.8758 B(  6-C ,  8-Cl) :   0.6751
B(  7-O , 13-H ) :   0.1560 B(  8-Cl,  9-H ) :  -0.1111

Dispersion correction           -0.014148218
FINAL SINGLE POINT ENERGY      -804.903214000886

DIPOLE MOMENT
-------------

Method             : SCF
Type of density    : Electron Density
Multiplicity       :   2
Irrep              :   0
Energy             :  -804.8890657831896078 Eh
Relativity type    :
Basis              : AO
                                X                 Y                 Z
Electronic contribution:     11.061896732       1.101489216       0.000673633
Nuclear contribution   :    -12.952961270      -0.258227869      -0.000292722
                        -----------------------------------------
Total Dipole Moment    :     -1.891064538       0.843261347       0.000380911
                        -----------------------------------------
Magnitude (a.u.)       :      2.070559086
Magnitude (Debye)      :      5.262942945

VIBRATIONAL FREQUENCIES
-----------------------

Scaling factor for frequencies =  1.000000000  (already applied!)

     0:       0.00 cm**-1
     1:       0.00 cm**-1
     2:       0.00 cm**-1
     3:       0.00 cm**-1
     4:       0.00 cm**-1
     5:       0.00 cm**-1
     6:      80.49 cm**-1
     7:     132.55 cm**-1
     8:     162.10 cm**-1
     9:     281.36 cm**-1
    10:     348.05 cm**-1
    11:     362.47 cm**-1
    12:     430.40 cm**-1
    13:     480.03 cm**-1
    14:     505.30 cm**-1
    15:     612.88 cm**-1
    16:     621.63 cm**-1
    17:     679.66 cm**-1
    18:     717.27 cm**-1
    19:     810.81 cm**-1
    20:     823.24 cm**-1
    21:     829.75 cm**-1
    22:     976.26 cm**-1
    23:     979.86 cm**-1
    24:     985.70 cm**-1
    25:    1018.09 cm**-1
    26:    1089.13 cm**-1
    27:    1139.21 cm**-1
    28:    1164.92 cm**-1
    29:    1241.25 cm**-1
    30:    1305.05 cm**-1
    31:    1362.59 cm**-1
    32:    1448.90 cm**-1
    33:    1482.73 cm**-1
    34:    1539.60 cm**-1
    35:    1610.80 cm**-1
    36:    1736.27 cm**-1
    37:    3164.01 cm**-1
    38:    3168.97 cm**-1
    39:    3197.06 cm**-1
    40:    3203.22 cm**-1
    41:    3214.71 cm**-1

IR SPECTRUM
-----------

 Mode   freq       eps      Int      T**2         TX        TY        TZ
       cm**-1   L/(mol*cm) km/mol    a.u.
----------------------------------------------------------------------------
  6:     80.49   0.000100    0.50  0.000386  (-0.000319 -0.000560 -0.019639)
  7:    132.55   0.000092    0.46  0.000216  (-0.000398 -0.000546  0.014691)
  8:    162.10   0.000957    4.84  0.001843  ( 0.033871  0.026369  0.000154)
  9:    281.36   0.016081   81.27  0.017836  ( 0.097963  0.090773  0.000103)
 10:    348.05   0.000320    1.62  0.000287  (-0.000195  0.000244 -0.016933)
 11:    362.47   0.005591   28.25  0.004813  ( 0.033795  0.060590 -0.000039)
 12:    430.40   0.000074    0.38  0.000054  ( 0.000126  0.000088 -0.007342)
 13:    480.03   0.007243   36.60  0.004708  (-0.065357 -0.020901  0.000102)
 14:    505.30   0.007181   36.29  0.004435  (-0.000268  0.000005  0.066595)
 15:    612.88   0.025694  129.85  0.013083  (-0.086749 -0.074549 -0.000218)
 16:    621.63   0.023281  117.65  0.011687  ( 0.086054  0.065438 -0.000277)
 17:    679.66   0.023857  120.57  0.010954  ( 0.000086  0.000244 -0.104661)
 18:    717.27   0.013696   69.21  0.005959  (-0.000106  0.000051 -0.077193)
 19:    810.81   0.000016    0.08  0.000006  ( 0.000118  0.000090  0.002508)
 20:    823.24   0.037603  190.03  0.014254  ( 0.072267  0.095034 -0.000030)
 21:    829.75   0.003595   18.17  0.001352  (-0.000057 -0.000285 -0.036770)
 22:    976.26   0.000004    0.02  0.000001  ( 0.000228  0.000157 -0.001040)
 23:    979.86   0.000008    0.04  0.000003  (-0.000418  0.000680  0.001369)
 24:    985.70   0.004377   22.12  0.001386  ( 0.029599 -0.022571  0.000109)
 25:   1018.09   0.021629  109.30  0.006630  (-0.077665  0.024450  0.000066)
 26:   1089.13   0.002306   11.66  0.000661  ( 0.017245 -0.019064 -0.000000)
 27:   1139.21   0.002527   12.77  0.000692  ( 0.008144 -0.025020  0.000033)
 28:   1164.92   0.009757   49.31  0.002614  ( 0.032981 -0.039064  0.000020)
 29:   1241.25   0.031968  161.55  0.008037  (-0.006038 -0.089447  0.000004)
 30:   1305.05   0.002232   11.28  0.000534  ( 0.023068  0.001248 -0.000024)
 31:   1362.59   0.011006   55.62  0.002521  (-0.023391 -0.044424 -0.000067)
 32:   1448.90   0.002751   13.90  0.000593  (-0.015714  0.018592  0.000023)
 33:   1482.73   0.015806   79.88  0.003327  (-0.042071  0.039456  0.000015)
 34:   1539.60   0.004164   21.04  0.000844  (-0.015797  0.024383 -0.000019)
 35:   1610.80   0.097897  494.73  0.018966  (-0.123949  0.060020  0.000040)
 36:   1736.27   0.174887  883.81  0.031433  (-0.119794  0.130698 -0.000018)
 37:   3164.01   0.002078   10.50  0.000205  (-0.014224 -0.001614 -0.000028)
 38:   3168.97   0.006882   34.78  0.000678  ( 0.002607  0.025901 -0.000076)
 39:   3197.06   0.004154   20.99  0.000405  ( 0.008010 -0.018475  0.000038)
 40:   3203.22   0.005871   29.67  0.000572  ( 0.021311  0.010855  0.000031)
 41:   3214.71   0.001602    8.10  0.000156  (-0.001953  0.012318  0.000037)

--------------------------
THERMOCHEMISTRY AT 298.15K
--------------------------

Temperature         ...   298.15 K
Pressure            ...     1.00 atm
Total Mass          ...   140.57 AMU
Quasi RRHO          ...     True
Cut-Off Frequency   ...     1.00 cm^-1

Throughout the following assumptions are being made:
  (1) The electronic state is orbitally nondegenerate
      but the spin degeneracy is treated
  (2) There are no thermally accessible electronically excited states
  (3) Hindered rotations indicated by low frequency modes are not
      treated as such but are treated as vibrations and this may
      cause some error
  (4) All equations used are the standard statistical mechanics
      equations for an ideal gas
  (5) All vibrations are strictly harmonic

freq.      80.49  E(vib)   ...       0.48
freq.     132.55  E(vib)   ...       0.42
freq.     162.10  E(vib)   ...       0.39
freq.     281.36  E(vib)   ...       0.28
freq.     348.05  E(vib)   ...       0.23
freq.     362.47  E(vib)   ...       0.22
freq.     430.40  E(vib)   ...       0.18
freq.     480.03  E(vib)   ...       0.15
freq.     505.30  E(vib)   ...       0.14
freq.     612.88  E(vib)   ...       0.10
freq.     621.63  E(vib)   ...       0.09
freq.     679.66  E(vib)   ...       0.08
freq.     717.27  E(vib)   ...       0.07
freq.     810.81  E(vib)   ...       0.05
freq.     823.24  E(vib)   ...       0.05
freq.     829.75  E(vib)   ...       0.04
freq.     976.26  E(vib)   ...       0.03
freq.     979.86  E(vib)   ...       0.02
freq.     985.70  E(vib)   ...       0.02
freq.    1018.09  E(vib)   ...       0.02
freq.    1089.13  E(vib)   ...       0.02
freq.    1139.21  E(vib)   ...       0.01
freq.    1164.92  E(vib)   ...       0.01
freq.    1241.25  E(vib)   ...       0.01
freq.    1305.05  E(vib)   ...       0.01
freq.    1362.59  E(vib)   ...       0.01
freq.    1448.90  E(vib)   ...       0.00
freq.    1482.73  E(vib)   ...       0.00
freq.    1539.60  E(vib)   ...       0.00
freq.    1610.80  E(vib)   ...       0.00
freq.    1736.27  E(vib)   ...       0.00
freq.    3164.01  E(vib)   ...       0.00
freq.    3168.97  E(vib)   ...       0.00
freq.    3197.06  E(vib)   ...       0.00
freq.    3203.22  E(vib)   ...       0.00
freq.    3214.71  E(vib)   ...       0.00

------------
INNER ENERGY
------------

The inner energy is: U= E(el) + E(ZPE) + E(vib) + E(rot) + E(trans)
    E(el)   - is the total energy from the electronic structure calculation
              = E(kin-el) + E(nuc-el) + E(el-el) + E(nuc-nuc)
    E(ZPE)  - the the zero temperature vibrational energy from the frequency calculation
    E(vib)  - the the finite temperature correction to E(ZPE) due to population
              of excited vibrational states
    E(rot)  - is the rotational thermal energy
    E(trans)- is the translational thermal energy

Summary of contributions to the inner energy U:
Electronic energy                ...   -804.90321400 Eh
Zero point energy                ...      0.09774776 Eh      61.34 kcal/mol
Thermal vibrational correction   ...      0.00498567 Eh       3.13 kcal/mol
Thermal rotational correction    ...      0.00141627 Eh       0.89 kcal/mol
Thermal translational correction ...      0.00141627 Eh       0.89 kcal/mol
-----------------------------------------------------------------------
Total thermal energy                   -804.79764803 Eh

Summary of corrections to the electronic energy:
(perhaps to be used in another calculation)
Total thermal correction                  0.00781821 Eh       4.91 kcal/mol
Non-thermal (ZPE) correction              0.09774776 Eh      61.34 kcal/mol
-----------------------------------------------------------------------
Total correction                          0.10556598 Eh      66.24 kcal/mol

--------
ENTHALPY
--------

The enthalpy is H = U + kB*T
                kB is Boltzmann's constant
Total thermal energy              ...   -804.79764803 Eh
Thermal Enthalpy correction       ...      0.00094421 Eh       0.59 kcal/mol
-----------------------------------------------------------------------
Total Enthalpy                    ...   -804.79670382 Eh

Note: Only C1 symmetry has been detected, increase convergence thresholds
      if your molecule has a higher symmetry. Symmetry factor of 1.0 is
      used for the rotational entropy correction.

Note: Rotational entropy computed according to Herzberg
Infrared and Raman Spectra, Chapter V,1, Van Nostrand Reinhold, 1945
Point Group:  C1, Symmetry Number:   1
Rotational constants in cm-1:     0.101660     0.030674     0.023564

Vibrational entropy computed according to the QRRHO of S. Grimme
Chem.Eur.J. 2012 18 9955 using a reference frequency of 100.0 cm-1

-------
ENTROPY
-------

The entropy contributions are T*S = T*(S(el)+S(vib)+S(rot)+S(trans))
     S(el)   - electronic entropy
     S(vib)  - vibrational entropy
     S(rot)  - rotational entropy
     S(trans)- translational entropy
The entropies will be listed as multiplied by the temperature to get
units of energy

Electronic entropy                ...      0.00065446 Eh      0.41 kcal/mol
Vibrational entropy               ...      0.00826875 Eh      5.19 kcal/mol
Rotational entropy                ...      0.01400439 Eh      8.79 kcal/mol
Translational entropy             ...      0.01935352 Eh     12.14 kcal/mol
-----------------------------------------------------------------------
Final entropy term                ...      0.04228112 Eh     26.53 kcal/mol

In case the symmetry of your molecule has not been determined correctly
or in case you have a reason to use a different symmetry number we print
out the resulting rotational entropy values for sn=1,12:

 non-linear molecules -----------------------------------
|  sn= 1 | S(rot)=       0.01400439 Eh      8.79 kcal/mol|
|  sn= 2 | S(rot)=       0.01334994 Eh      8.38 kcal/mol|
|  sn= 3 | S(rot)=       0.01296710 Eh      8.14 kcal/mol|
|  sn= 4 | S(rot)=       0.01269548 Eh      7.97 kcal/mol|
|  sn= 5 | S(rot)=       0.01248479 Eh      7.83 kcal/mol|
|  sn= 6 | S(rot)=       0.01231265 Eh      7.73 kcal/mol|
|  sn= 7 | S(rot)=       0.01216710 Eh      7.63 kcal/mol|
|  sn= 8 | S(rot)=       0.01204102 Eh      7.56 kcal/mol|
|  sn= 9 | S(rot)=       0.01192981 Eh      7.49 kcal/mol|
|  sn=10 | S(rot)=       0.01183034 Eh      7.42 kcal/mol|
|  sn=11 | S(rot)=       0.01174035 Eh      7.37 kcal/mol|
|  sn=12 | S(rot)=       0.01165819 Eh      7.32 kcal/mol|
 linear molecules ---------------------------------------
|  Dinfh | S(rot)=       0.00886462 Eh      5.56 kcal/mol|
|  Cinfv | S(rot)=       0.00951908 Eh      5.97 kcal/mol|
 --------------------------------------------------------

-------------------
GIBBS FREE ENERGY
-------------------

The Gibbs free energy is G = H - T*S

                             ****ORCA TERMINATED NORMALLY****
TOTAL RUN TIME: 0 days 0 hours 30 minutes 24 seconds 453 msec
