                         Program Version 6.0.0  -   RELEASE  -
|  1> !B3LYP aug-cc-pVTZ d3 TightSCF SlowConv RIJCOSX defgrid2
|  2>
|  3> %pal
|  4> nprocs 4
|  5> end
|  6>
|  7> %scf
|  8> MaxIter 1500
|  9> end
| 10>
| 11> %maxcore 3000
| 12>
| 13> !CPCM
| 14> %cpcm smd true
| 15> SMDsolvent "MeCN"
| 16> surfacetype gepol_ses
| 17> rsolv 2.19
| 18> end
| 19>
| 20> * xyz 0 1
| 21> C           1.36094883267894     -0.66831836744035      0.79166505304401
| 22> C           2.61668489634387     -1.26993624441883      0.83762450630671
| 23> C           3.69751463551123     -0.71498852855237      0.15220113395429
| 24> C           3.51411500210824      0.45521897470958     -0.58452696169930
| 25> C           2.26200602044100      1.06208181225052     -0.64510108123094
| 26> C           1.18681200151517      0.49836983896063      0.04263488062587
| 27> O          -0.00001482572359      1.16979071588351      0.00005454238981
| 28> C          -1.18682038085230      0.49834069380338     -0.04260530375666
| 29> C          -2.26210069770780      1.06211241497205      0.64495038697290
| 30> C          -3.51419441314783      0.45522857582203      0.58430306316011
| 31> C          -3.69749941395526     -0.71506183581738     -0.15231803955518
| 32> C          -2.61658550079969     -1.27006941979564     -0.83755825340367
| 33> C          -1.36085917884001     -0.66843361449673     -0.79152524362506
| 34> H          -0.51558365320611     -1.09715909206061     -1.33585483016717
| 35> H          -2.75062021450227     -2.18281812892327     -1.42596293506599
| 36> H          -4.68044516686291     -1.19217947086648     -0.19470697547587
| 37> H          -4.35472302990288      0.90118829684160      1.12448028512422
| 38> H          -2.09557313650778      1.97752399950586      1.21789909020225
| 39> H           2.09540249638844      1.97742680661202     -1.21813253528145
| 40> H           4.35457955862348      0.90113009122578     -1.12484535245104
| 41> H           4.68047118965145     -1.19208889118135      0.19453111833043
| 42> H           2.75079772312689     -2.18261728806241      1.42611640363857
| 43> H           0.51573555561975     -1.09698553897151      1.33613674796315
| 44> *
| 45>
| 46>                          ****END OF INPUT****

CARTESIAN COORDINATES (ANGSTROEM)
---------------------------------
  C      1.360949   -0.668318    0.791665
  C      2.616685   -1.269936    0.837625
  C      3.697515   -0.714989    0.152201
  C      3.514115    0.455219   -0.584527
  C      2.262006    1.062082   -0.645101
  C      1.186812    0.498370    0.042635
  O     -0.000015    1.169791    0.000055
  C     -1.186820    0.498341   -0.042605
  C     -2.262101    1.062112    0.644950
  C     -3.514194    0.455229    0.584303
  C     -3.697499   -0.715062   -0.152318
  C     -2.616586   -1.270069   -0.837558
  C     -1.360859   -0.668434   -0.791525
  H     -0.515584   -1.097159   -1.335855
  H     -2.750620   -2.182818   -1.425963
  H     -4.680445   -1.192179   -0.194707
  H     -4.354723    0.901188    1.124480
  H     -2.095573    1.977524    1.217899
  H      2.095402    1.977427   -1.218133
  H      4.354580    0.901130   -1.124845
  H      4.680471   -1.192089    0.194531
  H      2.750798   -2.182617    1.426116
  H      0.515736   -1.096986    1.336137

 Total Charge           Charge          ....    0
 Multiplicity           Mult            ....    1
 Number of Electrons    NEL             ....   90
 Basis Dimension        Dim             ....  828

ORBITAL ENERGIES
----------------

  NO   OCC          E(Eh)            E(eV)
   0   2.0000     -19.174072      -521.7530
   1   2.0000     -10.240964      -278.6708
   2   2.0000     -10.240957      -278.6706
   3   2.0000     -10.179975      -277.0112
   4   2.0000     -10.179970      -277.0111
   5   2.0000     -10.179746      -277.0050
   6   2.0000     -10.179741      -277.0048
   7   2.0000     -10.177832      -276.9529
   8   2.0000     -10.177827      -276.9527
   9   2.0000     -10.176451      -276.9153
  10   2.0000     -10.176446      -276.9152
  11   2.0000     -10.173354      -276.8310
  12   2.0000     -10.173350      -276.8309
  13   2.0000      -1.093992       -29.7690
  14   2.0000      -0.864862       -23.5341
  15   2.0000      -0.849999       -23.1296
  16   2.0000      -0.768826       -20.9208
  17   2.0000      -0.751923       -20.4609
  18   2.0000      -0.747820       -20.3492
  19   2.0000      -0.725003       -19.7283
  20   2.0000      -0.640434       -17.4271
  21   2.0000      -0.618731       -16.8365
  22   2.0000      -0.606504       -16.5038
  23   2.0000      -0.579193       -15.7606
  24   2.0000      -0.547742       -14.9048
  25   2.0000      -0.507488       -13.8094
  26   2.0000      -0.485751       -13.2180
  27   2.0000      -0.480900       -13.0860
  28   2.0000      -0.473104       -12.8738
  29   2.0000      -0.442256       -12.0344
  30   2.0000      -0.438712       -11.9380
  31   2.0000      -0.423008       -11.5106
  32   2.0000      -0.422354       -11.4928
  33   2.0000      -0.407830       -11.0976
  34   2.0000      -0.402705       -10.9582
  35   2.0000      -0.370866       -10.0918
  36   2.0000      -0.365366        -9.9421
  37   2.0000      -0.360184        -9.8011
  38   2.0000      -0.355723        -9.6797
  39   2.0000      -0.337894        -9.1946
  40   2.0000      -0.331858        -9.0303
  41   2.0000      -0.264669        -7.2020
  42   2.0000      -0.258287        -7.0284
  43   2.0000      -0.256458        -6.9786
  44   2.0000      -0.224767        -6.1162
  45   0.0000      -0.025654        -0.6981
  46   0.0000      -0.018979        -0.5164
  47   0.0000      -0.009972        -0.2714
  48   0.0000      -0.003652        -0.0994
  49   0.0000      -0.000083        -0.0023

MULLIKEN ATOMIC CHARGES
-----------------------
   0 C :   -0.493534
   1 C :   -0.594341
   2 C :   -0.530744
   3 C :   -0.392546
   4 C :   -1.262340
   5 C :    1.523834
   6 O :   -0.829627
   7 C :    1.520188
   8 C :   -1.258986
   9 C :   -0.400153
  10 C :   -0.535830
  11 C :   -0.594086
  12 C :   -0.493651
  13 H :    0.475273
  14 H :    0.402048
  15 H :    0.428250
  16 H :    0.426279
  17 H :    0.443674
  18 H :    0.447675
  19 H :    0.413581
  20 H :    0.428851
  21 H :    0.398995
  22 H :    0.477192
Sum of atomic charges:    0.0000000

LOEWDIN ATOMIC CHARGES
----------------------
   0 C :    0.194528
   1 C :    0.182358
   2 C :    0.176910
   3 C :    0.175714
   4 C :    0.198910
   5 C :   -0.403366
   6 O :    0.621727
   7 C :   -0.403376
   8 C :    0.198900
   9 C :    0.175712
  10 C :    0.176914
  11 C :    0.182359
  12 C :    0.194517
  13 H :   -0.162803
  14 H :   -0.166232
  15 H :   -0.173112
  16 H :   -0.167562
  17 H :   -0.166195
  18 H :   -0.166193
  19 H :   -0.167571
  20 H :   -0.173115
  21 H :   -0.166236
  22 H :   -0.162788

  Mayer bond orders larger than 0.100000
B(  0-C ,  1-C ) :   1.1614 B(  0-C ,  4-C ) :   0.3219 B(  0-C ,  5-C ) :   0.8738
B(  0-C ,  7-C ) :  -0.1037 B(  0-C , 12-C ) :   0.2876 B(  0-C , 22-H ) :   0.5507
B(  1-C ,  2-C ) :   1.2408 B(  1-C ,  4-C ) :  -0.1389 B(  1-C ,  5-C ) :  -0.2691
B(  1-C , 21-H ) :   0.7734 B(  2-C ,  3-C ) :   1.2738 B(  2-C ,  4-C ) :   0.3839
B(  2-C , 20-H ) :   0.6894 B(  3-C ,  4-C ) :   1.2894 B(  3-C ,  5-C ) :  -0.3427
B(  3-C , 19-H ) :   0.7438 B(  4-C ,  5-C ) :   0.1865 B(  4-C ,  6-O ) :   0.2155
B(  4-C , 18-H ) :   0.4551 B(  5-C ,  6-O ) :   0.4574 B(  6-O ,  7-C ) :   0.4540
B(  6-O ,  8-C ) :   0.2166 B(  7-C ,  8-C ) :   0.1853 B(  7-C ,  9-C ) :  -0.3424
B(  7-C , 11-C ) :  -0.2667 B(  7-C , 12-C ) :   0.8727 B(  8-C ,  9-C ) :   1.2852
B(  8-C , 10-C ) :   0.3818 B(  8-C , 11-C ) :  -0.1428 B(  8-C , 12-C ) :   0.3201
B(  8-C , 17-H ) :   0.4602 B(  9-C , 10-C ) :   1.2764 B(  9-C , 16-H ) :   0.7274
B( 10-C , 11-C ) :   1.2422 B( 10-C , 15-H ) :   0.6913 B( 11-C , 12-C ) :   1.1619
B( 11-C , 14-H ) :   0.7667 B( 12-C , 13-H ) :   0.5524

Dispersion correction           -0.045932458
FINAL SINGLE POINT ENERGY      -538.435383615410

DIPOLE MOMENT
-------------

Method             : SCF
Type of density    : Electron Density
Multiplicity       :   1
Irrep              :   0
Energy             :  -538.3894511574167154 Eh
Relativity type    :
Basis              : AO
                                X                 Y                 Z
Electronic contribution:     -0.000072089       2.470782214       0.000296188
Nuclear contribution   :      0.000034886      -2.982425974      -0.000176877
                        -----------------------------------------
Total Dipole Moment    :     -0.000037203      -0.511643761       0.000119311
                        -----------------------------------------
Magnitude (a.u.)       :      0.511643776
Magnitude (Debye)      :      1.300495126

Rotational constants in cm-1:             0.080234             0.014509             0.013552
Rotational constants in MHz :          2405.352266           434.979833           406.266844

                             ****ORCA TERMINATED NORMALLY****
TOTAL RUN TIME: 0 days 0 hours 9 minutes 27 seconds 380 msec
