                         Program Version 6.0.0  -   RELEASE  -
|  1> !B3LYP aug-cc-pVTZ d3 TightSCF SlowConv RIJCOSX defgrid2
|  2>
|  3> %pal
|  4> nprocs 4
|  5> end
|  6>
|  7> %scf
|  8> MaxIter 1500
|  9> end
| 10>
| 11> %maxcore 3000
| 12>
| 13> !CPCM
| 14> %cpcm smd true
| 15> SMDsolvent "MeCN"
| 16> surfacetype gepol_ses
| 17> rsolv 2.19
| 18> end
| 19>
| 20> * xyz 0 1
| 21> C          -2.28943628984998     -1.08285381421457     -0.27215993229653
| 22> C          -1.22862023156136      0.01586077259453     -0.25601491731078
| 23> N           0.00661098110282     -0.50212633579045      0.31354199000874
| 24> H           0.04448546198884     -0.34374633262279      1.31992834627211
| 25> C           1.26761402703144     -0.16050590389698     -0.31641071653716
| 26> C           1.61227695016871      1.33248737268488     -0.33804198779464
| 27> H           1.67848646199772      1.73094232260326      0.69159025810039
| 28> H           0.85105477369420      1.91805645848033     -0.88142696576002
| 29> H           2.58358136031093      1.51068050094161     -0.83364819199688
| 30> C           2.37625730002657     -0.96447955561106      0.35107581249572
| 31> H           2.13332648923035     -2.03958118968627      0.33268241243102
| 32> H           3.34622361909672     -0.80670159196001     -0.15062911203137
| 33> H           2.49537611972548     -0.65946405577216      1.40819901441394
| 34> H           1.19295505843491     -0.50230950030642     -1.36701945226968
| 35> C          -1.75092025319689      1.26393539098600      0.45804448286514
| 36> H          -1.01077279835727      2.08120251713453      0.44660788818213
| 37> H          -1.98089959571268      1.02983730439430      1.51486395854639
| 38> H          -2.68129026142747      1.63712259892000     -0.00568309259664
| 39> H          -1.00714489185693      0.28572149795558     -1.30571438011138
| 40> H          -1.91525958204469     -1.96452646149950     -0.81800405837007
| 41> H          -2.52324219300596     -1.40342780976556      0.75957368070162
| 42> H          -3.22778530579547     -0.74080268556924     -0.74485933694205
| 43> *
| 44>
| 45>                          ****END OF INPUT****

CARTESIAN COORDINATES (ANGSTROEM)
---------------------------------
  C     -2.289436   -1.082854   -0.272160
  C     -1.228620    0.015861   -0.256015
  N      0.006611   -0.502126    0.313542
  H      0.044485   -0.343746    1.319928
  C      1.267614   -0.160506   -0.316411
  C      1.612277    1.332487   -0.338042
  H      1.678486    1.730942    0.691590
  H      0.851055    1.918056   -0.881427
  H      2.583581    1.510681   -0.833648
  C      2.376257   -0.964480    0.351076
  H      2.133326   -2.039581    0.332682
  H      3.346224   -0.806702   -0.150629
  H      2.495376   -0.659464    1.408199
  H      1.192955   -0.502310   -1.367019
  C     -1.750920    1.263935    0.458044
  H     -1.010773    2.081203    0.446608
  H     -1.980900    1.029837    1.514864
  H     -2.681290    1.637123   -0.005683
  H     -1.007145    0.285721   -1.305714
  H     -1.915260   -1.964526   -0.818004
  H     -2.523242   -1.403428    0.759574
  H     -3.227785   -0.740803   -0.744859

 Total Charge           Charge          ....    0
 Multiplicity           Mult            ....    1
 Number of Electrons    NEL             ....   58
 Basis Dimension        Dim             ....  667

ORBITAL ENERGIES
----------------

  NO   OCC          E(Eh)            E(eV)
   0   2.0000     -14.283831      -388.6828
   1   2.0000     -10.190644      -277.3015
   2   2.0000     -10.190060      -277.2856
   3   2.0000     -10.151187      -276.2278
   4   2.0000     -10.150862      -276.2190
   5   2.0000     -10.149288      -276.1762
   6   2.0000     -10.148767      -276.1620
   7   2.0000      -0.899897       -24.4874
   8   2.0000      -0.778093       -21.1730
   9   2.0000      -0.717636       -19.5279
  10   2.0000      -0.675382       -18.3781
  11   2.0000      -0.668835       -18.1999
  12   2.0000      -0.575807       -15.6685
  13   2.0000      -0.571636       -15.5550
  14   2.0000      -0.469744       -12.7824
  15   2.0000      -0.458931       -12.4882
  16   2.0000      -0.427908       -11.6440
  17   2.0000      -0.414018       -11.2660
  18   2.0000      -0.412809       -11.2331
  19   2.0000      -0.391256       -10.6466
  20   2.0000      -0.379275       -10.3206
  21   2.0000      -0.372158       -10.1269
  22   2.0000      -0.369204       -10.0466
  23   2.0000      -0.344784        -9.3821
  24   2.0000      -0.342079        -9.3084
  25   2.0000      -0.323377        -8.7995
  26   2.0000      -0.320928        -8.7329
  27   2.0000      -0.316104        -8.6016
  28   2.0000      -0.210977        -5.7410
  29   0.0000      -0.002089        -0.0569
  30   0.0000       0.010422         0.2836
  31   0.0000       0.011958         0.3254
  32   0.0000       0.013954         0.3797
  33   0.0000       0.030538         0.8310

MULLIKEN ATOMIC CHARGES
-----------------------
   0 C :   -1.190575
   1 C :    1.029339
   2 N :   -0.565030
   3 H :   -0.081553
   4 C :    0.897089
   5 C :   -0.833741
   6 H :    0.219359
   7 H :    0.207253
   8 H :    0.173113
   9 C :   -1.110223
  10 H :    0.173709
  11 H :    0.187193
  12 H :    0.191082
  13 H :    0.283977
  14 C :   -0.958705
  15 H :    0.226831
  16 H :    0.183764
  17 H :    0.176460
  18 H :    0.246412
  19 H :    0.162927
  20 H :    0.190498
  21 H :    0.190822
Sum of atomic charges:   -0.0000000

LOEWDIN ATOMIC CHARGES
----------------------
   0 C :    0.562838
   1 C :   -0.198158
   2 N :    0.570077
   3 H :   -0.279437
   4 C :   -0.202369
   5 C :    0.570925
   6 H :   -0.148833
   7 H :   -0.171424
   8 H :   -0.155169
   9 C :    0.559865
  10 H :   -0.161177
  11 H :   -0.155853
  12 H :   -0.152217
  13 H :   -0.124561
  14 C :    0.573297
  15 H :   -0.174018
  16 H :   -0.150839
  17 H :   -0.153247
  18 H :   -0.129691
  19 H :   -0.164336
  20 H :   -0.157688
  21 H :   -0.157983

  Mayer bond orders larger than 0.100000
B(  0-C ,  1-C ) :   0.3381 B(  0-C ,  2-N ) :   0.1402 B(  0-C , 14-C ) :   0.1704
B(  0-C , 19-H ) :   1.0656 B(  0-C , 20-H ) :   1.0384 B(  0-C , 21-H ) :   1.0464
B(  1-C ,  2-N ) :   0.7732 B(  1-C , 14-C ) :   0.5907 B(  1-C , 18-H ) :   0.9298
B(  2-N ,  3-H ) :   0.9770 B(  2-N ,  4-C ) :   0.7148 B(  2-N ,  9-C ) :   0.1130
B(  2-N , 13-H ) :  -0.1244 B(  4-C ,  5-C ) :   0.6929 B(  4-C ,  9-C ) :   0.4537
B(  4-C , 13-H ) :   0.9144 B(  5-C ,  6-H ) :   0.9760 B(  5-C ,  7-H ) :   0.9899
B(  5-C ,  8-H ) :   1.0088 B(  5-C ,  9-C ) :   0.1601 B(  9-C , 10-H ) :   1.0307
B(  9-C , 11-H ) :   1.0673 B(  9-C , 12-H ) :   1.0186 B( 14-C , 15-H ) :   0.9600
B( 14-C , 16-H ) :   1.0151 B( 14-C , 17-H ) :   1.0326

Dispersion correction           -0.030380158
FINAL SINGLE POINT ENERGY      -292.364036575587

DIPOLE MOMENT
-------------

Method             : SCF
Type of density    : Electron Density
Multiplicity       :   1
Irrep              :   0
Energy             :  -292.3336564178287631 Eh
Relativity type    :
Basis              : AO
                                X                 Y                 Z
Electronic contribution:      0.076664847      -1.168899060      -0.301899322
Nuclear contribution   :     -0.008091156       1.682730653       0.307275943
                        -----------------------------------------
Total Dipole Moment    :      0.068573690       0.513831593       0.005376621
                        -----------------------------------------
Magnitude (a.u.)       :      0.518415051
Magnitude (Debye)      :      1.317706340

Rotational constants in cm-1:             0.137775             0.051485             0.041834
Rotational constants in MHz :          4130.376208          1543.470169          1254.154944

                             ****ORCA TERMINATED NORMALLY****
TOTAL RUN TIME: 0 days 0 hours 3 minutes 49 seconds 433 msec
