                         Program Version 6.0.0  -   RELEASE  -
|  1> !PBE0 def2-SV(p) Opt Freq d3 TightSCF SlowConv RIJCOSX defgrid2
|  2>
|  3> %pal
|  4> nprocs 4
|  5> end
|  6>
|  7> %scf
|  8> MaxIter 1500
|  9> end
| 10>
| 11> %maxcore 3000
| 12>
| 13>
| 14>
| 15> * xyz 0 1
| 16> C    -0.4722032    1.1978461    0.0001838
| 17> C     0.9099071    1.2083748    0.0001786
| 18> C     1.6045847    0.0073429    0.0000142
| 19> C     0.9312792   -1.2057627   -0.0001298
| 20> C    -0.4488775   -1.2050996   -0.0001116
| 21> C    -1.1717436   -0.0097299    0.0000333
| 22> C    -2.6559768   -0.0916384    0.0000109
| 23> O    -3.2262272   -1.1672854    0.0002719
| 24> C    -3.4198951    1.2052261   -0.0003405
| 25> H    -3.1672867    1.7856808    0.8838549
| 26> H    -3.1668844    1.7854653   -0.8845585
| 27> H    -4.4861628    0.9933823   -0.0005379
| 28> H    -0.9966491   -2.1356134   -0.0002230
| 29> H     1.4821633   -2.1327046   -0.0002552
| 30> Cl    3.3367026    0.0230795   -0.0000089
| 31> H     1.4504249    2.1414519    0.0002984
| 32> H    -0.9960998    2.1393207    0.0003215
| 33> *
| 34>
| 35>                          ****END OF INPUT****
 Total Charge           Charge          ....    0
 Multiplicity           Mult            ....    1
 Number of Electrons    NEL             ....   80
Dispersion correction           -0.017152354
FINAL SINGLE POINT ENERGY      -843.475161059168
Dispersion correction             ... done (  0.1 sec)
Dispersion correction           -0.017073548
FINAL SINGLE POINT ENERGY      -843.476753570524
Dispersion correction             ... done (  0.1 sec)
Dispersion correction           -0.017062338
FINAL SINGLE POINT ENERGY      -843.476807647138
Dispersion correction             ... done (  0.1 sec)
Dispersion correction           -0.017060029
FINAL SINGLE POINT ENERGY      -843.476822824273
Dispersion correction             ... done (  0.1 sec)
Dispersion correction           -0.017061299
FINAL SINGLE POINT ENERGY      -843.476824283859
Dispersion correction             ... done (  0.1 sec)
                    ***********************HURRAY********************

CARTESIAN COORDINATES (ANGSTROEM)
---------------------------------
  C     -0.459623    1.199302    0.000622
  C      0.931876    1.212923    0.000210
  C      1.624614    0.002644   -0.000233
  C      0.941470   -1.215729   -0.000248
  C     -0.446291   -1.212780    0.000194
  C     -1.164571   -0.010039    0.000663
  C     -2.659435   -0.086196    0.001259
  O     -3.218498   -1.160653   -0.000681
  C     -3.445147    1.203608   -0.000426
  H     -3.209010    1.813488    0.889081
  H     -3.207226    1.812459   -0.890170
  H     -4.517918    0.962133   -0.001298
  H     -1.011788   -2.148282    0.000232
  H      1.504230   -2.151946   -0.000596
  Cl     3.352414    0.010907   -0.000785
  H      1.485330    2.154415    0.000215
  H     -0.993371    2.153082    0.000962

 Multiplicity           Mult            ....    1
 Number of Electrons    NEL             ....   80
 Basis Dimension        Dim             ....  158

ORBITAL ENERGIES
----------------

  NO   OCC          E(Eh)            E(eV)
   0   2.0000    -101.692822     -2767.2024
   1   2.0000     -19.203831      -522.5628
   2   2.0000     -10.328697      -281.0581
   3   2.0000     -10.312913      -280.6286
   4   2.0000     -10.265509      -279.3387
   5   2.0000     -10.261627      -279.2331
   6   2.0000     -10.259580      -279.1774
   7   2.0000     -10.258597      -279.1506
   8   2.0000     -10.257266      -279.1144
   9   2.0000     -10.237965      -278.5892
  10   2.0000      -9.544701      -259.7245
  11   2.0000      -7.285967      -198.2612
  12   2.0000      -7.276552      -198.0050
  13   2.0000      -7.275996      -197.9899
  14   2.0000      -1.066811       -29.0294
  15   2.0000      -0.929749       -25.2997
  16   2.0000      -0.874942       -23.8084
  17   2.0000      -0.793968       -21.6050
  18   2.0000      -0.785262       -21.3681
  19   2.0000      -0.749760       -20.4020
  20   2.0000      -0.650791       -17.7089
  21   2.0000      -0.643930       -17.5222
  22   2.0000      -0.583470       -15.8770
  23   2.0000      -0.530504       -14.4358
  24   2.0000      -0.509550       -13.8656
  25   2.0000      -0.486004       -13.2248
  26   2.0000      -0.477479       -12.9929
  27   2.0000      -0.469050       -12.7635
  28   2.0000      -0.460355       -12.5269
  29   2.0000      -0.444549       -12.0968
  30   2.0000      -0.426858       -11.6154
  31   2.0000      -0.419199       -11.4070
  32   2.0000      -0.396172       -10.7804
  33   2.0000      -0.388313       -10.5665
  34   2.0000      -0.382480       -10.4078
  35   2.0000      -0.353879        -9.6295
  36   2.0000      -0.333610        -9.0780
  37   2.0000      -0.291913        -7.9434
  38   2.0000      -0.272835        -7.4242
  39   2.0000      -0.270774        -7.3681
  40   0.0000      -0.064631        -1.7587
  41   0.0000      -0.025923        -0.7054
  42   0.0000       0.030250         0.8231
  43   0.0000       0.040407         1.0995
  44   0.0000       0.074011         2.0139

MULLIKEN ATOMIC CHARGES
-----------------------
   0 C :   -0.144154
   1 C :   -0.080894
   2 C :    0.078730
   3 C :   -0.082139
   4 C :   -0.123623
   5 C :    0.010944
   6 C :    0.086388
   7 O :   -0.212170
   8 C :   -0.343284
   9 H :    0.153660
  10 H :    0.153874
  11 H :    0.153802
  12 H :    0.123082
  13 H :    0.105611
  14 Cl:   -0.084615
  15 H :    0.101918
  16 H :    0.102871
Sum of atomic charges:    0.0000000

LOEWDIN ATOMIC CHARGES
----------------------
   0 C :   -0.102228
   1 C :   -0.142762
   2 C :   -0.118035
   3 C :   -0.139384
   4 C :   -0.078797
   5 C :   -0.092002
   6 C :    0.070034
   7 O :   -0.149466
   8 C :   -0.368644
   9 H :    0.143929
  10 H :    0.144014
  11 H :    0.143445
  12 H :    0.147009
  13 H :    0.140294
  14 Cl:    0.128139
  15 H :    0.139239
  16 H :    0.135212

  Mayer bond orders larger than 0.100000
B(  0-C ,  1-C ) :   1.3881 B(  0-C ,  5-C ) :   1.3695 B(  0-C , 16-H ) :   0.9454
B(  1-C ,  2-C ) :   1.3925 B(  1-C , 15-H ) :   0.9607 B(  2-C ,  3-C ) :   1.3716
B(  2-C , 14-Cl) :   0.9868 B(  3-C ,  4-C ) :   1.3775 B(  3-C , 13-H ) :   0.9648
B(  4-C ,  5-C ) :   1.3814 B(  4-C , 12-H ) :   0.9497 B(  5-C ,  6-C ) :   0.9281
B(  6-C ,  7-O ) :   2.1383 B(  6-C ,  8-C ) :   1.0989 B(  8-C ,  9-H ) :   0.9222
B(  8-C , 10-H ) :   0.9224 B(  8-C , 11-H ) :   0.9350

Dispersion correction           -0.017062587
FINAL SINGLE POINT ENERGY      -843.476823731459

DIPOLE MOMENT
-------------

Method             : SCF
Type of density    : Electron Density
Multiplicity       :   1
Irrep              :   0
Energy             :  -843.4597611439902494 Eh
Relativity type    :
Basis              : AO
                                X                 Y                 Z
Electronic contribution:     14.090911795      -3.406025164       0.000650918
Nuclear contribution   :    -13.920982286       4.293464133       0.000100521
                        -----------------------------------------
Total Dipole Moment    :      0.169929509       0.887438969       0.000751439
                        -----------------------------------------
Magnitude (a.u.)       :      0.903562132
Magnitude (Debye)      :      2.296672420

VIBRATIONAL FREQUENCIES
-----------------------

Scaling factor for frequencies =  1.000000000  (already applied!)

     0:       0.00 cm**-1
     1:       0.00 cm**-1
     2:       0.00 cm**-1
     3:       0.00 cm**-1
     4:       0.00 cm**-1
     5:       0.00 cm**-1
     6:      68.32 cm**-1
     7:      88.43 cm**-1
     8:     173.88 cm**-1
     9:     175.03 cm**-1
    10:     260.26 cm**-1
    11:     304.45 cm**-1
    12:     319.78 cm**-1
    13:     422.70 cm**-1
    14:     447.88 cm**-1
    15:     484.43 cm**-1
    16:     540.30 cm**-1
    17:     604.01 cm**-1
    18:     640.60 cm**-1
    19:     641.86 cm**-1
    20:     752.31 cm**-1
    21:     789.12 cm**-1
    22:     843.65 cm**-1
    23:     861.63 cm**-1
    24:     972.66 cm**-1
    25:     985.10 cm**-1
    26:    1014.00 cm**-1
    27:    1029.04 cm**-1
    28:    1052.85 cm**-1
    29:    1105.04 cm**-1
    30:    1123.20 cm**-1
    31:    1135.55 cm**-1
    32:    1189.32 cm**-1
    33:    1305.83 cm**-1
    34:    1309.15 cm**-1
    35:    1381.78 cm**-1
    36:    1397.89 cm**-1
    37:    1452.08 cm**-1
    38:    1455.68 cm**-1
    39:    1462.47 cm**-1
    40:    1539.25 cm**-1
    41:    1655.90 cm**-1
    42:    1684.48 cm**-1
    43:    1838.67 cm**-1
    44:    3045.75 cm**-1
    45:    3133.58 cm**-1
    46:    3179.82 cm**-1
    47:    3216.33 cm**-1
    48:    3221.09 cm**-1
    49:    3232.75 cm**-1
    50:    3234.34 cm**-1

IR SPECTRUM
-----------

 Mode   freq       eps      Int      T**2         TX        TY        TZ
       cm**-1   L/(mol*cm) km/mol    a.u.
----------------------------------------------------------------------------
  6:     68.32   0.000435    2.20  0.001987  (-0.000091  0.000001  0.044579)
  7:     88.43   0.000235    1.19  0.000831  (-0.000025 -0.000045  0.028828)
  8:    173.88   0.000096    0.49  0.000172  ( 0.004857 -0.002259 -0.011983)
  9:    175.03   0.000789    3.99  0.001407  ( 0.033902 -0.015949  0.001701)
 10:    260.26   0.000013    0.06  0.000015  ( 0.000029  0.000029 -0.003923)
 11:    304.45   0.000435    2.20  0.000446  (-0.018898 -0.009405 -0.000009)
 12:    319.78   0.000140    0.71  0.000137  (-0.011002 -0.003974 -0.000018)
 13:    422.70   0.000000    0.00  0.000000  (-0.000011  0.000005  0.000270)
 14:    447.88   0.000608    3.07  0.000424  (-0.017130  0.011413  0.000023)
 15:    484.43   0.001017    5.14  0.000655  (-0.000133 -0.000021 -0.025597)
 16:    540.30   0.005117   25.86  0.002955  ( 0.053951 -0.006679 -0.000044)
 17:    604.01   0.002552   12.90  0.001318  ( 0.000029  0.000098 -0.036309)
 18:    640.60   0.000195    0.99  0.000095  ( 0.005757 -0.007879 -0.000003)
 19:    641.86   0.000953    4.82  0.000464  ( 0.018046 -0.011740 -0.000085)
 20:    752.31   0.000215    1.08  0.000089  (-0.000009 -0.000011  0.009436)
 21:    789.12   0.004191   21.18  0.001657  (-0.040708 -0.000305  0.000008)
 22:    843.65   0.004059   20.51  0.001501  ( 0.000004 -0.000005 -0.038748)
 23:    861.63   0.004459   22.54  0.001615  (-0.000004  0.000032 -0.040189)
 24:    972.66   0.005591   28.25  0.001794  ( 0.040778 -0.011442  0.000013)
 25:    985.10   0.000026    0.13  0.000008  (-0.000025 -0.000019  0.002847)
 26:   1014.00   0.000132    0.67  0.000041  (-0.000008 -0.000043  0.006366)
 27:   1029.04   0.003672   18.56  0.001113  (-0.033155  0.003769  0.000012)
 28:   1052.85   0.000451    2.28  0.000134  (-0.000035 -0.000033  0.011565)
 29:   1105.04   0.000818    4.13  0.000231  ( 0.014677 -0.003949  0.000017)
 30:   1123.20   0.002273   11.49  0.000632  ( 0.006535  0.024267  0.000011)
 31:   1135.55   0.011517   58.20  0.003165  (-0.056032  0.005052  0.000018)
 32:   1189.32   0.001271    6.42  0.000333  ( 0.018089 -0.002487  0.000005)
 33:   1305.83   0.036454  184.22  0.008712  ( 0.093009 -0.007816 -0.000009)
 34:   1309.15   0.001086    5.49  0.000259  ( 0.015571 -0.004064 -0.000006)
 35:   1381.78   0.013419   67.81  0.003031  (-0.044729  0.032092 -0.000033)
 36:   1397.89   0.008237   41.63  0.001839  (-0.040972  0.012657 -0.000025)
 37:   1452.08   0.002158   10.91  0.000464  (-0.008777 -0.019668 -0.000094)
 38:   1455.68   0.005955   30.09  0.001277  (-0.028819  0.021119 -0.000055)
 39:   1462.47   0.002887   14.59  0.000616  (-0.000115  0.000020  0.024821)
 40:   1539.25   0.001742    8.80  0.000353  ( 0.017829  0.005941 -0.000022)
 41:   1655.90   0.002404   12.15  0.000453  (-0.020785  0.004591 -0.000004)
 42:   1684.48   0.021177  107.02  0.003923  ( 0.062365  0.005817 -0.000010)
 43:   1838.67   0.037514  189.58  0.006367  ( 0.050208  0.062018 -0.000006)
 44:   3045.75   0.000198    1.00  0.000020  ( 0.002766  0.003557  0.000031)
 45:   3133.58   0.000460    2.32  0.000046  ( 0.000028 -0.000039 -0.006767)
 46:   3179.82   0.000853    4.31  0.000084  (-0.009128  0.000599 -0.000012)
 47:   3216.33   0.000518    2.62  0.000050  ( 0.005424 -0.004568 -0.000003)
 48:   3221.09   0.000089    0.45  0.000009  (-0.002675 -0.001211 -0.000001)
 49:   3232.75   0.000283    1.43  0.000027  (-0.002982  0.004292  0.000001)
 50:   3234.34   0.000316    1.60  0.000031  (-0.005281 -0.001618 -0.000002)

--------------------------
THERMOCHEMISTRY AT 298.15K
--------------------------

Temperature         ...   298.15 K
Pressure            ...     1.00 atm
Total Mass          ...   154.60 AMU
Quasi RRHO          ...     True
Cut-Off Frequency   ...     1.00 cm^-1

Throughout the following assumptions are being made:
  (1) The electronic state is orbitally nondegenerate
  (2) There are no thermally accessible electronically excited states
  (3) Hindered rotations indicated by low frequency modes are not
      treated as such but are treated as vibrations and this may
      cause some error
  (4) All equations used are the standard statistical mechanics
      equations for an ideal gas
  (5) All vibrations are strictly harmonic

freq.      68.32  E(vib)   ...       0.50
freq.      88.43  E(vib)   ...       0.48
freq.     173.88  E(vib)   ...       0.38
freq.     175.03  E(vib)   ...       0.38
freq.     260.26  E(vib)   ...       0.30
freq.     304.45  E(vib)   ...       0.26
freq.     319.78  E(vib)   ...       0.25
freq.     422.70  E(vib)   ...       0.18
freq.     447.88  E(vib)   ...       0.17
freq.     484.43  E(vib)   ...       0.15
freq.     540.30  E(vib)   ...       0.12
freq.     604.01  E(vib)   ...       0.10
freq.     640.60  E(vib)   ...       0.09
freq.     641.86  E(vib)   ...       0.09
freq.     752.31  E(vib)   ...       0.06
freq.     789.12  E(vib)   ...       0.05
freq.     843.65  E(vib)   ...       0.04
freq.     861.63  E(vib)   ...       0.04
freq.     972.66  E(vib)   ...       0.03
freq.     985.10  E(vib)   ...       0.02
freq.    1014.00  E(vib)   ...       0.02
freq.    1029.04  E(vib)   ...       0.02
freq.    1052.85  E(vib)   ...       0.02
freq.    1105.04  E(vib)   ...       0.02
freq.    1123.20  E(vib)   ...       0.01
freq.    1135.55  E(vib)   ...       0.01
freq.    1189.32  E(vib)   ...       0.01
freq.    1305.83  E(vib)   ...       0.01
freq.    1309.15  E(vib)   ...       0.01
freq.    1381.78  E(vib)   ...       0.01
freq.    1397.89  E(vib)   ...       0.00
freq.    1452.08  E(vib)   ...       0.00
freq.    1455.68  E(vib)   ...       0.00
freq.    1462.47  E(vib)   ...       0.00
freq.    1539.25  E(vib)   ...       0.00
freq.    1655.90  E(vib)   ...       0.00
freq.    1684.48  E(vib)   ...       0.00
freq.    1838.67  E(vib)   ...       0.00
freq.    3045.75  E(vib)   ...       0.00
freq.    3133.58  E(vib)   ...       0.00
freq.    3179.82  E(vib)   ...       0.00
freq.    3216.33  E(vib)   ...       0.00
freq.    3221.09  E(vib)   ...       0.00
freq.    3232.75  E(vib)   ...       0.00
freq.    3234.34  E(vib)   ...       0.00

------------
INNER ENERGY
------------

The inner energy is: U= E(el) + E(ZPE) + E(vib) + E(rot) + E(trans)
    E(el)   - is the total energy from the electronic structure calculation
              = E(kin-el) + E(nuc-el) + E(el-el) + E(nuc-nuc)
    E(ZPE)  - the the zero temperature vibrational energy from the frequency calculation
    E(vib)  - the the finite temperature correction to E(ZPE) due to population
              of excited vibrational states
    E(rot)  - is the rotational thermal energy
    E(trans)- is the translational thermal energy

Summary of contributions to the inner energy U:
Electronic energy                ...   -843.47682373 Eh
Zero point energy                ...      0.12933668 Eh      81.16 kcal/mol
Thermal vibrational correction   ...      0.00609463 Eh       3.82 kcal/mol
Thermal rotational correction    ...      0.00141627 Eh       0.89 kcal/mol
Thermal translational correction ...      0.00141627 Eh       0.89 kcal/mol
-----------------------------------------------------------------------
Total thermal energy                   -843.33855988 Eh

Summary of corrections to the electronic energy:
(perhaps to be used in another calculation)
Total thermal correction                  0.00892717 Eh       5.60 kcal/mol
Non-thermal (ZPE) correction              0.12933668 Eh      81.16 kcal/mol
-----------------------------------------------------------------------
Total correction                          0.13826386 Eh      86.76 kcal/mol

--------
ENTHALPY
--------

The enthalpy is H = U + kB*T
                kB is Boltzmann's constant
Total thermal energy              ...   -843.33855988 Eh
Thermal Enthalpy correction       ...      0.00094421 Eh       0.59 kcal/mol
-----------------------------------------------------------------------
Total Enthalpy                    ...   -843.33761567 Eh

Note: Only C1 symmetry has been detected, increase convergence thresholds
      if your molecule has a higher symmetry. Symmetry factor of 1.0 is
      used for the rotational entropy correction.

Note: Rotational entropy computed according to Herzberg
Infrared and Raman Spectra, Chapter V,1, Van Nostrand Reinhold, 1945
Point Group:  C1, Symmetry Number:   1
Rotational constants in cm-1:     0.122841     0.018421     0.016068

Vibrational entropy computed according to the QRRHO of S. Grimme
Chem.Eur.J. 2012 18 9955 using a reference frequency of 100.0 cm-1

-------
ENTROPY
-------

The entropy contributions are T*S = T*(S(el)+S(vib)+S(rot)+S(trans))
     S(el)   - electronic entropy
     S(vib)  - vibrational entropy
     S(rot)  - rotational entropy
     S(trans)- translational entropy
The entropies will be listed as multiplied by the temperature to get
units of energy

Electronic entropy                ...      0.00000000 Eh      0.00 kcal/mol
Vibrational entropy               ...      0.01025430 Eh      6.43 kcal/mol
Rotational entropy                ...      0.01433655 Eh      9.00 kcal/mol
Translational entropy             ...      0.01948823 Eh     12.23 kcal/mol
-----------------------------------------------------------------------
Final entropy term                ...      0.04407909 Eh     27.66 kcal/mol

In case the symmetry of your molecule has not been determined correctly
or in case you have a reason to use a different symmetry number we print
out the resulting rotational entropy values for sn=1,12:

 non-linear molecules -----------------------------------
|  sn= 1 | S(rot)=       0.01433655 Eh      9.00 kcal/mol|
|  sn= 2 | S(rot)=       0.01368209 Eh      8.59 kcal/mol|
|  sn= 3 | S(rot)=       0.01329926 Eh      8.35 kcal/mol|
|  sn= 4 | S(rot)=       0.01302764 Eh      8.17 kcal/mol|
|  sn= 5 | S(rot)=       0.01281695 Eh      8.04 kcal/mol|
|  sn= 6 | S(rot)=       0.01264481 Eh      7.93 kcal/mol|
|  sn= 7 | S(rot)=       0.01249926 Eh      7.84 kcal/mol|
|  sn= 8 | S(rot)=       0.01237318 Eh      7.76 kcal/mol|
|  sn= 9 | S(rot)=       0.01226197 Eh      7.69 kcal/mol|
|  sn=10 | S(rot)=       0.01216249 Eh      7.63 kcal/mol|
|  sn=11 | S(rot)=       0.01207250 Eh      7.58 kcal/mol|
|  sn=12 | S(rot)=       0.01199035 Eh      7.52 kcal/mol|
 linear molecules ---------------------------------------
|  Dinfh | S(rot)=       0.00922617 Eh      5.79 kcal/mol|
|  Cinfv | S(rot)=       0.00988062 Eh      6.20 kcal/mol|

                             ****ORCA TERMINATED NORMALLY****
TOTAL RUN TIME: 0 days 0 hours 7 minutes 53 seconds 119 msec
