                         Program Version 6.0.0  -   RELEASE  -
|  1> !r2SCAN aug-cc-pVTZ d3 TightSCF SlowConv RIJCOSX defgrid2
|  2>
|  3> %pal
|  4> nprocs 4
|  5> end
|  6>
|  7> %scf
|  8> MaxIter 1500
|  9> end
| 10>
| 11> %maxcore 3000
| 12>
| 13> !CPCM
| 14> %cpcm smd true
| 15> SMDsolvent "MeCN"
| 16> surfacetype gepol_ses
| 17> rsolv 2.19
| 18> end
| 19>
| 20> * xyz 0 1
| 21> C          -0.01157783641881      1.20352898199244      0.00001890353025
| 22> C           1.37990540430455      1.22191450811359      0.00011854591947
| 23> C           2.06592899516975      0.01252414866139      0.00007181753194
| 24> C           1.39794249050432     -1.20933071970230     -0.00006681343243
| 25> C           0.01016197626576     -1.21076373795935     -0.00015906863819
| 26> C          -0.71228022521915     -0.00932565619212     -0.00012281102354
| 27> C          -2.20544538942687     -0.09111368239076     -0.00023883939795
| 28> O          -2.76237956084169     -1.16697560386648     -0.00031741607190
| 29> C          -2.99637020201978      1.19627311334720     -0.00027997588088
| 30> H          -2.76201741553525      1.80607989056811      0.88981335524989
| 31> H          -2.76168147330890      1.80627685436038     -0.89014621124470
| 32> H          -4.06823478710533      0.95066483560844     -0.00049545748797
| 33> H          -0.55378818786793     -2.14712022161097     -0.00026564570615
| 34> H           1.97664868381534     -2.13630478054762     -0.00010007290271
| 35> F           3.39392859180167      0.02324511926514      0.00015796253828
| 36> H           1.94353444532030      2.15785345098842      0.00023004641097
| 37> H          -0.54990740943796      2.15466559936447      0.00005528060562
| 38> *
| 39>
| 40>                          ****END OF INPUT****

CARTESIAN COORDINATES (ANGSTROEM)
---------------------------------
  C     -0.011578    1.203529    0.000019
  C      1.379905    1.221915    0.000119
  C      2.065929    0.012524    0.000072
  C      1.397942   -1.209331   -0.000067
  C      0.010162   -1.210764   -0.000159
  C     -0.712280   -0.009326   -0.000123
  C     -2.205445   -0.091114   -0.000239
  O     -2.762380   -1.166976   -0.000317
  C     -2.996370    1.196273   -0.000280
  H     -2.762017    1.806080    0.889813
  H     -2.761681    1.806277   -0.890146
  H     -4.068235    0.950665   -0.000495
  H     -0.553788   -2.147120   -0.000266
  H      1.976649   -2.136305   -0.000100
  F      3.393929    0.023245    0.000158
  H      1.943534    2.157853    0.000230
  H     -0.549907    2.154666    0.000055

 Total Charge           Charge          ....    0
 Multiplicity           Mult            ....    1
 Number of Electrons    NEL             ....   72
 Basis Dimension        Dim             ....  621

ORBITAL ENERGIES
----------------

  NO   OCC          E(Eh)            E(eV)
   0   2.0000     -24.520264      -667.2303
   1   2.0000     -18.943350      -515.4748
   2   2.0000     -10.136105      -275.8174
   3   2.0000     -10.125713      -275.5347
   4   2.0000     -10.058841      -273.7150
   5   2.0000     -10.055078      -273.6126
   6   2.0000     -10.053166      -273.5606
   7   2.0000     -10.052398      -273.5396
   8   2.0000     -10.052389      -273.5394
   9   2.0000     -10.030195      -272.9355
  10   2.0000      -1.210735       -32.9458
  11   2.0000      -1.010583       -27.4994
  12   2.0000      -0.838895       -22.8275
  13   2.0000      -0.743266       -20.2253
  14   2.0000      -0.731424       -19.9031
  15   2.0000      -0.694175       -18.8895
  16   2.0000      -0.606251       -16.4969
  17   2.0000      -0.596239       -16.2245
  18   2.0000      -0.524699       -14.2778
  19   2.0000      -0.522538       -14.2190
  20   2.0000      -0.469860       -12.7855
  21   2.0000      -0.449940       -12.2435
  22   2.0000      -0.449350       -12.2274
  23   2.0000      -0.420431       -11.4405
  24   2.0000      -0.411231       -11.1902
  25   2.0000      -0.401300       -10.9199
  26   2.0000      -0.399407       -10.8684
  27   2.0000      -0.377815       -10.2809
  28   2.0000      -0.367488        -9.9999
  29   2.0000      -0.350396        -9.5348
  30   2.0000      -0.343395        -9.3442
  31   2.0000      -0.328236        -8.9318
  32   2.0000      -0.314216        -8.5502
  33   2.0000      -0.253589        -6.9005
  34   2.0000      -0.239631        -6.5207
  35   2.0000      -0.223078        -6.0703
  36   0.0000      -0.084960        -2.3119
  37   0.0000      -0.049791        -1.3549
  38   0.0000       0.006152         0.1674
  39   0.0000       0.007474         0.2034
  40   0.0000       0.020033         0.5451

MULLIKEN ATOMIC CHARGES
-----------------------
   0 C :   -0.326477
   1 C :   -0.905068
   2 C :    0.710716
   3 C :   -0.717461
   4 C :   -0.784536
   5 C :    1.437601
   6 C :    0.783426
   7 O :   -0.950899
   8 C :   -0.530400
   9 H :    0.237439
  10 H :    0.237950
  11 H :    0.145130
  12 H :    0.174202
  13 H :    0.443480
  14 F :   -0.505982
  15 H :    0.420402
  16 H :    0.130477
Sum of atomic charges:    0.0000000

LOEWDIN ATOMIC CHARGES
----------------------
   0 C :    0.201215
   1 C :    0.208616
   2 C :   -0.543945
   3 C :    0.205755
   4 C :    0.187318
   5 C :   -0.137637
   6 C :   -0.553457
   7 O :    0.484641
   8 C :    0.571070
   9 H :   -0.157907
  10 H :   -0.157951
  11 H :   -0.178050
  12 H :   -0.184111
  13 H :   -0.166752
  14 F :    0.558225
  15 H :   -0.165727
  16 H :   -0.171303

  Mayer bond orders larger than 0.100000
B(  0-C ,  1-C ) :   0.7932 B(  0-C ,  2-C ) :  -0.2346 B(  0-C ,  3-C ) :  -0.1798
B(  0-C ,  4-C ) :  -0.3131 B(  0-C ,  5-C ) :   0.4622 B(  0-C , 16-H ) :   1.1806
B(  1-C ,  2-C ) :   1.3244 B(  1-C ,  3-C ) :   0.2915 B(  1-C , 14-F ) :   0.2019
B(  1-C , 15-H ) :   0.5256 B(  2-C ,  3-C ) :   1.3328 B(  2-C ,  4-C ) :  -0.3109
B(  2-C , 14-F ) :   0.2881 B(  3-C ,  4-C ) :   1.2425 B(  3-C , 13-H ) :   0.4960
B(  3-C , 14-F ) :   0.1914 B(  4-C ,  5-C ) :   0.2528 B(  4-C ,  6-C ) :   0.2190
B(  4-C , 12-H ) :   0.9577 B(  4-C , 16-H ) :   0.1103 B(  5-C ,  6-C ) :   0.3487
B(  5-C ,  7-O ) :   0.1492 B(  5-C ,  8-C ) :   0.1206 B(  5-C , 16-H ) :  -0.1338
B(  6-C ,  7-O ) :   0.8199 B(  6-C ,  8-C ) :   0.9146 B(  7-O , 12-H ) :   0.1270
B(  8-C ,  9-H ) :   0.9576 B(  8-C , 10-H ) :   0.9573 B(  8-C , 11-H ) :   0.9637
B( 12-H , 16-H ) :   0.1116 B( 13-H , 14-F ) :   0.1086

Dispersion correction           -0.005209652
FINAL SINGLE POINT ENERGY      -484.075714568102

DIPOLE MOMENT
-------------

Method             : SCF
Type of density    : Electron Density
Multiplicity       :   1
Irrep              :   0
Energy             :  -484.0705049156496216 Eh
Relativity type    :
Basis              : AO
                                X                 Y                 Z
Electronic contribution:      9.969337346      -2.953705367       0.000970427
Nuclear contribution   :     -9.565763920       4.278558097      -0.000557353
                        -----------------------------------------
Total Dipole Moment    :      0.403573426       1.324852730       0.000413074
                        -----------------------------------------
Magnitude (a.u.)       :      1.384957197
Magnitude (Debye)      :      3.520281433

Rotational constants in cm-1:             0.122785             0.025820             0.021420
Rotational constants in MHz :          3680.997761           774.054545           642.159761

                             ****ORCA TERMINATED NORMALLY****
TOTAL RUN TIME: 0 days 0 hours 2 minutes 36 seconds 802 msec
