                         Program Version 6.0.0  -   RELEASE  -
|  1> !r2SCANh freq aug-cc-pVTZ d3 TightSCF SlowConv RIJCOSX defgrid2
|  2>
|  3> %pal
|  4> nprocs 12
|  5> end
|  6>
|  7> %scf
|  8> MaxIter 1500
|  9> end
| 10>
| 11> %maxcore 5000
| 12>
| 13> !CPCM
| 14> %cpcm smd true
| 15> SMDsolvent "MeCN"
| 16> surfacetype gepol_ses
| 17> rsolv 2.19
| 18> end
| 19>
| 20> * xyz 1 2
| 21> C           2.43259988834347     -0.69125982033197     -0.00011196012866
| 22> C           2.43262213193499      0.69119720169873     -0.00022761471395
| 23> C           1.22550964585082      1.39446915713416     -0.00023850071770
| 24> C           0.00001163029705      0.71111503002702     -0.00000369682321
| 25> C          -1.22546819164742      1.39450009216893      0.00024663689043
| 26> C          -2.43259894789919      0.69125699006977      0.00024592777530
| 27> C          -2.43261316164836     -0.69119956780544      0.00013582786536
| 28> C          -1.22549720515723     -1.39446055448208      0.00013848661482
| 29> C          -0.00000610185636     -0.71109832310489     -0.00000943030614
| 30> C           1.22546395632816     -1.39449127038663     -0.00014553084699
| 31> H           1.22945302167647     -2.47575996217081     -0.00012166762487
| 32> H          -1.22952215267889     -2.47573366465741      0.00010510153453
| 33> H          -3.36593887235795     -1.23468228287453     -0.00034872209505
| 34> H          -3.36591612529285      1.23475539689920     -0.00017589652137
| 35> H          -1.22946942459448      2.47576924302505      0.00027384998911
| 36> H           1.22954313552249      2.47573902108119     -0.00026370012604
| 37> H           3.36594929686990      1.23467212526435      0.00018494623935
| 38> H           3.36590847630939     -1.23476681155465      0.00039254299507
| 39> *
| 40>
| 41>                          ****END OF INPUT****

CARTESIAN COORDINATES (ANGSTROEM)
---------------------------------
  C      2.432600   -0.691260   -0.000112
  C      2.432622    0.691197   -0.000228
  C      1.225510    1.394469   -0.000239
  C      0.000012    0.711115   -0.000004
  C     -1.225468    1.394500    0.000247
  C     -2.432599    0.691257    0.000246
  C     -2.432613   -0.691200    0.000136
  C     -1.225497   -1.394461    0.000138
  C     -0.000006   -0.711098   -0.000009
  C      1.225464   -1.394491   -0.000146
  H      1.229453   -2.475760   -0.000122
  H     -1.229522   -2.475734    0.000105
  H     -3.365939   -1.234682   -0.000349
  H     -3.365916    1.234755   -0.000176
  H     -1.229469    2.475769    0.000274
  H      1.229543    2.475739   -0.000264
  H      3.365949    1.234672    0.000185
  H      3.365908   -1.234767    0.000393

 Total Charge           Charge          ....    1
 Multiplicity           Mult            ....    2
 Number of Electrons    NEL             ....   67
 Basis Dimension        Dim             ....  644

ORBITAL ENERGIES
----------------
                 SPIN UP ORBITALS
  NO   OCC          E(Eh)            E(eV)
   0   1.0000     -10.216019      -277.9920
   1   1.0000     -10.216004      -277.9916
   2   1.0000     -10.215998      -277.9914
   3   1.0000     -10.215986      -277.9911
   4   1.0000     -10.204124      -277.6683
   5   1.0000     -10.203704      -277.6569
   6   1.0000     -10.200528      -277.5705
   7   1.0000     -10.200527      -277.5704
   8   1.0000     -10.199955      -277.5549
   9   1.0000     -10.199946      -277.5546
  10   1.0000      -0.924451       -25.1556
  11   1.0000      -0.868718       -23.6390
  12   1.0000      -0.821877       -22.3644
  13   1.0000      -0.783564       -21.3219
  14   1.0000      -0.761615       -20.7246
  15   1.0000      -0.667350       -18.1595
  16   1.0000      -0.645158       -17.5556
  17   1.0000      -0.631640       -17.1878
  18   1.0000      -0.543476       -14.7887
  19   1.0000      -0.538334       -14.6488
  20   1.0000      -0.523438       -14.2435
  21   1.0000      -0.472116       -12.8469
  22   1.0000      -0.469866       -12.7857
  23   1.0000      -0.446078       -12.1384
  24   1.0000      -0.442353       -12.0370
  25   1.0000      -0.436060       -11.8658
  26   1.0000      -0.417022       -11.3477
  27   1.0000      -0.395479       -10.7615
  28   1.0000      -0.372681       -10.1412
  29   1.0000      -0.359936        -9.7944
  30   1.0000      -0.354490        -9.6462
  31   1.0000      -0.336325        -9.1519
  32   1.0000      -0.283593        -7.7170
  33   1.0000      -0.267575        -7.2811
  34   0.0000      -0.113855        -3.0982
  35   0.0000      -0.059030        -1.6063
  36   0.0000      -0.038643        -1.0515
  37   0.0000       0.007790         0.2120
  38   0.0000       0.020958         0.5703

                 SPIN DOWN ORBITALS
  NO   OCC          E(Eh)            E(eV)
   0   1.0000     -10.211435      -277.8673
   1   1.0000     -10.211418      -277.8668
   2   1.0000     -10.211408      -277.8665
   3   1.0000     -10.211393      -277.8661
   4   1.0000     -10.205467      -277.7049
   5   1.0000     -10.205047      -277.6935
   6   1.0000     -10.199934      -277.5543
   7   1.0000     -10.199933      -277.5543
   8   1.0000     -10.199355      -277.5386
   9   1.0000     -10.199346      -277.5383
  10   1.0000      -0.919358       -25.0170
  11   1.0000      -0.861084       -23.4313
  12   1.0000      -0.811115       -22.0716
  13   1.0000      -0.783630       -21.3237
  14   1.0000      -0.746523       -20.3139
  15   1.0000      -0.661004       -17.9868
  16   1.0000      -0.642268       -17.4770
  17   1.0000      -0.626031       -17.0352
  18   1.0000      -0.541121       -14.7247
  19   1.0000      -0.533349       -14.5132
  20   1.0000      -0.522045       -14.2056
  21   1.0000      -0.470279       -12.7969
  22   1.0000      -0.469857       -12.7855
  23   1.0000      -0.444314       -12.0904
  24   1.0000      -0.440160       -11.9774
  25   1.0000      -0.421598       -11.4723
  26   1.0000      -0.414381       -11.2759
  27   1.0000      -0.394781       -10.7425
  28   1.0000      -0.357978        -9.7411
  29   1.0000      -0.353980        -9.6323
  30   1.0000      -0.351527        -9.5655
  31   1.0000      -0.304367        -8.2822
  32   1.0000      -0.284337        -7.7372
  33   0.0000      -0.207109        -5.6357
  34   0.0000      -0.080887        -2.2011
  35   0.0000      -0.052766        -1.4358
  36   0.0000      -0.015476        -0.4211
  37   0.0000       0.008964         0.2439

MULLIKEN ATOMIC CHARGES AND SPIN POPULATIONS
--------------------------------------------
   0 C :   -0.380056    0.013830
   1 C :   -0.382122    0.013837
   2 C :   -1.063941    0.262279
   3 C :    1.907860   -0.093653
   4 C :   -1.068945    0.262312
   5 C :   -0.379067    0.013865
   6 C :   -0.380314    0.013858
   7 C :   -1.064964    0.262303
   8 C :    1.906446   -0.093628
   9 C :   -1.065976    0.262295
  10 H :    0.081290    0.027364
  11 H :    0.080437    0.027340
  12 H :    0.661613   -0.006690
  13 H :    0.660661   -0.006697
  14 H :    0.079563    0.027374
  15 H :    0.086523    0.027358
  16 H :    0.655373   -0.006648
  17 H :    0.665619   -0.006699
Sum of atomic charges         :    1.0000000

LOEWDIN ATOMIC CHARGES AND SPIN POPULATIONS
-------------------------------------------
   0 C :    0.282887    0.069604
   1 C :    0.282884    0.069599
   2 C :    0.303308    0.134021
   3 C :   -0.091638    0.026324
   4 C :    0.303308    0.134022
   5 C :    0.282885    0.069602
   6 C :    0.282884    0.069602
   7 C :    0.303310    0.134022
   8 C :   -0.091644    0.026324
   9 C :    0.303307    0.134020
  10 H :   -0.138279    0.026875
  11 H :   -0.138275    0.026875
  12 H :   -0.152094    0.006340
  13 H :   -0.152093    0.006339
  14 H :   -0.138282    0.026876
  15 H :   -0.138277    0.026876
  16 H :   -0.152097    0.006339
  17 H :   -0.152094    0.006340

  Mayer bond orders larger than 0.100000
B(  0-C ,  1-C ) :   1.1362 B(  0-C ,  3-C ) :  -0.3637 B(  0-C ,  7-C ) :   0.1042
B(  0-C ,  9-C ) :   1.0805 B(  0-C , 17-H ) :   0.2560 B(  1-C ,  2-C ) :   1.0797
B(  1-C ,  4-C ) :   0.1039 B(  1-C ,  8-C ) :  -0.3603 B(  1-C , 16-H ) :   0.2706
B(  2-C ,  3-C ) :  -0.2350 B(  2-C ,  4-C ) :   0.4383 B(  2-C ,  5-C ) :   0.1019
B(  2-C ,  8-C ) :  -0.4114 B(  2-C , 15-H ) :   1.3546 B(  2-C , 16-H ) :  -0.1911
B(  3-C ,  4-C ) :  -0.2478 B(  3-C ,  6-C ) :  -0.3631 B(  3-C ,  7-C ) :  -0.4174
B(  3-C ,  8-C ) :   1.5226 B(  3-C ,  9-C ) :  -0.4145 B(  3-C , 14-H ) :  -0.1215
B(  3-C , 15-H ) :  -0.1149 B(  4-C ,  5-C ) :   1.0783 B(  4-C ,  8-C ) :  -0.4208
B(  4-C , 13-H ) :  -0.1955 B(  4-C , 14-H ) :   1.3709 B(  5-C ,  6-C ) :   1.1353
B(  5-C ,  8-C ) :  -0.3608 B(  5-C , 13-H ) :   0.2635 B(  6-C ,  7-C ) :   1.0793
B(  6-C ,  9-C ) :   0.1028 B(  6-C , 12-H ) :   0.2611 B(  7-C ,  8-C ) :  -0.2432
B(  7-C ,  9-C ) :   0.4339 B(  7-C , 11-H ) :   1.3678 B(  7-C , 12-H ) :  -0.1949
B(  8-C ,  9-C ) :  -0.2419 B(  8-C , 10-H ) :  -0.1188 B(  8-C , 11-H ) :  -0.1203
B(  9-C , 10-H ) :   1.3662 B(  9-C , 17-H ) :  -0.1950

Dispersion correction           -0.006597951
FINAL SINGLE POINT ENERGY      -385.586432100211

DIPOLE MOMENT
-------------

Method             : SCF
Type of density    : Electron Density
Multiplicity       :   2
Irrep              :   0
Energy             :  -385.5798341489248742 Eh
Relativity type    :
Basis              : AO
                                X                 Y                 Z
Electronic contribution:      0.000000727      -0.000008956      -0.000014237
Nuclear contribution   :     -0.000010163      -0.000026447       0.000019638
                        -----------------------------------------
Total Dipole Moment    :     -0.000009436      -0.000035403       0.000005401
                        -----------------------------------------
Magnitude (a.u.)       :      0.000037035
Magnitude (Debye)      :      0.000094136

VIBRATIONAL FREQUENCIES
-----------------------

Scaling factor for frequencies =  1.000000000  (already applied!)

     0:       0.00 cm**-1
     1:       0.00 cm**-1
     2:       0.00 cm**-1
     3:       0.00 cm**-1
     4:       0.00 cm**-1
     5:       0.00 cm**-1
     6:     142.42 cm**-1
     7:     161.57 cm**-1
     8:     350.37 cm**-1
     9:     367.91 cm**-1
    10:     407.83 cm**-1
    11:     418.31 cm**-1
    12:     439.50 cm**-1
    13:     474.29 cm**-1
    14:     517.28 cm**-1
    15:     601.41 cm**-1
    16:     737.34 cm**-1
    17:     739.11 cm**-1
    18:     760.22 cm**-1
    19:     782.60 cm**-1
    20:     814.77 cm**-1
    21:     866.75 cm**-1
    22:     935.55 cm**-1
    23:     947.21 cm**-1
    24:     979.77 cm**-1
    25:    1003.45 cm**-1
    26:    1021.41 cm**-1
    27:    1026.17 cm**-1
    28:    1046.23 cm**-1
    29:    1067.35 cm**-1
    30:    1118.96 cm**-1
    31:    1119.87 cm**-1
    32:    1171.54 cm**-1
    33:    1176.84 cm**-1
    34:    1227.08 cm**-1
    35:    1260.44 cm**-1
    36:    1303.91 cm**-1
    37:    1427.61 cm**-1
    38:    1440.06 cm**-1
    39:    1442.53 cm**-1
    40:    1463.09 cm**-1
    41:    1498.56 cm**-1
    42:    1524.14 cm**-1
    43:    1557.28 cm**-1
    44:    1567.63 cm**-1
    45:    1638.98 cm**-1
    46:    3209.12 cm**-1
    47:    3211.04 cm**-1
    48:    3213.84 cm**-1
    49:    3214.75 cm**-1
    50:    3224.07 cm**-1
    51:    3224.40 cm**-1
    52:    3235.23 cm**-1
    53:    3235.92 cm**-1

IR SPECTRUM
-----------

 Mode   freq       eps      Int      T**2         TX        TY        TZ
       cm**-1   L/(mol*cm) km/mol    a.u.
----------------------------------------------------------------------------
  6:    142.42   0.000848    4.29  0.001859  (-0.001740  0.000006 -0.043081)
  7:    161.57   0.000000    0.00  0.000000  ( 0.000010 -0.000383  0.000077)
  8:    350.37   0.000328    1.66  0.000292  (-0.000003 -0.017083 -0.000000)
  9:    367.91   0.000000    0.00  0.000000  (-0.000001  0.000006 -0.000029)
 10:    407.83   0.008065   40.76  0.006171  (-0.000095  0.000001  0.078558)
 11:    418.31   0.000000    0.00  0.000000  ( 0.000232 -0.000003  0.000337)
 12:    439.50   0.000000    0.00  0.000000  (-0.000008  0.000432 -0.000027)
 13:    474.29   0.000000    0.00  0.000000  (-0.000004  0.000003 -0.000005)
 14:    517.28   0.000000    0.00  0.000000  (-0.000004 -0.000002 -0.000000)
 15:    601.41   0.007542   38.11  0.003913  (-0.062556  0.000001 -0.000126)
 16:    737.34   0.000000    0.00  0.000000  (-0.000004  0.000002  0.000001)
 17:    739.11   0.000000    0.00  0.000000  (-0.000102 -0.000000 -0.000187)
 18:    760.22   0.034426  173.97  0.014131  (-0.000329  0.000000 -0.118875)
 19:    782.60   0.000000    0.00  0.000000  ( 0.000008 -0.000002 -0.000009)
 20:    814.77   0.000266    1.34  0.000102  (-0.000000  0.010095  0.000003)
 21:    866.75   0.000000    0.00  0.000000  (-0.000003  0.000270  0.000006)
 22:    935.55   0.000000    0.00  0.000000  (-0.000056  0.000003  0.000036)
 23:    947.21   0.000000    0.00  0.000000  ( 0.000001  0.000001 -0.000005)
 24:    979.77   0.000000    0.00  0.000000  ( 0.000001  0.000003 -0.000009)
 25:   1003.45   0.000860    4.35  0.000267  (-0.000310 -0.000000  0.016351)
 26:   1021.41   0.000000    0.00  0.000000  (-0.000005  0.000210  0.000010)
 27:   1026.17   0.000000    0.00  0.000000  (-0.000037 -0.000002 -0.000042)
 28:   1046.23   0.002128   10.76  0.000635  ( 0.025195 -0.000002 -0.000246)
 29:   1067.35   0.000000    0.00  0.000000  (-0.000003 -0.000001 -0.000001)
 30:   1118.96   0.001072    5.42  0.000299  (-0.000008 -0.017289 -0.000000)
 31:   1119.87   0.000000    0.00  0.000000  (-0.000020 -0.000049  0.000001)
 32:   1171.54   0.012993   65.66  0.003461  ( 0.058829 -0.000001 -0.000020)
 33:   1176.84   0.000000    0.00  0.000000  (-0.000134  0.000001 -0.000000)
 34:   1227.08   0.132264  668.41  0.033637  (-0.183403 -0.000001 -0.000018)
 35:   1260.44   0.000000    0.00  0.000000  (-0.000048 -0.000001  0.000008)
 36:   1303.91   0.001992   10.07  0.000477  ( 0.000012 -0.021835  0.000000)
 37:   1427.61   0.013038   65.89  0.002850  ( 0.000003 -0.053386 -0.000000)
 38:   1440.06   0.000000    0.00  0.000000  ( 0.000026 -0.000012  0.000000)
 39:   1442.53   0.008750   44.22  0.001893  (-0.043507  0.000001  0.000088)
 40:   1463.09   0.000000    0.00  0.000000  (-0.000002 -0.000005  0.000006)
 41:   1498.56   0.000000    0.00  0.000000  (-0.000006  0.000019  0.000001)
 42:   1524.14   0.000000    0.00  0.000000  (-0.000006  0.000003  0.000001)
 43:   1557.28   0.034538  174.54  0.006921  (-0.000040 -0.083193  0.000000)
 44:   1567.63   0.044740  226.10  0.008906  (-0.094373  0.000035  0.000091)
 45:   1638.98   0.000000    0.00  0.000000  ( 0.000005 -0.000006 -0.000000)
 46:   3209.12   0.000000    0.00  0.000000  ( 0.000013  0.000032  0.000001)
 47:   3211.04   0.000356    1.80  0.000035  ( 0.000026  0.005881  0.000000)
 48:   3213.84   0.000905    4.58  0.000088  (-0.009376  0.000005 -0.000038)
 49:   3214.75   0.000000    0.00  0.000000  ( 0.000108  0.000012  0.000000)
 50:   3224.07   0.000001    0.01  0.000000  (-0.000001 -0.000367 -0.000001)
 51:   3224.40   0.002046   10.34  0.000198  ( 0.000004 -0.014073 -0.000000)
 52:   3235.23   0.005348   27.03  0.000516  ( 0.022712 -0.000003 -0.000155)
 53:   3235.92   0.000000    0.00  0.000000  (-0.000116 -0.000001  0.000001)

--------------------------
THERMOCHEMISTRY AT 298.15K
--------------------------

Temperature         ...   298.15 K
Pressure            ...     1.00 atm
Total Mass          ...   128.17 AMU
Quasi RRHO          ...     True
Cut-Off Frequency   ...     1.00 cm^-1

Throughout the following assumptions are being made:
  (1) The electronic state is orbitally nondegenerate
      but the spin degeneracy is treated
  (2) There are no thermally accessible electronically excited states
  (3) Hindered rotations indicated by low frequency modes are not
      treated as such but are treated as vibrations and this may
      cause some error
  (4) All equations used are the standard statistical mechanics
      equations for an ideal gas
  (5) All vibrations are strictly harmonic

freq.     142.42  E(vib)   ...       0.41
freq.     161.57  E(vib)   ...       0.39
freq.     350.37  E(vib)   ...       0.23
freq.     367.91  E(vib)   ...       0.21
freq.     407.83  E(vib)   ...       0.19
freq.     418.31  E(vib)   ...       0.18
freq.     439.50  E(vib)   ...       0.17
freq.     474.29  E(vib)   ...       0.15
freq.     517.28  E(vib)   ...       0.13
freq.     601.41  E(vib)   ...       0.10
freq.     737.34  E(vib)   ...       0.06
freq.     739.11  E(vib)   ...       0.06
freq.     760.22  E(vib)   ...       0.06
freq.     782.60  E(vib)   ...       0.05
freq.     814.77  E(vib)   ...       0.05
freq.     866.75  E(vib)   ...       0.04
freq.     935.55  E(vib)   ...       0.03
freq.     947.21  E(vib)   ...       0.03
freq.     979.77  E(vib)   ...       0.02
freq.    1003.45  E(vib)   ...       0.02
freq.    1021.41  E(vib)   ...       0.02
freq.    1026.17  E(vib)   ...       0.02
freq.    1046.23  E(vib)   ...       0.02
freq.    1067.35  E(vib)   ...       0.02
freq.    1118.96  E(vib)   ...       0.01
freq.    1119.87  E(vib)   ...       0.01
freq.    1171.54  E(vib)   ...       0.01
freq.    1176.84  E(vib)   ...       0.01
freq.    1227.08  E(vib)   ...       0.01
freq.    1260.44  E(vib)   ...       0.01
freq.    1303.91  E(vib)   ...       0.01
freq.    1427.61  E(vib)   ...       0.00
freq.    1440.06  E(vib)   ...       0.00
freq.    1442.53  E(vib)   ...       0.00
freq.    1463.09  E(vib)   ...       0.00
freq.    1498.56  E(vib)   ...       0.00
freq.    1524.14  E(vib)   ...       0.00
freq.    1557.28  E(vib)   ...       0.00
freq.    1567.63  E(vib)   ...       0.00
freq.    1638.98  E(vib)   ...       0.00
freq.    3209.12  E(vib)   ...       0.00
freq.    3211.04  E(vib)   ...       0.00
freq.    3213.84  E(vib)   ...       0.00
freq.    3214.75  E(vib)   ...       0.00
freq.    3224.07  E(vib)   ...       0.00
freq.    3224.40  E(vib)   ...       0.00
freq.    3235.23  E(vib)   ...       0.00
freq.    3235.92  E(vib)   ...       0.00

------------
INNER ENERGY
------------

The inner energy is: U= E(el) + E(ZPE) + E(vib) + E(rot) + E(trans)
    E(el)   - is the total energy from the electronic structure calculation
              = E(kin-el) + E(nuc-el) + E(el-el) + E(nuc-nuc)
    E(ZPE)  - the the zero temperature vibrational energy from the frequency calculation
    E(vib)  - the the finite temperature correction to E(ZPE) due to population
              of excited vibrational states
    E(rot)  - is the rotational thermal energy
    E(trans)- is the translational thermal energy

Summary of contributions to the inner energy U:
Electronic energy                ...   -385.58643210 Eh
Zero point energy                ...      0.14652200 Eh      91.94 kcal/mol
Thermal vibrational correction   ...      0.00443254 Eh       2.78 kcal/mol
Thermal rotational correction    ...      0.00141627 Eh       0.89 kcal/mol
Thermal translational correction ...      0.00141627 Eh       0.89 kcal/mol
-----------------------------------------------------------------------
Total thermal energy                   -385.43264501 Eh

Summary of corrections to the electronic energy:
(perhaps to be used in another calculation)
Total thermal correction                  0.00726509 Eh       4.56 kcal/mol
Non-thermal (ZPE) correction              0.14652200 Eh      91.94 kcal/mol
-----------------------------------------------------------------------
Total correction                          0.15378709 Eh      96.50 kcal/mol

--------
ENTHALPY
--------

The enthalpy is H = U + kB*T
                kB is Boltzmann's constant
Total thermal energy              ...   -385.43264501 Eh
Thermal Enthalpy correction       ...      0.00094421 Eh       0.59 kcal/mol
-----------------------------------------------------------------------
Total Enthalpy                    ...   -385.43170080 Eh

Note: Rotational entropy computed according to Herzberg
Infrared and Raman Spectra, Chapter V,1, Van Nostrand Reinhold, 1945
Point Group:  C2, Symmetry Number:   2
Rotational constants in cm-1:     0.105765     0.041294     0.029699

Vibrational entropy computed according to the QRRHO of S. Grimme
Chem.Eur.J. 2012 18 9955 using a reference frequency of 100.0 cm-1

-------
ENTROPY
-------

The entropy contributions are T*S = T*(S(el)+S(vib)+S(rot)+S(trans))
     S(el)   - electronic entropy
     S(vib)  - vibrational entropy
     S(rot)  - rotational entropy
     S(trans)- translational entropy
The entropies will be listed as multiplied by the temperature to get
units of energy

Electronic entropy                ...      0.00065446 Eh      0.41 kcal/mol
Vibrational entropy               ...      0.00686776 Eh      4.31 kcal/mol
Rotational entropy                ...      0.01308167 Eh      8.21 kcal/mol
Translational entropy             ...      0.01922279 Eh     12.06 kcal/mol
-----------------------------------------------------------------------
Final entropy term                ...      0.03982667 Eh     24.99 kcal/mol

In case the symmetry of your molecule has not been determined correctly
or in case you have a reason to use a different symmetry number we print
out the resulting rotational entropy values for sn=1,12:

 non-linear molecules -----------------------------------
|  sn= 1 | S(rot)=       0.01373612 Eh      8.62 kcal/mol|
|  sn= 2 | S(rot)=       0.01308167 Eh      8.21 kcal/mol|
|  sn= 3 | S(rot)=       0.01269884 Eh      7.97 kcal/mol|
|  sn= 4 | S(rot)=       0.01242721 Eh      7.80 kcal/mol|
|  sn= 5 | S(rot)=       0.01221652 Eh      7.67 kcal/mol|
|  sn= 6 | S(rot)=       0.01204438 Eh      7.56 kcal/mol|
|  sn= 7 | S(rot)=       0.01189883 Eh      7.47 kcal/mol|
|  sn= 8 | S(rot)=       0.01177276 Eh      7.39 kcal/mol|
|  sn= 9 | S(rot)=       0.01166155 Eh      7.32 kcal/mol|
|  sn=10 | S(rot)=       0.01156207 Eh      7.26 kcal/mol|
|  sn=11 | S(rot)=       0.01147208 Eh      7.20 kcal/mol|
|  sn=12 | S(rot)=       0.01138992 Eh      7.15 kcal/mol|
 linear molecules ---------------------------------------
|  Dinfh | S(rot)=       0.00864616 Eh      5.43 kcal/mol|
|  Cinfv | S(rot)=       0.00930062 Eh      5.84 kcal/mol|
 --------------------------------------------------------

                             ****ORCA TERMINATED NORMALLY****
TOTAL RUN TIME: 0 days 1 hours 13 minutes 46 seconds 693 msec
