                         Program Version 6.0.0  -   RELEASE  -
|  1> !B3LYP opt aug-cc-pVTZ d3 TightSCF SlowConv RIJCOSX defgrid2
|  2>
|  3> %pal
|  4> nprocs 8
|  5> end
|  6>
|  7> %scf
|  8> MaxIter 1500
|  9> end
| 10>
| 11> %maxcore 3500
| 12>
| 13> !CPCM
| 14> %cpcm smd true
| 15> SMDsolvent "MeCN"
| 16> surfacetype gepol_ses
| 17> rsolv 2.19
| 18> end
| 19>
| 20> * xyz 0 1
| 21>   C           1.35417777117907     -0.65406995240560      0.79948726944426
| 22>   C           2.60438513280883     -1.25994276894922      0.84954003747904
| 23>   C           3.68344790380097     -0.71999641049965      0.15497211057626
| 24>   C           3.50660738351577      0.43947194664888     -0.59401215387855
| 25>   C           2.26060390365759      1.05304135560245     -0.65888291426072
| 26>   C           1.19171004686849      0.49898658044043      0.03645013929688
| 27>   O          -0.00001641304932      1.19288277645614      0.00010190817305
| 28>   C          -1.19171118388442      0.49900233774687     -0.03638058606476
| 29>   C          -2.26073143386919      1.05309671680890      0.65874573635241
| 30>   C          -3.50672129933369      0.43951119140539      0.59370893351233
| 31>   C          -3.68343750339537     -0.72003192620985     -0.15518626198969
| 32>   C          -2.60425130219278     -1.26007972735717     -0.84947443996517
| 33>   C          -1.35407111022235     -0.65417339438681     -0.79927336088568
| 34>   H          -0.51726340198580     -1.06965515696509     -1.34679672259882
| 35>   H          -2.73380230233493     -2.15751438471684     -1.44311666275030
| 36>   H          -4.65433657701428     -1.19810235944476     -0.20028196634197
| 37>   H          -4.34007086552899      0.87022201246994      1.13631011439279
| 38>   H          -2.10719151371809      1.95492125572489      1.23885613902283
| 39>   H           2.10696960257248      1.95483629764118     -1.23902045617933
| 40>   H           4.33987477531195      0.87015227662086     -1.13676761059202
| 41>   H           4.65436181626334     -1.19805192085525      0.19996962143919
| 42>   H           2.73406310958975     -2.15728853568205      1.44329395480944
| 43>   H           0.51745176096101     -1.06946241009361      1.34721687100852
| 44> *
| 45>
| 46>                          ****END OF INPUT****
 Total Charge           Charge          ....    0
 Multiplicity           Mult            ....    1
 Number of Electrons    NEL             ....   90
Dispersion correction           -0.046039571
FINAL SINGLE POINT ENERGY      -538.436748261539
Dispersion correction             ... done (  0.0 sec)
Dispersion correction           -0.045943836
FINAL SINGLE POINT ENERGY      -538.436827488672
Dispersion correction             ... done (  0.0 sec)
Dispersion correction           -0.045999903
FINAL SINGLE POINT ENERGY      -538.436836851617
Dispersion correction             ... done (  0.0 sec)
Dispersion correction           -0.046006144
FINAL SINGLE POINT ENERGY      -538.436838492809
Dispersion correction             ... done (  0.0 sec)
Dispersion correction           -0.046009814
FINAL SINGLE POINT ENERGY      -538.436842158448
Dispersion correction             ... done (  0.1 sec)
                    ***********************HURRAY********************

CARTESIAN COORDINATES (ANGSTROEM)
---------------------------------
  C      1.358210   -0.623278    0.835549
  C      2.603152   -1.238048    0.887719
  C      3.676672   -0.726395    0.164896
  C      3.498705    0.411955   -0.614441
  C      2.256250    1.031911   -0.680336
  C      1.192749    0.508756    0.044071
  O     -0.000011    1.201679    0.000454
  C     -1.192710    0.508733   -0.043594
  C     -2.256541    1.032002    0.680244
  C     -3.498982    0.412099    0.613842
  C     -3.676663   -0.726361   -0.165397
  C     -2.602855   -1.238129   -0.887693
  C     -1.357917   -0.623413   -0.834960
  H     -0.526711   -1.017649   -1.401575
  H     -2.732800   -2.118645   -1.502369
  H     -4.642730   -1.209630   -0.211843
  H     -4.326804    0.819165    1.178469
  H     -2.103482    1.914836    1.285266
  H      2.102945    1.914707   -1.285349
  H      4.326300    0.818898   -1.179505
  H      4.642749   -1.209682    0.211013
  H      2.733353   -2.118535    1.502390
  H      0.527169   -1.017220    1.402610

 Multiplicity           Mult            ....    1
 Number of Electrons    NEL             ....   90
 Basis Dimension        Dim             ....  828

ORBITAL ENERGIES
----------------

  NO   OCC          E(Eh)            E(eV)
   0   2.0000     -19.170488      -521.6555
   1   2.0000     -10.238692      -278.6090
   2   2.0000     -10.238677      -278.6086
   3   2.0000     -10.177450      -276.9425
   4   2.0000     -10.177443      -276.9423
   5   2.0000     -10.177218      -276.9362
   6   2.0000     -10.177215      -276.9361
   7   2.0000     -10.175518      -276.8899
   8   2.0000     -10.175483      -276.8890
   9   2.0000     -10.174241      -276.8552
  10   2.0000     -10.174230      -276.8549
  11   2.0000     -10.170975      -276.7663
  12   2.0000     -10.170968      -276.7661
  13   2.0000      -1.082958       -29.4688
  14   2.0000      -0.866096       -23.5677
  15   2.0000      -0.851969       -23.1833
  16   2.0000      -0.766998       -20.8711
  17   2.0000      -0.753401       -20.5011
  18   2.0000      -0.749877       -20.4052
  19   2.0000      -0.726548       -19.7704
  20   2.0000      -0.637108       -17.3366
  21   2.0000      -0.618864       -16.8401
  22   2.0000      -0.608500       -16.5581
  23   2.0000      -0.581480       -15.8229
  24   2.0000      -0.548064       -14.9136
  25   2.0000      -0.510016       -13.8782
  26   2.0000      -0.486689       -13.2435
  27   2.0000      -0.479047       -13.0355
  28   2.0000      -0.472091       -12.8462
  29   2.0000      -0.444535       -12.0964
  30   2.0000      -0.440412       -11.9842
  31   2.0000      -0.425377       -11.5751
  32   2.0000      -0.424649       -11.5553
  33   2.0000      -0.408974       -11.1287
  34   2.0000      -0.398884       -10.8542
  35   2.0000      -0.371923       -10.1205
  36   2.0000      -0.364687        -9.9236
  37   2.0000      -0.360441        -9.8081
  38   2.0000      -0.356565        -9.7026
  39   2.0000      -0.339967        -9.2510
  40   2.0000      -0.330738        -8.9998
  41   2.0000      -0.265261        -7.2181
  42   2.0000      -0.258637        -7.0379
  43   2.0000      -0.256480        -6.9792
  44   2.0000      -0.226423        -6.1613
  45   0.0000      -0.024976        -0.6796
  46   0.0000      -0.017474        -0.4755
  47   0.0000      -0.009023        -0.2455
  48   0.0000      -0.003368        -0.0916
  49   0.0000      -0.000727        -0.0198

MULLIKEN ATOMIC CHARGES
-----------------------
   0 C :   -0.516149
   1 C :   -0.598577
   2 C :   -0.555446
   3 C :   -0.390160
   4 C :   -1.230814
   5 C :    1.513048
   6 O :   -0.864797
   7 C :    1.517995
   8 C :   -1.238812
   9 C :   -0.391781
  10 C :   -0.552652
  11 C :   -0.596879
  12 C :   -0.518904
  13 H :    0.497323
  14 H :    0.392306
  15 H :    0.449197
  16 H :    0.423681
  17 H :    0.451648
  18 H :    0.449646
  19 H :    0.428358
  20 H :    0.439716
  21 H :    0.395884
  22 H :    0.496167
Sum of atomic charges:   -0.0000000

LOEWDIN ATOMIC CHARGES
----------------------
   0 C :    0.199742
   1 C :    0.191023
   2 C :    0.186117
   3 C :    0.184705
   4 C :    0.203028
   5 C :   -0.397519
   6 O :    0.620991
   7 C :   -0.397441
   8 C :    0.203053
   9 C :    0.184704
  10 C :    0.186119
  11 C :    0.191030
  12 C :    0.199661
  13 H :   -0.170869
  14 H :   -0.174840
  15 H :   -0.181614
  16 H :   -0.176175
  17 H :   -0.174181
  18 H :   -0.174185
  19 H :   -0.176164
  20 H :   -0.181610
  21 H :   -0.174848
  22 H :   -0.170726

  Mayer bond orders larger than 0.100000
B(  0-C ,  1-C ) :   1.1624 B(  0-C ,  4-C ) :   0.3271 B(  0-C ,  5-C ) :   0.8607
B(  0-C ,  7-C ) :  -0.1270 B(  0-C , 12-C ) :   0.2832 B(  0-C , 22-H ) :   0.4985
B(  1-C ,  2-C ) :   1.2536 B(  1-C ,  4-C ) :  -0.1302 B(  1-C ,  5-C ) :  -0.3006
B(  1-C , 21-H ) :   0.7883 B(  2-C ,  3-C ) :   1.2901 B(  2-C ,  4-C ) :   0.3854
B(  2-C , 20-H ) :   0.6722 B(  3-C ,  4-C ) :   1.2696 B(  3-C ,  5-C ) :  -0.3525
B(  3-C , 19-H ) :   0.7365 B(  4-C ,  5-C ) :   0.1773 B(  4-C ,  6-O ) :   0.2015
B(  4-C , 18-H ) :   0.4425 B(  5-C ,  6-O ) :   0.4553 B(  5-C , 12-C ) :  -0.1288
B(  6-O ,  7-C ) :   0.4610 B(  6-O ,  8-C ) :   0.1999 B(  7-C ,  8-C ) :   0.1747
B(  7-C ,  9-C ) :  -0.3558 B(  7-C , 10-C ) :  -0.1039 B(  7-C , 11-C ) :  -0.3033
B(  7-C , 12-C ) :   0.8610 B(  8-C ,  9-C ) :   1.2763 B(  8-C , 10-C ) :   0.3954
B(  8-C , 11-C ) :  -0.1285 B(  8-C , 12-C ) :   0.3288 B(  8-C , 17-H ) :   0.4377
B(  9-C , 10-C ) :   1.2928 B(  9-C , 16-H ) :   0.7426 B( 10-C , 11-C ) :   1.2496
B( 10-C , 15-H ) :   0.6560 B( 11-C , 12-C ) :   1.1679 B( 11-C , 14-H ) :   0.7950
B( 12-C , 13-H ) :   0.4972

Dispersion correction           -0.046009727
FINAL SINGLE POINT ENERGY      -538.436844279735

DIPOLE MOMENT
-------------

Method             : SCF
Type of density    : Electron Density
Multiplicity       :   1
Irrep              :   0
Energy             :  -538.3908345529283679 Eh
Relativity type    :
Basis              : AO
                                X                 Y                 Z
Electronic contribution:     -0.000162463       2.488042744       0.002203797
Nuclear contribution   :     -0.000046492      -3.046434218      -0.001115231
                        -----------------------------------------
Total Dipole Moment    :     -0.000208956      -0.558391474       0.001088566
                        -----------------------------------------
Magnitude (a.u.)       :      0.558392574
Magnitude (Debye)      :      1.419321129

Rotational constants in cm-1:             0.079553             0.014540             0.013719
Rotational constants in MHz :          2384.933656           435.904477           411.295097

                             ****ORCA TERMINATED NORMALLY****
TOTAL RUN TIME: 0 days 0 hours 39 minutes 26 seconds 584 msec
