                         Program Version 6.0.0  -   RELEASE  -
|  1> !PBE0 aug-cc-pVTZ d3 TightSCF SlowConv RIJCOSX defgrid2
|  2>
|  3> %pal
|  4> nprocs 15
|  5> end
|  6>
|  7> %scf
|  8> MaxIter 1500
|  9> end
| 10>
| 11> %maxcore 3500
| 12>
| 13> !CPCM
| 14> %cpcm smd true
| 15> SMDsolvent "WATER"
| 16> surfacetype gepol_ses
| 17> rsolv 1.40
| 18> end
| 19>
| 20> * xyz 0 1
| 21> C           0.00636908025291      0.00344693466191     -3.48568134762916
| 22> C          -0.07329586297975     -0.04398063872276      0.74138085624868
| 23> C           1.10272166896467     -0.10799321931825      1.50278690341546
| 24> C           1.00614211679588     -0.13690311443854      2.89048895011345
| 25> C          -0.25700371911238     -0.09995487217630      3.47371798070641
| 26> C          -1.36597504158140     -0.04157282452465      2.62711576918004
| 27> N          -1.28290853833089     -0.01622478520361      1.30443177594435
| 28> H           2.07864268736179     -0.16148217056008      1.01390529605249
| 29> H           1.90787256726744     -0.19674804501795      3.50759598842189
| 30> H          -0.38580781708437     -0.12069403978637      4.55934543988249
| 31> H          -2.37943344126066     -0.01230626984174      3.04845755675130
| 32> C          -0.01960087155986     -0.01156089996578     -0.74687997443611
| 33> C           1.03675391875749      0.62425707841442     -1.41531420429447
| 34> C           1.04680281402184      0.63075677304619     -2.80669132538117
| 35> C          -1.00064817669856     -0.59696094289784     -2.72713929450383
| 36> N          -1.01921053020765     -0.60549492558988     -1.40177260600152
| 37> H           1.82553959271218      1.12971852084172     -0.85261087525814
| 38> H           1.85413972205566      1.12838604917571     -3.35269269539613
| 39> H          -0.03136082161732     -0.01872909991858     -4.57822525423132
| 40> H          -1.83911827075703     -1.10093954717764     -3.22567631758471
| 41> *
| 42>
| 43>                          ****END OF INPUT****

CARTESIAN COORDINATES (ANGSTROEM)
---------------------------------
  C      0.006369    0.003447   -3.485681
  C     -0.073296   -0.043981    0.741381
  C      1.102722   -0.107993    1.502787
  C      1.006142   -0.136903    2.890489
  C     -0.257004   -0.099955    3.473718
  C     -1.365975   -0.041573    2.627116
  N     -1.282909   -0.016225    1.304432
  H      2.078643   -0.161482    1.013905
  H      1.907873   -0.196748    3.507596
  H     -0.385808   -0.120694    4.559345
  H     -2.379433   -0.012306    3.048458
  C     -0.019601   -0.011561   -0.746880
  C      1.036754    0.624257   -1.415314
  C      1.046803    0.630757   -2.806691
  C     -1.000648   -0.596961   -2.727139
  N     -1.019211   -0.605495   -1.401773
  H      1.825540    1.129719   -0.852611
  H      1.854140    1.128386   -3.352693
  H     -0.031361   -0.018729   -4.578225
  H     -1.839118   -1.100940   -3.225676

 Total Charge           Charge          ....    0
 Multiplicity           Mult            ....    1
 Number of Electrons    NEL             ....   82
 Basis Dimension        Dim             ....  736

ORBITAL ENERGIES
----------------

  NO   OCC          E(Eh)            E(eV)
   0   2.0000     -14.389943      -391.5703
   1   2.0000     -14.389924      -391.5697
   2   2.0000     -10.275990      -279.6239
   3   2.0000     -10.275649      -279.6146
   4   2.0000     -10.263926      -279.2956
   5   2.0000     -10.263914      -279.2953
   6   2.0000     -10.247819      -278.8573
   7   2.0000     -10.247772      -278.8561
   8   2.0000     -10.240605      -278.6610
   9   2.0000     -10.240572      -278.6601
  10   2.0000     -10.238123      -278.5935
  11   2.0000     -10.238116      -278.5933
  12   2.0000      -0.993030       -27.0217
  13   2.0000      -0.970753       -26.4155
  14   2.0000      -0.834007       -22.6945
  15   2.0000      -0.827910       -22.5286
  16   2.0000      -0.820074       -22.3153
  17   2.0000      -0.765782       -20.8380
  18   2.0000      -0.675923       -18.3928
  19   2.0000      -0.664173       -18.0731
  20   2.0000      -0.637750       -17.3541
  21   2.0000      -0.620502       -16.8847
  22   2.0000      -0.554780       -15.0963
  23   2.0000      -0.516476       -14.0540
  24   2.0000      -0.515314       -14.0224
  25   2.0000      -0.488271       -13.2865
  26   2.0000      -0.487657       -13.2698
  27   2.0000      -0.455045       -12.3824
  28   2.0000      -0.439840       -11.9687
  29   2.0000      -0.439296       -11.9539
  30   2.0000      -0.419267       -11.4088
  31   2.0000      -0.411717       -11.2034
  32   2.0000      -0.411150       -11.1879
  33   2.0000      -0.385826       -10.4988
  34   2.0000      -0.371302       -10.1036
  35   2.0000      -0.313677        -8.5356
  36   2.0000      -0.306198        -8.3321
  37   2.0000      -0.298528        -8.1234
  38   2.0000      -0.283372        -7.7109
  39   2.0000      -0.274281        -7.4636
  40   2.0000      -0.257502        -7.0070
  41   0.0000      -0.054207        -1.4751
  42   0.0000      -0.029737        -0.8092
  43   0.0000      -0.025127        -0.6837
  44   0.0000       0.001144         0.0311
  45   0.0000       0.010741         0.2923

MULLIKEN ATOMIC CHARGES
-----------------------
   0 C :   -0.229123
   1 C :    1.340695
   2 C :   -0.655169
   3 C :   -0.914183
   4 C :   -0.223536
   5 C :   -0.624202
   6 N :   -0.671737
   7 H :    0.207669
   8 H :    0.659670
   9 H :    0.334246
  10 H :    0.557296
  11 C :    1.282483
  12 C :   -0.651817
  13 C :   -0.915077
  14 C :   -0.592238
  15 N :   -0.666130
  16 H :    0.209218
  17 H :    0.667816
  18 H :    0.315225
  19 H :    0.568894
Sum of atomic charges:   -0.0000000

LOEWDIN ATOMIC CHARGES
----------------------
   0 C :    0.203949
   1 C :   -0.329365
   2 C :    0.216946
   3 C :    0.203850
   4 C :    0.203979
   5 C :   -0.000284
   6 N :    0.364499
   7 H :   -0.164205
   8 H :   -0.152900
   9 H :   -0.164379
  10 H :   -0.178133
  11 C :   -0.329434
  12 C :    0.217067
  13 C :    0.203827
  14 C :   -0.000245
  15 N :    0.364477
  16 H :   -0.164222
  17 H :   -0.152906
  18 H :   -0.164427
  19 H :   -0.178095

  Mayer bond orders larger than 0.100000
B(  0-C , 13-C ) :   1.3758 B(  0-C , 14-C ) :   0.9315 B(  0-C , 15-N ) :  -0.1131
B(  0-C , 18-H ) :   0.9175 B(  1-C ,  2-C ) :   0.6882 B(  1-C ,  3-C ) :  -0.1910
B(  1-C ,  6-N ) :   0.2784 B(  1-C , 11-C ) :   0.3444 B(  1-C , 15-N ) :   0.1441
B(  2-C ,  3-C ) :   1.4865 B(  2-C ,  7-H ) :   1.1672 B(  3-C ,  4-C ) :   1.3860
B(  3-C ,  5-C ) :   0.2884 B(  3-C ,  6-N ) :   0.1279 B(  3-C ,  8-H ) :   0.3837
B(  4-C ,  5-C ) :   0.9458 B(  4-C ,  6-N ) :  -0.1112 B(  4-C ,  9-H ) :   0.8873
B(  5-C ,  6-N ) :   1.5696 B(  5-C , 10-H ) :   0.4882 B(  6-N , 11-C ) :   0.1632
B( 11-C , 12-C ) :   0.7121 B( 11-C , 13-C ) :  -0.1727 B( 11-C , 15-N ) :   0.3009
B( 12-C , 13-C ) :   1.4953 B( 12-C , 16-H ) :   1.1637 B( 13-C , 14-C ) :   0.2885
B( 13-C , 15-N ) :   0.1287 B( 13-C , 17-H ) :   0.3713 B( 14-C , 15-N ) :   1.5728
B( 14-C , 19-H ) :   0.4778 B( 16-H , 18-H ) :   0.1088

Dispersion correction           -0.020561974
FINAL SINGLE POINT ENERGY      -494.993094467627

DIPOLE MOMENT
-------------

Method             : SCF
Type of density    : Electron Density
Multiplicity       :   1
Irrep              :   0
Energy             :  -494.9725324939506663 Eh
Relativity type    :
Basis              : AO
                                X                 Y                 Z
Electronic contribution:     -1.445895075      -0.369750477      -0.060258857
Nuclear contribution   :      3.378460210       0.864564887       0.140838942
                        -----------------------------------------
Total Dipole Moment    :      1.932565135       0.494814410       0.080580085
                        -----------------------------------------
Magnitude (a.u.)       :      1.996532607
Magnitude (Debye)      :      5.074782588

Rotational constants in cm-1:             0.098656             0.019232             0.016535
Rotational constants in MHz :          2957.622560           576.568291           495.704573

                             ****ORCA TERMINATED NORMALLY****
TOTAL RUN TIME: 0 days 0 hours 3 minutes 47 seconds 863 msec
