                         Program Version 6.0.0  -   RELEASE  -
|  1> !PBE0 aug-cc-pVTZ d3 TightSCF SlowConv RIJCOSX defgrid2
|  2>
|  3> %pal
|  4> nprocs 4
|  5> end
|  6>
|  7> %scf
|  8> MaxIter 1500
|  9> end
| 10>
| 11> %maxcore 3000
| 12>
| 13> !CPCM
| 14> %cpcm smd true
| 15> SMDsolvent "MeCN"
| 16> surfacetype gepol_ses
| 17> rsolv 2.19
| 18> end
| 19>
| 20> * xyz 1 2
| 21> C           0.39027202850425     -0.55394955520482     -0.01147318884514
| 22> C           1.46538411398227     -1.41201451226685      0.32843134291825
| 23> C           2.76223371510298     -0.95181499222389      0.33062494963678
| 24> C           3.04842985596685      0.39380533103560     -0.01062127484712
| 25> C           2.02568592855862      1.26931648709972     -0.30266231954854
| 26> C           0.67678776447609      0.85315037925119     -0.22862200210739
| 27> C          -0.33926818993375      1.86220315940674     -0.30117717382418
| 28> C          -1.56489251647505      1.82515242057598      0.30424492715440
| 29> C          -2.56690840928871      2.90896571125331      0.23231417274704
| 30> H          -3.53355272254525      2.51293544975722     -0.13479632863314
| 31> H          -2.77605157275142      3.30247609624592      1.24606137329070
| 32> H          -2.25129259404292      3.73887527736490     -0.41869887051134
| 33> H          -1.81399596674726      0.96710759352235      0.94261722102013
| 34> H          -0.04671759270647      2.79850717185556     -0.79419889631908
| 35> H           2.24475638702766      2.31715758324724     -0.52473414148750
| 36> H           4.08568441615477      0.73993162783082     -0.02214310519638
| 37> H           3.58311040506705     -1.63750220541102      0.55778721997041
| 38> H           1.27533483486936     -2.47214630677441      0.50835511028523
| 39> C          -0.92089212283098     -1.06759805095657     -0.27601443140599
| 40> C          -1.40401796068071     -2.28526831606367      0.13493631580958
| 41> C          -2.74957477405163     -2.79884516770918     -0.18467320513625
| 42> H          -3.33583401509727     -2.10778381332124     -0.80996844556913
| 43> H          -2.66557343194919     -3.77317132724075     -0.70581020687802
| 44> H          -3.31016753031929     -3.01606684555296      0.74550545986431
| 45> H          -0.77234901522658     -2.92837616395213      0.76142767228746
| 46> H          -1.58084503506342     -0.44553323176908     -0.89033947467507
| 47> *
| 48>
| 49>                          ****END OF INPUT****

CARTESIAN COORDINATES (ANGSTROEM)
---------------------------------
  C      0.390272   -0.553950   -0.011473
  C      1.465384   -1.412015    0.328431
  C      2.762234   -0.951815    0.330625
  C      3.048430    0.393805   -0.010621
  C      2.025686    1.269316   -0.302662
  C      0.676788    0.853150   -0.228622
  C     -0.339268    1.862203   -0.301177
  C     -1.564893    1.825152    0.304245
  C     -2.566908    2.908966    0.232314
  H     -3.533553    2.512935   -0.134796
  H     -2.776052    3.302476    1.246061
  H     -2.251293    3.738875   -0.418699
  H     -1.813996    0.967108    0.942617
  H     -0.046718    2.798507   -0.794199
  H      2.244756    2.317158   -0.524734
  H      4.085684    0.739932   -0.022143
  H      3.583110   -1.637502    0.557787
  H      1.275335   -2.472146    0.508355
  C     -0.920892   -1.067598   -0.276014
  C     -1.404018   -2.285268    0.134936
  C     -2.749575   -2.798845   -0.184673
  H     -3.335834   -2.107784   -0.809968
  H     -2.665573   -3.773171   -0.705810
  H     -3.310168   -3.016067    0.745505
  H     -0.772349   -2.928376    0.761428
  H     -1.580845   -0.445533   -0.890339

 Total Charge           Charge          ....    1
 Multiplicity           Mult            ....    2
 Number of Electrons    NEL             ....   85
 Basis Dimension        Dim             ....  874

ORBITAL ENERGIES
----------------
                 SPIN UP ORBITALS
  NO   OCC          E(Eh)            E(eV)
   0   1.0000     -10.295481      -280.1543
   1   1.0000     -10.293385      -280.0973
   2   1.0000     -10.287775      -279.9446
   3   1.0000     -10.280502      -279.7467
   4   1.0000     -10.270617      -279.4777
   5   1.0000     -10.265011      -279.3252
   6   1.0000     -10.263823      -279.2928
   7   1.0000     -10.262953      -279.2691
   8   1.0000     -10.259431      -279.1733
   9   1.0000     -10.256642      -279.0974
  10   1.0000     -10.234745      -278.5016
  11   1.0000     -10.232263      -278.4340
  12   1.0000      -0.930777       -25.3277
  13   1.0000      -0.864553       -23.5257
  14   1.0000      -0.860363       -23.4117
  15   1.0000      -0.806512       -21.9463
  16   1.0000      -0.805176       -21.9100
  17   1.0000      -0.739866       -20.1328
  18   1.0000      -0.717778       -19.5317
  19   1.0000      -0.664396       -18.0791
  20   1.0000      -0.646357       -17.5883
  21   1.0000      -0.598165       -16.2769
  22   1.0000      -0.593531       -16.1508
  23   1.0000      -0.551683       -15.0121
  24   1.0000      -0.519525       -14.1370
  25   1.0000      -0.511090       -13.9075
  26   1.0000      -0.483904       -13.1677
  27   1.0000      -0.469107       -12.7650
  28   1.0000      -0.467417       -12.7191
  29   1.0000      -0.445795       -12.1307
  30   1.0000      -0.443259       -12.0617
  31   1.0000      -0.439654       -11.9636
  32   1.0000      -0.423919       -11.5354
  33   1.0000      -0.421241       -11.4626
  34   1.0000      -0.412307       -11.2195
  35   1.0000      -0.394074       -10.7233
  36   1.0000      -0.387520       -10.5449
  37   1.0000      -0.382872       -10.4185
  38   1.0000      -0.372615       -10.1394
  39   1.0000      -0.341550        -9.2940
  40   1.0000      -0.337093        -9.1728
  41   1.0000      -0.278797        -7.5864
  42   1.0000      -0.258654        -7.0383
  43   0.0000      -0.088603        -2.4110
  44   0.0000      -0.054085        -1.4717
  45   0.0000      -0.005621        -0.1530
  46   0.0000       0.001241         0.0338
  47   0.0000       0.006757         0.1839

                 SPIN DOWN ORBITALS
  NO   OCC          E(Eh)            E(eV)
   0   1.0000     -10.292806      -280.0815
   1   1.0000     -10.290906      -280.0298
   2   1.0000     -10.282331      -279.7964
   3   1.0000     -10.276656      -279.6420
   4   1.0000     -10.270765      -279.4817
   5   1.0000     -10.263885      -279.2945
   6   1.0000     -10.263524      -279.2847
   7   1.0000     -10.261979      -279.2426
   8   1.0000     -10.259896      -279.1860
   9   1.0000     -10.257440      -279.1191
  10   1.0000     -10.234930      -278.5066
  11   1.0000     -10.232407      -278.4380
  12   1.0000      -0.925062       -25.1722
  13   1.0000      -0.857001       -23.3202
  14   1.0000      -0.854181       -23.2435
  15   1.0000      -0.802133       -21.8272
  16   1.0000      -0.798928       -21.7399
  17   1.0000      -0.739037       -20.1102
  18   1.0000      -0.713439       -19.4137
  19   1.0000      -0.659749       -17.9527
  20   1.0000      -0.642069       -17.4716
  21   1.0000      -0.593444       -16.1484
  22   1.0000      -0.590303       -16.0630
  23   1.0000      -0.549653       -14.9568
  24   1.0000      -0.517731       -14.0882
  25   1.0000      -0.508967       -13.8497
  26   1.0000      -0.481447       -13.1008
  27   1.0000      -0.467207       -12.7133
  28   1.0000      -0.463359       -12.6086
  29   1.0000      -0.442478       -12.0404
  30   1.0000      -0.432969       -11.7817
  31   1.0000      -0.432027       -11.7561
  32   1.0000      -0.421592       -11.4721
  33   1.0000      -0.410744       -11.1769
  34   1.0000      -0.409762       -11.1502
  35   1.0000      -0.392573       -10.6825
  36   1.0000      -0.386365       -10.5135
  37   1.0000      -0.381272       -10.3749
  38   1.0000      -0.370378       -10.0785
  39   1.0000      -0.330064        -8.9815
  40   1.0000      -0.320782        -8.7289
  41   1.0000      -0.265599        -7.2273
  42   0.0000      -0.181744        -4.9455
  43   0.0000      -0.064037        -1.7425
  44   0.0000      -0.044637        -1.2146
  45   0.0000      -0.001446        -0.0393
  46   0.0000       0.007156         0.1947

MULLIKEN ATOMIC CHARGES AND SPIN POPULATIONS
--------------------------------------------
   0 C :    1.206077    0.202393
   1 C :   -0.939812   -0.068986
   2 C :   -0.654511    0.074499
   3 C :   -0.390507    0.095725
   4 C :   -0.940186   -0.065633
   5 C :    1.017844    0.141017
   6 C :   -0.308266    0.002169
   7 C :   -0.248317    0.244957
   8 C :   -0.787072   -0.023052
   9 H :    0.251267    0.017176
  10 H :    0.247273    0.016947
  11 H :    0.280049   -0.004122
  12 H :    0.394652   -0.005326
  13 H :    0.217626    0.005094
  14 H :    0.247470    0.006541
  15 H :    0.645676    0.000226
  16 H :    0.562243    0.001267
  17 H :    0.216697    0.003712
  18 C :   -0.106724    0.008005
  19 C :   -0.595638    0.341216
  20 C :   -0.766754   -0.034157
  21 H :    0.281694   -0.005862
  22 H :    0.265810    0.026687
  23 H :    0.242295    0.023219
  24 H :    0.309966   -0.008742
  25 H :    0.351148    0.005029
Sum of atomic charges         :    1.0000000

LOEWDIN ATOMIC CHARGES AND SPIN POPULATIONS
-------------------------------------------
   0 C :   -0.064368    0.103321
   1 C :    0.248025    0.017123
   2 C :    0.248943    0.046571
   3 C :    0.247943    0.056540
   4 C :    0.245417    0.011659
   5 C :   -0.074836    0.098072
   6 C :    0.256854    0.061234
   7 C :    0.256437    0.126887
   8 C :    0.594695    0.040229
   9 H :   -0.144144    0.008854
  10 H :   -0.143078    0.008918
  11 H :   -0.156192    0.000989
  12 H :   -0.152423    0.019948
  13 H :   -0.148863    0.004573
  14 H :   -0.147036   -0.004955
  15 H :   -0.144896    0.011757
  16 H :   -0.146037    0.008209
  17 H :   -0.163892   -0.003466
  18 C :    0.250389    0.078441
  19 C :    0.287365    0.182961
  20 C :    0.600770    0.058331
  21 H :   -0.154045    0.001304
  22 H :   -0.140423    0.013743
  23 H :   -0.140927    0.011853
  24 H :   -0.145848    0.032170
  25 H :   -0.169830    0.004736

  Mayer bond orders larger than 0.100000
B(  0-C ,  1-C ) :   0.6964 B(  0-C ,  3-C ) :  -0.1842 B(  0-C ,  4-C ) :  -0.1009
B(  0-C ,  5-C ) :   0.9227 B(  0-C , 18-C ) :   0.4652 B(  1-C ,  2-C ) :   1.2848
B(  1-C ,  5-C ) :  -0.2056 B(  1-C , 17-H ) :   1.0655 B(  1-C , 18-C ) :   0.1208
B(  2-C ,  3-C ) :   1.2771 B(  2-C , 16-H ) :   0.4826 B(  3-C ,  4-C ) :   1.2182
B(  3-C , 15-H ) :   0.3926 B(  4-C ,  5-C ) :   0.6318 B(  4-C ,  6-C ) :  -0.1975
B(  4-C , 14-H ) :   0.9864 B(  4-C , 18-C ) :   0.1113 B(  5-C ,  6-C ) :   0.6155
B(  5-C , 14-H ) :   0.1085 B(  5-C , 18-C ) :  -0.2121 B(  5-C , 19-C ) :   0.1118
B(  6-C ,  7-C ) :   1.1538 B(  6-C , 13-H ) :   0.9638 B(  6-C , 18-C ) :   0.1030
B(  7-C ,  8-C ) :   0.9495 B(  7-C , 12-H ) :   0.9175 B(  7-C , 18-C ) :   0.1271
B(  8-C ,  9-H ) :   0.9366 B(  8-C , 10-H ) :   0.9394 B(  8-C , 11-H ) :   0.9100
B( 18-C , 19-C ) :   1.1464 B( 18-C , 25-H ) :   0.9398 B( 19-C , 20-C ) :   0.9535
B( 19-C , 24-H ) :   0.9462 B( 19-C , 25-H ) :  -0.1037 B( 20-C , 21-H ) :   0.9120
B( 20-C , 22-H ) :   0.9222 B( 20-C , 23-H ) :   0.9515

Dispersion correction           -0.024695972
FINAL SINGLE POINT ENERGY      -465.097244780935

DIPOLE MOMENT
-------------

Method             : SCF
Type of density    : Electron Density
Multiplicity       :   2
Irrep              :   0
Energy             :  -465.0725488087015833 Eh
Relativity type    :
Basis              : AO
                                X                 Y                 Z
Electronic contribution:      9.409982449      -0.309283732      -0.218149922
Nuclear contribution   :    -10.132740029      -0.046037469       0.378723665
                        -----------------------------------------
Total Dipole Moment    :     -0.722757580      -0.355321201       0.160573743
                        -----------------------------------------
Magnitude (a.u.)       :      0.821228106
Magnitude (Debye)      :      2.087395958

Rotational constants in cm-1:             0.031811             0.026577             0.014887
Rotational constants in MHz :           953.672417           796.765756           446.304428

                             ****ORCA TERMINATED NORMALLY****
TOTAL RUN TIME: 0 days 0 hours 15 minutes 9 seconds 939 msec
