                         Program Version 6.0.0  -   RELEASE  -
|  1> !B3LYP aug-cc-pVTZ d3 TightSCF SlowConv RIJCOSX defgrid2
|  2>
|  3> %pal
|  4> nprocs 4
|  5> end
|  6>
|  7> %scf
|  8> MaxIter 1500
|  9> end
| 10>
| 11> %maxcore 3000
| 12>
| 13> !CPCM
| 14> %cpcm smd true
| 15> SMDsolvent "MeCN"
| 16> surfacetype gepol_ses
| 17> rsolv 2.19
| 18> end
| 19>
| 20> * xyz 1 2
| 21> C          -0.91447665052191     -0.47212024963727      0.00305742174444
| 22> C          -2.18959675934569      0.11971421337046      0.01409102309685
| 23> C          -2.29388700864009      1.49579494614513      0.03719397935039
| 24> C          -1.14208865599825      2.32820910625960      0.04995116881801
| 25> C           0.10947335768495      1.76881259512950      0.03960538148135
| 26> C           0.28212991065801      0.35726166855364      0.01600485453252
| 27> C           1.54760711026767     -0.28724291022231      0.00423169337063
| 28> C           2.77332093532235      0.34213760096678      0.01571595747138
| 29> C           4.06622172347746     -0.36316154066438      0.00304916339958
| 30> H           3.96002045066298     -1.45844987469069     -0.01793750531576
| 31> H           4.66637612050733     -0.03672280648830     -0.86953860101039
| 32> H           4.66526755704250     -0.07044112617912      0.88830060381995
| 33> H           2.81784562071465      1.43840343521638      0.03577451797111
| 34> H           1.53655051969215     -1.38139322639124     -0.01527207677871
| 35> H           0.98749423584764      2.41741461359963      0.04936131634716
| 36> H          -1.26152864583437      3.41417242331339      0.06788229194881
| 37> H          -3.28641699296290      1.95584755491465      0.04577091193408
| 38> H          -3.08960840973113     -0.49602884724601      0.00463129800869
| 39> O          -0.70644499866046     -1.76403981031241     -0.01892493742312
| 40> C          -1.78404812347373     -2.69340134662684     -0.03465822668874
| 41> H          -2.39834499922984     -2.55118103918316     -0.93925561775505
| 42> H          -2.39845270509497     -2.58207749303523      0.87418511117935
| 43> H          -1.31890279238437     -3.68732048679220     -0.05153622950254
| 44> *
| 45>
| 46>                          ****END OF INPUT****

CARTESIAN COORDINATES (ANGSTROEM)
---------------------------------
  C     -0.914477   -0.472120    0.003057
  C     -2.189597    0.119714    0.014091
  C     -2.293887    1.495795    0.037194
  C     -1.142089    2.328209    0.049951
  C      0.109473    1.768813    0.039605
  C      0.282130    0.357262    0.016005
  C      1.547607   -0.287243    0.004232
  C      2.773321    0.342138    0.015716
  C      4.066222   -0.363162    0.003049
  H      3.960020   -1.458450   -0.017938
  H      4.666376   -0.036723   -0.869539
  H      4.665268   -0.070441    0.888301
  H      2.817846    1.438403    0.035775
  H      1.536551   -1.381393   -0.015272
  H      0.987494    2.417415    0.049361
  H     -1.261529    3.414172    0.067882
  H     -3.286417    1.955848    0.045771
  H     -3.089608   -0.496029    0.004631
  O     -0.706445   -1.764040   -0.018925
  C     -1.784048   -2.693401   -0.034658
  H     -2.398345   -2.551181   -0.939256
  H     -2.398453   -2.582077    0.874185
  H     -1.318903   -3.687320   -0.051536

 Total Charge           Charge          ....    1
 Multiplicity           Mult            ....    2
 Number of Electrons    NEL             ....   79
 Basis Dimension        Dim             ....  782

ORBITAL ENERGIES
----------------
                 SPIN UP ORBITALS
  NO   OCC          E(Eh)            E(eV)
   0   1.0000     -19.213648      -522.8300
   1   1.0000     -10.294576      -280.1297
   2   1.0000     -10.240894      -278.6689
   3   1.0000     -10.236085      -278.5380
   4   1.0000     -10.236017      -278.5362
   5   1.0000     -10.221386      -278.1380
   6   1.0000     -10.217016      -278.0191
   7   1.0000     -10.209177      -277.8058
   8   1.0000     -10.206666      -277.7375
   9   1.0000     -10.202622      -277.6275
  10   1.0000     -10.182599      -277.0826
  11   1.0000      -1.131109       -30.7791
  12   1.0000      -0.896236       -24.3878
  13   1.0000      -0.841424       -22.8963
  14   1.0000      -0.795360       -21.6429
  15   1.0000      -0.782802       -21.3011
  16   1.0000      -0.731515       -19.9055
  17   1.0000      -0.704496       -19.1703
  18   1.0000      -0.649106       -17.6631
  19   1.0000      -0.616454       -16.7746
  20   1.0000      -0.579948       -15.7812
  21   1.0000      -0.563449       -15.3322
  22   1.0000      -0.528490       -14.3809
  23   1.0000      -0.514974       -14.0132
  24   1.0000      -0.508270       -13.8307
  25   1.0000      -0.476997       -12.9797
  26   1.0000      -0.464491       -12.6394
  27   1.0000      -0.449724       -12.2376
  28   1.0000      -0.435225       -11.8431
  29   1.0000      -0.433167       -11.7871
  30   1.0000      -0.416388       -11.3305
  31   1.0000      -0.411759       -11.2045
  32   1.0000      -0.395315       -10.7571
  33   1.0000      -0.390330       -10.6214
  34   1.0000      -0.367769       -10.0075
  35   1.0000      -0.364415        -9.9162
  36   1.0000      -0.353478        -9.6186
  37   1.0000      -0.337579        -9.1860
  38   1.0000      -0.274270        -7.4633
  39   1.0000      -0.249722        -6.7953
  40   0.0000      -0.087102        -2.3702
  41   0.0000      -0.032644        -0.8883
  42   0.0000      -0.007242        -0.1971
  43   0.0000       0.002303         0.0627
  44   0.0000       0.003835         0.1044

                 SPIN DOWN ORBITALS
  NO   OCC          E(Eh)            E(eV)
   0   1.0000     -19.210169      -522.7353
   1   1.0000     -10.292338      -280.0688
   2   1.0000     -10.237849      -278.5860
   3   1.0000     -10.236198      -278.5411
   4   1.0000     -10.230789      -278.3939
   5   1.0000     -10.219151      -278.0772
   6   1.0000     -10.216887      -278.0156
   7   1.0000     -10.209503      -277.8147
   8   1.0000     -10.205559      -277.7074
   9   1.0000     -10.203421      -277.6492
  10   1.0000     -10.182754      -277.0868
  11   1.0000      -1.124589       -30.6016
  12   1.0000      -0.890142       -24.2220
  13   1.0000      -0.834052       -22.6957
  14   1.0000      -0.788951       -21.4685
  15   1.0000      -0.779721       -21.2173
  16   1.0000      -0.730090       -19.8668
  17   1.0000      -0.699554       -19.0358
  18   1.0000      -0.644090       -17.5266
  19   1.0000      -0.612890       -16.6776
  20   1.0000      -0.575681       -15.6651
  21   1.0000      -0.561143       -15.2695
  22   1.0000      -0.526622       -14.3301
  23   1.0000      -0.512511       -13.9461
  24   1.0000      -0.495928       -13.4949
  25   1.0000      -0.474615       -12.9149
  26   1.0000      -0.463240       -12.6054
  27   1.0000      -0.448223       -12.1968
  28   1.0000      -0.433157       -11.7868
  29   1.0000      -0.421445       -11.4681
  30   1.0000      -0.409629       -11.1466
  31   1.0000      -0.405511       -11.0345
  32   1.0000      -0.393962       -10.7203
  33   1.0000      -0.388889       -10.5822
  34   1.0000      -0.365844        -9.9551
  35   1.0000      -0.352194        -9.5837
  36   1.0000      -0.351394        -9.5619
  37   1.0000      -0.320411        -8.7188
  38   1.0000      -0.264990        -7.2108
  39   0.0000      -0.181453        -4.9376
  40   0.0000      -0.064985        -1.7683
  41   0.0000      -0.019723        -0.5367
  42   0.0000      -0.007036        -0.1915
  43   0.0000       0.002481         0.0675

MULLIKEN ATOMIC CHARGES AND SPIN POPULATIONS
--------------------------------------------
   0 C :    0.722477    0.143076
   1 C :   -0.620240   -0.078506
   2 C :   -0.202545    0.160723
   3 C :   -0.670489    0.085264
   4 C :   -0.556216   -0.046791
   5 C :    1.354984    0.220759
   6 C :    0.197328    0.042937
   7 C :   -0.279209    0.346658
   8 C :   -0.796878   -0.032844
   9 H :    0.262666   -0.004776
  10 H :    0.207527    0.025595
  11 H :    0.209491    0.025616
  12 H :    0.287375   -0.021437
  13 H :    0.149040    0.007255
  14 H :   -0.110945    0.001433
  15 H :    0.600821    0.000866
  16 H :    0.327835   -0.001603
  17 H :    0.545194    0.010991
  18 O :   -0.802033    0.111489
  19 C :   -0.715091   -0.009262
  20 H :    0.329939    0.006177
  21 H :    0.330238    0.006188
  22 H :    0.228732    0.000192
Sum of atomic charges         :    1.0000000

LOEWDIN ATOMIC CHARGES AND SPIN POPULATIONS
-------------------------------------------
   0 C :   -0.324733    0.112095
   1 C :    0.253619    0.023332
   2 C :    0.252204    0.089190
   3 C :    0.250477    0.064952
   4 C :    0.246067    0.029477
   5 C :   -0.063011    0.126313
   6 C :    0.269440    0.092343
   7 C :    0.293727    0.190732
   8 C :    0.598416    0.062231
   9 H :   -0.154338    0.001410
  10 H :   -0.139727    0.013890
  11 H :   -0.139713    0.013914
  12 H :   -0.149446    0.032662
  13 H :   -0.183631    0.003433
  14 H :   -0.164228   -0.002872
  15 H :   -0.148719    0.010297
  16 H :   -0.138956    0.017904
  17 H :   -0.167777   -0.004186
  18 O :    0.647402    0.105133
  19 C :    0.408877    0.011749
  20 H :   -0.145667    0.003087
  21 H :   -0.145710    0.003083
  22 H :   -0.154572   -0.000172

  Mayer bond orders larger than 0.100000
B(  0-C ,  1-C ) :   1.1953 B(  0-C ,  2-C ) :  -0.4687 B(  0-C ,  3-C ) :   0.1437
B(  0-C ,  4-C ) :  -0.9573 B(  0-C ,  5-C ) :   0.4646 B(  0-C ,  7-C ) :   0.2088
B(  0-C , 14-H ) :   0.1490 B(  0-C , 16-H ) :   0.2804 B(  0-C , 17-H ) :  -0.1769
B(  0-C , 18-O ) :   0.6478 B(  1-C ,  2-C ) :   0.8767 B(  1-C ,  3-C ) :   0.3305
B(  1-C ,  4-C ) :  -0.1048 B(  1-C ,  5-C ) :   0.1779 B(  1-C , 14-H ) :  -0.1657
B(  1-C , 17-H ) :   0.2624 B(  2-C ,  3-C ) :   1.0230 B(  2-C ,  4-C ) :  -0.2578
B(  2-C ,  5-C ) :  -0.1058 B(  2-C ,  6-C ) :   0.1479 B(  2-C , 16-H ) :   0.8910
B(  2-C , 17-H ) :   0.2206 B(  3-C ,  4-C ) :   1.0512 B(  3-C ,  5-C ) :   0.1779
B(  3-C ,  7-C ) :  -0.1005 B(  3-C , 14-H ) :  -0.1992 B(  3-C , 15-H ) :   0.2845
B(  3-C , 16-H ) :  -0.1248 B(  3-C , 17-H ) :  -0.1313 B(  4-C ,  5-C ) :   0.5665
B(  4-C ,  6-C ) :   0.1286 B(  4-C , 14-H ) :   1.8002 B(  4-C , 17-H ) :   0.1949
B(  5-C ,  6-C ) :   0.2434 B(  5-C , 12-H ) :  -0.1103 B(  5-C , 14-H ) :  -0.2005
B(  5-C , 16-H ) :  -0.1655 B(  5-C , 17-H ) :   0.1367 B(  6-C ,  7-C ) :   0.5162
B(  6-C , 13-H ) :   1.1224 B(  7-C ,  8-C ) :   0.6841 B(  7-C , 12-H ) :   1.1058
B(  7-C , 13-H ) :  -0.1352 B(  8-C ,  9-H ) :   0.9375 B(  8-C , 10-H ) :   1.0137
B(  8-C , 11-H ) :   1.0103 B(  8-C , 12-H ) :  -0.1671 B( 14-H , 16-H ) :   0.1576
B( 14-H , 17-H ) :  -0.1477 B( 17-H , 19-C ) :  -0.1023 B( 18-O , 19-C ) :   1.0761
B( 19-C , 20-H ) :   0.8655 B( 19-C , 21-H ) :   0.8644 B( 19-C , 22-H ) :   1.0097

Dispersion correction           -0.039407479
FINAL SINGLE POINT ENERGY      -463.221538517525

DIPOLE MOMENT
-------------

Method             : SCF
Type of density    : Electron Density
Multiplicity       :   2
Irrep              :   0
Energy             :  -463.1821310380447585 Eh
Relativity type    :
Basis              : AO
                                X                 Y                 Z
Electronic contribution:     -4.540099433       2.862727833       0.050200422
Nuclear contribution   :      4.638279725      -2.868122594      -0.050338921
                        -----------------------------------------
Total Dipole Moment    :      0.098180292      -0.005394762      -0.000138499
                        -----------------------------------------
Magnitude (a.u.)       :      0.098328492
Magnitude (Debye)      :      0.249931165

Rotational constants in cm-1:             0.050628             0.027043             0.017747
Rotational constants in MHz :          1517.785345           810.742847           532.038071

                             ****ORCA TERMINATED NORMALLY****
TOTAL RUN TIME: 0 days 0 hours 9 minutes 37 seconds 689 msec
