                         Program Version 6.0.0  -   RELEASE  -
|  1> !PBE0 opt def2-SV(p) d3 TightSCF SlowConv RIJCOSX defgrid2
|  2>
|  3> %pal
|  4> nprocs 8
|  5> end
|  6>
|  7> %scf
|  8> MaxIter 1500
|  9> end
| 10>
| 11> %maxcore 3500
| 12>
| 13> !CPCM
| 14> %cpcm smd true
| 15> SMDsolvent "MeCN"
| 16> surfacetype gepol_ses
| 17> rsolv 2.19
| 18> end
| 19>
| 20> * xyz 1 2
| 21> C           2.44830417164420     -0.69527642473796      0.00000945881878
| 22> C           2.44832214826430      0.69521603339414      0.00001009734484
| 23> C           1.23352505326865      1.40025135317577      0.00000577718412
| 24> C           0.00001141556131      0.71453178803145      0.00000268426234
| 25> C          -1.23348320904465      1.40028329659239      0.00000107782236
| 26> C          -2.44830108548662      0.69527938835391      0.00000695148737
| 27> C          -2.44832067103510     -0.69521530453956      0.00000530486429
| 28> C          -1.23352061718470     -1.40025032772324     -0.00000393184308
| 29> C          -0.00000717114678     -0.71452684352053     -0.00000494703196
| 30> C           1.23348727294566     -1.40028215170085     -0.00000132918117
| 31> H           1.23935708532449     -2.49454817867840      0.00000050523970
| 32> H          -1.23942268133971     -2.49451730914708     -0.00000545360366
| 33> H          -3.39340211959580     -1.24489598698530      0.00000832828244
| 34> H          -3.39336678788360      1.24498332942293      0.00000859404642
| 35> H          -1.23935478912557      2.49455128204595      0.00000167009943
| 36> H           1.23942795953164      2.49451607920762      0.00000299068588
| 37> H           3.39340268697296      1.24489500413589      0.00001313139295
| 38> H           3.39337233832933     -1.24497302732713      0.00001569012894
| 39> *
| 40>
| 41>                          ****END OF INPUT****
 Total Charge           Charge          ....    1
 Multiplicity           Mult            ....    2
 Number of Electrons    NEL             ....   67
Dispersion correction           -0.018468744
FINAL SINGLE POINT ENERGY      -384.954535175874
Dispersion correction             ... done (  0.1 sec)
Dispersion correction           -0.018479733
FINAL SINGLE POINT ENERGY      -384.954550335321
Dispersion correction             ... done (  0.1 sec)
                    ***********************HURRAY********************

CARTESIAN COORDINATES (ANGSTROEM)
---------------------------------
  C      2.444706   -0.694966   -0.000042
  C      2.444725    0.694904   -0.000227
  C      1.231533    1.400811   -0.000244
  C      0.000011    0.714316    0.000010
  C     -1.231493    1.400841    0.000265
  C     -2.444706    0.694968    0.000238
  C     -2.444724   -0.694904    0.000048
  C     -1.231528   -1.400806    0.000086
  C     -0.000008   -0.714311    0.000011
  C      1.231495   -1.400839   -0.000066
  H      1.236419   -2.494087    0.000015
  H     -1.236477   -2.494055   -0.000011
  H     -3.388775   -1.245068   -0.000386
  H     -3.388745    1.245155   -0.000053
  H     -1.236414    2.494088    0.000289
  H      1.236490    2.494060   -0.000276
  H      3.388777    1.245067    0.000050
  H      3.388747   -1.245152    0.000370

 Multiplicity           Mult            ....    2
 Number of Electrons    NEL             ....   67
 Basis Dimension        Dim             ....  156

ORBITAL ENERGIES
----------------
                 SPIN UP ORBITALS
  NO   OCC          E(Eh)            E(eV)
   0   1.0000     -10.296184      -280.1734
   1   1.0000     -10.296180      -280.1733
   2   1.0000     -10.296100      -280.1711
   3   1.0000     -10.296068      -280.1703
   4   1.0000     -10.284821      -279.8642
   5   1.0000     -10.284531      -279.8563
   6   1.0000     -10.280324      -279.7418
   7   1.0000     -10.280315      -279.7416
   8   1.0000     -10.279862      -279.7293
   9   1.0000     -10.279861      -279.7292
  10   1.0000      -0.943639       -25.6777
  11   1.0000      -0.887670       -24.1547
  12   1.0000      -0.839243       -22.8370
  13   1.0000      -0.801886       -21.8204
  14   1.0000      -0.778921       -21.1955
  15   1.0000      -0.686347       -18.6765
  16   1.0000      -0.666631       -18.1400
  17   1.0000      -0.652742       -17.7620
  18   1.0000      -0.568733       -15.4760
  19   1.0000      -0.558682       -15.2025
  20   1.0000      -0.550009       -14.9665
  21   1.0000      -0.497396       -13.5348
  22   1.0000      -0.495882       -13.4936
  23   1.0000      -0.474980       -12.9249
  24   1.0000      -0.469475       -12.7751
  25   1.0000      -0.457588       -12.4516
  26   1.0000      -0.442504       -12.0411
  27   1.0000      -0.422826       -11.5057
  28   1.0000      -0.392180       -10.6718
  29   1.0000      -0.389000       -10.5852
  30   1.0000      -0.382846       -10.4178
  31   1.0000      -0.354610        -9.6494
  32   1.0000      -0.301575        -8.2063
  33   1.0000      -0.282340        -7.6828
  34   0.0000      -0.100041        -2.7223
  35   0.0000      -0.047030        -1.2798
  36   0.0000      -0.019909        -0.5418
  37   0.0000       0.055165         1.5011
  38   0.0000       0.068956         1.8764

                 SPIN DOWN ORBITALS
  NO   OCC          E(Eh)            E(eV)
   0   1.0000     -10.291958      -280.0584
   1   1.0000     -10.291940      -280.0579
   2   1.0000     -10.291879      -280.0563
   3   1.0000     -10.291838      -280.0551
   4   1.0000     -10.286088      -279.8987
   5   1.0000     -10.285799      -279.8908
   6   1.0000     -10.279755      -279.7263
   7   1.0000     -10.279746      -279.7261
   8   1.0000     -10.279277      -279.7134
   9   1.0000     -10.279277      -279.7133
  10   1.0000      -0.938966       -25.5506
  11   1.0000      -0.880734       -23.9660
  12   1.0000      -0.830274       -22.5929
  13   1.0000      -0.801295       -21.8044
  14   1.0000      -0.765814       -20.8389
  15   1.0000      -0.681722       -18.5506
  16   1.0000      -0.662809       -18.0359
  17   1.0000      -0.648156       -17.6372
  18   1.0000      -0.565546       -15.3893
  19   1.0000      -0.554449       -15.0873
  20   1.0000      -0.547782       -14.9059
  21   1.0000      -0.496741       -13.5170
  22   1.0000      -0.493356       -13.4249
  23   1.0000      -0.472620       -12.8606
  24   1.0000      -0.466363       -12.6904
  25   1.0000      -0.443454       -12.0670
  26   1.0000      -0.439883       -11.9698
  27   1.0000      -0.421701       -11.4751
  28   1.0000      -0.386594       -10.5197
  29   1.0000      -0.382055       -10.3962
  30   1.0000      -0.370391       -10.0789
  31   1.0000      -0.322630        -8.7792
  32   1.0000      -0.301467        -8.2033
  33   0.0000      -0.199640        -5.4325
  34   0.0000      -0.070501        -1.9184
  35   0.0000      -0.038059        -1.0356
  36   0.0000       0.001599         0.0435
  37   0.0000       0.069926         1.9028

MULLIKEN ATOMIC CHARGES AND SPIN POPULATIONS
--------------------------------------------
   0 C :   -0.058829    0.029354
   1 C :   -0.058828    0.029353
   2 C :   -0.053520    0.295015
   3 C :    0.055497   -0.115301
   4 C :   -0.053515    0.295012
   5 C :   -0.058831    0.029354
   6 C :   -0.058832    0.029353
   7 C :   -0.053523    0.295012
   8 C :    0.055511   -0.115301
   9 C :   -0.053521    0.295013
  10 H :    0.165956   -0.013630
  11 H :    0.165957   -0.013630
  12 H :    0.168640   -0.003086
  13 H :    0.168641   -0.003086
  14 H :    0.165957   -0.013630
  15 H :    0.165957   -0.013630
  16 H :    0.168640   -0.003086
  17 H :    0.168642   -0.003086
Sum of atomic charges         :    1.0000000

LOEWDIN ATOMIC CHARGES AND SPIN POPULATIONS
-------------------------------------------
   0 C :   -0.071288    0.048252
   1 C :   -0.071286    0.048252
   2 C :    0.001986    0.235718
   3 C :   -0.043130   -0.050917
   4 C :    0.001983    0.235715
   5 C :   -0.071288    0.048253
   6 C :   -0.071288    0.048251
   7 C :    0.001984    0.235715
   8 C :   -0.043128   -0.050917
   9 C :    0.001985    0.235716
  10 H :    0.172489   -0.006952
  11 H :    0.172489   -0.006952
  12 H :    0.168378   -0.001557
  13 H :    0.168378   -0.001557
  14 H :    0.172489   -0.006952
  15 H :    0.172490   -0.006952
  16 H :    0.168378   -0.001557
  17 H :    0.168379   -0.001557

  Mayer bond orders larger than 0.100000
B(  0-C ,  1-C ) :   1.4010 B(  0-C ,  9-C ) :   1.3037 B(  0-C , 17-H ) :   0.9552
B(  1-C ,  2-C ) :   1.3037 B(  1-C , 16-H ) :   0.9552 B(  2-C ,  3-C ) :   1.2664
B(  2-C , 15-H ) :   0.9546 B(  3-C ,  4-C ) :   1.2664 B(  3-C ,  8-C ) :   1.1934
B(  4-C ,  5-C ) :   1.3037 B(  4-C , 14-H ) :   0.9546 B(  5-C ,  6-C ) :   1.4010
B(  5-C , 13-H ) :   0.9552 B(  6-C ,  7-C ) :   1.3037 B(  6-C , 12-H ) :   0.9552
B(  7-C ,  8-C ) :   1.2664 B(  7-C , 11-H ) :   0.9546 B(  8-C ,  9-C ) :   1.2664
B(  9-C , 10-H ) :   0.9546

Dispersion correction           -0.018481867
FINAL SINGLE POINT ENERGY      -384.954549927706

DIPOLE MOMENT
-------------

Method             : SCF
Type of density    : Electron Density
Multiplicity       :   2
Irrep              :   0
Energy             :  -384.9360680606012011 Eh
Relativity type    :
Basis              : AO
                                X                 Y                 Z
Electronic contribution:      0.000014914       0.000007741       0.000037413
Nuclear contribution   :      0.000011503      -0.000004942      -0.000056112
                        -----------------------------------------
Total Dipole Moment    :      0.000026416       0.000002799      -0.000018698
                        -----------------------------------------
Magnitude (a.u.)       :      0.000032485
Magnitude (Debye)      :      0.000082570

Rotational constants in cm-1:             0.104662             0.040870             0.029392
Rotational constants in MHz :          3137.680892          1225.244344           881.157844

                             ****ORCA TERMINATED NORMALLY****
TOTAL RUN TIME: 0 days 0 hours 3 minutes 10 seconds 171 msec
