                         Program Version 6.0.0  -   RELEASE  -
|  1> !PBE0 def2-SV(p) Opt Freq d3 TightSCF SlowConv RIJCOSX defgrid2
|  2>
|  3> %pal
|  4> nprocs 15
|  5> end
|  6>
|  7> %scf
|  8> MaxIter 1500
|  9> end
| 10>
| 11> %maxcore 3500
| 12>
| 13>
| 14>
| 15> * xyz -1 2
| 16> C        0.000000000      0.000000000      0.000000000
| 17> C       -1.156068693     -0.354690359      0.698164000
| 18> C        1.156068693      0.354690359      0.698164000
| 19> H       -2.055493799     -0.630640582      0.154991000
| 20> H        2.055493799      0.630640582      0.154991000
| 21> C       -1.156068693     -0.354690359      2.094494000
| 22> C        1.156068693      0.354690359      2.094494000
| 23> H       -2.055493799     -0.630640582      2.637667000
| 24> H        2.055493799      0.630640582      2.637667000
| 25> C        0.000000000      0.000000000      2.792658000
| 26> O        0.000000000      0.000000000      4.232658000
| 27> O        0.000000000      0.000000000     -1.440000000
| 28> *
| 29>
| 30>                          ****END OF INPUT****
 Total Charge           Charge          ....   -1
 Multiplicity           Mult            ....    2
 Number of Electrons    NEL             ....   57
Dispersion correction           -0.010325141
FINAL SINGLE POINT ENERGY      -380.751447210259
Dispersion correction             ... done (  0.1 sec)
Dispersion correction           -0.010385429
FINAL SINGLE POINT ENERGY      -380.793658507505
Dispersion correction             ... done (  0.1 sec)
Dispersion correction           -0.010417498
FINAL SINGLE POINT ENERGY      -380.806415084955
Dispersion correction             ... done (  0.1 sec)
FINAL SINGLE POINT ENERGY      -380.809440881624
Dispersion correction             ... done (  0.1 sec)
Dispersion correction           -0.010365902
FINAL SINGLE POINT ENERGY      -380.809913691131
Dispersion correction             ... done (  0.1 sec)
Dispersion correction           -0.010366204
FINAL SINGLE POINT ENERGY      -380.809939937115
Dispersion correction             ... done (  0.1 sec)
                    ***********************HURRAY********************

CARTESIAN COORDINATES (ANGSTROEM)
---------------------------------
  C      0.000000    0.000003   -0.079277
  C     -1.165093   -0.357477    0.710503
  C      1.165094    0.357476    0.710502
  H     -2.063626   -0.633128    0.144127
  H      2.063631    0.633128    0.144127
  C     -1.165095   -0.357473    2.082155
  C      1.165092    0.357477    2.082154
  H     -2.063632   -0.633120    2.648532
  H      2.063626    0.633133    2.648530
  C      0.000001   -0.000006    2.871935
  O      0.000002   -0.000007    4.125867
  O     -0.000001   -0.000005   -1.333207

 Multiplicity           Mult            ....    2
 Number of Electrons    NEL             ....   57
 Basis Dimension        Dim             ....  120

ORBITAL ENERGIES
----------------
                 SPIN UP ORBITALS
  NO   OCC          E(Eh)            E(eV)
   0   1.0000     -18.993258      -516.8328
   1   1.0000     -18.993247      -516.8325
   2   1.0000     -10.113096      -275.1913
   3   1.0000     -10.113033      -275.1896
   4   1.0000     -10.065882      -273.9066
   5   1.0000     -10.065832      -273.9052
   6   1.0000     -10.065314      -273.8911
   7   1.0000     -10.065274      -273.8900
   8   1.0000      -0.845773       -23.0147
   9   1.0000      -0.843050       -22.9406
  10   1.0000      -0.674578       -18.3562
  11   1.0000      -0.596783       -16.2393
  12   1.0000      -0.530372       -14.4321
  13   1.0000      -0.454563       -12.3693
  14   1.0000      -0.418250       -11.3812
  15   1.0000      -0.320564        -8.7230
  16   1.0000      -0.319101        -8.6832
  17   1.0000      -0.296532        -8.0690
  18   1.0000      -0.267911        -7.2902
  19   1.0000      -0.258283        -7.0283
  20   1.0000      -0.247037        -6.7222
  21   1.0000      -0.222994        -6.0680
  22   1.0000      -0.221786        -6.0351
  23   1.0000      -0.206612        -5.6222
  24   1.0000      -0.130388        -3.5480
  25   1.0000      -0.113859        -3.0983
  26   1.0000      -0.081448        -2.2163
  27   1.0000      -0.076548        -2.0830
  28   1.0000      -0.004136        -0.1125
  29   0.0000       0.157563         4.2875
  30   0.0000       0.212538         5.7835
  31   0.0000       0.232317         6.3217
  32   0.0000       0.252159         6.8616
  33   0.0000       0.284669         7.7462

                 SPIN DOWN ORBITALS
  NO   OCC          E(Eh)            E(eV)
   0   1.0000     -18.984940      -516.6065
   1   1.0000     -18.984929      -516.6062
   2   1.0000     -10.112454      -275.1739
   3   1.0000     -10.112393      -275.1722
   4   1.0000     -10.064608      -273.8719
   5   1.0000     -10.064559      -273.8706
   6   1.0000     -10.064021      -273.8559
   7   1.0000     -10.063985      -273.8550
   8   1.0000      -0.831854       -22.6359
   9   1.0000      -0.828647       -22.5486
  10   1.0000      -0.667567       -18.1654
  11   1.0000      -0.593656       -16.1542
  12   1.0000      -0.518746       -14.1158
  13   1.0000      -0.449773       -12.2389
  14   1.0000      -0.414651       -11.2832
  15   1.0000      -0.318604        -8.6697
  16   1.0000      -0.313626        -8.5342
  17   1.0000      -0.293200        -7.9784
  18   1.0000      -0.266857        -7.2615
  19   1.0000      -0.238765        -6.4971
  20   1.0000      -0.236830        -6.4445
  21   1.0000      -0.216146        -5.8816
  22   1.0000      -0.204371        -5.5612
  23   1.0000      -0.188696        -5.1347
  24   1.0000      -0.104021        -2.8306
  25   1.0000      -0.086436        -2.3520
  26   1.0000      -0.073819        -2.0087
  27   1.0000      -0.069302        -1.8858
  28   0.0000       0.087140         2.3712
  29   0.0000       0.177031         4.8172
  30   0.0000       0.233261         6.3474
  31   0.0000       0.242695         6.6041
  32   0.0000       0.252481         6.8704

MULLIKEN ATOMIC CHARGES AND SPIN POPULATIONS
--------------------------------------------
   0 C :    0.201078    0.047879
   1 C :   -0.195767    0.087851
   2 C :   -0.195768    0.087851
   3 H :    0.033381   -0.006589
   4 H :    0.033382   -0.006589
   5 C :   -0.195767    0.087849
   6 C :   -0.195769    0.087850
   7 H :    0.033382   -0.006589
   8 H :    0.033382   -0.006589
   9 C :    0.201079    0.047880
  10 O :   -0.376309    0.289598
  11 O :   -0.376305    0.289598
Sum of atomic charges         :   -1.0000000

LOEWDIN ATOMIC CHARGES AND SPIN POPULATIONS
-------------------------------------------
   0 C :   -0.029778    0.062018
   1 C :   -0.184235    0.081348
   2 C :   -0.184235    0.081348
   3 H :    0.103258   -0.003042
   4 H :    0.103258   -0.003042
   5 C :   -0.184236    0.081346
   6 C :   -0.184236    0.081348
   7 H :    0.103258   -0.003042
   8 H :    0.103258   -0.003042
   9 C :   -0.029777    0.062019
  10 O :   -0.308269    0.281371
  11 O :   -0.308265    0.281371

  Mayer bond orders larger than 0.100000
B(  0-C ,  1-C ) :   1.1416 B(  0-C ,  2-C ) :   1.1416 B(  0-C , 11-O ) :   1.8156
B(  1-C ,  3-H ) :   0.9545 B(  1-C ,  5-C ) :   1.4907 B(  2-C ,  4-H ) :   0.9545
B(  2-C ,  6-C ) :   1.4907 B(  5-C ,  7-H ) :   0.9545 B(  5-C ,  9-C ) :   1.1416
B(  6-C ,  8-H ) :   0.9545 B(  6-C ,  9-C ) :   1.1416 B(  9-C , 10-O ) :   1.8156

Dispersion correction           -0.010367010
FINAL SINGLE POINT ENERGY      -380.809942272613

DIPOLE MOMENT
-------------

Method             : SCF
Type of density    : Electron Density
Multiplicity       :   2
Irrep              :   0
Energy             :  -380.7995752629901745 Eh
Relativity type    :
Basis              : AO
                                X                 Y                 Z
Electronic contribution:     -0.000000735      -0.000011639      -0.000016648
Nuclear contribution   :     -0.000001132       0.000017886      -0.000000443
                        -----------------------------------------
Total Dipole Moment    :     -0.000001866       0.000006248      -0.000017092
                        -----------------------------------------
Magnitude (a.u.)       :      0.000018293
Magnitude (Debye)      :      0.000046498

VIBRATIONAL FREQUENCIES
-----------------------

Scaling factor for frequencies =  1.000000000  (already applied!)

     0:       0.00 cm**-1
     1:       0.00 cm**-1
     2:       0.00 cm**-1
     3:       0.00 cm**-1
     4:       0.00 cm**-1
     5:       0.00 cm**-1
     6:     137.12 cm**-1
     7:     331.05 cm**-1
     8:     396.85 cm**-1
     9:     403.54 cm**-1
    10:     469.88 cm**-1
    11:     470.11 cm**-1
    12:     524.79 cm**-1
    13:     637.27 cm**-1
    14:     777.10 cm**-1
    15:     782.03 cm**-1
    16:     800.89 cm**-1
    17:     837.63 cm**-1
    18:     878.04 cm**-1
    19:     962.40 cm**-1
    20:     973.74 cm**-1
    21:     973.93 cm**-1
    22:    1067.26 cm**-1
    23:    1136.75 cm**-1
    24:    1248.22 cm**-1
    25:    1255.54 cm**-1
    26:    1376.19 cm**-1
    27:    1478.17 cm**-1
    28:    1543.77 cm**-1
    29:    1576.45 cm**-1
    30:    1623.94 cm**-1
    31:    1718.44 cm**-1
    32:    3148.49 cm**-1
    33:    3149.77 cm**-1
    34:    3170.95 cm**-1
    35:    3176.16 cm**-1

IR SPECTRUM
-----------

 Mode   freq       eps      Int      T**2         TX        TY        TZ
       cm**-1   L/(mol*cm) km/mol    a.u.
----------------------------------------------------------------------------
  6:    137.12   0.001705    8.61  0.003880  ( 0.018163 -0.059580  0.000000)
  7:    331.05   0.000000    0.00  0.000000  ( 0.000001 -0.000002 -0.000001)
  8:    396.85   0.001420    7.18  0.001117  (-0.031939 -0.009821  0.000000)
  9:    403.54   0.000000    0.00  0.000000  (-0.000006 -0.000003  0.000038)
 10:    469.88   0.000000    0.00  0.000000  (-0.000002  0.000001  0.000000)
 11:    470.11   0.000000    0.00  0.000000  (-0.000001  0.000000 -0.000000)
 12:    524.79   0.000908    4.59  0.000540  ( 0.006986 -0.022156 -0.000001)
 13:    637.27   0.000000    0.00  0.000000  ( 0.000000 -0.000000 -0.000001)
 14:    777.10   0.000000    0.00  0.000000  ( 0.000001 -0.000001  0.000001)
 15:    782.03   0.000000    0.00  0.000000  (-0.000000  0.000002  0.000003)
 16:    800.89   0.006079   30.72  0.002369  ( 0.000000  0.000001 -0.048671)
 17:    837.63   0.000000    0.00  0.000000  ( 0.000000 -0.000002 -0.000006)
 18:    878.04   0.012249   61.90  0.004353  ( 0.019458 -0.063045 -0.000000)
 19:    962.40   0.004554   23.01  0.001477  ( 0.000000  0.000000  0.038427)
 20:    973.74   0.000000    0.00  0.000000  ( 0.000001 -0.000003 -0.000008)
 21:    973.93   0.000000    0.00  0.000000  ( 0.000000  0.000002  0.000020)
 22:   1067.26   0.003510   17.74  0.001026  (-0.030628 -0.009395  0.000001)
 23:   1136.75   0.000000    0.00  0.000000  ( 0.000001  0.000000  0.000001)
 24:   1248.22   0.003351   16.93  0.000838  ( 0.027681  0.008458  0.000000)
 25:   1255.54   0.000000    0.00  0.000000  ( 0.000017  0.000005 -0.000001)
 26:   1376.19   0.001169    5.91  0.000265  ( 0.000000  0.000000  0.016283)
 27:   1478.17   0.000000    0.00  0.000000  ( 0.000001  0.000000 -0.000001)
 28:   1543.77   0.009897   50.02  0.002001  (-0.042770 -0.013092 -0.000001)
 29:   1576.45   0.000000    0.00  0.000000  (-0.000001  0.000000 -0.000002)
 30:   1623.94   0.066522  336.17  0.012783  (-0.000000  0.000001 -0.113062)
 31:   1718.44   0.000000    0.00  0.000000  (-0.000000  0.000000 -0.000002)
 32:   3148.49   0.010033   50.70  0.000994  ( 0.000015  0.000004 -0.031534)
 33:   3149.77   0.000000    0.00  0.000000  (-0.000007 -0.000002  0.000186)
 34:   3170.95   0.017758   89.74  0.001748  ( 0.039991  0.012180  0.000012)
 35:   3176.16   0.000000    0.00  0.000000  ( 0.000058  0.000018  0.000008)

--------------------------
THERMOCHEMISTRY AT 298.15K
--------------------------

Temperature         ...   298.15 K
Pressure            ...     1.00 atm
Total Mass          ...   108.10 AMU
Quasi RRHO          ...     True
Cut-Off Frequency   ...     1.00 cm^-1

Throughout the following assumptions are being made:
  (1) The electronic state is orbitally nondegenerate
      but the spin degeneracy is treated
  (2) There are no thermally accessible electronically excited states
  (3) Hindered rotations indicated by low frequency modes are not
      treated as such but are treated as vibrations and this may
      cause some error
  (4) All equations used are the standard statistical mechanics
      equations for an ideal gas
  (5) All vibrations are strictly harmonic

freq.     137.12  E(vib)   ...       0.42
freq.     331.05  E(vib)   ...       0.24
freq.     396.85  E(vib)   ...       0.20
freq.     403.54  E(vib)   ...       0.19
freq.     469.88  E(vib)   ...       0.16
freq.     470.11  E(vib)   ...       0.16
freq.     524.79  E(vib)   ...       0.13
freq.     637.27  E(vib)   ...       0.09
freq.     777.10  E(vib)   ...       0.05
freq.     782.03  E(vib)   ...       0.05
freq.     800.89  E(vib)   ...       0.05
freq.     837.63  E(vib)   ...       0.04
freq.     878.04  E(vib)   ...       0.04
freq.     962.40  E(vib)   ...       0.03
freq.     973.74  E(vib)   ...       0.03
freq.     973.93  E(vib)   ...       0.03
freq.    1067.26  E(vib)   ...       0.02
freq.    1136.75  E(vib)   ...       0.01
freq.    1248.22  E(vib)   ...       0.01
freq.    1255.54  E(vib)   ...       0.01
freq.    1376.19  E(vib)   ...       0.01
freq.    1478.17  E(vib)   ...       0.00
freq.    1543.77  E(vib)   ...       0.00
freq.    1576.45  E(vib)   ...       0.00
freq.    1623.94  E(vib)   ...       0.00
freq.    1718.44  E(vib)   ...       0.00
freq.    3148.49  E(vib)   ...       0.00
freq.    3149.77  E(vib)   ...       0.00
freq.    3170.95  E(vib)   ...       0.00
freq.    3176.16  E(vib)   ...       0.00

------------
INNER ENERGY
------------

The inner energy is: U= E(el) + E(ZPE) + E(vib) + E(rot) + E(trans)
    E(el)   - is the total energy from the electronic structure calculation
              = E(kin-el) + E(nuc-el) + E(el-el) + E(nuc-nuc)
    E(ZPE)  - the the zero temperature vibrational energy from the frequency calculation
    E(vib)  - the the finite temperature correction to E(ZPE) due to population
              of excited vibrational states
    E(rot)  - is the rotational thermal energy
    E(trans)- is the translational thermal energy

Summary of contributions to the inner energy U:
Electronic energy                ...   -380.80994227 Eh
Zero point energy                ...      0.08435250 Eh      52.93 kcal/mol
Thermal vibrational correction   ...      0.00311023 Eh       1.95 kcal/mol
Thermal rotational correction    ...      0.00141627 Eh       0.89 kcal/mol
Thermal translational correction ...      0.00141627 Eh       0.89 kcal/mol
-----------------------------------------------------------------------
Total thermal energy                   -380.71964699 Eh

Summary of corrections to the electronic energy:
(perhaps to be used in another calculation)
Total thermal correction                  0.00594278 Eh       3.73 kcal/mol
Non-thermal (ZPE) correction              0.08435250 Eh      52.93 kcal/mol
-----------------------------------------------------------------------
Total correction                          0.09029528 Eh      56.66 kcal/mol

--------
ENTHALPY
--------

The enthalpy is H = U + kB*T
                kB is Boltzmann's constant
Total thermal energy              ...   -380.71964699 Eh
Thermal Enthalpy correction       ...      0.00094421 Eh       0.59 kcal/mol
-----------------------------------------------------------------------
Total Enthalpy                    ...   -380.71870279 Eh

Note: Rotational entropy computed according to Herzberg
Infrared and Raman Spectra, Chapter V,1, Van Nostrand Reinhold, 1945
Point Group:  D2h, Symmetry Number:   4
Rotational constants in cm-1:     0.187010     0.052742     0.041140

Vibrational entropy computed according to the QRRHO of S. Grimme
Chem.Eur.J. 2012 18 9955 using a reference frequency of 100.0 cm-1

-------
ENTROPY
-------

The entropy contributions are T*S = T*(S(el)+S(vib)+S(rot)+S(trans))
     S(el)   - electronic entropy
     S(vib)  - vibrational entropy
     S(rot)  - rotational entropy
     S(trans)- translational entropy
The entropies will be listed as multiplied by the temperature to get
units of energy

Electronic entropy                ...      0.00065446 Eh      0.41 kcal/mol
Vibrational entropy               ...      0.00474657 Eh      2.98 kcal/mol
Rotational entropy                ...      0.01188879 Eh      7.46 kcal/mol
Translational entropy             ...      0.01898150 Eh     11.91 kcal/mol
-----------------------------------------------------------------------
Final entropy term                ...      0.03627131 Eh     22.76 kcal/mol

In case the symmetry of your molecule has not been determined correctly
or in case you have a reason to use a different symmetry number we print
out the resulting rotational entropy values for sn=1,12:

 non-linear molecules -----------------------------------
|  sn= 1 | S(rot)=       0.01319770 Eh      8.28 kcal/mol|
|  sn= 2 | S(rot)=       0.01254325 Eh      7.87 kcal/mol|
|  sn= 3 | S(rot)=       0.01216041 Eh      7.63 kcal/mol|
|  sn= 4 | S(rot)=       0.01188879 Eh      7.46 kcal/mol|
|  sn= 5 | S(rot)=       0.01167810 Eh      7.33 kcal/mol|
|  sn= 6 | S(rot)=       0.01150596 Eh      7.22 kcal/mol|
|  sn= 7 | S(rot)=       0.01136041 Eh      7.13 kcal/mol|
|  sn= 8 | S(rot)=       0.01123433 Eh      7.05 kcal/mol|
|  sn= 9 | S(rot)=       0.01112312 Eh      6.98 kcal/mol|
|  sn=10 | S(rot)=       0.01102365 Eh      6.92 kcal/mol|
|  sn=11 | S(rot)=       0.01093366 Eh      6.86 kcal/mol|
|  sn=12 | S(rot)=       0.01085150 Eh      6.81 kcal/mol|
 linear molecules ---------------------------------------
|  Dinfh | S(rot)=       0.00833848 Eh      5.23 kcal/mol|
|  Cinfv | S(rot)=       0.00899294 Eh      5.64 kcal/mol|
 --------------------------------------------------------

-------------------
GIBBS FREE ENERGY
-------------------

The Gibbs free energy is G = H - T*S

Total enthalpy                    ...   -380.71870279 Eh
Total entropy correction          ...     -0.03627131 Eh    -22.76 kcal/mol
-----------------------------------------------------------------------
Final Gibbs free energy         ...   -380.75497410 Eh

For completeness - the Gibbs free energy minus the electronic energy
G-E(el)                           ...      0.05496817 Eh     34.49 kcal/mol

                             ****ORCA TERMINATED NORMALLY****
TOTAL RUN TIME: 0 days 0 hours 16 minutes 4 seconds 84 msec
