                         Program Version 6.0.0  -   RELEASE  -
|  1> !PBE0 def2-SV(p) Opt Freq d3 TightSCF SlowConv RIJCOSX defgrid2
|  2>
|  3> %pal
|  4> nprocs 4
|  5> end
|  6>
|  7> %scf
|  8> MaxIter 1500
|  9> end
| 10>
| 11> %maxcore 3000
| 12>
| 13>
| 14>
| 15> * xyz 0 1
| 16> C     0.6936313   -1.2092344   -0.0024499
| 17> C    -0.6856804   -1.2127634   -0.0027922
| 18> C    -1.3607326    0.0043511    0.0000590
| 19> C    -0.6684307    1.2117396    0.0032110
| 20> C     0.7127751    1.2034173    0.0033483
| 21> C     1.4076196   -0.0077787    0.0005258
| 22> C     2.9026727   -0.0909457    0.0007352
| 23> O     3.4604156   -1.1688904    0.0068512
| 24> C     3.6631135    1.2035889   -0.0069850
| 25> H     3.4142088    1.7872947    0.8766168
| 26> H     4.7296633    0.9929016   -0.0108033
| 27> H     3.4061565    1.7821900   -0.8915698
| 28> H     1.2391199    2.1431738    0.0059858
| 29> H    -1.2235053    2.1371699    0.0055199
| 30> N    -2.7975921    0.0154529   -0.0001595
| 31> O    -3.3627222    1.0929924    0.0016658
| 32> O    -3.3795245   -1.0530678   -0.0020899
| 33> H    -1.2480988   -2.1334410   -0.0051788
| 34> H     1.2478522   -2.1355373   -0.0045251
| 35> *
| 36>
| 37>                          ****END OF INPUT****
 Total Charge           Charge          ....    0
 Multiplicity           Mult            ....    1
 Number of Electrons    NEL             ....   86
Dispersion correction           -0.018420057
FINAL SINGLE POINT ENERGY      -588.310050393821
Dispersion correction             ... done (  0.1 sec)
Dispersion correction           -0.018336835
FINAL SINGLE POINT ENERGY      -588.311965902734
Dispersion correction             ... done (  0.1 sec)
Dispersion correction           -0.018318168
FINAL SINGLE POINT ENERGY      -588.312183624673
Dispersion correction             ... done (  0.1 sec)
FINAL SINGLE POINT ENERGY      -588.312212437300
FINAL SINGLE POINT ENERGY      -588.312064612936
Dispersion correction             ... done (  0.1 sec)
Dispersion correction           -0.018320248
FINAL SINGLE POINT ENERGY      -588.312235144954
Dispersion correction             ... done (  0.1 sec)
Dispersion correction           -0.018320981
FINAL SINGLE POINT ENERGY      -588.312234697843
Dispersion correction             ... done (  0.1 sec)
                    ***********************HURRAY********************

CARTESIAN COORDINATES (ANGSTROEM)
---------------------------------
  C      0.693400   -1.216425   -0.002101
  C     -0.694549   -1.220213   -0.001073
  C     -1.361543    0.001878    0.000262
  C     -0.686043    1.216702    0.000556
  C      0.705094    1.203922   -0.000536
  C      1.404551   -0.009276   -0.001863
  C      2.906241   -0.084636   -0.002862
  O      3.456937   -1.161438   -0.003289
  C      3.691016    1.203317   -0.003496
  H      3.455023    1.810645    0.887929
  H      4.763993    0.963143   -0.006082
  H      3.450973    1.813009   -0.892171
  H      1.242086    2.155340   -0.000262
  H     -1.256616    2.146440    0.001651
  N     -2.833583    0.009695    0.001548
  O     -3.382853    1.087997    0.002562
  O     -3.393530   -1.062616    0.001484
  H     -1.272339   -2.145674   -0.001225
  H      1.262683   -2.149198   -0.003066

 Multiplicity           Mult            ....    1
 Number of Electrons    NEL             ....   86
 Basis Dimension        Dim             ....  182

ORBITAL ENERGIES
----------------

  NO   OCC          E(Eh)            E(eV)
   0   2.0000     -19.248822      -523.7871
   1   2.0000     -19.248675      -523.7831
   2   2.0000     -19.219724      -522.9953
   3   2.0000     -14.637324      -398.3018
   4   2.0000     -10.343511      -281.4613
   5   2.0000     -10.313475      -280.6439
   6   2.0000     -10.280236      -279.7394
   7   2.0000     -10.279666      -279.7239
   8   2.0000     -10.278970      -279.7050
   9   2.0000     -10.276738      -279.6443
  10   2.0000     -10.271927      -279.5133
  11   2.0000     -10.249250      -278.8963
  12   2.0000      -1.276093       -34.7242
  13   2.0000      -1.096838       -29.8465
  14   2.0000      -1.082889       -29.4669
  15   2.0000      -0.928543       -25.2669
  16   2.0000      -0.848946       -23.1010
  17   2.0000      -0.806269       -21.9397
  18   2.0000      -0.782911       -21.3041
  19   2.0000      -0.735054       -20.0018
  20   2.0000      -0.662912       -18.0388
  21   2.0000      -0.635559       -17.2944
  22   2.0000      -0.600336       -16.3360
  23   2.0000      -0.579915       -15.7803
  24   2.0000      -0.575225       -15.6527
  25   2.0000      -0.543313       -14.7843
  26   2.0000      -0.523249       -14.2383
  27   2.0000      -0.510075       -13.8799
  28   2.0000      -0.492751       -13.4084
  29   2.0000      -0.481898       -13.1131
  30   2.0000      -0.475732       -12.9453
  31   2.0000      -0.457412       -12.4468
  32   2.0000      -0.450458       -12.2576
  33   2.0000      -0.425440       -11.5768
  34   2.0000      -0.413892       -11.2626
  35   2.0000      -0.394386       -10.7318
  36   2.0000      -0.393590       -10.7101
  37   2.0000      -0.337770        -9.1912
  38   2.0000      -0.334943        -9.1143
  39   2.0000      -0.320572        -8.7232
  40   2.0000      -0.310184        -8.4405
  41   2.0000      -0.305488        -8.3127
  42   2.0000      -0.287426        -7.8212
  43   0.0000      -0.106286        -2.8922
  44   0.0000      -0.046099        -1.2544
  45   0.0000      -0.040369        -1.0985
  46   0.0000       0.031084         0.8458
  47   0.0000       0.053143         1.4461

MULLIKEN ATOMIC CHARGES
-----------------------
   0 C :   -0.120835
   1 C :   -0.117734
   2 C :    0.198276
   3 C :   -0.119157
   4 C :   -0.137845
   5 C :    0.029971
   6 C :    0.088857
   7 O :   -0.199308
   8 C :   -0.343572
   9 H :    0.158148
  10 H :    0.159120
  11 H :    0.158127
  12 H :    0.110175
  13 H :    0.128524
  14 N :    0.225868
  15 O :   -0.241176
  16 O :   -0.239139
  17 H :    0.131219
  18 H :    0.130480
Sum of atomic charges:   -0.0000000

LOEWDIN ATOMIC CHARGES
----------------------
   0 C :   -0.079717
   1 C :   -0.104150
   2 C :   -0.025345
   3 C :   -0.106117
   4 C :   -0.103285
   5 C :   -0.067495
   6 C :    0.072159
   7 O :   -0.136329
   8 C :   -0.367945
   9 H :    0.146577
  10 H :    0.146410
  11 H :    0.146486
  12 H :    0.138667
  13 H :    0.154050
  14 N :    0.273070
  15 O :   -0.197453
  16 O :   -0.194808
  17 H :    0.154893
  18 H :    0.150332

  Mayer bond orders larger than 0.100000
B(  0-C ,  1-C ) :   1.3363 B(  0-C ,  5-C ) :   1.3826 B(  0-C , 18-H ) :   0.9521
B(  1-C ,  2-C ) :   1.3825 B(  1-C , 17-H ) :   0.9496 B(  2-C ,  3-C ) :   1.4023
B(  2-C , 14-N ) :   0.8357 B(  3-C ,  4-C ) :   1.3491 B(  3-C , 13-H ) :   0.9456
B(  4-C ,  5-C ) :   1.3670 B(  4-C , 12-H ) :   0.9485 B(  5-C ,  6-C ) :   0.9123
B(  6-C ,  7-O ) :   2.1490 B(  6-C ,  8-C ) :   1.1043 B(  8-C ,  9-H ) :   0.9201
B(  8-C , 10-H ) :   0.9332 B(  8-C , 11-H ) :   0.9202 B( 14-N , 15-O ) :   1.5560
B( 14-N , 16-O ) :   1.5569 B( 15-O , 16-O ) :   0.2772

Dispersion correction           -0.018321295
FINAL SINGLE POINT ENERGY      -588.312235742238

DIPOLE MOMENT
-------------

Method             : SCF
Type of density    : Electron Density
Multiplicity       :   1
Irrep              :   0
Energy             :  -588.2939144472095450 Eh
Relativity type    :
Basis              : AO
                                X                 Y                 Z
Electronic contribution:     -9.808713738      -3.420872644       0.007167895
Nuclear contribution   :     10.904698351       4.303144091      -0.007859468
                        -----------------------------------------
Total Dipole Moment    :      1.095984613       0.882271448      -0.000691573
                        -----------------------------------------
Magnitude (a.u.)       :      1.406977490
Magnitude (Debye)      :      3.576252571

VIBRATIONAL FREQUENCIES
-----------------------

Scaling factor for frequencies =  1.000000000  (already applied!)

     0:       0.00 cm**-1
     1:       0.00 cm**-1
     2:       0.00 cm**-1
     3:       0.00 cm**-1
     4:       0.00 cm**-1
     5:       0.00 cm**-1
     6:      43.37 cm**-1
     7:      69.14 cm**-1
     8:      81.56 cm**-1
     9:     162.75 cm**-1
    10:     179.44 cm**-1
    11:     242.73 cm**-1
    12:     279.10 cm**-1
    13:     299.11 cm**-1
    14:     424.52 cm**-1
    15:     439.13 cm**-1
    16:     459.37 cm**-1
    17:     523.49 cm**-1
    18:     555.59 cm**-1
    19:     600.91 cm**-1
    20:     633.61 cm**-1
    21:     638.52 cm**-1
    22:     726.94 cm**-1
    23:     775.26 cm**-1
    24:     787.04 cm**-1
    25:     864.13 cm**-1
    26:     892.34 cm**-1
    27:     904.63 cm**-1
    28:     975.78 cm**-1
    29:    1007.20 cm**-1
    30:    1027.90 cm**-1
    31:    1030.12 cm**-1
    32:    1054.91 cm**-1
    33:    1104.79 cm**-1
    34:    1117.39 cm**-1
    35:    1145.60 cm**-1
    36:    1195.14 cm**-1
    37:    1300.46 cm**-1
    38:    1307.10 cm**-1
    39:    1386.06 cm**-1
    40:    1427.63 cm**-1
    41:    1451.30 cm**-1
    42:    1459.15 cm**-1
    43:    1461.77 cm**-1
    44:    1480.41 cm**-1
    45:    1540.52 cm**-1
    46:    1677.26 cm**-1
    47:    1691.63 cm**-1
    48:    1770.14 cm**-1
    49:    1846.18 cm**-1
    50:    3045.75 cm**-1
    51:    3133.72 cm**-1
    52:    3181.59 cm**-1
    53:    3225.57 cm**-1
    54:    3230.69 cm**-1
    55:    3252.06 cm**-1
    56:    3253.11 cm**-1

IR SPECTRUM
-----------

 Mode   freq       eps      Int      T**2         TX        TY        TZ
       cm**-1   L/(mol*cm) km/mol    a.u.
----------------------------------------------------------------------------
  6:     43.37   0.000254    1.28  0.001826  (-0.000021 -0.000017 -0.042732)
  7:     69.14   0.000114    0.58  0.000516  (-0.000005  0.000007  0.022710)
  8:     81.56   0.000884    4.47  0.003382  (-0.000020  0.000015 -0.058151)
  9:    162.75   0.000999    5.05  0.001916  ( 0.031935  0.029928  0.000110)
 10:    179.44   0.000081    0.41  0.000140  ( 0.000172  0.000352 -0.011834)
 11:    242.73   0.000181    0.91  0.000233  (-0.000040  0.000043 -0.015250)
 12:    279.10   0.000670    3.39  0.000750  (-0.024317  0.012583  0.000050)
 13:    299.11   0.000004    0.02  0.000004  (-0.001428 -0.001438 -0.000008)
 14:    424.52   0.000000    0.00  0.000000  ( 0.000022 -0.000005  0.000525)
 15:    439.13   0.000337    1.70  0.000240  (-0.010039 -0.011786  0.000001)
 16:    459.37   0.000078    0.40  0.000053  ( 0.000039  0.000052  0.007301)
 17:    523.49   0.002712   13.70  0.001617  (-0.040086 -0.003109  0.000032)
 18:    555.59   0.000333    1.68  0.000187  (-0.011209 -0.007846  0.000005)
 19:    600.91   0.001610    8.14  0.000836  (-0.000043  0.000016 -0.028918)
 20:    633.61   0.002681   13.55  0.001321  (-0.033491 -0.014103  0.000074)
 21:    638.52   0.000021    0.11  0.000010  ( 0.003087 -0.000801 -0.000006)
 22:    726.94   0.004693   23.72  0.002015  ( 0.000026 -0.000002  0.044885)
 23:    775.26   0.003307   16.71  0.001331  ( 0.036481  0.000457 -0.000069)
 24:    787.04   0.003905   19.73  0.001548  ( 0.000070 -0.000013  0.039349)
 25:    864.13   0.000464    2.34  0.000167  ( 0.000002  0.000023  0.012939)
 26:    892.34   0.004650   23.50  0.001626  ( 0.000004  0.000009  0.040324)
 27:    904.63   0.011387   57.54  0.003928  (-0.062639 -0.002093  0.000027)
 28:    975.78   0.002874   14.52  0.000919  ( 0.027486  0.012793 -0.000003)
 29:   1007.20   0.000007    0.03  0.000002  (-0.000008  0.000011 -0.001448)
 30:   1027.90   0.000079    0.40  0.000024  (-0.000101 -0.000074 -0.004896)
 31:   1030.12   0.001412    7.13  0.000428  (-0.020354 -0.003662  0.000039)
 32:   1054.91   0.000370    1.87  0.000110  (-0.000013 -0.000026 -0.010466)
 33:   1104.79   0.000202    1.02  0.000057  ( 0.007329  0.001860 -0.000003)
 34:   1117.39   0.002384   12.05  0.000666  ( 0.004969  0.025319  0.000011)
 35:   1145.60   0.006112   30.89  0.001665  ( 0.040799  0.000522 -0.000029)
 36:   1195.14   0.004478   22.63  0.001169  (-0.034048 -0.003156  0.000029)
 37:   1300.46   0.034115  172.40  0.008186  (-0.089949 -0.009781  0.000067)
 38:   1307.10   0.000630    3.18  0.000150  ( 0.012253  0.000394 -0.000003)
 39:   1386.06   0.018992   95.98  0.004276  ( 0.054386  0.036305  0.000014)
 40:   1427.63   0.004253   21.49  0.000930  (-0.012851  0.027649  0.000024)
 41:   1451.30   0.001908    9.64  0.000410  (-0.010805  0.017135 -0.000047)
 42:   1459.15   0.007364   37.21  0.001575  (-0.034639 -0.019365 -0.000319)
 43:   1461.77   0.003099   15.66  0.000662  (-0.000563 -0.000240  0.025715)
 44:   1480.41   0.054629  276.08  0.011516  (-0.107287  0.002272  0.000083)
 45:   1540.52   0.000139    0.70  0.000028  ( 0.001730  0.005019 -0.000007)
 46:   1677.26   0.004495   22.71  0.000836  (-0.012013 -0.026305 -0.000007)
 47:   1691.63   0.000764    3.86  0.000141  (-0.011374  0.003395  0.000010)
 48:   1770.14   0.045104  227.94  0.007952  ( 0.002363 -0.089140 -0.000045)
 49:   1846.18   0.032277  163.11  0.005456  ( 0.043910 -0.059395 -0.000033)
 50:   3045.75   0.000188    0.95  0.000019  (-0.003708  0.002341  0.000016)
 51:   3133.72   0.000300    1.52  0.000030  ( 0.000002 -0.000036  0.005466)
 52:   3181.59   0.000616    3.11  0.000060  (-0.007681 -0.001198 -0.000004)
 53:   3225.57   0.000392    1.98  0.000038  ( 0.002252  0.005728 -0.000000)
 54:   3230.69   0.000601    3.04  0.000058  ( 0.007621  0.000010 -0.000004)
 55:   3252.06   0.000742    3.75  0.000071  (-0.000352 -0.008428 -0.000004)
 56:   3253.11   0.000475    2.40  0.000046  ( 0.006476 -0.001910 -0.000008)

--------------------------
THERMOCHEMISTRY AT 298.15K
--------------------------

Temperature         ...   298.15 K
Pressure            ...     1.00 atm
Total Mass          ...   165.15 AMU
Quasi RRHO          ...     True
Cut-Off Frequency   ...     1.00 cm^-1

Throughout the following assumptions are being made:
  (1) The electronic state is orbitally nondegenerate
  (2) There are no thermally accessible electronically excited states
  (3) Hindered rotations indicated by low frequency modes are not
      treated as such but are treated as vibrations and this may
      cause some error
  (4) All equations used are the standard statistical mechanics
      equations for an ideal gas
  (5) All vibrations are strictly harmonic

freq.      43.37  E(vib)   ...       0.53
freq.      69.14  E(vib)   ...       0.50
freq.      81.56  E(vib)   ...       0.48
freq.     162.75  E(vib)   ...       0.39
freq.     179.44  E(vib)   ...       0.37
freq.     242.73  E(vib)   ...       0.31
freq.     279.10  E(vib)   ...       0.28
freq.     299.11  E(vib)   ...       0.26
freq.     424.52  E(vib)   ...       0.18
freq.     439.13  E(vib)   ...       0.17
freq.     459.37  E(vib)   ...       0.16
freq.     523.49  E(vib)   ...       0.13
freq.     555.59  E(vib)   ...       0.12
freq.     600.91  E(vib)   ...       0.10
freq.     633.61  E(vib)   ...       0.09
freq.     638.52  E(vib)   ...       0.09
freq.     726.94  E(vib)   ...       0.06
freq.     775.26  E(vib)   ...       0.05
freq.     787.04  E(vib)   ...       0.05
freq.     864.13  E(vib)   ...       0.04
freq.     892.34  E(vib)   ...       0.03
freq.     904.63  E(vib)   ...       0.03
freq.     975.78  E(vib)   ...       0.03
freq.    1007.20  E(vib)   ...       0.02
freq.    1027.90  E(vib)   ...       0.02
freq.    1030.12  E(vib)   ...       0.02
freq.    1054.91  E(vib)   ...       0.02
freq.    1104.79  E(vib)   ...       0.02
freq.    1117.39  E(vib)   ...       0.01
freq.    1145.60  E(vib)   ...       0.01
freq.    1195.14  E(vib)   ...       0.01
freq.    1300.46  E(vib)   ...       0.01
freq.    1307.10  E(vib)   ...       0.01
freq.    1386.06  E(vib)   ...       0.00
freq.    1427.63  E(vib)   ...       0.00
freq.    1451.30  E(vib)   ...       0.00
freq.    1459.15  E(vib)   ...       0.00
freq.    1461.77  E(vib)   ...       0.00
freq.    1480.41  E(vib)   ...       0.00
freq.    1540.52  E(vib)   ...       0.00
freq.    1677.26  E(vib)   ...       0.00
freq.    1691.63  E(vib)   ...       0.00
freq.    1770.14  E(vib)   ...       0.00
freq.    1846.18  E(vib)   ...       0.00
freq.    3045.75  E(vib)   ...       0.00
freq.    3133.72  E(vib)   ...       0.00
freq.    3181.59  E(vib)   ...       0.00
freq.    3225.57  E(vib)   ...       0.00
freq.    3230.69  E(vib)   ...       0.00
freq.    3252.06  E(vib)   ...       0.00
freq.    3253.11  E(vib)   ...       0.00

------------
INNER ENERGY
------------

The inner energy is: U= E(el) + E(ZPE) + E(vib) + E(rot) + E(trans)
    E(el)   - is the total energy from the electronic structure calculation
              = E(kin-el) + E(nuc-el) + E(el-el) + E(nuc-nuc)
    E(ZPE)  - the the zero temperature vibrational energy from the frequency calculation
    E(vib)  - the the finite temperature correction to E(ZPE) due to population
              of excited vibrational states
    E(rot)  - is the rotational thermal energy
    E(trans)- is the translational thermal energy

Summary of contributions to the inner energy U:
Electronic energy                ...   -588.31223574 Eh
Zero point energy                ...      0.14207481 Eh      89.15 kcal/mol
Thermal vibrational correction   ...      0.00741509 Eh       4.65 kcal/mol
Thermal rotational correction    ...      0.00141627 Eh       0.89 kcal/mol
Thermal translational correction ...      0.00141627 Eh       0.89 kcal/mol
-----------------------------------------------------------------------
Total thermal energy                   -588.15991330 Eh

Summary of corrections to the electronic energy:
(perhaps to be used in another calculation)
Total thermal correction                  0.01024763 Eh       6.43 kcal/mol
Non-thermal (ZPE) correction              0.14207481 Eh      89.15 kcal/mol
-----------------------------------------------------------------------
Total correction                          0.15232244 Eh      95.58 kcal/mol

--------
ENTHALPY
--------

The enthalpy is H = U + kB*T
                kB is Boltzmann's constant
Total thermal energy              ...   -588.15991330 Eh
Thermal Enthalpy correction       ...      0.00094421 Eh       0.59 kcal/mol
-----------------------------------------------------------------------
Total Enthalpy                    ...   -588.15896909 Eh

Note: Only C1 symmetry has been detected, increase convergence thresholds
      if your molecule has a higher symmetry. Symmetry factor of 1.0 is
      used for the rotational entropy correction.

Note: Rotational entropy computed according to Herzberg
Infrared and Raman Spectra, Chapter V,1, Van Nostrand Reinhold, 1945
Point Group:  C1, Symmetry Number:   1
Rotational constants in cm-1:     0.096505     0.015902     0.013688

Vibrational entropy computed according to the QRRHO of S. Grimme
Chem.Eur.J. 2012 18 9955 using a reference frequency of 100.0 cm-1

-------
ENTROPY
-------

The entropy contributions are T*S = T*(S(el)+S(vib)+S(rot)+S(trans))
     S(el)   - electronic entropy
     S(vib)  - vibrational entropy
     S(rot)  - rotational entropy
     S(trans)- translational entropy
The entropies will be listed as multiplied by the temperature to get
units of energy

Electronic entropy                ...      0.00000000 Eh      0.00 kcal/mol
Vibrational entropy               ...      0.01275870 Eh      8.01 kcal/mol
Rotational entropy                ...      0.01459558 Eh      9.16 kcal/mol
Translational entropy             ...      0.01958175 Eh     12.29 kcal/mol
-----------------------------------------------------------------------
Final entropy term                ...      0.04693603 Eh     29.45 kcal/mol

In case the symmetry of your molecule has not been determined correctly
or in case you have a reason to use a different symmetry number we print
out the resulting rotational entropy values for sn=1,12:

 non-linear molecules -----------------------------------
|  sn= 1 | S(rot)=       0.01459558 Eh      9.16 kcal/mol|
|  sn= 2 | S(rot)=       0.01394113 Eh      8.75 kcal/mol|
|  sn= 3 | S(rot)=       0.01355830 Eh      8.51 kcal/mol|
|  sn= 4 | S(rot)=       0.01328667 Eh      8.34 kcal/mol|
|  sn= 5 | S(rot)=       0.01307598 Eh      8.21 kcal/mol|
|  sn= 6 | S(rot)=       0.01290384 Eh      8.10 kcal/mol|
|  sn= 7 | S(rot)=       0.01275829 Eh      8.01 kcal/mol|
|  sn= 8 | S(rot)=       0.01263222 Eh      7.93 kcal/mol|
|  sn= 9 | S(rot)=       0.01252101 Eh      7.86 kcal/mol|

                             ****ORCA TERMINATED NORMALLY****
TOTAL RUN TIME: 0 days 0 hours 10 minutes 58 seconds 500 msec
