                         Program Version 6.0.0  -   RELEASE  -
|  1> !PBE0 def2-SV(p) Opt Freq d3 TightSCF SlowConv RIJCOSX defgrid2
|  2>
|  3> %pal
|  4> nprocs 4
|  5> end
|  6>
|  7> %scf
|  8> MaxIter 1500
|  9> end
| 10>
| 11> %maxcore 3000
| 12>
| 13>
| 14>
| 15> * xyz 0 1
| 16> C    -1.2003880   -0.0219637    0.0000206
| 17> C    -1.2012480    1.3757800   -0.0000385
| 18> C     0.0000354    2.0634497    0.0000395
| 19> C     1.2012901    1.3757173    0.0000902
| 20> C     1.2003773   -0.0220241    0.0000111
| 21> C    -0.0000243   -0.7286201    0.0000318
| 22> H    -0.0000536   -1.8085474   -0.0000085
| 23> C     2.4276444   -0.7276515   -0.0005951
| 24> N     3.4238546   -1.2957642    0.0005562
| 25> H     2.1408326    1.9067871    0.0001069
| 26> H     0.0000737    3.1419890    0.0000115
| 27> H    -2.1407790    1.9068733   -0.0001390
| 28> C    -2.4276673   -0.7275720    0.0001408
| 29> N    -3.4238837   -1.2956739   -0.0001674
| 30> *
| 31>
| 32>                          ****END OF INPUT****
 Total Charge           Charge          ....    0
 Multiplicity           Mult            ....    1
 Number of Electrons    NEL             ....   66
Dispersion correction           -0.014296046
FINAL SINGLE POINT ENERGY      -415.935668121508
Dispersion correction             ... done (  0.1 sec)
Dispersion correction           -0.014210169
FINAL SINGLE POINT ENERGY      -415.937579517382
Dispersion correction             ... done (  0.1 sec)
Dispersion correction           -0.014199630
FINAL SINGLE POINT ENERGY      -415.937606210965
Dispersion correction             ... done (  0.1 sec)
                    ***********************HURRAY********************

CARTESIAN COORDINATES (ANGSTROEM)
---------------------------------
  C     -1.208842   -0.022781    0.000037
  C     -1.207099    1.380452    0.000167
  C      0.000036    2.072383    0.000023
  C      1.207144    1.380405   -0.000238
  C      1.208835   -0.022827   -0.000311
  C     -0.000017   -0.727228   -0.000212
  H     -0.000039   -1.818910   -0.000304
  C      2.450393   -0.738222   -0.000319
  N      3.456658   -1.312945    0.001195
  H      2.157656    1.918936   -0.000347
  H      0.000060    3.165468    0.000114
  H     -2.157595    1.919015    0.000367
  C     -2.450422   -0.738135    0.000104
  N     -3.456704   -1.312832   -0.000216

 Multiplicity           Mult            ....    1
 Number of Electrons    NEL             ....   66
 Basis Dimension        Dim             ....  148

ORBITAL ENERGIES
----------------

  NO   OCC          E(Eh)            E(eV)
   0   2.0000     -14.411397      -392.1540
   1   2.0000     -14.411389      -392.1538
   2   2.0000     -10.317067      -280.7417
   3   2.0000     -10.317040      -280.7409
   4   2.0000     -10.299663      -280.2681
   5   2.0000     -10.295181      -280.1461
   6   2.0000     -10.295158      -280.1455
   7   2.0000     -10.294006      -280.1142
   8   2.0000     -10.293987      -280.1136
   9   2.0000     -10.287455      -279.9359
  10   2.0000      -0.955219       -25.9928
  11   2.0000      -0.943236       -25.6668
  12   2.0000      -0.925229       -25.1768
  13   2.0000      -0.841238       -22.8913
  14   2.0000      -0.826611       -22.4932
  15   2.0000      -0.705256       -19.1910
  16   2.0000      -0.698957       -19.0196
  17   2.0000      -0.634146       -17.2560
  18   2.0000      -0.551121       -14.9968
  19   2.0000      -0.542710       -14.7679
  20   2.0000      -0.533110       -14.5067
  21   2.0000      -0.494024       -13.4431
  22   2.0000      -0.460860       -12.5406
  23   2.0000      -0.435137       -11.8407
  24   2.0000      -0.426971       -11.6185
  25   2.0000      -0.410256       -11.1636
  26   2.0000      -0.392773       -10.6879
  27   2.0000      -0.390101       -10.6152
  28   2.0000      -0.375191       -10.2095
  29   2.0000      -0.371563       -10.1108
  30   2.0000      -0.367736       -10.0066
  31   2.0000      -0.314960        -8.5705
  32   2.0000      -0.306112        -8.3297
  33   0.0000      -0.085991        -2.3399
  34   0.0000      -0.070173        -1.9095
  35   0.0000       0.014530         0.3954
  36   0.0000       0.030713         0.8357
  37   0.0000       0.030951         0.8422

MULLIKEN ATOMIC CHARGES
-----------------------
   0 C :   -0.080834
   1 C :   -0.059711
   2 C :   -0.086154
   3 C :   -0.059708
   4 C :   -0.080839
   5 C :   -0.069748
   6 H :    0.129672
   7 C :   -0.052438
   8 N :    0.020424
   9 H :    0.122825
  10 H :    0.125706
  11 H :    0.122826
  12 C :   -0.052433
  13 N :    0.020413
Sum of atomic charges:    0.0000000

LOEWDIN ATOMIC CHARGES
----------------------
   0 C :   -0.074042
   1 C :   -0.073428
   2 C :   -0.112084
   3 C :   -0.073427
   4 C :   -0.074042
   5 C :   -0.054968
   6 H :    0.158315
   7 C :   -0.020504
   8 N :   -0.051195
   9 H :    0.150755
  10 H :    0.145564
  11 H :    0.150755
  12 C :   -0.020503
  13 N :   -0.051195

  Mayer bond orders larger than 0.100000
B(  0-C ,  1-C ) :   1.3733 B(  0-C ,  5-C ) :   1.3631 B(  0-C , 12-C ) :   1.0619
B(  1-C ,  2-C ) :   1.3824 B(  1-C , 11-H ) :   0.9606 B(  2-C ,  3-C ) :   1.3824
B(  2-C , 10-H ) :   0.9579 B(  3-C ,  4-C ) :   1.3733 B(  3-C ,  9-H ) :   0.9606
B(  4-C ,  5-C ) :   1.3631 B(  4-C ,  7-C ) :   1.0619 B(  5-C ,  6-H ) :   0.9608
B(  7-C ,  8-N ) :   3.0004 B( 12-C , 13-N ) :   3.0004

Dispersion correction           -0.014198031
FINAL SINGLE POINT ENERGY      -415.937607647552

DIPOLE MOMENT
-------------

Method             : SCF
Type of density    : Electron Density
Multiplicity       :   1
Irrep              :   0
Energy             :  -415.9234096166507015 Eh
Relativity type    :
Basis              : AO
                                X                 Y                 Z
Electronic contribution:     -0.000055940      -3.211235098      -0.000358391
Nuclear contribution   :      0.000083993       4.864690658      -0.000287721
                        -----------------------------------------
Total Dipole Moment    :      0.000028053       1.653455561      -0.000646112
                        -----------------------------------------
Magnitude (a.u.)       :      1.653455687
Magnitude (Debye)      :      4.202750359

VIBRATIONAL FREQUENCIES
-----------------------

Scaling factor for frequencies =  1.000000000  (already applied!)

     0:       0.00 cm**-1
     1:       0.00 cm**-1
     2:       0.00 cm**-1
     3:       0.00 cm**-1
     4:       0.00 cm**-1
     5:       0.00 cm**-1
     6:     116.55 cm**-1
     7:     126.83 cm**-1
     8:     162.87 cm**-1
     9:     193.35 cm**-1
    10:     385.32 cm**-1
    11:     398.45 cm**-1
    12:     462.83 cm**-1
    13:     465.13 cm**-1
    14:     534.48 cm**-1
    15:     537.44 cm**-1
    16:     606.71 cm**-1
    17:     662.16 cm**-1
    18:     715.84 cm**-1
    19:     717.56 cm**-1
    20:     830.86 cm**-1
    21:     928.20 cm**-1
    22:     947.75 cm**-1
    23:     962.16 cm**-1
    24:    1018.84 cm**-1
    25:    1026.43 cm**-1
    26:    1124.16 cm**-1
    27:    1179.61 cm**-1
    28:    1191.01 cm**-1
    29:    1291.76 cm**-1
    30:    1315.69 cm**-1
    31:    1394.28 cm**-1
    32:    1470.08 cm**-1
    33:    1532.83 cm**-1
    34:    1660.40 cm**-1
    35:    1691.00 cm**-1
    36:    2399.20 cm**-1
    37:    2400.62 cm**-1
    38:    3216.96 cm**-1
    39:    3230.91 cm**-1
    40:    3237.60 cm**-1
    41:    3238.68 cm**-1

IR SPECTRUM
-----------

 Mode   freq       eps      Int      T**2         TX        TY        TZ
       cm**-1   L/(mol*cm) km/mol    a.u.
----------------------------------------------------------------------------
  6:    116.55   0.001562    7.89  0.004182  (-0.000031  0.064665  0.000043)
  7:    126.83   0.000996    5.03  0.002451  (-0.000043 -0.000029  0.049509)
  8:    162.87   0.000000    0.00  0.000000  (-0.000054  0.000037  0.000003)
  9:    193.35   0.000273    1.38  0.000440  ( 0.020978  0.000061 -0.000023)
 10:    385.32   0.000000    0.00  0.000000  (-0.000050  0.000056  0.000001)
 11:    398.45   0.000147    0.74  0.000115  (-0.000059  0.000023  0.010717)
 12:    462.83   0.000000    0.00  0.000000  (-0.000343 -0.000053 -0.000010)
 13:    465.13   0.000154    0.78  0.000103  (-0.000002  0.010150  0.000011)
 14:    534.48   0.002564   12.96  0.001497  (-0.000103  0.000041  0.038689)
 15:    537.44   0.000048    0.24  0.000028  (-0.000002 -0.005274  0.000093)
 16:    606.71   0.000063    0.32  0.000033  (-0.005714  0.000001  0.000002)
 17:    662.16   0.000000    0.00  0.000000  ( 0.000056 -0.000034 -0.000001)
 18:    715.84   0.005527   27.93  0.002410  (-0.000014  0.000007  0.049088)
 19:    717.56   0.000029    0.15  0.000013  (-0.000004 -0.003569 -0.000056)
 20:    830.86   0.003853   19.47  0.001447  ( 0.000017 -0.000010  0.038042)
 21:    928.20   0.001255    6.34  0.000422  ( 0.020539 -0.000002  0.000001)
 22:    947.75   0.001675    8.46  0.000551  ( 0.000001  0.000001 -0.023483)
 23:    962.16   0.000000    0.00  0.000000  (-0.000001 -0.000002 -0.000001)
 24:   1018.84   0.000058    0.29  0.000018  (-0.000001 -0.004227  0.000003)
 25:   1026.43   0.000016    0.08  0.000005  ( 0.000003 -0.000000 -0.002223)
 26:   1124.16   0.000956    4.83  0.000265  ( 0.000008 -0.016292 -0.000001)
 27:   1179.61   0.000407    2.06  0.000108  ( 0.010381  0.000019 -0.000003)
 28:   1191.01   0.000089    0.45  0.000023  ( 0.004825 -0.000008  0.000001)
 29:   1291.76   0.000130    0.66  0.000031  (-0.000004  0.005598  0.000000)
 30:   1315.69   0.000001    0.01  0.000000  ( 0.000564 -0.000004  0.000000)
 31:   1394.28   0.000248    1.26  0.000056  (-0.007456 -0.000002  0.000002)
 32:   1470.08   0.001330    6.72  0.000282  ( 0.000009 -0.016805 -0.000002)
 33:   1532.83   0.002832   14.31  0.000577  ( 0.024011  0.000004 -0.000006)
 34:   1660.40   0.000341    1.72  0.000064  (-0.000001 -0.008004 -0.000001)
 35:   1691.00   0.000001    0.00  0.000000  (-0.000338 -0.000001 -0.000000)
 36:   2399.20   0.005822   29.42  0.000757  ( 0.027519  0.000051 -0.000013)
 37:   2400.62   0.001390    7.03  0.000181  ( 0.000105 -0.013443 -0.000008)
 38:   3216.96   0.000171    0.86  0.000017  (-0.000001 -0.004074 -0.000000)
 39:   3230.91   0.000002    0.01  0.000000  ( 0.000480 -0.000015  0.000001)
 40:   3237.60   0.000011    0.05  0.000001  (-0.000001 -0.001010  0.000001)
 41:   3238.68   0.000233    1.18  0.000022  ( 0.000000  0.004742 -0.000000)

--------------------------
THERMOCHEMISTRY AT 298.15K
--------------------------

Temperature         ...   298.15 K
Pressure            ...     1.00 atm
Total Mass          ...   128.13 AMU
Quasi RRHO          ...     True
Cut-Off Frequency   ...     1.00 cm^-1

Throughout the following assumptions are being made:
  (1) The electronic state is orbitally nondegenerate
  (2) There are no thermally accessible electronically excited states
  (3) Hindered rotations indicated by low frequency modes are not
      treated as such but are treated as vibrations and this may
      cause some error
  (4) All equations used are the standard statistical mechanics
      equations for an ideal gas
  (5) All vibrations are strictly harmonic

freq.     116.55  E(vib)   ...       0.44
freq.     126.83  E(vib)   ...       0.43
freq.     162.87  E(vib)   ...       0.39
freq.     193.35  E(vib)   ...       0.36
freq.     385.32  E(vib)   ...       0.20
freq.     398.45  E(vib)   ...       0.20
freq.     462.83  E(vib)   ...       0.16
freq.     465.13  E(vib)   ...       0.16
freq.     534.48  E(vib)   ...       0.13
freq.     537.44  E(vib)   ...       0.12
freq.     606.71  E(vib)   ...       0.10
freq.     662.16  E(vib)   ...       0.08
freq.     715.84  E(vib)   ...       0.07
freq.     717.56  E(vib)   ...       0.07
freq.     830.86  E(vib)   ...       0.04
freq.     928.20  E(vib)   ...       0.03
freq.     947.75  E(vib)   ...       0.03
freq.     962.16  E(vib)   ...       0.03
freq.    1018.84  E(vib)   ...       0.02
freq.    1026.43  E(vib)   ...       0.02
freq.    1124.16  E(vib)   ...       0.01
freq.    1179.61  E(vib)   ...       0.01
freq.    1191.01  E(vib)   ...       0.01
freq.    1291.76  E(vib)   ...       0.01
freq.    1315.69  E(vib)   ...       0.01
freq.    1394.28  E(vib)   ...       0.00
freq.    1470.08  E(vib)   ...       0.00
freq.    1532.83  E(vib)   ...       0.00
freq.    1660.40  E(vib)   ...       0.00
freq.    1691.00  E(vib)   ...       0.00
freq.    2399.20  E(vib)   ...       0.00
freq.    2400.62  E(vib)   ...       0.00
freq.    3216.96  E(vib)   ...       0.00
freq.    3230.91  E(vib)   ...       0.00
freq.    3237.60  E(vib)   ...       0.00
freq.    3238.68  E(vib)   ...       0.00

------------
INNER ENERGY
------------

The inner energy is: U= E(el) + E(ZPE) + E(vib) + E(rot) + E(trans)
    E(el)   - is the total energy from the electronic structure calculation
              = E(kin-el) + E(nuc-el) + E(el-el) + E(nuc-nuc)
    E(ZPE)  - the the zero temperature vibrational energy from the frequency calculation
    E(vib)  - the the finite temperature correction to E(ZPE) due to population
              of excited vibrational states
    E(rot)  - is the rotational thermal energy
    E(trans)- is the translational thermal energy

Summary of contributions to the inner energy U:
Electronic energy                ...   -415.93760765 Eh
Zero point energy                ...      0.09881444 Eh      62.01 kcal/mol
Thermal vibrational correction   ...      0.00499116 Eh       3.13 kcal/mol
Thermal rotational correction    ...      0.00141627 Eh       0.89 kcal/mol
Thermal translational correction ...      0.00141627 Eh       0.89 kcal/mol
-----------------------------------------------------------------------
Total thermal energy                   -415.83096951 Eh

Summary of corrections to the electronic energy:
(perhaps to be used in another calculation)
Total thermal correction                  0.00782370 Eh       4.91 kcal/mol
Non-thermal (ZPE) correction              0.09881444 Eh      62.01 kcal/mol
-----------------------------------------------------------------------
Total correction                          0.10663814 Eh      66.92 kcal/mol

--------
ENTHALPY
--------

The enthalpy is H = U + kB*T
                kB is Boltzmann's constant
Total thermal energy              ...   -415.83096951 Eh
Thermal Enthalpy correction       ...      0.00094421 Eh       0.59 kcal/mol
-----------------------------------------------------------------------
Total Enthalpy                    ...   -415.83002530 Eh

Note: Only C1 symmetry has been detected, increase convergence thresholds
      if your molecule has a higher symmetry. Symmetry factor of 1.0 is
      used for the rotational entropy correction.

Note: Rotational entropy computed according to Herzberg
Infrared and Raman Spectra, Chapter V,1, Van Nostrand Reinhold, 1945
Point Group:  C1, Symmetry Number:   1
Rotational constants in cm-1:     0.090653     0.030186     0.022645

Vibrational entropy computed according to the QRRHO of S. Grimme
Chem.Eur.J. 2012 18 9955 using a reference frequency of 100.0 cm-1

-------
ENTROPY
-------

The entropy contributions are T*S = T*(S(el)+S(vib)+S(rot)+S(trans))
     S(el)   - electronic entropy
     S(vib)  - vibrational entropy
     S(rot)  - rotational entropy
     S(trans)- translational entropy
The entropies will be listed as multiplied by the temperature to get
units of energy

Electronic entropy                ...      0.00000000 Eh      0.00 kcal/mol
Vibrational entropy               ...      0.00834148 Eh      5.23 kcal/mol
Rotational entropy                ...      0.01408485 Eh      8.84 kcal/mol
Translational entropy             ...      0.01922234 Eh     12.06 kcal/mol
-----------------------------------------------------------------------
Final entropy term                ...      0.04164867 Eh     26.13 kcal/mol

In case the symmetry of your molecule has not been determined correctly
or in case you have a reason to use a different symmetry number we print
out the resulting rotational entropy values for sn=1,12:

 non-linear molecules -----------------------------------
|  sn= 1 | S(rot)=       0.01408485 Eh      8.84 kcal/mol|
|  sn= 2 | S(rot)=       0.01343039 Eh      8.43 kcal/mol|
|  sn= 3 | S(rot)=       0.01304756 Eh      8.19 kcal/mol|
|  sn= 4 | S(rot)=       0.01277594 Eh      8.02 kcal/mol|
|  sn= 5 | S(rot)=       0.01256525 Eh      7.88 kcal/mol|
|  sn= 6 | S(rot)=       0.01239310 Eh      7.78 kcal/mol|
|  sn= 7 | S(rot)=       0.01224756 Eh      7.69 kcal/mol|
|  sn= 8 | S(rot)=       0.01212148 Eh      7.61 kcal/mol|
|  sn= 9 | S(rot)=       0.01201027 Eh      7.54 kcal/mol|
|  sn=10 | S(rot)=       0.01191079 Eh      7.47 kcal/mol|
|  sn=11 | S(rot)=       0.01182080 Eh      7.42 kcal/mol|
|  sn=12 | S(rot)=       0.01173865 Eh      7.37 kcal/mol|
 linear molecules ---------------------------------------
|  Dinfh | S(rot)=       0.00890218 Eh      5.59 kcal/mol|
|  Cinfv | S(rot)=       0.00955663 Eh      6.00 kcal/mol|
 --------------------------------------------------------

-------------------
GIBBS FREE ENERGY
-------------------

The Gibbs free energy is G = H - T*S

                             ****ORCA TERMINATED NORMALLY****
TOTAL RUN TIME: 0 days 0 hours 5 minutes 11 seconds 387 msec
