                         Program Version 6.0.0  -   RELEASE  -
|  1> !r2SCANh freq aug-cc-pVTZ d3 TightSCF SlowConv RIJCOSX defgrid2
|  2>
|  3> %pal
|  4> nprocs 12
|  5> end
|  6>
|  7> %scf
|  8> MaxIter 1500
|  9> end
| 10>
| 11> %maxcore 5000
| 12>
| 13> !CPCM
| 14> %cpcm smd true
| 15> SMDsolvent "MeCN"
| 16> surfacetype gepol_ses
| 17> rsolv 2.19
| 18> end
| 19>
| 20> * xyz 1 2
| 21> C           0.87564274177361     -1.20799702683072     -0.00146653255594
| 22> C           1.22614603242749      0.17558971195101     -0.00133048864984
| 23> C           0.19276087043670      1.14129542151476     -0.00154247196982
| 24> C          -1.12960657928505      0.78560612764214     -0.00085240875319
| 25> C          -1.46277566948885     -0.60783239257735     -0.00049304393829
| 26> C          -0.43628304212902     -1.57408984687415     -0.00113742338558
| 27> H          -0.70763783180248     -2.62010703480397     -0.00089723452384
| 28> C          -2.87565465169322     -1.03056477506464      0.00084076305118
| 29> H          -2.97557462190580     -2.11122648266621     -0.00091902767944
| 30> H          -3.39749215089665     -0.61999615767271     -0.86776873006609
| 31> H          -3.39414280446653     -0.62360585936721      0.87324911598843
| 32> C          -2.20560730237509      1.81204602266883     -0.00020168202243
| 33> H          -2.84701976186755      1.70466265204565      0.87626236543232
| 34> H          -2.84940142694634      1.70305299129854     -0.87469570122140
| 35> H          -1.78673545908337      2.81438225309012     -0.00176927688041
| 36> H           0.46892726660048      2.18718561005180     -0.00204448669510
| 37> C           2.57015077710908      0.62187649517058      0.00014461047844
| 38> C           3.66779527879223     -0.18677793289374      0.00166895743257
| 39> H           3.60069426942328     -1.26466750116369      0.00088159521503
| 40> H           4.65652772973549      0.24777520563238      0.00359667916294
| 41> H           2.72132111865639      1.69422957991308      0.00006596273208
| 42> H           1.64520201698522     -1.96426586106450     -0.00205804115165
| 43> *
| 44>
| 45>                          ****END OF INPUT****

CARTESIAN COORDINATES (ANGSTROEM)
---------------------------------
  C      0.875643   -1.207997   -0.001467
  C      1.226146    0.175590   -0.001330
  C      0.192761    1.141295   -0.001542
  C     -1.129607    0.785606   -0.000852
  C     -1.462776   -0.607832   -0.000493
  C     -0.436283   -1.574090   -0.001137
  H     -0.707638   -2.620107   -0.000897
  C     -2.875655   -1.030565    0.000841
  H     -2.975575   -2.111226   -0.000919
  H     -3.397492   -0.619996   -0.867769
  H     -3.394143   -0.623606    0.873249
  C     -2.205607    1.812046   -0.000202
  H     -2.847020    1.704663    0.876262
  H     -2.849401    1.703053   -0.874696
  H     -1.786735    2.814382   -0.001769
  H      0.468927    2.187186   -0.002044
  C      2.570151    0.621876    0.000145
  C      3.667795   -0.186778    0.001669
  H      3.600694   -1.264668    0.000882
  H      4.656528    0.247775    0.003597
  H      2.721321    1.694230    0.000066
  H      1.645202   -1.964266   -0.002058

 Total Charge           Charge          ....    1
 Multiplicity           Mult            ....    2
 Number of Electrons    NEL             ....   71
 Basis Dimension        Dim             ....  736

ORBITAL ENERGIES
----------------
                 SPIN UP ORBITALS
  NO   OCC          E(Eh)            E(eV)
   0   1.0000     -10.230301      -278.3806
   1   1.0000     -10.225405      -278.2474
   2   1.0000     -10.209756      -277.8216
   3   1.0000     -10.207514      -277.7606
   4   1.0000     -10.206473      -277.7322
   5   1.0000     -10.203980      -277.6644
   6   1.0000     -10.191260      -277.3183
   7   1.0000     -10.188106      -277.2325
   8   1.0000     -10.163220      -276.5553
   9   1.0000     -10.158055      -276.4147
  10   1.0000      -0.913404       -24.8550
  11   1.0000      -0.851757       -23.1775
  12   1.0000      -0.804388       -21.8885
  13   1.0000      -0.789046       -21.4710
  14   1.0000      -0.729583       -19.8530
  15   1.0000      -0.698932       -19.0189
  16   1.0000      -0.639684       -17.4067
  17   1.0000      -0.627657       -17.0794
  18   1.0000      -0.571374       -15.5479
  19   1.0000      -0.527827       -14.3629
  20   1.0000      -0.509893       -13.8749
  21   1.0000      -0.475596       -12.9416
  22   1.0000      -0.456147       -12.4124
  23   1.0000      -0.451221       -12.2783
  24   1.0000      -0.438968       -11.9449
  25   1.0000      -0.432508       -11.7691
  26   1.0000      -0.406459       -11.0603
  27   1.0000      -0.400992       -10.9116
  28   1.0000      -0.397558       -10.8181
  29   1.0000      -0.393498       -10.7076
  30   1.0000      -0.382210       -10.4005
  31   1.0000      -0.359980        -9.7955
  32   1.0000      -0.349888        -9.5209
  33   1.0000      -0.334082        -9.0908
  34   1.0000      -0.282953        -7.6995
  35   1.0000      -0.267949        -7.2913
  36   0.0000      -0.109463        -2.9786
  37   0.0000      -0.049440        -1.3453
  38   0.0000      -0.007068        -0.1923
  39   0.0000       0.007152         0.1946
  40   0.0000       0.017436         0.4745

                 SPIN DOWN ORBITALS
  NO   OCC          E(Eh)            E(eV)
   0   1.0000     -10.224597      -278.2254
   1   1.0000     -10.221628      -278.1446
   2   1.0000     -10.208170      -277.7784
   3   1.0000     -10.207078      -277.7487
   4   1.0000     -10.201514      -277.5973
   5   1.0000     -10.201506      -277.5971
   6   1.0000     -10.191447      -277.3234
   7   1.0000     -10.189271      -277.2642
   8   1.0000     -10.163362      -276.5591
   9   1.0000     -10.158059      -276.4148
  10   1.0000      -0.905585       -24.6422
  11   1.0000      -0.842546       -22.9268
  12   1.0000      -0.803094       -21.8533
  13   1.0000      -0.777429       -21.1549
  14   1.0000      -0.724607       -19.7175
  15   1.0000      -0.692242       -18.8369
  16   1.0000      -0.634186       -17.2571
  17   1.0000      -0.623361       -16.9625
  18   1.0000      -0.566370       -15.4117
  19   1.0000      -0.526667       -14.3313
  20   1.0000      -0.507607       -13.8127
  21   1.0000      -0.472345       -12.8532
  22   1.0000      -0.448816       -12.2129
  23   1.0000      -0.444106       -12.0847
  24   1.0000      -0.437080       -11.8936
  25   1.0000      -0.431844       -11.7511
  26   1.0000      -0.401453       -10.9241
  27   1.0000      -0.395787       -10.7699
  28   1.0000      -0.393160       -10.6984
  29   1.0000      -0.384706       -10.4684
  30   1.0000      -0.380703       -10.3595
  31   1.0000      -0.359323        -9.7777
  32   1.0000      -0.347945        -9.4681
  33   1.0000      -0.310367        -8.4455
  34   1.0000      -0.278116        -7.5679
  35   0.0000      -0.199775        -5.4362
  36   0.0000      -0.072391        -1.9699
  37   0.0000      -0.039879        -1.0852
  38   0.0000       0.008094         0.2202
  39   0.0000       0.015634         0.4254

MULLIKEN ATOMIC CHARGES AND SPIN POPULATIONS
--------------------------------------------
   0 C :   -0.136321    0.133957
   1 C :    2.242060    0.275033
   2 C :   -1.031343   -0.023199
   3 C :    0.763327    0.028424
   4 C :    0.962899    0.364220
   5 C :   -1.208023   -0.110116
   6 H :   -0.002532   -0.005055
   7 C :   -0.703228   -0.055638
   8 H :    0.081185   -0.008724
   9 H :    0.240192    0.032189
  10 H :    0.240744    0.032432
  11 C :   -0.715215   -0.012129
  12 H :    0.230601    0.005534
  13 H :    0.230112    0.005543
  14 H :    0.090870    0.000327
  15 H :   -0.402362    0.003089
  16 C :    0.089743   -0.068931
  17 C :   -0.908040    0.372140
  18 H :    0.238567   -0.009040
  19 H :    0.322390    0.053396
  20 H :    0.150953   -0.007197
  21 H :    0.223425   -0.006258
Sum of atomic charges         :    1.0000000

LOEWDIN ATOMIC CHARGES AND SPIN POPULATIONS
-------------------------------------------
   0 C :    0.286544    0.090749
   1 C :   -0.078417    0.119475
   2 C :    0.286396    0.029793
   3 C :   -0.045632    0.055312
   4 C :   -0.030261    0.161827
   5 C :    0.292965    0.035290
   6 H :   -0.153128   -0.005258
   7 C :    0.636229    0.053559
   8 H :   -0.155286    0.001224
   9 H :   -0.140073    0.012686
  10 H :   -0.139717    0.012759
  11 C :    0.621467    0.005673
  12 H :   -0.148471    0.001922
  13 H :   -0.148683    0.001921
  14 H :   -0.159315   -0.000027
  15 H :   -0.150559    0.000116
  16 C :    0.262708    0.067925
  17 C :    0.655581    0.239060
  18 H :   -0.191405    0.050667
  19 H :   -0.171668    0.055868
  20 H :   -0.161877   -0.004494
  21 H :   -0.167400    0.013954

  Mayer bond orders larger than 0.100000
B(  0-C ,  2-C ) :  -0.9178 B(  0-C ,  3-C ) :  -0.3019 B(  0-C ,  5-C ) :   0.7677
B(  0-C ,  6-H ) :  -0.1393 B(  0-C , 15-H ) :   0.1019 B(  0-C , 16-C ) :   0.2826
B(  0-C , 17-C ) :  -0.1227 B(  0-C , 18-H ) :  -0.1380 B(  0-C , 21-H ) :   1.4988
B(  1-C ,  2-C ) :  -0.7100 B(  1-C ,  3-C ) :   0.4896 B(  1-C ,  4-C ) :  -0.4958
B(  1-C ,  7-C ) :   0.1068 B(  1-C , 15-H ) :  -0.5199 B(  2-C ,  3-C ) :   0.7132
B(  2-C ,  4-C ) :  -0.3303 B(  2-C ,  5-C ) :   0.2006 B(  2-C , 11-C ) :  -0.3129
B(  2-C , 14-H ) :  -0.1096 B(  2-C , 15-H ) :   2.5170 B(  2-C , 17-C ) :   0.1229
B(  2-C , 20-H ) :  -0.1544 B(  2-C , 21-H ) :   0.1001 B(  3-C ,  4-C ) :   1.1995
B(  3-C ,  5-C ) :   0.1950 B(  3-C ,  7-C ) :   0.1463 B(  3-C , 15-H ) :  -0.2158
B(  3-C , 16-C ) :   0.1085 B(  3-C , 20-H ) :   0.1678 B(  3-C , 21-H ) :  -0.3027
B(  4-C ,  5-C ) :   0.4360 B(  4-C ,  7-C ) :   0.2797 B(  4-C , 11-C ) :   0.3960
B(  4-C , 15-H ) :  -0.1183 B(  4-C , 16-C ) :   0.1964 B(  4-C , 21-H ) :  -0.1369
B(  5-C ,  6-H ) :   1.3071 B(  5-C ,  7-C ) :  -0.2216 B(  5-C , 17-C ) :  -0.1333
B(  5-C , 21-H ) :  -0.2038 B(  7-C ,  8-H ) :   1.1083 B(  7-C ,  9-H ) :   0.9736
B(  7-C , 10-H ) :   0.9718 B( 11-C , 12-H ) :   1.0039 B( 11-C , 13-H ) :   1.0042
B( 11-C , 14-H ) :   1.0733 B( 15-H , 16-C ) :  -0.2469 B( 15-H , 20-H ) :  -0.1308
B( 16-C , 17-C ) :   0.6016 B( 16-C , 20-H ) :   1.0296 B( 17-C , 18-H ) :   1.1847
B( 17-C , 19-H ) :   0.8062 B( 17-C , 20-H ) :  -0.2543

Dispersion correction           -0.007418332
FINAL SINGLE POINT ENERGY      -387.973720653277

DIPOLE MOMENT
-------------

Method             : SCF
Type of density    : Electron Density
Multiplicity       :   2
Irrep              :   0
Energy             :  -387.9663023211197128 Eh
Relativity type    :
Basis              : AO
                                X                 Y                 Z
Electronic contribution:      5.355123455      -1.203281269      -0.006474133
Nuclear contribution   :     -4.579119414       1.050454684       0.007796249
                        -----------------------------------------
Total Dipole Moment    :      0.776004041      -0.152826584       0.001322117
                        -----------------------------------------
Magnitude (a.u.)       :      0.790910858
Magnitude (Debye)      :      2.010335636

VIBRATIONAL FREQUENCIES
-----------------------

Scaling factor for frequencies =  1.000000000  (already applied!)

     0:       0.00 cm**-1
     1:       0.00 cm**-1
     2:       0.00 cm**-1
     3:       0.00 cm**-1
     4:       0.00 cm**-1
     5:       0.00 cm**-1
     6:      26.95 cm**-1
     7:      54.46 cm**-1
     8:     104.81 cm**-1
     9:     160.86 cm**-1
    10:     207.86 cm**-1
    11:     209.49 cm**-1
    12:     269.94 cm**-1
    13:     316.24 cm**-1
    14:     384.66 cm**-1
    15:     412.69 cm**-1
    16:     426.73 cm**-1
    17:     460.81 cm**-1
    18:     522.64 cm**-1
    19:     564.43 cm**-1
    20:     603.43 cm**-1
    21:     710.79 cm**-1
    22:     718.76 cm**-1
    23:     753.86 cm**-1
    24:     820.00 cm**-1
    25:     898.63 cm**-1
    26:     935.62 cm**-1
    27:     960.88 cm**-1
    28:     995.17 cm**-1
    29:    1007.73 cm**-1
    30:    1007.96 cm**-1
    31:    1019.13 cm**-1
    32:    1020.32 cm**-1
    33:    1054.66 cm**-1
    34:    1066.45 cm**-1
    35:    1154.39 cm**-1
    36:    1207.35 cm**-1
    37:    1251.59 cm**-1
    38:    1272.75 cm**-1
    39:    1300.43 cm**-1
    40:    1330.45 cm**-1
    41:    1357.84 cm**-1
    42:    1386.48 cm**-1
    43:    1391.81 cm**-1
    44:    1431.96 cm**-1
    45:    1437.28 cm**-1
    46:    1452.10 cm**-1
    47:    1458.59 cm**-1
    48:    1474.23 cm**-1
    49:    1483.20 cm**-1
    50:    1505.05 cm**-1
    51:    1529.21 cm**-1
    52:    1579.42 cm**-1
    53:    1667.76 cm**-1
    54:    3034.34 cm**-1
    55:    3047.96 cm**-1
    56:    3083.51 cm**-1
    57:    3105.46 cm**-1
    58:    3156.54 cm**-1
    59:    3166.93 cm**-1
    60:    3180.75 cm**-1
    61:    3190.51 cm**-1
    62:    3201.25 cm**-1
    63:    3212.73 cm**-1
    64:    3236.63 cm**-1
    65:    3284.17 cm**-1

IR SPECTRUM
-----------

 Mode   freq       eps      Int      T**2         TX        TY        TZ
       cm**-1   L/(mol*cm) km/mol    a.u.
----------------------------------------------------------------------------
  6:     26.95   0.000382    1.93  0.004428  ( 0.002949  0.000320 -0.066477)
  7:     54.46   0.000250    1.26  0.001431  (-0.001437 -0.000354 -0.037799)
  8:    104.81   0.000004    0.02  0.000012  (-0.000059 -0.000170 -0.003397)
  9:    160.86   0.000893    4.52  0.001733  ( 0.000362 -0.000543 -0.041628)
 10:    207.86   0.000202    1.02  0.000304  ( 0.000430  0.003554  0.017064)
 11:    209.49   0.000186    0.94  0.000277  (-0.000598 -0.016048  0.004359)
 12:    269.94   0.000135    0.68  0.000157  ( 0.000254 -0.000123 -0.012513)
 13:    316.24   0.000037    0.19  0.000036  (-0.003857  0.004639  0.000038)
 14:    384.66   0.000385    1.94  0.000312  ( 0.015131 -0.009123 -0.000042)
 15:    412.69   0.002789   14.09  0.002109  (-0.000205 -0.000468  0.045917)
 16:    426.73   0.000029    0.15  0.000021  ( 0.004195 -0.001907 -0.000220)
 17:    460.81   0.000820    4.14  0.000555  ( 0.000609 -0.000028  0.023553)
 18:    522.64   0.000774    3.91  0.000462  ( 0.020623  0.006067  0.000034)
 19:    564.43   0.000993    5.02  0.000549  (-0.022834 -0.005246 -0.000006)
 20:    603.43   0.000232    1.17  0.000120  ( 0.000742  0.000091 -0.010932)
 21:    710.79   0.002765   13.97  0.001214  ( 0.000640 -0.000018  0.034836)
 22:    718.76   0.008732   44.13  0.003791  (-0.060690 -0.010373  0.000270)
 23:    753.86   0.000831    4.20  0.000344  ( 0.018098  0.004038  0.000084)
 24:    820.00   0.003953   19.98  0.001504  (-0.000421 -0.000075 -0.038783)
 25:    898.63   0.000894    4.52  0.000311  ( 0.000141  0.000003  0.017622)
 26:    935.62   0.001791    9.05  0.000597  ( 0.021650  0.011328 -0.000391)
 27:    960.88   0.015193   76.78  0.004934  ( 0.000483  0.000087 -0.070243)
 28:    995.17   0.004056   20.50  0.001272  ( 0.002929  0.000084 -0.035541)
 29:   1007.73   0.000933    4.71  0.000289  ( 0.016922  0.001292 -0.000894)
 30:   1007.96   0.010608   53.61  0.003284  (-0.057220 -0.003169  0.000074)
 31:   1019.13   0.006330   31.99  0.001938  (-0.006019 -0.000175  0.043612)
 32:   1020.32   0.025426  128.49  0.007776  ( 0.088097  0.000263  0.003896)
 33:   1054.66   0.000740    3.74  0.000219  ( 0.000984  0.000066 -0.014765)
 34:   1066.45   0.000722    3.65  0.000211  ( 0.013158 -0.006173  0.000183)
 35:   1154.39   0.003917   19.80  0.001059  (-0.020222  0.025494  0.000175)
 36:   1207.35   0.027736  140.17  0.007169  ( 0.084164  0.009241  0.000060)
 37:   1251.59   0.023859  120.57  0.005949  ( 0.076917  0.005720 -0.000063)
 38:   1272.75   0.048680  246.01  0.011936  ( 0.109243 -0.001339  0.000026)
 39:   1300.43   0.042827  216.43  0.010277  ( 0.101373  0.000849  0.000013)
 40:   1330.45   0.000876    4.43  0.000206  (-0.005882  0.013075  0.000036)
 41:   1357.84   0.014696   74.27  0.003377  (-0.057167  0.010454  0.000283)
 42:   1386.48   0.002905   14.68  0.000654  (-0.012660  0.022215 -0.000243)
 43:   1391.81   0.001963    9.92  0.000440  ( 0.017769 -0.011148  0.000170)
 44:   1431.96   0.006923   34.99  0.001509  (-0.032207 -0.021693  0.000874)
 45:   1437.28   0.002095   10.59  0.000455  (-0.000879 -0.000215 -0.021308)
 46:   1452.10   0.002157   10.90  0.000463  ( 0.012228  0.017693  0.000950)
 47:   1458.59   0.005912   29.88  0.001265  (-0.000324 -0.000025  0.035564)
 48:   1474.23   0.023878  120.67  0.005054  (-0.069710  0.013958 -0.000438)
 49:   1483.20   0.061347  310.02  0.012907  (-0.113375 -0.007316  0.000156)
 50:   1505.05   0.106107  536.22  0.022001  ( 0.148286  0.003434  0.000032)
 51:   1529.21   0.058436  295.31  0.011925  ( 0.106272 -0.025121  0.000112)
 52:   1579.42   0.046744  236.22  0.009236  ( 0.081615  0.050740  0.000061)
 53:   1667.76   0.011717   59.22  0.002193  ( 0.039247  0.025538 -0.000043)
 54:   3034.34   0.004094   20.69  0.000421  (-0.020120 -0.004026  0.000215)
 55:   3047.96   0.000413    2.09  0.000042  (-0.004605  0.004593  0.000103)
 56:   3083.51   0.000092    0.47  0.000009  ( 0.000481  0.000083  0.003018)
 57:   3105.46   0.001313    6.63  0.000132  ( 0.000025 -0.000031  0.011486)
 58:   3156.54   0.003579   18.09  0.000354  ( 0.003167 -0.018541 -0.000038)
 59:   3166.93   0.007874   39.79  0.000776  ( 0.022164  0.016871 -0.000022)
 60:   3180.75   0.002022   10.22  0.000198  (-0.014054  0.000906 -0.000015)
 61:   3190.51   0.001892    9.56  0.000185  ( 0.012752  0.004739  0.000074)
 62:   3201.25   0.000839    4.24  0.000082  ( 0.000323  0.009036  0.000101)
 63:   3212.73   0.001936    9.78  0.000188  ( 0.011598  0.007315  0.000072)
 64:   3236.63   0.000086    0.43  0.000008  (-0.001533  0.002430  0.000015)
 65:   3284.17   0.000007    0.03  0.000001  ( 0.000770 -0.000199  0.000040)

--------------------------
THERMOCHEMISTRY AT 298.15K
--------------------------

Temperature         ...   298.15 K
Pressure            ...     1.00 atm
Total Mass          ...   132.21 AMU
Quasi RRHO          ...     True
Cut-Off Frequency   ...     1.00 cm^-1

Throughout the following assumptions are being made:
  (1) The electronic state is orbitally nondegenerate
      but the spin degeneracy is treated
  (2) There are no thermally accessible electronically excited states
  (3) Hindered rotations indicated by low frequency modes are not
      treated as such but are treated as vibrations and this may
      cause some error
  (4) All equations used are the standard statistical mechanics
      equations for an ideal gas
  (5) All vibrations are strictly harmonic

freq.      26.95  E(vib)   ...       0.55
freq.      54.46  E(vib)   ...       0.52
freq.     104.81  E(vib)   ...       0.46
freq.     160.86  E(vib)   ...       0.39
freq.     207.86  E(vib)   ...       0.34
freq.     209.49  E(vib)   ...       0.34
freq.     269.94  E(vib)   ...       0.29
freq.     316.24  E(vib)   ...       0.25
freq.     384.66  E(vib)   ...       0.20
freq.     412.69  E(vib)   ...       0.19
freq.     426.73  E(vib)   ...       0.18
freq.     460.81  E(vib)   ...       0.16
freq.     522.64  E(vib)   ...       0.13
freq.     564.43  E(vib)   ...       0.11
freq.     603.43  E(vib)   ...       0.10
freq.     710.79  E(vib)   ...       0.07
freq.     718.76  E(vib)   ...       0.07
freq.     753.86  E(vib)   ...       0.06
freq.     820.00  E(vib)   ...       0.05
freq.     898.63  E(vib)   ...       0.03
freq.     935.62  E(vib)   ...       0.03
freq.     960.88  E(vib)   ...       0.03
freq.     995.17  E(vib)   ...       0.02
freq.    1007.73  E(vib)   ...       0.02
freq.    1007.96  E(vib)   ...       0.02
freq.    1019.13  E(vib)   ...       0.02
freq.    1020.32  E(vib)   ...       0.02
freq.    1054.66  E(vib)   ...       0.02
freq.    1066.45  E(vib)   ...       0.02
freq.    1154.39  E(vib)   ...       0.01
freq.    1207.35  E(vib)   ...       0.01
freq.    1251.59  E(vib)   ...       0.01
freq.    1272.75  E(vib)   ...       0.01
freq.    1300.43  E(vib)   ...       0.01
freq.    1330.45  E(vib)   ...       0.01
freq.    1357.84  E(vib)   ...       0.01
freq.    1386.48  E(vib)   ...       0.00
freq.    1391.81  E(vib)   ...       0.00
freq.    1431.96  E(vib)   ...       0.00
freq.    1437.28  E(vib)   ...       0.00
freq.    1452.10  E(vib)   ...       0.00
freq.    1458.59  E(vib)   ...       0.00
freq.    1474.23  E(vib)   ...       0.00
freq.    1483.20  E(vib)   ...       0.00
freq.    1505.05  E(vib)   ...       0.00
freq.    1529.21  E(vib)   ...       0.00
freq.    1579.42  E(vib)   ...       0.00
freq.    1667.76  E(vib)   ...       0.00
freq.    3034.34  E(vib)   ...       0.00
freq.    3047.96  E(vib)   ...       0.00
freq.    3083.51  E(vib)   ...       0.00
freq.    3105.46  E(vib)   ...       0.00
freq.    3156.54  E(vib)   ...       0.00
freq.    3166.93  E(vib)   ...       0.00
freq.    3180.75  E(vib)   ...       0.00
freq.    3190.51  E(vib)   ...       0.00
freq.    3201.25  E(vib)   ...       0.00
freq.    3212.73  E(vib)   ...       0.00
freq.    3236.63  E(vib)   ...       0.00
freq.    3284.17  E(vib)   ...       0.00

------------
INNER ENERGY
------------

The inner energy is: U= E(el) + E(ZPE) + E(vib) + E(rot) + E(trans)
    E(el)   - is the total energy from the electronic structure calculation
              = E(kin-el) + E(nuc-el) + E(el-el) + E(nuc-nuc)
    E(ZPE)  - the the zero temperature vibrational energy from the frequency calculation
    E(vib)  - the the finite temperature correction to E(ZPE) due to population
              of excited vibrational states
    E(rot)  - is the rotational thermal energy
    E(trans)- is the translational thermal energy

Summary of contributions to the inner energy U:
Electronic energy                ...   -387.97372065 Eh
Zero point energy                ...      0.18742178 Eh     117.61 kcal/mol
Thermal vibrational correction   ...      0.00763916 Eh       4.79 kcal/mol
Thermal rotational correction    ...      0.00141627 Eh       0.89 kcal/mol
Thermal translational correction ...      0.00141627 Eh       0.89 kcal/mol
-----------------------------------------------------------------------
Total thermal energy                   -387.77582718 Eh

Summary of corrections to the electronic energy:
(perhaps to be used in another calculation)
Total thermal correction                  0.01047170 Eh       6.57 kcal/mol
Non-thermal (ZPE) correction              0.18742178 Eh     117.61 kcal/mol
-----------------------------------------------------------------------
Total correction                          0.19789348 Eh     124.18 kcal/mol

--------
ENTHALPY
--------

The enthalpy is H = U + kB*T
                kB is Boltzmann's constant
Total thermal energy              ...   -387.77582718 Eh
Thermal Enthalpy correction       ...      0.00094421 Eh       0.59 kcal/mol
-----------------------------------------------------------------------
Total Enthalpy                    ...   -387.77488297 Eh

Note: Only C1 symmetry has been detected, increase convergence thresholds
      if your molecule has a higher symmetry. Symmetry factor of 1.0 is
      used for the rotational entropy correction.

Note: Rotational entropy computed according to Herzberg
Infrared and Raman Spectra, Chapter V,1, Van Nostrand Reinhold, 1945
Point Group:  C1, Symmetry Number:   1
Rotational constants in cm-1:     0.096467     0.029554     0.022811

Vibrational entropy computed according to the QRRHO of S. Grimme
Chem.Eur.J. 2012 18 9955 using a reference frequency of 100.0 cm-1

-------
ENTROPY
-------

The entropy contributions are T*S = T*(S(el)+S(vib)+S(rot)+S(trans))
     S(el)   - electronic entropy
     S(vib)  - vibrational entropy
     S(rot)  - rotational entropy
     S(trans)- translational entropy
The entropies will be listed as multiplied by the temperature to get
units of energy

Electronic entropy                ...      0.00065446 Eh      0.41 kcal/mol
Vibrational entropy               ...      0.01326563 Eh      8.32 kcal/mol
Rotational entropy                ...      0.01406205 Eh      8.82 kcal/mol
Translational entropy             ...      0.01926665 Eh     12.09 kcal/mol
-----------------------------------------------------------------------
Final entropy term                ...      0.04724879 Eh     29.65 kcal/mol

In case the symmetry of your molecule has not been determined correctly
or in case you have a reason to use a different symmetry number we print
out the resulting rotational entropy values for sn=1,12:

                             ****ORCA TERMINATED NORMALLY****
TOTAL RUN TIME: 0 days 1 hours 38 minutes 3 seconds 882 msec
