                         Program Version 6.0.0  -   RELEASE  -
|  1> !r2SCANh aug-cc-pVTZ d3 TightSCF SlowConv RIJCOSX defgrid2
|  2>
|  3> %pal
|  4> nprocs 4
|  5> end
|  6>
|  7> %scf
|  8> MaxIter 1500
|  9> end
| 10>
| 11> %maxcore 3000
| 12>
| 13> !CPCM
| 14> %cpcm smd true
| 15> SMDsolvent "MeCN"
| 16> surfacetype gepol_ses
| 17> rsolv 2.19
| 18> end
| 19>
| 20> * xyz 0 1
| 21> C          -0.89224376281729     -0.45495718467486     -0.01145470130558
| 22> C          -2.16594085102826      0.11833701228886      0.04668156393021
| 23> C          -2.30980722961896      1.50552350730743      0.05266514185606
| 24> C          -1.18730292615774      2.32642588045932     -0.00578599682476
| 25> C           0.07848662017989      1.74980637635100     -0.06895843233769
| 26> C           0.26274712675783      0.36232202146058     -0.06567493940899
| 27> C           1.58397696911678     -0.26992063342449     -0.12469546497205
| 28> C           2.76363236463117      0.32107143728729      0.12304590513021
| 29> C           4.08799267811931     -0.36052851109315      0.03291116341555
| 30> H           3.98056842183658     -1.41840521263657     -0.26057190910370
| 31> H           4.74505082715594      0.13479691399593     -0.70730718173092
| 32> H           4.62530006868567     -0.32442135861975      0.99958986880157
| 33> H           2.78503020251791      1.37712737104795      0.42569396767337
| 34> H           1.57849606749139     -1.33419620856152     -0.38398649131753
| 35> H           0.95757732762518      2.39636581691597     -0.14038478463746
| 36> H          -1.29519718094620      3.41448711016187     -0.01311105785373
| 37> H          -3.31277371923385      1.94023584815831      0.09753461625361
| 38> H          -3.05632729029775     -0.51114095186127      0.09086976233295
| 39> O          -0.67674575407500     -1.78893966045310     -0.01378813421896
| 40> C          -1.76950811946695     -2.65856738104043      0.02444914878564
| 41> H          -2.43311749477465     -2.52415123007072     -0.85159816615208
| 42> H          -2.36466392584911     -2.52857531091088      0.94882566481095
| 43> H          -1.35670891985190     -3.67848395208777      0.00674595687332
| 44> *
| 45>
| 46>                          ****END OF INPUT****

CARTESIAN COORDINATES (ANGSTROEM)
---------------------------------
  C     -0.892244   -0.454957   -0.011455
  C     -2.165941    0.118337    0.046682
  C     -2.309807    1.505524    0.052665
  C     -1.187303    2.326426   -0.005786
  C      0.078487    1.749806   -0.068958
  C      0.262747    0.362322   -0.065675
  C      1.583977   -0.269921   -0.124695
  C      2.763632    0.321071    0.123046
  C      4.087993   -0.360529    0.032911
  H      3.980568   -1.418405   -0.260572
  H      4.745051    0.134797   -0.707307
  H      4.625300   -0.324421    0.999590
  H      2.785030    1.377127    0.425694
  H      1.578496   -1.334196   -0.383986
  H      0.957577    2.396366   -0.140385
  H     -1.295197    3.414487   -0.013111
  H     -3.312774    1.940236    0.097535
  H     -3.056327   -0.511141    0.090870
  O     -0.676746   -1.788940   -0.013788
  C     -1.769508   -2.658567    0.024449
  H     -2.433117   -2.524151   -0.851598
  H     -2.364664   -2.528575    0.948826
  H     -1.356709   -3.678484    0.006746

 Total Charge           Charge          ....    0
 Multiplicity           Mult            ....    1
 Number of Electrons    NEL             ....   80
 Basis Dimension        Dim             ....  782

ORBITAL ENERGIES
----------------

  NO   OCC          E(Eh)            E(eV)
   0   2.0000     -19.152535      -521.1670
   1   2.0000     -10.221935      -278.1530
   2   2.0000     -10.198442      -277.5137
   3   2.0000     -10.169032      -276.7134
   4   2.0000     -10.160681      -276.4862
   5   2.0000     -10.160083      -276.4699
   6   2.0000     -10.159834      -276.4631
   7   2.0000     -10.157169      -276.3906
   8   2.0000     -10.154001      -276.3044
   9   2.0000     -10.153587      -276.2932
  10   2.0000     -10.146927      -276.1119
  11   2.0000      -1.081913       -29.4403
  12   2.0000      -0.859342       -23.3839
  13   2.0000      -0.799393       -21.7526
  14   2.0000      -0.756625       -20.5888
  15   2.0000      -0.745103       -20.2753
  16   2.0000      -0.693121       -18.8608
  17   2.0000      -0.670418       -18.2430
  18   2.0000      -0.607861       -16.5407
  19   2.0000      -0.580965       -15.8089
  20   2.0000      -0.540520       -14.7083
  21   2.0000      -0.522482       -14.2175
  22   2.0000      -0.481994       -13.1157
  23   2.0000      -0.470119       -12.7926
  24   2.0000      -0.459627       -12.5071
  25   2.0000      -0.436465       -11.8768
  26   2.0000      -0.424423       -11.5491
  27   2.0000      -0.409297       -11.1375
  28   2.0000      -0.398125       -10.8335
  29   2.0000      -0.393672       -10.7124
  30   2.0000      -0.375460       -10.2168
  31   2.0000      -0.370653       -10.0860
  32   2.0000      -0.351394        -9.5619
  33   2.0000      -0.346701        -9.4342
  34   2.0000      -0.326553        -8.8859
  35   2.0000      -0.315173        -8.5763
  36   2.0000      -0.307381        -8.3643
  37   2.0000      -0.289472        -7.8769
  38   2.0000      -0.235075        -6.3967
  39   2.0000      -0.206643        -5.6230
  40   0.0000      -0.050386        -1.3711
  41   0.0000      -0.010516        -0.2861
  42   0.0000       0.009552         0.2599
  43   0.0000       0.020820         0.5666
  44   0.0000       0.022452         0.6110

MULLIKEN ATOMIC CHARGES
-----------------------
   0 C :    0.594131
   1 C :   -0.644169
   2 C :   -0.279197
   3 C :   -0.831615
   4 C :   -0.604499
   5 C :    1.429244
   6 C :    0.120818
   7 C :   -0.302591
   8 C :   -0.768917
   9 H :    0.248750
  10 H :    0.204351
  11 H :    0.165365
  12 H :    0.166784
  13 H :    0.063823
  14 H :   -0.205605
  15 H :    0.589086
  16 H :    0.337491
  17 H :    0.518591
  18 O :   -0.833000
  19 C :   -0.800120
  20 H :    0.306327
  21 H :    0.308934
  22 H :    0.216019
Sum of atomic charges:    0.0000000

LOEWDIN ATOMIC CHARGES
----------------------
   0 C :   -0.378263
   1 C :    0.198681
   2 C :    0.177668
   3 C :    0.180942
   4 C :    0.187960
   5 C :   -0.139522
   6 C :    0.192627
   7 C :    0.196739
   8 C :    0.550505
   9 H :   -0.174185
  10 H :   -0.164333
  11 H :   -0.164701
  12 H :   -0.180694
  13 H :   -0.206956
  14 H :   -0.180373
  15 H :   -0.176531
  16 H :   -0.170864
  17 H :   -0.193529
  18 O :    0.600953
  19 C :    0.329114
  20 H :   -0.159011
  21 H :   -0.159589
  22 H :   -0.166639

  Mayer bond orders larger than 0.100000
B(  0-C ,  1-C ) :   1.2718 B(  0-C ,  2-C ) :  -0.4934 B(  0-C ,  3-C ) :   0.1591
B(  0-C ,  4-C ) :  -1.2545 B(  0-C ,  5-C ) :   0.6156 B(  0-C ,  7-C ) :   0.2265
B(  0-C , 14-H ) :   0.1206 B(  0-C , 16-H ) :   0.4120 B(  0-C , 17-H ) :  -0.2194
B(  0-C , 18-O ) :   0.5537 B(  1-C ,  2-C ) :   0.6814 B(  1-C ,  3-C ) :   0.3818
B(  1-C ,  4-C ) :  -0.1605 B(  1-C ,  5-C ) :   0.2188 B(  1-C , 14-H ) :  -0.1527
B(  1-C , 16-H ) :  -0.1270 B(  1-C , 17-H ) :   0.1924 B(  1-C , 18-O ) :  -0.1648
B(  1-C , 19-C ) :  -0.1033 B(  2-C ,  3-C ) :   1.0301 B(  2-C ,  4-C ) :  -0.3138
B(  2-C ,  6-C ) :   0.1390 B(  2-C , 15-H ) :   0.1452 B(  2-C , 16-H ) :   0.9122
B(  2-C , 17-H ) :   0.3018 B(  3-C ,  4-C ) :   0.8862 B(  3-C ,  5-C ) :   0.2954
B(  3-C , 14-H ) :  -0.1433 B(  3-C , 15-H ) :   0.2697 B(  3-C , 16-H ) :  -0.1490
B(  3-C , 17-H ) :  -0.2128 B(  4-C ,  5-C ) :   0.7718 B(  4-C ,  6-C ) :   0.2313
B(  4-C , 14-H ) :   1.9355 B(  4-C , 17-H ) :   0.2145 B(  5-C , 12-H ) :  -0.1119
B(  5-C , 14-H ) :  -0.2396 B(  5-C , 16-H ) :  -0.2697 B(  5-C , 17-H ) :   0.1442
B(  6-C ,  7-C ) :   0.8053 B(  6-C , 13-H ) :   1.1481 B(  6-C , 16-H ) :   0.1034
B(  7-C ,  8-C ) :   0.6320 B(  7-C , 12-H ) :   1.2157 B(  7-C , 13-H ) :  -0.1293
B(  8-C ,  9-H ) :   0.9402 B(  8-C , 10-H ) :   1.0143 B(  8-C , 11-H ) :   1.0673
B(  8-C , 12-H ) :  -0.1013 B( 14-H , 17-H ) :  -0.1101 B( 16-H , 18-O ) :  -0.1134
B( 17-H , 19-C ) :  -0.1496 B( 18-O , 19-C ) :   1.1927 B( 19-C , 20-H ) :   0.8827
B( 19-C , 21-H ) :   0.8731 B( 19-C , 22-H ) :   1.0254

Dispersion correction           -0.007450462
FINAL SINGLE POINT ENERGY      -463.380812963407

DIPOLE MOMENT
-------------

Method             : SCF
Type of density    : Electron Density
Multiplicity       :   1
Irrep              :   0
Energy             :  -463.3733625010998480 Eh
Relativity type    :
Basis              : AO
                                X                 Y                 Z
Electronic contribution:     -4.909521001       2.456133465      -0.158914122
Nuclear contribution   :      4.581656227      -2.893948868       0.196564691
                        -----------------------------------------
Total Dipole Moment    :     -0.327864775      -0.437815403       0.037650569
                        -----------------------------------------
Magnitude (a.u.)       :      0.548265632
Magnitude (Debye)      :      1.393580486

Rotational constants in cm-1:             0.050912             0.026902             0.017755
Rotational constants in MHz :          1526.296449           806.510912           532.292368

                             ****ORCA TERMINATED NORMALLY****
TOTAL RUN TIME: 0 days 0 hours 9 minutes 14 seconds 793 msec
