                         Program Version 6.0.0  -   RELEASE  -
|  1> !PBE0 def2-SV(p) Opt Freq d3 TightSCF SlowConv RIJCOSX defgrid2
|  2>
|  3> %pal
|  4> nprocs 4
|  5> end
|  6>
|  7> %scf
|  8> MaxIter 1500
|  9> end
| 10>
| 11> %maxcore 3000
| 12>
| 13>
| 14>
| 15> * xyz 0 1
| 16> C    -0.7064958   -1.0313350    0.0000863
| 17> C    -1.2995125    0.2282436    0.0000737
| 18> C    -0.4861945    1.3656996    0.0000701
| 19> C     0.8849017    1.2475349    0.0000011
| 20> C     1.4831254   -0.0155243   -0.0001040
| 21> C     0.6715425   -1.1472200    0.0000115
| 22> H     1.1262687   -2.1271080   -0.0000631
| 23> C     2.8935123   -0.1428567   -0.0007563
| 24> C     4.0896554   -0.2523829    0.0011174
| 25> H     5.1343870   -0.3471914   -0.0004867
| 26> H     1.5063473    2.1308212   -0.0000792
| 27> H    -0.9618930    2.3341311    0.0000432
| 28> O    -2.6413916    0.4603344    0.0000285
| 29> C    -3.5214949   -0.6425078    0.0000396
| 30> H    -4.5231098   -0.2160814   -0.0000204
| 31> H    -3.3889000   -1.2597418   -0.8940259
| 32> H    -3.3889645   -1.2596560    0.8941733
| 33> H    -1.3060256   -1.9277007    0.0000731
| 34> *
| 35>
| 36>                          ****END OF INPUT****
 Total Charge           Charge          ....    0
 Multiplicity           Mult            ....    1
 Number of Electrons    NEL             ....   70
Dispersion correction           -0.016012472
FINAL SINGLE POINT ENERGY      -422.109018730562
Dispersion correction             ... done (  0.1 sec)
Dispersion correction           -0.015966125
FINAL SINGLE POINT ENERGY      -422.111437995898
Dispersion correction             ... done (  0.1 sec)
Dispersion correction           -0.015953142
FINAL SINGLE POINT ENERGY      -422.111514611375
Dispersion correction             ... done (  0.1 sec)
Dispersion correction           -0.015949775
FINAL SINGLE POINT ENERGY      -422.111531866522
Dispersion correction             ... done (  0.1 sec)
                    ***********************HURRAY********************

CARTESIAN COORDINATES (ANGSTROEM)
---------------------------------
  C     -0.724987   -1.031991   -0.000356
  C     -1.317253    0.237001   -0.000092
  C     -0.499276    1.377413   -0.000178
  C      0.878771    1.252251   -0.000464
  C      1.489126   -0.017487   -0.000626
  C      0.662524   -1.149344   -0.000645
  H      1.118896   -2.142493   -0.000830
  C      2.911045   -0.147339   -0.000632
  C      4.119906   -0.257426    0.001614
  H      5.190581   -0.354156    0.000975
  H      1.507799    2.146016   -0.000505
  H     -0.980170    2.358608    0.000008
  O     -2.644304    0.458084    0.000246
  C     -3.515346   -0.637652    0.000452
  H     -4.534904   -0.224452    0.000767
  H     -3.381620   -1.265890   -0.900990
  H     -3.381091   -1.265963    0.901765
  H     -1.333940   -1.937720   -0.000327

 Multiplicity           Mult            ....    1
 Number of Electrons    NEL             ....   70
 Basis Dimension        Dim             ....  156

ORBITAL ENERGIES
----------------

  NO   OCC          E(Eh)            E(eV)
   0   2.0000     -19.252851      -523.8967
   1   2.0000     -10.305908      -280.4380
   2   2.0000     -10.290007      -280.0053
   3   2.0000     -10.258416      -279.1457
   4   2.0000     -10.248072      -278.8642
   5   2.0000     -10.246380      -278.8182
   6   2.0000     -10.242105      -278.7019
   7   2.0000     -10.237460      -278.5755
   8   2.0000     -10.237081      -278.5651
   9   2.0000     -10.227400      -278.3017
  10   2.0000      -1.104899       -30.0658
  11   2.0000      -0.886142       -24.1131
  12   2.0000      -0.804177       -21.8828
  13   2.0000      -0.775228       -21.0950
  14   2.0000      -0.752603       -20.4794
  15   2.0000      -0.715484       -19.4693
  16   2.0000      -0.638328       -17.3698
  17   2.0000      -0.624918       -17.0049
  18   2.0000      -0.569315       -15.4919
  19   2.0000      -0.552281       -15.0283
  20   2.0000      -0.514708       -14.0059
  21   2.0000      -0.511081       -13.9072
  22   2.0000      -0.498079       -13.5534
  23   2.0000      -0.466085       -12.6828
  24   2.0000      -0.446970       -12.1627
  25   2.0000      -0.439553       -11.9609
  26   2.0000      -0.409688       -11.1482
  27   2.0000      -0.408129       -11.1057
  28   2.0000      -0.384299       -10.4573
  29   2.0000      -0.362237        -9.8570
  30   2.0000      -0.347495        -9.4558
  31   2.0000      -0.301538        -8.2053
  32   2.0000      -0.287684        -7.8283
  33   2.0000      -0.276216        -7.5162
  34   2.0000      -0.228614        -6.2209
  35   0.0000      -0.022330        -0.6076
  36   0.0000      -0.009546        -0.2598
  37   0.0000       0.055402         1.5076
  38   0.0000       0.068871         1.8741
  39   0.0000       0.086379         2.3505

MULLIKEN ATOMIC CHARGES
-----------------------
   0 C :   -0.225219
   1 C :    0.280615
   2 C :   -0.144016
   3 C :   -0.089040
   4 C :   -0.012793
   5 C :   -0.087880
   6 H :    0.097435
   7 C :    0.369828
   8 C :   -0.533339
   9 H :    0.119601
  10 H :    0.099727
  11 H :    0.098037
  12 O :   -0.321488
  13 C :   -0.163204
  14 H :    0.151884
  15 H :    0.133425
  16 H :    0.133426
  17 H :    0.093000
Sum of atomic charges:   -0.0000000

LOEWDIN ATOMIC CHARGES
----------------------
   0 C :   -0.181076
   1 C :    0.046098
   2 C :   -0.146149
   3 C :   -0.090613
   4 C :   -0.079700
   5 C :   -0.088864
   6 H :    0.137677
   7 C :   -0.016571
   8 C :   -0.194988
   9 H :    0.155838
  10 H :    0.138593
  11 H :    0.139607
  12 O :   -0.104362
  13 C :   -0.202079
  14 H :    0.126790
  15 H :    0.112563
  16 H :    0.112565
  17 H :    0.134671

  Mayer bond orders larger than 0.100000
B(  0-C ,  1-C ) :   1.3067 B(  0-C ,  5-C ) :   1.3658 B(  0-C , 17-H ) :   0.9598
B(  1-C ,  2-C ) :   1.3446 B(  1-C , 12-O ) :   1.1202 B(  2-C ,  3-C ) :   1.4082
B(  2-C , 11-H ) :   0.9622 B(  3-C ,  4-C ) :   1.3282 B(  3-C , 10-H ) :   0.9647
B(  4-C ,  5-C ) :   1.3762 B(  4-C ,  7-C ) :   1.0063 B(  5-C ,  6-H ) :   0.9619
B(  7-C ,  8-C ) :   2.4327 B(  8-C ,  9-H ) :   1.0316 B( 12-O , 13-C ) :   0.9581
B( 13-C , 14-H ) :   0.9562 B( 13-C , 15-H ) :   0.9410 B( 13-C , 16-H ) :   0.9410

Dispersion correction           -0.015950126
FINAL SINGLE POINT ENERGY      -422.111533022366

DIPOLE MOMENT
-------------

Method             : SCF
Type of density    : Electron Density
Multiplicity       :   1
Irrep              :   0
Energy             :  -422.0955828964891907 Eh
Relativity type    :
Basis              : AO
                                X                 Y                 Z
Electronic contribution:      4.770720607       2.092691655      -0.001389967
Nuclear contribution   :     -5.472543809      -2.520175441       0.001174688
                        -----------------------------------------
Total Dipole Moment    :     -0.701823202      -0.427483785      -0.000215279
                        -----------------------------------------
Magnitude (a.u.)       :      0.821765319
Magnitude (Debye)      :      2.088761444

VIBRATIONAL FREQUENCIES
-----------------------

Scaling factor for frequencies =  1.000000000  (already applied!)

     0:       0.00 cm**-1
     1:       0.00 cm**-1
     2:       0.00 cm**-1
     3:       0.00 cm**-1
     4:       0.00 cm**-1
     5:       0.00 cm**-1
     6:      76.72 cm**-1
     7:     130.80 cm**-1
     8:     137.07 cm**-1
     9:     236.61 cm**-1
    10:     262.37 cm**-1
    11:     292.62 cm**-1
    12:     390.71 cm**-1
    13:     426.78 cm**-1
    14:     473.85 cm**-1
    15:     503.06 cm**-1
    16:     549.63 cm**-1
    17:     567.92 cm**-1
    18:     644.34 cm**-1
    19:     655.34 cm**-1
    20:     705.98 cm**-1
    21:     712.09 cm**-1
    22:     755.07 cm**-1
    23:     832.30 cm**-1
    24:     850.99 cm**-1
    25:     865.84 cm**-1
    26:     975.46 cm**-1
    27:     992.69 cm**-1
    28:    1027.89 cm**-1
    29:    1124.18 cm**-1
    30:    1128.69 cm**-1
    31:    1184.78 cm**-1
    32:    1190.51 cm**-1
    33:    1217.19 cm**-1
    34:    1250.96 cm**-1
    35:    1319.93 cm**-1
    36:    1345.66 cm**-1
    37:    1385.83 cm**-1
    38:    1476.28 cm**-1
    39:    1482.13 cm**-1
    40:    1482.71 cm**-1
    41:    1497.89 cm**-1
    42:    1574.81 cm**-1
    43:    1646.78 cm**-1
    44:    1706.97 cm**-1
    45:    2233.30 cm**-1
    46:    3013.35 cm**-1
    47:    3093.84 cm**-1
    48:    3167.07 cm**-1
    49:    3214.03 cm**-1
    50:    3215.83 cm**-1
    51:    3230.33 cm**-1
    52:    3235.65 cm**-1
    53:    3481.00 cm**-1

IR SPECTRUM
-----------

 Mode   freq       eps      Int      T**2         TX        TY        TZ
       cm**-1   L/(mol*cm) km/mol    a.u.
----------------------------------------------------------------------------
  6:     76.72   0.000360    1.82  0.001464  (-0.000026 -0.000003 -0.038266)
  7:    130.80   0.000254    1.28  0.000605  ( 0.000015 -0.000018 -0.024601)
  8:    137.07   0.000224    1.13  0.000509  ( 0.006878 -0.021497  0.000024)
  9:    236.61   0.000316    1.60  0.000417  (-0.000057  0.000002 -0.020414)
 10:    262.37   0.000450    2.27  0.000535  ( 0.023074  0.001628 -0.000010)
 11:    292.62   0.000832    4.21  0.000888  (-0.000055  0.000005 -0.029793)
 12:    390.71   0.000126    0.64  0.000100  ( 0.008648 -0.005065  0.000050)
 13:    426.78   0.000004    0.02  0.000003  ( 0.000015  0.000018  0.001623)
 14:    473.85   0.000713    3.60  0.000470  (-0.000105  0.000007 -0.021670)
 15:    503.06   0.001476    7.46  0.000916  (-0.024412  0.017886 -0.000069)
 16:    549.63   0.000727    3.67  0.000413  (-0.010417 -0.017445 -0.000047)
 17:    567.92   0.001535    7.76  0.000843  ( 0.000134 -0.000004 -0.029039)
 18:    644.34   0.008056   40.71  0.003902  (-0.000475 -0.000005 -0.062460)
 19:    655.34   0.000649    3.28  0.000309  ( 0.000893  0.017555 -0.000091)
 20:    705.98   0.005919   29.91  0.002616  ( 0.010601  0.050039  0.000017)
 21:    712.09   0.003575   18.07  0.001567  ( 0.034220 -0.019891  0.000058)
 22:    755.07   0.000000    0.00  0.000000  ( 0.000073 -0.000007  0.000401)
 23:    832.30   0.000785    3.97  0.000294  (-0.000012 -0.000005 -0.017154)
 24:    850.99   0.000570    2.88  0.000209  (-0.013109  0.006085  0.000015)
 25:    865.84   0.010994   55.56  0.003962  ( 0.000032 -0.000006  0.062947)
 26:    975.46   0.000014    0.07  0.000004  (-0.000008 -0.000007 -0.002101)
 27:    992.69   0.000002    0.01  0.000001  ( 0.000003  0.000004  0.000771)
 28:   1027.89   0.000068    0.34  0.000021  ( 0.004536 -0.000300  0.000005)
 29:   1124.18   0.010388   52.49  0.002884  ( 0.034824  0.040876 -0.000006)
 30:   1128.69   0.001499    7.58  0.000415  ( 0.009664 -0.017920 -0.000002)
 31:   1184.78   0.000107    0.54  0.000028  (-0.000004  0.000001 -0.005313)
 32:   1190.51   0.005243   26.50  0.001374  (-0.036325 -0.007406  0.000003)
 33:   1217.19   0.000537    2.72  0.000138  (-0.006754 -0.009599 -0.000001)
 34:   1250.96   0.000771    3.90  0.000192  ( 0.012836  0.005251  0.000014)
 35:   1319.93   0.000680    3.44  0.000161  (-0.011594  0.005131  0.000000)
 36:   1345.66   0.050694  256.18  0.011756  (-0.107493 -0.014185  0.000015)
 37:   1385.83   0.013606   68.76  0.003064  (-0.053780 -0.013100  0.000006)
 38:   1476.28   0.000671    3.39  0.000142  (-0.010938 -0.004716  0.000010)
 39:   1482.13   0.001914    9.67  0.000403  ( 0.000031 -0.000003  0.020075)
 40:   1482.71   0.004035   20.39  0.000849  ( 0.029006 -0.002812 -0.000025)
 41:   1497.89   0.009144   46.21  0.001905  (-0.043607 -0.001836  0.000001)
 42:   1574.81   0.038983  197.00  0.007725  (-0.087842 -0.002916  0.000009)
 43:   1646.78   0.002911   14.71  0.000552  (-0.019481  0.013115  0.000003)
 44:   1706.97   0.025475  128.74  0.004657  (-0.068136 -0.003847  0.000009)
 45:   2233.30   0.003729   18.85  0.000521  (-0.022801  0.001083 -0.000019)
 46:   3013.35   0.012080   61.05  0.001251  ( 0.028808  0.020520 -0.000005)
 47:   3093.84   0.005909   29.86  0.000596  ( 0.000012  0.000002  0.024414)
 48:   3167.07   0.003037   15.35  0.000299  ( 0.016573 -0.004955 -0.000005)
 49:   3214.03   0.001069    5.40  0.000104  (-0.010187  0.000020  0.000004)
 50:   3215.83   0.000360    1.82  0.000035  ( 0.003253 -0.004931 -0.000002)
 51:   3230.33   0.000491    2.48  0.000047  ( 0.001196 -0.006781  0.000002)
 52:   3235.65   0.000910    4.60  0.000088  ( 0.007832  0.005137  0.000002)
 53:   3481.00   0.020597  104.09  0.001846  (-0.042843  0.003302  0.000028)

--------------------------
THERMOCHEMISTRY AT 298.15K
--------------------------

Temperature         ...   298.15 K
Pressure            ...     1.00 atm
Total Mass          ...   132.16 AMU
Quasi RRHO          ...     True
Cut-Off Frequency   ...     1.00 cm^-1

Throughout the following assumptions are being made:
  (1) The electronic state is orbitally nondegenerate
  (2) There are no thermally accessible electronically excited states
  (3) Hindered rotations indicated by low frequency modes are not
      treated as such but are treated as vibrations and this may
      cause some error
  (4) All equations used are the standard statistical mechanics
      equations for an ideal gas
  (5) All vibrations are strictly harmonic

freq.      76.72  E(vib)   ...       0.49
freq.     130.80  E(vib)   ...       0.43
freq.     137.07  E(vib)   ...       0.42
freq.     236.61  E(vib)   ...       0.32
freq.     262.37  E(vib)   ...       0.29
freq.     292.62  E(vib)   ...       0.27
freq.     390.71  E(vib)   ...       0.20
freq.     426.78  E(vib)   ...       0.18
freq.     473.85  E(vib)   ...       0.15
freq.     503.06  E(vib)   ...       0.14
freq.     549.63  E(vib)   ...       0.12
freq.     567.92  E(vib)   ...       0.11
freq.     644.34  E(vib)   ...       0.09
freq.     655.34  E(vib)   ...       0.08
freq.     705.98  E(vib)   ...       0.07
freq.     712.09  E(vib)   ...       0.07
freq.     755.07  E(vib)   ...       0.06
freq.     832.30  E(vib)   ...       0.04
freq.     850.99  E(vib)   ...       0.04
freq.     865.84  E(vib)   ...       0.04
freq.     975.46  E(vib)   ...       0.03
freq.     992.69  E(vib)   ...       0.02
freq.    1027.89  E(vib)   ...       0.02
freq.    1124.18  E(vib)   ...       0.01
freq.    1128.69  E(vib)   ...       0.01
freq.    1184.78  E(vib)   ...       0.01
freq.    1190.51  E(vib)   ...       0.01
freq.    1217.19  E(vib)   ...       0.01
freq.    1250.96  E(vib)   ...       0.01
freq.    1319.93  E(vib)   ...       0.01
freq.    1345.66  E(vib)   ...       0.01
freq.    1385.83  E(vib)   ...       0.00
freq.    1476.28  E(vib)   ...       0.00
freq.    1482.13  E(vib)   ...       0.00
freq.    1482.71  E(vib)   ...       0.00
freq.    1497.89  E(vib)   ...       0.00
freq.    1574.81  E(vib)   ...       0.00
freq.    1646.78  E(vib)   ...       0.00
freq.    1706.97  E(vib)   ...       0.00
freq.    2233.30  E(vib)   ...       0.00
freq.    3013.35  E(vib)   ...       0.00
freq.    3093.84  E(vib)   ...       0.00
freq.    3167.07  E(vib)   ...       0.00
freq.    3214.03  E(vib)   ...       0.00
freq.    3215.83  E(vib)   ...       0.00
freq.    3230.33  E(vib)   ...       0.00
freq.    3235.65  E(vib)   ...       0.00
freq.    3481.00  E(vib)   ...       0.00

------------
INNER ENERGY
------------

The inner energy is: U= E(el) + E(ZPE) + E(vib) + E(rot) + E(trans)
    E(el)   - is the total energy from the electronic structure calculation
              = E(kin-el) + E(nuc-el) + E(el-el) + E(nuc-nuc)
    E(ZPE)  - the the zero temperature vibrational energy from the frequency calculation
    E(vib)  - the the finite temperature correction to E(ZPE) due to population
              of excited vibrational states
    E(rot)  - is the rotational thermal energy
    E(trans)- is the translational thermal energy

Summary of contributions to the inner energy U:
Electronic energy                ...   -422.11153302 Eh
Zero point energy                ...      0.14344675 Eh      90.01 kcal/mol
Thermal vibrational correction   ...      0.00601889 Eh       3.78 kcal/mol
Thermal rotational correction    ...      0.00141627 Eh       0.89 kcal/mol
Thermal translational correction ...      0.00141627 Eh       0.89 kcal/mol
-----------------------------------------------------------------------
Total thermal energy                   -421.95923484 Eh

Summary of corrections to the electronic energy:
(perhaps to be used in another calculation)
Total thermal correction                  0.00885143 Eh       5.55 kcal/mol
Non-thermal (ZPE) correction              0.14344675 Eh      90.01 kcal/mol
-----------------------------------------------------------------------
Total correction                          0.15229818 Eh      95.57 kcal/mol

--------
ENTHALPY
--------

The enthalpy is H = U + kB*T
                kB is Boltzmann's constant
Total thermal energy              ...   -421.95923484 Eh
Thermal Enthalpy correction       ...      0.00094421 Eh       0.59 kcal/mol
-----------------------------------------------------------------------
Total Enthalpy                    ...   -421.95829063 Eh

Note: Only C1 symmetry has been detected, increase convergence thresholds
      if your molecule has a higher symmetry. Symmetry factor of 1.0 is
      used for the rotational entropy correction.

Note: Rotational entropy computed according to Herzberg
Infrared and Raman Spectra, Chapter V,1, Van Nostrand Reinhold, 1945
Point Group:  C1, Symmetry Number:   1
Rotational constants in cm-1:     0.162149     0.023538     0.020637

Vibrational entropy computed according to the QRRHO of S. Grimme
Chem.Eur.J. 2012 18 9955 using a reference frequency of 100.0 cm-1

-------
ENTROPY
-------

The entropy contributions are T*S = T*(S(el)+S(vib)+S(rot)+S(trans))
     S(el)   - electronic entropy
     S(vib)  - vibrational entropy
     S(rot)  - rotational entropy
     S(trans)- translational entropy
The entropies will be listed as multiplied by the temperature to get
units of energy

Electronic entropy                ...      0.00000000 Eh      0.00 kcal/mol
Vibrational entropy               ...      0.00997842 Eh      6.26 kcal/mol
Rotational entropy                ...      0.01397160 Eh      8.77 kcal/mol
Translational entropy             ...      0.01926618 Eh     12.09 kcal/mol
-----------------------------------------------------------------------
Final entropy term                ...      0.04321620 Eh     27.12 kcal/mol

In case the symmetry of your molecule has not been determined correctly
or in case you have a reason to use a different symmetry number we print
out the resulting rotational entropy values for sn=1,12:

 non-linear molecules -----------------------------------
|  sn= 1 | S(rot)=       0.01397160 Eh      8.77 kcal/mol|
|  sn= 2 | S(rot)=       0.01331715 Eh      8.36 kcal/mol|
|  sn= 3 | S(rot)=       0.01293431 Eh      8.12 kcal/mol|
|  sn= 4 | S(rot)=       0.01266269 Eh      7.95 kcal/mol|
|  sn= 5 | S(rot)=       0.01245200 Eh      7.81 kcal/mol|
|  sn= 6 | S(rot)=       0.01227986 Eh      7.71 kcal/mol|
|  sn= 7 | S(rot)=       0.01213431 Eh      7.61 kcal/mol|
|  sn= 8 | S(rot)=       0.01200823 Eh      7.54 kcal/mol|
|  sn= 9 | S(rot)=       0.01189703 Eh      7.47 kcal/mol|
|  sn=10 | S(rot)=       0.01179755 Eh      7.40 kcal/mol|
|  sn=11 | S(rot)=       0.01170756 Eh      7.35 kcal/mol|
|  sn=12 | S(rot)=       0.01162540 Eh      7.30 kcal/mol|

                             ****ORCA TERMINATED NORMALLY****
TOTAL RUN TIME: 0 days 0 hours 8 minutes 19 seconds 437 msec
