                         Program Version 6.0.0  -   RELEASE  -
|  1> !TPSSh aug-cc-pVTZ d3 TightSCF SlowConv RIJCOSX defgrid2
|  2>
|  3> %pal
|  4> nprocs 4
|  5> end
|  6>
|  7> %scf
|  8> MaxIter 1500
|  9> end
| 10>
| 11> %maxcore 3000
| 12>
| 13> !CPCM
| 14> %cpcm smd true
| 15> SMDsolvent "MeCN"
| 16> surfacetype gepol_ses
| 17> rsolv 2.19
| 18> end
| 19>
| 20> * xyz 0 1
| 21> C           0.49470507986689     -1.28935631990851      0.00010874258042
| 22> C           1.40908641826733     -0.22147183581534      0.00012909194558
| 23> C           0.87652773876151      1.07792685723328      0.00000492945569
| 24> C          -0.49469394553322      1.28942538906843     -0.00011206028261
| 25> C          -1.40907528767924      0.22153956382169     -0.00008845068658
| 26> C          -0.87651553070888     -1.07785825260461     -0.00000990536767
| 27> H          -1.54545333719204     -1.94291362486448     -0.00009686185205
| 28> C          -2.84456825365451      0.51115677736565     -0.00016134460175
| 29> C          -3.85777664336290     -0.37016514253978      0.00069395658741
| 30> C          -5.30325422186199     -0.00132827117349      0.00054902064982
| 31> H          -5.82268564165386     -0.41483693779544     -0.88475753685959
| 32> H          -5.44363484922644      1.09278775657122     -0.00048184652449
| 33> H          -5.82242918676140     -0.41313393815800      0.88680059997485
| 34> H          -3.63558487599837     -1.44572430894995      0.00161496983067
| 35> H          -3.09792946711740      1.58024959925667     -0.00095926539794
| 36> H          -0.87860533471525      2.31485410603895     -0.00020323655719
| 37> H           1.54546492447861      1.94298328215137     -0.00000160713393
| 38> C           2.84457766493005     -0.51109546895278      0.00024640262469
| 39> C           3.85779145901576      0.37021961014473      0.00027505555542
| 40> C           5.30326751721893      0.00137504492038      0.00037195486634
| 41> H           5.82255778844256      0.41418506123902      0.88608667850665
| 42> H           5.82258564966444      0.41388438927124     -0.88546931241510
| 43> H           5.44364800850219     -1.09274127411065      0.00055173822611
| 44> H           3.63560517323574      1.44578042657169      0.00020897424361
| 45> H           3.09793184852103     -1.58018954757629      0.00031964622318
| 46> H           0.87861580456047     -2.31478514120501      0.00015816640849
| 47> *
| 48>
| 49>                          ****END OF INPUT****

CARTESIAN COORDINATES (ANGSTROEM)
---------------------------------
  C      0.494705   -1.289356    0.000109
  C      1.409086   -0.221472    0.000129
  C      0.876528    1.077927    0.000005
  C     -0.494694    1.289425   -0.000112
  C     -1.409075    0.221540   -0.000088
  C     -0.876516   -1.077858   -0.000010
  H     -1.545453   -1.942914   -0.000097
  C     -2.844568    0.511157   -0.000161
  C     -3.857777   -0.370165    0.000694
  C     -5.303254   -0.001328    0.000549
  H     -5.822686   -0.414837   -0.884758
  H     -5.443635    1.092788   -0.000482
  H     -5.822429   -0.413134    0.886801
  H     -3.635585   -1.445724    0.001615
  H     -3.097929    1.580250   -0.000959
  H     -0.878605    2.314854   -0.000203
  H      1.545465    1.942983   -0.000002
  C      2.844578   -0.511095    0.000246
  C      3.857791    0.370220    0.000275
  C      5.303268    0.001375    0.000372
  H      5.822558    0.414185    0.886087
  H      5.822586    0.413884   -0.885469
  H      5.443648   -1.092741    0.000552
  H      3.635605    1.445780    0.000209
  H      3.097932   -1.580190    0.000320
  H      0.878616   -2.314785    0.000158

 Total Charge           Charge          ....    0
 Multiplicity           Mult            ....    1
 Number of Electrons    NEL             ....   86
 Basis Dimension        Dim             ....  874

ORBITAL ENERGIES
----------------

  NO   OCC          E(Eh)            E(eV)
   0   2.0000     -10.125186      -275.5203
   1   2.0000     -10.125171      -275.5199
   2   2.0000     -10.115981      -275.2698
   3   2.0000     -10.115978      -275.2697
   4   2.0000     -10.115804      -275.2650
   5   2.0000     -10.115782      -275.2644
   6   2.0000     -10.115167      -275.2477
   7   2.0000     -10.115154      -275.2473
   8   2.0000     -10.111757      -275.1549
   9   2.0000     -10.111754      -275.1548
  10   2.0000     -10.106967      -275.0246
  11   2.0000     -10.106966      -275.0245
  12   2.0000      -0.843083       -22.9414
  13   2.0000      -0.790821       -21.5193
  14   2.0000      -0.765844       -20.8397
  15   2.0000      -0.731071       -19.8934
  16   2.0000      -0.724941       -19.7267
  17   2.0000      -0.677209       -18.4278
  18   2.0000      -0.640368       -17.4253
  19   2.0000      -0.598796       -16.2941
  20   2.0000      -0.573534       -15.6066
  21   2.0000      -0.537961       -14.6386
  22   2.0000      -0.523390       -14.2422
  23   2.0000      -0.487637       -13.2693
  24   2.0000      -0.453839       -12.3496
  25   2.0000      -0.442918       -12.0524
  26   2.0000      -0.421210       -11.4617
  27   2.0000      -0.398555       -10.8452
  28   2.0000      -0.397111       -10.8060
  29   2.0000      -0.391494       -10.6531
  30   2.0000      -0.390217       -10.6184
  31   2.0000      -0.385539       -10.4911
  32   2.0000      -0.375307       -10.2126
  33   2.0000      -0.367809       -10.0086
  34   2.0000      -0.351427        -9.5628
  35   2.0000      -0.340887        -9.2760
  36   2.0000      -0.326231        -8.8772
  37   2.0000      -0.321906        -8.7595
  38   2.0000      -0.310789        -8.4570
  39   2.0000      -0.305408        -8.3106
  40   2.0000      -0.248695        -6.7673
  41   2.0000      -0.247612        -6.7379
  42   2.0000      -0.197074        -5.3626
  43   0.0000      -0.063158        -1.7186
  44   0.0000      -0.023563        -0.6412
  45   0.0000      -0.002239        -0.0609
  46   0.0000      -0.000450        -0.0122
  47   0.0000       0.003799         0.1034

MULLIKEN ATOMIC CHARGES
-----------------------
   0 C :   -0.921234
   1 C :    1.533941
   2 C :   -0.515797
   3 C :   -0.921635
   4 C :    1.540906
   5 C :   -0.517865
   6 H :   -0.093419
   7 C :    0.290420
   8 C :   -0.385574
   9 C :   -0.417609
  10 H :    0.121771
  11 H :    0.132198
  12 H :    0.120903
  13 H :    0.135982
  14 H :    0.013070
  15 H :   -0.018747
  16 H :   -0.094340
  17 C :    0.285244
  18 C :   -0.382165
  19 C :   -0.414692
  20 H :    0.120044
  21 H :    0.119536
  22 H :    0.131357
  23 H :    0.141472
  24 H :    0.015984
  25 H :   -0.019751
Sum of atomic charges:    0.0000000

LOEWDIN ATOMIC CHARGES
----------------------
   0 C :    0.207918
   1 C :   -0.148419
   2 C :    0.211567
   3 C :    0.207917
   4 C :   -0.148412
   5 C :    0.211566
   6 H :   -0.179726
   7 C :    0.198875
   8 C :    0.199462
   9 C :    0.548169
  10 H :   -0.164560
  11 H :   -0.174150
  12 H :   -0.164527
  13 H :   -0.183724
  14 H :   -0.184380
  15 H :   -0.166506
  16 H :   -0.179724
  17 C :    0.198865
  18 C :    0.199461
  19 C :    0.548174
  20 H :   -0.164562
  21 H :   -0.164527
  22 H :   -0.174151
  23 H :   -0.183722
  24 H :   -0.184377
  25 H :   -0.166506

  Mayer bond orders larger than 0.100000
B(  0-C ,  1-C ) :   0.2730 B(  0-C ,  2-C ) :  -0.5059 B(  0-C ,  3-C ) :   0.4169
B(  0-C ,  4-C ) :  -0.1757 B(  0-C ,  5-C ) :   1.3054 B(  0-C , 15-H ) :   0.1430
B(  0-C , 16-H ) :  -0.1051 B(  0-C , 25-H ) :   1.3099 B(  1-C ,  2-C ) :   0.6212
B(  1-C ,  3-C ) :  -0.1764 B(  1-C ,  4-C ) :  -0.2755 B(  1-C ,  7-C ) :   0.2879
B(  1-C , 17-C ) :   0.3744 B(  1-C , 18-C ) :  -0.2184 B(  1-C , 23-H ) :  -0.1152
B(  2-C ,  3-C ) :   1.3042 B(  2-C ,  5-C ) :  -0.3100 B(  2-C ,  6-H ) :  -0.1134
B(  2-C ,  7-C ) :  -0.1134 B(  2-C , 15-H ) :  -0.1879 B(  2-C , 16-H ) :   1.3993
B(  2-C , 17-C ) :   0.1794 B(  2-C , 18-C ) :   0.1839 B(  2-C , 25-H ) :   0.1152
B(  3-C ,  4-C ) :   0.2770 B(  3-C ,  5-C ) :  -0.5029 B(  3-C ,  6-H ) :  -0.1049
B(  3-C , 15-H ) :   1.3139 B(  3-C , 25-H ) :   0.1449 B(  4-C ,  5-C ) :   0.6172
B(  4-C ,  7-C ) :   0.3654 B(  4-C ,  8-C ) :  -0.2193 B(  4-C , 13-H ) :  -0.1189
B(  4-C , 17-C ) :   0.2847 B(  5-C ,  6-H ) :   1.3979 B(  5-C ,  7-C ) :   0.1803
B(  5-C ,  8-C ) :   0.1833 B(  5-C , 15-H ) :   0.1174 B(  5-C , 16-H ) :  -0.1145
B(  5-C , 17-C ) :  -0.1095 B(  5-C , 25-H ) :  -0.1879 B(  7-C ,  8-C ) :   0.9710
B(  7-C , 14-H ) :   1.0718 B(  8-C ,  9-C ) :   1.0639 B(  8-C , 11-H ) :   0.1075
B(  8-C , 13-H ) :   1.1302 B(  9-C , 10-H ) :   0.9821 B(  9-C , 11-H ) :   0.9322
B(  9-C , 12-H ) :   0.9835 B( 17-C , 18-C ) :   0.9700 B( 17-C , 24-H ) :   1.0705
B( 18-C , 19-C ) :   1.0707 B( 18-C , 22-H ) :   0.1112 B( 18-C , 23-H ) :   1.1192
B( 19-C , 20-H ) :   0.9859 B( 19-C , 21-H ) :   0.9838 B( 19-C , 22-H ) :   0.9296

Dispersion correction           -0.030876561
FINAL SINGLE POINT ENERGY      -465.925148632617

DIPOLE MOMENT
-------------

Method             : SCF
Type of density    : Electron Density
Multiplicity       :   1
Irrep              :   0
Energy             :  -465.8942720714184702 Eh
Relativity type    :
Basis              : AO
                                X                 Y                 Z
Electronic contribution:     -0.000038792       0.000038286      -0.001129190
Nuclear contribution   :      0.000002145      -0.000025147       0.001221223
                        -----------------------------------------
Total Dipole Moment    :     -0.000036647       0.000013139       0.000092033
                        -----------------------------------------
Magnitude (a.u.)       :      0.000099928
Magnitude (Debye)      :      0.000253997

Rotational constants in cm-1:             0.149823             0.010865             0.010169
Rotational constants in MHz :          4491.593991           325.738832           304.872217

                             ****ORCA TERMINATED NORMALLY****
TOTAL RUN TIME: 0 days 0 hours 10 minutes 54 seconds 973 msec
