                         Program Version 6.0.0  -   RELEASE  -
|  1> !B3LYP aug-cc-pVTZ d3 TightSCF SlowConv RIJCOSX defgrid2
|  2>
|  3> %pal
|  4> nprocs 4
|  5> end
|  6>
|  7> %scf
|  8> MaxIter 1500
|  9> end
| 10>
| 11> %maxcore 3000
| 12>
| 13> !CPCM
| 14> %cpcm smd true
| 15> SMDsolvent "MeCN"
| 16> surfacetype gepol_ses
| 17> rsolv 2.19
| 18> end
| 19>
| 20> * xyz 0 1
| 21> C          -0.04647165541644      1.20175007347372     -0.00553050489943
| 22> C          -1.43870555706960      1.21239589451355     -0.01141185238374
| 23> C          -2.17026954226625      0.01947100552438     -0.01038224809804
| 24> C          -1.46074461278387     -1.19072092102756     -0.00906771027749
| 25> C          -0.07326224349215     -1.20622095149758     -0.00304890212203
| 26> C           0.65481182780619     -0.00920634999724     -0.00042230964481
| 27> C           2.14757419996696     -0.09199024361869      0.00402287730635
| 28> O           2.70671249810890     -1.16711072436472      0.00700907779024
| 29> C           2.93897617802630      1.19587993441016      0.00548036505340
| 30> H           4.01096899238357      0.95048347070739      0.01057835934714
| 31> H           2.69949954286715      1.80719828499160      0.89313893013017
| 32> H           2.70739245523851      1.80422714815017     -0.88630361962564
| 33> H           0.48538632677828     -2.14590904376286     -0.00336087408771
| 34> H          -2.01268479893227     -2.13645944857989     -0.01530874702934
| 35> C          -3.67109078228289      0.02991456776547      0.01617054647882
| 36> H          -4.04511368194266     -0.09506499069857      1.04953886808692
| 37> H          -4.07732921380228      0.97936405308667     -0.36930347193269
| 38> H          -4.09069162992769     -0.79514284196197     -0.58364116879760
| 39> H          -1.97059871816062      2.16919815395977     -0.01931477093783
| 40> H           0.49134391490087      2.15362812892619     -0.00824554435670
| 41> *
| 42>
| 43>                          ****END OF INPUT****

CARTESIAN COORDINATES (ANGSTROEM)
---------------------------------
  C     -0.046472    1.201750   -0.005531
  C     -1.438706    1.212396   -0.011412
  C     -2.170270    0.019471   -0.010382
  C     -1.460745   -1.190721   -0.009068
  C     -0.073262   -1.206221   -0.003049
  C      0.654812   -0.009206   -0.000422
  C      2.147574   -0.091990    0.004023
  O      2.706712   -1.167111    0.007009
  C      2.938976    1.195880    0.005480
  H      4.010969    0.950483    0.010578
  H      2.699500    1.807198    0.893139
  H      2.707392    1.804227   -0.886304
  H      0.485386   -2.145909   -0.003361
  H     -2.012685   -2.136459   -0.015309
  C     -3.671091    0.029915    0.016171
  H     -4.045114   -0.095065    1.049539
  H     -4.077329    0.979364   -0.369303
  H     -4.090692   -0.795143   -0.583641
  H     -1.970599    2.169198   -0.019315
  H      0.491344    2.153628   -0.008246

 Total Charge           Charge          ....    0
 Multiplicity           Mult            ....    1
 Number of Electrons    NEL             ....   72
 Basis Dimension        Dim             ....  690

ORBITAL ENERGIES
----------------

  NO   OCC          E(Eh)            E(eV)
   0   2.0000     -19.114717      -520.1379
   1   2.0000     -10.261198      -279.2214
   2   2.0000     -10.192604      -277.3549
   3   2.0000     -10.183845      -277.1165
   4   2.0000     -10.182233      -277.0726
   5   2.0000     -10.179765      -277.0055
   6   2.0000     -10.176079      -276.9052
   7   2.0000     -10.175848      -276.8989
   8   2.0000     -10.165492      -276.6171
   9   2.0000     -10.165136      -276.6074
  10   2.0000      -1.045515       -28.4499
  11   2.0000      -0.863839       -23.5062
  12   2.0000      -0.785080       -21.3631
  13   2.0000      -0.750077       -20.4106
  14   2.0000      -0.732171       -19.9234
  15   2.0000      -0.686563       -18.6823
  16   2.0000      -0.608221       -16.5505
  17   2.0000      -0.601260       -16.3611
  18   2.0000      -0.547797       -14.9063
  19   2.0000      -0.494693       -13.4613
  20   2.0000      -0.472419       -12.8552
  21   2.0000      -0.449137       -12.2216
  22   2.0000      -0.438996       -11.9457
  23   2.0000      -0.434976       -11.8363
  24   2.0000      -0.424143       -11.5415
  25   2.0000      -0.418359       -11.3841
  26   2.0000      -0.415454       -11.3051
  27   2.0000      -0.381919       -10.3926
  28   2.0000      -0.375293       -10.2122
  29   2.0000      -0.370311       -10.0767
  30   2.0000      -0.353032        -9.6065
  31   2.0000      -0.349276        -9.5043
  32   2.0000      -0.336975        -9.1696
  33   2.0000      -0.260937        -7.1004
  34   2.0000      -0.255881        -6.9629
  35   2.0000      -0.251248        -6.8368
  36   0.0000      -0.058843        -1.6012
  37   0.0000      -0.017630        -0.4797
  38   0.0000      -0.003990        -0.1086
  39   0.0000       0.006330         0.1723
  40   0.0000       0.014034         0.3819

MULLIKEN ATOMIC CHARGES
-----------------------
   0 C :   -0.472130
   1 C :   -1.048545
   2 C :    1.488878
   3 C :   -0.977070
   4 C :   -1.216614
   5 C :    1.653008
   6 C :    0.744676
   7 O :   -0.939834
   8 C :   -0.587012
   9 H :    0.170054
  10 H :    0.252701
  11 H :    0.253277
  12 H :    0.114492
  13 H :    0.298944
  14 C :   -0.782501
  15 H :    0.251483
  16 H :    0.208792
  17 H :    0.217212
  18 H :    0.229628
  19 H :    0.140561
Sum of atomic charges:    0.0000000

LOEWDIN ATOMIC CHARGES
----------------------
   0 C :    0.205936
   1 C :    0.224558
   2 C :   -0.131265
   3 C :    0.220242
   4 C :    0.191246
   5 C :   -0.138327
   6 C :   -0.554401
   7 O :    0.482412
   8 C :    0.559078
   9 H :   -0.176642
  10 H :   -0.156061
  11 H :   -0.156004
  12 H :   -0.184842
  13 H :   -0.158511
  14 C :    0.572082
  15 H :   -0.146522
  16 H :   -0.162706
  17 H :   -0.158646
  18 H :   -0.159637
  19 H :   -0.171991

  Mayer bond orders larger than 0.100000
B(  0-C ,  1-C ) :   1.1101 B(  0-C ,  3-C ) :  -0.1050 B(  0-C ,  4-C ) :  -0.4411
B(  0-C ,  5-C ) :   0.3393 B(  0-C ,  6-C ) :   0.1325 B(  0-C , 19-H ) :   1.2142
B(  1-C ,  2-C ) :   0.6224 B(  1-C ,  4-C ) :   0.1560 B(  1-C , 18-H ) :   1.0212
B(  2-C ,  3-C ) :   0.6966 B(  2-C , 12-H ) :  -0.1036 B(  2-C , 14-C ) :   0.3087
B(  3-C ,  4-C ) :   1.4532 B(  3-C ,  5-C ) :  -0.1062 B(  3-C , 13-H ) :   0.9011
B(  3-C , 14-C ) :   0.1556 B(  4-C ,  6-C ) :   0.2528 B(  4-C , 12-H ) :   1.1708
B(  5-C ,  6-C ) :   0.3275 B(  5-C ,  7-O ) :   0.2513 B(  5-C , 19-H ) :  -0.1362
B(  6-C ,  7-O ) :   0.7379 B(  6-C ,  8-C ) :   0.9301 B(  7-O , 12-H ) :   0.1687
B(  8-C ,  9-H ) :   0.9621 B(  8-C , 10-H ) :   0.9577 B(  8-C , 11-H ) :   0.9577
B( 14-C , 15-H ) :   0.9786 B( 14-C , 16-H ) :   1.0001 B( 14-C , 17-H ) :   0.9960

Dispersion correction           -0.035196496
FINAL SINGLE POINT ENERGY      -424.155046463524

DIPOLE MOMENT
-------------

Method             : SCF
Type of density    : Electron Density
Multiplicity       :   1
Irrep              :   0
Energy             :  -424.1198499672156004 Eh
Relativity type    :
Basis              : AO
                                X                 Y                 Z
Electronic contribution:      4.029817220      -3.041224957      -0.040379792
Nuclear contribution   :     -5.402543283       4.383900218       0.062989255
                        -----------------------------------------
Total Dipole Moment    :     -1.372726063       1.342675261       0.022609463
                        -----------------------------------------
Magnitude (a.u.)       :      1.920329370
Magnitude (Debye)      :      4.881089352

Rotational constants in cm-1:             0.120803             0.026206             0.021712
Rotational constants in MHz :          3621.570490           785.633269           650.900953

                             ****ORCA TERMINATED NORMALLY****
TOTAL RUN TIME: 0 days 0 hours 6 minutes 27 seconds 817 msec
