                         Program Version 6.0.0  -   RELEASE  -
|  1> !PBE0 opt aug-cc-pVTZ d3 TightSCF SlowConv RIJCOSX defgrid2
|  2>
|  3> %pal
|  4> nprocs 8
|  5> end
|  6>
|  7> %scf
|  8> MaxIter 1500
|  9> end
| 10>
| 11> %maxcore 3500
| 12>
| 13> !CPCM
| 14> %cpcm smd true
| 15> SMDsolvent "MeCN"
| 16> surfacetype gepol_ses
| 17> rsolv 2.19
| 18> end
| 19>
| 20> * xyz 0 1
| 21> C          -0.72498712360752     -1.03199143591489     -0.00035587408950
| 22> C          -1.31725281953672      0.23700082940336     -0.00009216740947
| 23> C          -0.49927603036286      1.37741269983118     -0.00017815340748
| 24> C           0.87877130461947      1.25225114649976     -0.00046421372633
| 25> C           1.48912617012247     -0.01748708715836     -0.00062594889474
| 26> C           0.66252427774642     -1.14934366375667     -0.00064528665934
| 27> H           1.11889620163877     -2.14249327366435     -0.00083021648088
| 28> C           2.91104462440564     -0.14733894022628     -0.00063151415770
| 29> C           4.11990582812650     -0.25742637188868      0.00161358861277
| 30> H           5.19058139416864     -0.35415649223885      0.00097524906911
| 31> H           1.50779855780145      2.14601626186340     -0.00050473395896
| 32> H          -0.98017045333696      2.35860761783862      0.00000793066196
| 33> O          -2.64430351331883      0.45808400164866      0.00024605971359
| 34> C          -3.51534558275692     -0.63765175952228      0.00045178300619
| 35> H          -4.53490407246321     -0.22445155867607      0.00076695107216
| 36> H          -3.38161982455796     -1.26589006640153     -0.90098962915142
| 37> H          -3.38109122143507     -1.26596319208985      0.90176498266982
| 38> H          -1.33393961725331     -1.93771991554716     -0.00032660686979
| 39> *
| 40>
| 41>                          ****END OF INPUT****
 Total Charge           Charge          ....    0
 Multiplicity           Mult            ....    1
 Number of Electrons    NEL             ....   70
Dispersion correction           -0.015950126
FINAL SINGLE POINT ENERGY      -422.591748058756
Dispersion correction             ... done (  0.1 sec)
Dispersion correction           -0.016022658
FINAL SINGLE POINT ENERGY      -422.592953536856
Dispersion correction             ... done (  0.1 sec)
Dispersion correction           -0.016031540
FINAL SINGLE POINT ENERGY      -422.593007500018
Dispersion correction             ... done (  0.1 sec)
Dispersion correction           -0.016032444
FINAL SINGLE POINT ENERGY      -422.593025453213
Dispersion correction             ... done (  0.1 sec)
Dispersion correction           -0.016030746
FINAL SINGLE POINT ENERGY      -422.593029056371
Dispersion correction             ... done (  0.1 sec)
                    ***********************HURRAY********************

CARTESIAN COORDINATES (ANGSTROEM)
---------------------------------
  C     -0.728441   -1.019886    0.000723
  C     -1.309094    0.246832    0.000631
  C     -0.493653    1.380989    0.000183
  C      0.877116    1.250884   -0.000158
  C      1.474854   -0.016657    0.000008
  C      0.650982   -1.142216    0.000474
  H      1.095550   -2.129578    0.000127
  C      2.890859   -0.151229   -0.000764
  C      4.090062   -0.263982    0.000483
  H      5.152457   -0.362996   -0.000863
  H      1.500889    2.135812   -0.000756
  H     -0.955872    2.360306    0.000327
  O     -2.635730    0.470193    0.000953
  C     -3.497427   -0.655466   -0.000349
  H     -4.510304   -0.258986   -0.000681
  H     -3.348417   -1.266653   -0.894116
  H     -3.349703   -1.268058    0.892683
  H     -1.338371   -1.911849    0.001278

 Multiplicity           Mult            ....    1
 Number of Electrons    NEL             ....   70
 Basis Dimension        Dim             ....  644

ORBITAL ENERGIES
----------------

  NO   OCC          E(Eh)            E(eV)
   0   2.0000     -19.249304      -523.8002
   1   2.0000     -10.296703      -280.1875
   2   2.0000     -10.264937      -279.3231
   3   2.0000     -10.253392      -279.0090
   4   2.0000     -10.240403      -278.6555
   5   2.0000     -10.239666      -278.6355
   6   2.0000     -10.237504      -278.5766
   7   2.0000     -10.231104      -278.4025
   8   2.0000     -10.229987      -278.3721
   9   2.0000     -10.224180      -278.2141
  10   2.0000      -1.108734       -30.1702
  11   2.0000      -0.898034       -24.4367
  12   2.0000      -0.815513       -22.1912
  13   2.0000      -0.784690       -21.3525
  14   2.0000      -0.763501       -20.7759
  15   2.0000      -0.720558       -19.6074
  16   2.0000      -0.643541       -17.5116
  17   2.0000      -0.628459       -17.1012
  18   2.0000      -0.570738       -15.5306
  19   2.0000      -0.546815       -14.8796
  20   2.0000      -0.513604       -13.9759
  21   2.0000      -0.510308       -13.8862
  22   2.0000      -0.487027       -13.2527
  23   2.0000      -0.462941       -12.5973
  24   2.0000      -0.442918       -12.0524
  25   2.0000      -0.430864       -11.7244
  26   2.0000      -0.409867       -11.1530
  27   2.0000      -0.406842       -11.0707
  28   2.0000      -0.379276       -10.3206
  29   2.0000      -0.363032        -9.8786
  30   2.0000      -0.344219        -9.3667
  31   2.0000      -0.309432        -8.4201
  32   2.0000      -0.300751        -8.1838
  33   2.0000      -0.279299        -7.6001
  34   2.0000      -0.233076        -6.3423
  35   0.0000      -0.029381        -0.7995
  36   0.0000      -0.016171        -0.4400
  37   0.0000       0.001441         0.0392
  38   0.0000       0.011945         0.3250
  39   0.0000       0.016964         0.4616

MULLIKEN ATOMIC CHARGES
-----------------------
   0 C :   -0.376908
   1 C :    1.188457
   2 C :   -0.873284
   3 C :   -1.159423
   4 C :    1.390923
   5 C :   -1.356434
   6 H :   -0.163132
   7 C :    1.183394
   8 C :   -0.894710
   9 H :    0.326423
  10 H :   -0.115312
  11 H :    0.665687
  12 O :   -0.656583
  13 C :   -0.739285
  14 H :    0.258920
  15 H :    0.316612
  16 H :    0.316541
  17 H :    0.688114
Sum of atomic charges:   -0.0000000

LOEWDIN ATOMIC CHARGES
----------------------
   0 C :    0.213890
   1 C :   -0.405218
   2 C :    0.208848
   3 C :    0.187419
   4 C :   -0.238676
   5 C :    0.193928
   6 H :   -0.162418
   7 C :   -0.029628
   8 C :    0.395968
   9 H :   -0.288598
  10 H :   -0.163893
  11 H :   -0.170410
  12 O :    0.605985
  13 C :    0.349729
  14 H :   -0.173384
  15 H :   -0.165890
  16 H :   -0.165848
  17 H :   -0.191803

  Mayer bond orders larger than 0.100000
B(  0-C ,  1-C ) :   1.0751 B(  0-C ,  2-C ) :   0.1965 B(  0-C ,  3-C ) :   0.1004
B(  0-C ,  4-C ) :   0.6055 B(  0-C ,  5-C ) :   1.1428 B(  0-C ,  6-H ) :  -0.1521
B(  0-C ,  7-C ) :  -0.2214 B(  0-C ,  8-C ) :  -0.1389 B(  0-C , 11-H ) :  -0.1008
B(  1-C ,  2-C ) :   0.8072 B(  1-C ,  3-C ) :  -0.5601 B(  1-C ,  4-C ) :  -0.1034
B(  1-C ,  5-C ) :  -0.4954 B(  1-C ,  7-C ) :   0.2563 B(  1-C , 10-H ) :  -0.1134
B(  1-C , 11-H ) :   0.1982 B(  1-C , 12-O ) :   0.3548 B(  1-C , 17-H ) :   0.2047
B(  2-C ,  3-C ) :   1.4627 B(  2-C ,  4-C ) :   0.4526 B(  2-C ,  7-C ) :  -0.1121
B(  2-C , 11-H ) :   0.1047 B(  2-C , 12-O ) :   0.3004 B(  3-C ,  4-C ) :   0.3132
B(  3-C ,  5-C ) :  -0.5445 B(  3-C ,  6-H ) :   0.2040 B(  3-C ,  7-C ) :   0.4302
B(  3-C , 10-H ) :   1.8613 B(  4-C ,  5-C ) :   0.3628 B(  4-C ,  6-H ) :  -0.1029
B(  4-C ,  8-C ) :   0.7625 B(  4-C , 12-O ) :   0.1177 B(  5-C ,  6-H ) :   2.0517
B(  5-C ,  7-C ) :   0.3279 B(  5-C ,  8-C ) :  -0.1634 B(  5-C , 10-H ) :   0.2019
B(  6-H ,  7-C ) :  -0.2641 B(  6-H ,  8-C ) :  -0.3641 B(  6-H , 10-H ) :   0.5216
B(  6-H , 17-H ) :  -0.1078 B(  7-C ,  8-C ) :   1.7798 B(  7-C ,  9-H ) :  -0.2622
B(  7-C , 10-H ) :  -0.3148 B(  8-C ,  9-H ) :   1.1942 B(  8-C , 10-H ) :  -0.3742
B(  8-C , 11-H ) :   0.1157 B(  8-C , 17-H ) :   0.1916 B( 12-O , 13-C ) :   1.0147
B( 13-C , 14-H ) :   0.9749 B( 13-C , 15-H ) :   0.8749 B( 13-C , 16-H ) :   0.8748

Dispersion correction           -0.016030173
FINAL SINGLE POINT ENERGY      -422.593029665045

DIPOLE MOMENT
-------------

Method             : SCF
Type of density    : Electron Density
Multiplicity       :   1
Irrep              :   0
Energy             :  -422.5769994920150907 Eh
Relativity type    :
Basis              : AO
                                X                 Y                 Z
Electronic contribution:      4.374370888       1.948103274       0.002432991
Nuclear contribution   :     -5.410731279      -2.547696593      -0.003457088
                        -----------------------------------------
Total Dipole Moment    :     -1.036360391      -0.599593319      -0.001024097
                        -----------------------------------------
Magnitude (a.u.)       :      1.197312014
Magnitude (Debye)      :      3.043325281

Rotational constants in cm-1:             0.162212             0.023830             0.020861
Rotational constants in MHz :          4862.981040           714.415913           625.386165

                             ****ORCA TERMINATED NORMALLY****
TOTAL RUN TIME: 0 days 0 hours 22 minutes 42 seconds 521 msec
