                         Program Version 6.0.0  -   RELEASE  -
|  1> !TPSSh aug-cc-pVTZ d3 TightSCF SlowConv RIJCOSX defgrid2
|  2>
|  3> %pal
|  4> nprocs 4
|  5> end
|  6>
|  7> %scf
|  8> MaxIter 1500
|  9> end
| 10>
| 11> %maxcore 3000
| 12>
| 13> !CPCM
| 14> %cpcm smd true
| 15> SMDsolvent "MeCN"
| 16> surfacetype gepol_ses
| 17> rsolv 2.19
| 18> end
| 19>
| 20> * xyz 0 1
| 21> C          -0.32048925823531     -1.08595168044653      0.00000936001316
| 22> C           0.99134202132746     -0.71584755612509      0.00000868106802
| 23> C           0.99130010917711      0.71590356660469     -0.00000127622817
| 24> C          -0.32055285170877      1.08593010296315      0.00001410652456
| 25> O          -1.11730139846665     -0.00003401203653      0.00002911176710
| 26> H          -0.82672168713073      2.04926041846335      0.00001957189355
| 27> H           1.85496968086204      1.37963412608217     -0.00001317553983
| 28> H           1.85505107384009     -1.37952667121287      0.00000466755780
| 29> H          -0.82660178966524     -2.04931169429235      0.00001155294381
| 30> *
| 31>
| 32>                          ****END OF INPUT****

CARTESIAN COORDINATES (ANGSTROEM)
---------------------------------
  C     -0.320489   -1.085952    0.000009
  C      0.991342   -0.715848    0.000009
  C      0.991300    0.715904   -0.000001
  C     -0.320553    1.085930    0.000014
  O     -1.117301   -0.000034    0.000029
  H     -0.826722    2.049260    0.000020
  H      1.854970    1.379634   -0.000013
  H      1.855051   -1.379527    0.000005
  H     -0.826602   -2.049312    0.000012

 Total Charge           Charge          ....    0
 Multiplicity           Mult            ....    1
 Number of Electrons    NEL             ....   36
 Basis Dimension        Dim             ....  322

ORBITAL ENERGIES
----------------

  NO   OCC          E(Eh)            E(eV)
   0   2.0000     -19.123900      -520.3878
   1   2.0000     -10.158421      -276.4247
   2   2.0000     -10.158406      -276.4243
   3   2.0000     -10.111969      -275.1607
   4   2.0000     -10.111596      -275.1505
   5   2.0000      -1.096981       -29.8504
   6   2.0000      -0.777685       -21.1619
   7   2.0000      -0.724486       -19.7143
   8   2.0000      -0.578505       -15.7419
   9   2.0000      -0.545289       -14.8381
  10   2.0000      -0.520427       -14.1616
  11   2.0000      -0.439720       -11.9654
  12   2.0000      -0.423373       -11.5206
  13   2.0000      -0.385506       -10.4901
  14   2.0000      -0.377220       -10.2647
  15   2.0000      -0.352094        -9.5810
  16   2.0000      -0.270864        -7.3706
  17   2.0000      -0.220391        -5.9972
  18   0.0000      -0.008500        -0.2313
  19   0.0000       0.000752         0.0205
  20   0.0000       0.017741         0.4828
  21   0.0000       0.020192         0.5494
  22   0.0000       0.037671         1.0251

MULLIKEN ATOMIC CHARGES
-----------------------
   0 C :   -0.181639
   1 C :   -0.361307
   2 C :   -0.360624
   3 C :   -0.181645
   4 O :   -0.253669
   5 H :    0.430181
   6 H :    0.239217
   7 H :    0.239225
   8 H :    0.430260
Sum of atomic charges:   -0.0000000

LOEWDIN ATOMIC CHARGES
----------------------
   0 C :   -0.063614
   1 C :    0.147939
   2 C :    0.147963
   3 C :   -0.063579
   4 O :    0.566712
   5 H :   -0.184144
   6 H :   -0.183561
   7 H :   -0.183565
   8 H :   -0.184150

  Mayer bond orders larger than 0.100000
B(  0-C ,  1-C ) :   1.3382 B(  0-C ,  3-C ) :   0.1349 B(  0-C ,  4-O ) :   0.9710
B(  0-C ,  8-H ) :   0.7544 B(  1-C ,  2-C ) :   1.3025 B(  1-C ,  7-H ) :   1.0164
B(  2-C ,  3-C ) :   1.3379 B(  2-C ,  6-H ) :   1.0166 B(  3-C ,  4-O ) :   0.9710
B(  3-C ,  5-H ) :   0.7546

Dispersion correction           -0.007186981
FINAL SINGLE POINT ENERGY      -230.134289223600

DIPOLE MOMENT
-------------

Method             : SCF
Type of density    : Electron Density
Multiplicity       :   1
Irrep              :   0
Energy             :  -230.1271022429025948 Eh
Relativity type    :
Basis              : AO
                                X                 Y                 Z
Electronic contribution:     -1.631006793       0.000098701       0.001236897
Nuclear contribution   :      1.895786675       0.000056296      -0.000025910
                        -----------------------------------------
Total Dipole Moment    :      0.264779882       0.000154996       0.001210987
                        -----------------------------------------
Magnitude (a.u.)       :      0.264782697
Magnitude (Debye)      :      0.673024130

Rotational constants in cm-1:             0.318415             0.310107             0.157103
Rotational constants in MHz :          9545.838950          9296.781610          4709.832145

                             ****ORCA TERMINATED NORMALLY****
TOTAL RUN TIME: 0 days 0 hours 1 minutes 18 seconds 336 msec
