                         Program Version 6.0.0  -   RELEASE  -
|  1> !B3LYP aug-cc-pVTZ d3 TightSCF SlowConv RIJCOSX defgrid2
|  2>
|  3> %pal
|  4> nprocs 4
|  5> end
|  6>
|  7> %scf
|  8> MaxIter 1500
|  9> end
| 10>
| 11> %maxcore 3000
| 12>
| 13> !CPCM
| 14> %cpcm smd true
| 15> SMDsolvent "MeCN"
| 16> surfacetype gepol_ses
| 17> rsolv 2.19
| 18> end
| 19>
| 20> * xyz 0 1
| 21> C           0.21548830233766     -1.31254052777573      0.00010422762952
| 22> C           1.59988954372279     -1.21584408900209     -0.00004926404309
| 23> C           2.20799859707677      0.04926876567316     -0.00017056079371
| 24> C           1.41929623512531      1.20975167076323     -0.00015034385102
| 25> C           0.03428838131423      1.10376838714684      0.00000853976851
| 26> C          -0.57189434190993     -0.15685634129961      0.00012888388170
| 27> C          -2.05244741323264     -0.32717869220259      0.00024717867959
| 28> O          -2.60855273307034     -1.39562203145168      0.00027570374344
| 29> O          -2.69833688538420      0.84120384412168      0.00023595438148
| 30> C          -4.11294581717618      0.76544881509859      0.00031914102461
| 31> H          -4.47359030585060      0.23317558937230     -0.89509819147298
| 32> H          -4.47329861249430      1.80336428589702      0.00085057660351
| 33> H          -4.47344996909725      0.23226341742374      0.89524607056349
| 34> H          -0.58911726931978      1.99981071426323      0.00001933079670
| 35> H           1.90124452922407      2.19015192252547     -0.00025667551397
| 36> C           3.63651162843124      0.15662159321331     -0.00028047012477
| 37> N           4.79247297713842      0.24396014896989      0.00010497590390
| 38> H           2.22105451043260     -2.11448267300194     -0.00006713475520
| 39> H          -0.28337085726787     -2.28467319973482      0.00020605757830
| 40> *
| 41>
| 42>                          ****END OF INPUT****

CARTESIAN COORDINATES (ANGSTROEM)
---------------------------------
  C      0.215488   -1.312541    0.000104
  C      1.599890   -1.215844   -0.000049
  C      2.207999    0.049269   -0.000171
  C      1.419296    1.209752   -0.000150
  C      0.034288    1.103768    0.000009
  C     -0.571894   -0.156856    0.000129
  C     -2.052447   -0.327179    0.000247
  O     -2.608553   -1.395622    0.000276
  O     -2.698337    0.841204    0.000236
  C     -4.112946    0.765449    0.000319
  H     -4.473590    0.233176   -0.895098
  H     -4.473299    1.803364    0.000851
  H     -4.473450    0.232263    0.895246
  H     -0.589117    1.999811    0.000019
  H      1.901245    2.190152   -0.000257
  C      3.636512    0.156622   -0.000280
  N      4.792473    0.243960    0.000105
  H      2.221055   -2.114483   -0.000067
  H     -0.283371   -2.284673    0.000206

 Total Charge           Charge          ....    0
 Multiplicity           Mult            ....    1
 Number of Electrons    NEL             ....   84
 Basis Dimension        Dim             ....  713

ORBITAL ENERGIES
----------------

  NO   OCC          E(Eh)            E(eV)
   0   2.0000     -19.181754      -521.9621
   1   2.0000     -19.123866      -520.3868
   2   2.0000     -14.331533      -389.9808
   3   2.0000     -10.310740      -280.5695
   4   2.0000     -10.232318      -278.4355
   5   2.0000     -10.231848      -278.4227
   6   2.0000     -10.219776      -278.0942
   7   2.0000     -10.209460      -277.8135
   8   2.0000     -10.204376      -277.6752
   9   2.0000     -10.204235      -277.6714
  10   2.0000     -10.199025      -277.5296
  11   2.0000     -10.197725      -277.4942
  12   2.0000      -1.121747       -30.5243
  13   2.0000      -1.031985       -28.0817
  14   2.0000      -0.925896       -25.1949
  15   2.0000      -0.884806       -24.0768
  16   2.0000      -0.803419       -21.8621
  17   2.0000      -0.769951       -20.9514
  18   2.0000      -0.734422       -19.9846
  19   2.0000      -0.667113       -18.1531
  20   2.0000      -0.629466       -17.1286
  21   2.0000      -0.578180       -15.7331
  22   2.0000      -0.563530       -15.3344
  23   2.0000      -0.537872       -14.6362
  24   2.0000      -0.497365       -13.5340
  25   2.0000      -0.491782       -13.3821
  26   2.0000      -0.471179       -12.8214
  27   2.0000      -0.458668       -12.4810
  28   2.0000      -0.440961       -11.9992
  29   2.0000      -0.434033       -11.8106
  30   2.0000      -0.418507       -11.3882
  31   2.0000      -0.401193       -10.9170
  32   2.0000      -0.400582       -10.9004
  33   2.0000      -0.382808       -10.4167
  34   2.0000      -0.373254       -10.1568
  35   2.0000      -0.360406        -9.8071
  36   2.0000      -0.358440        -9.7536
  37   2.0000      -0.347373        -9.4525
  38   2.0000      -0.314699        -8.5634
  39   2.0000      -0.293857        -7.9963
  40   2.0000      -0.277788        -7.5590
  41   2.0000      -0.276093        -7.5129
  42   0.0000      -0.082707        -2.2506
  43   0.0000      -0.032185        -0.8758
  44   0.0000      -0.006142        -0.1671
  45   0.0000       0.004736         0.1289
  46   0.0000       0.008409         0.2288

MULLIKEN ATOMIC CHARGES
-----------------------
   0 C :   -1.094333
   1 C :   -1.127373
   2 C :    1.828181
   3 C :   -1.323981
   4 C :   -0.261932
   5 C :    1.912623
   6 C :    0.741311
   7 O :   -0.897601
   8 O :   -0.366461
   9 C :   -0.608594
  10 H :    0.283780
  11 H :    0.253820
  12 H :    0.284123
  13 H :    0.225594
  14 H :    0.071351
  15 C :    0.666696
  16 N :   -0.803579
  17 H :    0.090509
  18 H :    0.125865
Sum of atomic charges:    0.0000000

LOEWDIN ATOMIC CHARGES
----------------------
   0 C :    0.218297
   1 C :    0.224050
   2 C :   -0.191557
   3 C :    0.223340
   4 C :    0.225666
   5 C :   -0.136208
   6 C :   -0.844907
   7 O :    0.494681
   8 O :    0.590867
   9 C :    0.336875
  10 H :   -0.168664
  11 H :   -0.169122
  12 H :   -0.168724
  13 H :   -0.171799
  14 H :   -0.148960
  15 C :   -0.239159
  16 N :    0.244098
  17 H :   -0.149083
  18 H :   -0.169690

  Mayer bond orders larger than 0.100000
B(  0-C ,  1-C ) :   1.6060 B(  0-C ,  3-C ) :   0.2589 B(  0-C ,  4-C ) :  -0.7219
B(  0-C ,  5-C ) :   0.1234 B(  0-C ,  6-C ) :   0.4187 B(  0-C , 15-C ) :  -0.2007
B(  0-C , 18-H ) :   1.1921 B(  1-C ,  2-C ) :   0.1457 B(  1-C ,  3-C ) :  -0.1144
B(  1-C ,  4-C ) :   0.1855 B(  1-C ,  5-C ) :  -0.3233 B(  1-C ,  6-C ) :  -0.1408
B(  1-C , 15-C ) :   0.4158 B(  1-C , 17-H ) :   1.3476 B(  2-C ,  4-C ) :   0.1835
B(  2-C ,  6-C ) :   0.2295 B(  2-C , 14-H ) :  -0.3431 B(  2-C , 15-C ) :   0.5013
B(  2-C , 16-N ) :   0.4296 B(  2-C , 17-H ) :  -0.3316 B(  3-C ,  4-C ) :   1.1234
B(  3-C ,  5-C ) :  -0.2019 B(  3-C , 14-H ) :   1.4179 B(  3-C , 15-C ) :   0.4583
B(  4-C ,  5-C ) :   0.5393 B(  4-C ,  6-C ) :   0.1808 B(  4-C , 13-H ) :   1.1505
B(  4-C , 15-C ) :  -0.2469 B(  5-C ,  8-O ) :   0.1747 B(  5-C , 13-H ) :  -0.2180
B(  5-C , 15-C ) :   0.3729 B(  5-C , 17-H ) :  -0.1007 B(  5-C , 18-H ) :  -0.1704
B(  6-C ,  7-O ) :   1.0470 B(  6-C ,  8-O ) :   0.8748 B(  6-C , 15-C ) :   0.1191
B(  7-O , 18-H ) :   0.1425 B(  8-O ,  9-C ) :   0.8686 B(  9-C , 10-H ) :   0.9094
B(  9-C , 11-H ) :   0.9434 B(  9-C , 12-H ) :   0.9093 B( 13-H , 18-H ) :   0.1645
B( 14-H , 17-H ) :   0.1296 B( 15-C , 16-N ) :   1.4368

Dispersion correction           -0.035160506
FINAL SINGLE POINT ENERGY      -552.314248214759

DIPOLE MOMENT
-------------

Method             : SCF
Type of density    : Electron Density
Multiplicity       :   1
Irrep              :   0
Energy             :  -552.2790877085860757 Eh
Relativity type    :
Basis              : AO
                                X                 Y                 Z
Electronic contribution:      7.541868953      -1.155192531      -0.000296352
Nuclear contribution   :     -9.614807611       1.929707877       0.000342352
                        -----------------------------------------
Total Dipole Moment    :     -2.072938658       0.774515346       0.000046000
                        -----------------------------------------
Magnitude (a.u.)       :      2.212905037
Magnitude (Debye)      :      5.624757598

Rotational constants in cm-1:             0.115026             0.014673             0.013046
Rotational constants in MHz :          3448.390341           439.899337           391.107079

                             ****ORCA TERMINATED NORMALLY****
TOTAL RUN TIME: 0 days 0 hours 6 minutes 1 seconds 873 msec
