                         Program Version 6.0.0  -   RELEASE  -
|  1> !TPSSh aug-cc-pVTZ d3 TightSCF SlowConv RIJCOSX defgrid2
|  2>
|  3> %pal
|  4> nprocs 4
|  5> end
|  6>
|  7> %scf
|  8> MaxIter 1500
|  9> end
| 10>
| 11> %maxcore 3000
| 12>
| 13> !CPCM
| 14> %cpcm smd true
| 15> SMDsolvent "MeCN"
| 16> surfacetype gepol_ses
| 17> rsolv 2.19
| 18> end
| 19>
| 20> * xyz 0 1
| 21>   C           1.35661311001034      0.08242353673381     -0.04830147992154
| 22>   C           0.72528734400678      1.33237499260851      0.02931980589731
| 23>   C          -0.65716684626784      1.42571283843268      0.04302512633637
| 24>   C          -1.44754625606451      0.26653460954742      0.00874339988909
| 25>   C          -0.82552870874395     -0.98502153376474     -0.04770168852446
| 26>   C           0.56772235704198     -1.06633130194090     -0.08313298846277
| 27>   H           1.05006188676245     -2.04577688056741     -0.14354433447971
| 28>   H          -1.41135553820799     -1.90566385705075     -0.07389044457674
| 29>   O          -2.78063858244739      0.45554290336633      0.03645550634804
| 30>   C          -3.62283453444167     -0.66142074230683      0.01078196288993
| 31>   H          -4.65283077190408     -0.27592428677814      0.04102787975267
| 32>   H          -3.48787720923621     -1.25466269618222     -0.91406269819965
| 33>   H          -3.45860421924221     -1.31813897835911      0.88673287617431
| 34>   H          -1.16047233306293      2.39441311771435      0.09515969980486
| 35>   H           1.33361129819119      2.23967992641979      0.08145593960365
| 36>   S           3.13145786803727     -0.06127748319567     -0.01892864657318
| 37>   H           3.36519883556877      0.49010163532289     -1.23773021595817
| 38> *
| 39>
| 40>                          ****END OF INPUT****

CARTESIAN COORDINATES (ANGSTROEM)
---------------------------------
  C      1.356613    0.082424   -0.048301
  C      0.725287    1.332375    0.029320
  C     -0.657167    1.425713    0.043025
  C     -1.447546    0.266535    0.008743
  C     -0.825529   -0.985022   -0.047702
  C      0.567722   -1.066331   -0.083133
  H      1.050062   -2.045777   -0.143544
  H     -1.411356   -1.905664   -0.073890
  O     -2.780639    0.455543    0.036456
  C     -3.622835   -0.661421    0.010782
  H     -4.652831   -0.275924    0.041028
  H     -3.487877   -1.254663   -0.914063
  H     -3.458604   -1.318139    0.886733
  H     -1.160472    2.394413    0.095160
  H      1.333611    2.239680    0.081456
  S      3.131458   -0.061277   -0.018929
  H      3.365199    0.490102   -1.237730

 Total Charge           Charge          ....    0
 Multiplicity           Mult            ....    1
 Number of Electrons    NEL             ....   74
 Basis Dimension        Dim             ....  602

ORBITAL ENERGIES
----------------

  NO   OCC          E(Eh)            E(eV)
   0   2.0000     -88.744417     -2414.8584
   1   2.0000     -19.089790      -519.4596
   2   2.0000     -10.180393      -277.0226
   3   2.0000     -10.159145      -276.4444
   4   2.0000     -10.144981      -276.0590
   5   2.0000     -10.125684      -275.5339
   6   2.0000     -10.125460      -275.5278
   7   2.0000     -10.119233      -275.3583
   8   2.0000     -10.118567      -275.3402
   9   2.0000      -7.869936      -214.1518
  10   2.0000      -5.821170      -158.4021
  11   2.0000      -5.817651      -158.3063
  12   2.0000      -5.812368      -158.1626
  13   2.0000      -1.056701       -28.7543
  14   2.0000      -0.844142       -22.9703
  15   2.0000      -0.765094       -20.8193
  16   2.0000      -0.735681       -20.0189
  17   2.0000      -0.703792       -19.1512
  18   2.0000      -0.654586       -17.8122
  19   2.0000      -0.597580       -16.2610
  20   2.0000      -0.564338       -15.3564
  21   2.0000      -0.517796       -14.0900
  22   2.0000      -0.471548       -12.8315
  23   2.0000      -0.454895       -12.3783
  24   2.0000      -0.450766       -12.2660
  25   2.0000      -0.429176       -11.6785
  26   2.0000      -0.407489       -11.0883
  27   2.0000      -0.398695       -10.8491
  28   2.0000      -0.391215       -10.6455
  29   2.0000      -0.363770        -9.8987
  30   2.0000      -0.344906        -9.3854
  31   2.0000      -0.332253        -9.0411
  32   2.0000      -0.310421        -8.4470
  33   2.0000      -0.305783        -8.3208
  34   2.0000      -0.253168        -6.8891
  35   2.0000      -0.243966        -6.6386
  36   2.0000      -0.212265        -5.7760
  37   0.0000      -0.032129        -0.8743
  38   0.0000      -0.027978        -0.7613
  39   0.0000      -0.007477        -0.2035
  40   0.0000       0.003549         0.0966
  41   0.0000       0.011114         0.3024

MULLIKEN ATOMIC CHARGES
-----------------------
   0 C :    0.395229
   1 C :   -0.399880
   2 C :   -0.653252
   3 C :    0.939978
   4 C :   -0.254123
   5 C :   -0.559375
   6 H :    0.391721
   7 H :    0.367245
   8 O :   -0.690090
   9 C :   -0.300625
  10 H :    0.041712
  11 H :    0.208559
  12 H :    0.207735
  13 H :    0.364661
  14 H :    0.389300
  15 S :   -0.495847
  16 H :    0.047052
Sum of atomic charges:    0.0000000

LOEWDIN ATOMIC CHARGES
----------------------
   0 C :   -0.598643
   1 C :    0.103526
   2 C :    0.194426
   3 C :   -0.407190
   4 C :    0.198099
   5 C :    0.101591
   6 H :   -0.191173
   7 H :   -0.188648
   8 O :    0.597412
   9 C :    0.321149
  10 H :   -0.168400
  11 H :   -0.160186
  12 H :   -0.159985
  13 H :   -0.170861
  14 H :   -0.185833
  15 S :    1.259719
  16 H :   -0.545002

  Mayer bond orders larger than 0.100000
B(  0-C ,  1-C ) :   1.1918 B(  0-C ,  5-C ) :   1.1789 B(  0-C , 15-S ) :   0.6760
B(  1-C ,  2-C ) :   1.3623 B(  1-C ,  3-C ) :  -0.2972 B(  1-C , 14-H ) :   0.7984
B(  2-C ,  3-C ) :   0.9295 B(  2-C ,  4-C ) :   0.1947 B(  2-C ,  8-O ) :   0.3579
B(  2-C , 13-H ) :   0.5041 B(  3-C ,  4-C ) :   1.0777 B(  3-C ,  5-C ) :  -0.2282
B(  3-C ,  7-H ) :   0.1352 B(  3-C ,  8-O ) :   0.1320 B(  4-C ,  5-C ) :   1.2313
B(  4-C ,  7-H ) :   0.4809 B(  4-C ,  8-O ) :  -0.1207 B(  5-C ,  6-H ) :   0.7764
B(  6-H , 15-S ) :  -0.1875 B(  8-O ,  9-C ) :   1.0181 B(  9-C , 10-H ) :   1.0730
B(  9-C , 11-H ) :   0.9191 B(  9-C , 12-H ) :   0.9209 B( 14-H , 15-S ) :  -0.1910
B( 15-S , 16-H ) :   1.0986

Dispersion correction           -0.021335244
FINAL SINGLE POINT ENERGY      -745.174169866568

DIPOLE MOMENT
-------------

Method             : SCF
Type of density    : Electron Density
Multiplicity       :   1
Irrep              :   0
Energy             :  -745.1528346224115467 Eh
Relativity type    :
Basis              : AO
                                X                 Y                 Z
Electronic contribution:      6.855965831       1.632438494       0.689434698
Nuclear contribution   :     -8.061833988      -2.011071937      -1.060175110
                        -----------------------------------------
Total Dipole Moment    :     -1.205868157      -0.378633443      -0.370740412
                        -----------------------------------------
Magnitude (a.u.)       :      1.317167321
Magnitude (Debye)      :      3.347973261

Rotational constants in cm-1:             0.159819             0.022967             0.020233
Rotational constants in MHz :          4791.258551           688.540294           606.561125

                             ****ORCA TERMINATED NORMALLY****
TOTAL RUN TIME: 0 days 0 hours 3 minutes 55 seconds 778 msec
