                         Program Version 6.0.0  -   RELEASE  -
|  1> !B3LYP aug-cc-pVTZ d3 TightSCF SlowConv RIJCOSX defgrid2
|  2>
|  3> %pal
|  4> nprocs 4
|  5> end
|  6>
|  7> %scf
|  8> MaxIter 1500
|  9> end
| 10>
| 11> %maxcore 3000
| 12>
| 13> !CPCM
| 14> %cpcm smd true
| 15> SMDsolvent "MeCN"
| 16> surfacetype gepol_ses
| 17> rsolv 2.19
| 18> end
| 19>
| 20> * xyz 1 2
| 21> C          -0.67908643386725      1.23607676469241      0.05037688455432
| 22> C           0.69063537473082      1.22239505984825      0.03433122006490
| 23> C           1.41935940969442      0.00089697821530      0.02361032838992
| 24> C           2.90264582314279      0.00023187234458     -0.03154544602423
| 25> H           3.33275857806013      0.90982454248379      0.41704425889491
| 26> H           3.23040482362577     -0.02388819542517     -1.09174805024851
| 27> H           3.33188322628672     -0.89033444842890      0.45524306190015
| 28> C           0.69116135048355     -1.22128045675289      0.03322526814773
| 29> C          -0.67837863172589     -1.23584655805266      0.04927182441236
| 30> C          -1.40125371058004     -0.00006366269893      0.05776120704274
| 31> N          -2.73211521344069     -0.00040267889955      0.07439012831924
| 32> H          -3.26281790606968     -0.86988933466929      0.08068697932374
| 33> H          -3.26324263121073      0.86881860998728      0.08143282938743
| 34> H          -1.22754000431610     -2.18185307095538      0.05799598423108
| 35> H           1.24009901564024     -2.16715763912366      0.03003003714593
| 36> H           1.23900198016691      2.16857067789729      0.03198987167601
| 37> H          -1.22875875062097      2.18177673953752      0.05992551278228
| 38> *
| 39>
| 40>                          ****END OF INPUT****

CARTESIAN COORDINATES (ANGSTROEM)
---------------------------------
  C     -0.679086    1.236077    0.050377
  C      0.690635    1.222395    0.034331
  C      1.419359    0.000897    0.023610
  C      2.902646    0.000232   -0.031545
  H      3.332759    0.909825    0.417044
  H      3.230405   -0.023888   -1.091748
  H      3.331883   -0.890334    0.455243
  C      0.691161   -1.221280    0.033225
  C     -0.678379   -1.235847    0.049272
  C     -1.401254   -0.000064    0.057761
  N     -2.732115   -0.000403    0.074390
  H     -3.262818   -0.869889    0.080687
  H     -3.263243    0.868819    0.081433
  H     -1.227540   -2.181853    0.057996
  H      1.240099   -2.167158    0.030030
  H      1.239002    2.168571    0.031990
  H     -1.228759    2.181777    0.059926

 Total Charge           Charge          ....    1
 Multiplicity           Mult            ....    2
 Number of Electrons    NEL             ....   57
 Basis Dimension        Dim             ....  575

ORBITAL ENERGIES
----------------
                 SPIN UP ORBITALS
  NO   OCC          E(Eh)            E(eV)
   0   1.0000     -14.401814      -391.8933
   1   1.0000     -10.276094      -279.6267
   2   1.0000     -10.235296      -278.5166
   3   1.0000     -10.216845      -278.0145
   4   1.0000     -10.216759      -278.0121
   5   1.0000     -10.206706      -277.7386
   6   1.0000     -10.206669      -277.7376
   7   1.0000     -10.179636      -277.0020
   8   1.0000      -0.991267       -26.9738
   9   1.0000      -0.884167       -24.0594
  10   1.0000      -0.793085       -21.5809
  11   1.0000      -0.785424       -21.3725
  12   1.0000      -0.702564       -19.1177
  13   1.0000      -0.651749       -17.7350
  14   1.0000      -0.624758       -17.0005
  15   1.0000      -0.567218       -15.4348
  16   1.0000      -0.562371       -15.3029
  17   1.0000      -0.494038       -13.4435
  18   1.0000      -0.477563       -12.9951
  19   1.0000      -0.455352       -12.3908
  20   1.0000      -0.452290       -12.3074
  21   1.0000      -0.451593       -12.2885
  22   1.0000      -0.427761       -11.6400
  23   1.0000      -0.396351       -10.7853
  24   1.0000      -0.388818       -10.5803
  25   1.0000      -0.364464        -9.9176
  26   1.0000      -0.353421        -9.6171
  27   1.0000      -0.296341        -8.0638
  28   1.0000      -0.248569        -6.7639
  29   0.0000      -0.043905        -1.1947
  30   0.0000      -0.041953        -1.1416
  31   0.0000      -0.007823        -0.2129
  32   0.0000       0.001701         0.0463
  33   0.0000       0.009342         0.2542

                 SPIN DOWN ORBITALS
  NO   OCC          E(Eh)            E(eV)
   0   1.0000     -14.394142      -391.6845
   1   1.0000     -10.275140      -279.6008
   2   1.0000     -10.229842      -278.3681
   3   1.0000     -10.214187      -277.9422
   4   1.0000     -10.214126      -277.9405
   5   1.0000     -10.207722      -277.7662
   6   1.0000     -10.207692      -277.7654
   7   1.0000     -10.179797      -277.0064
   8   1.0000      -0.978082       -26.6150
   9   1.0000      -0.876049       -23.8385
  10   1.0000      -0.782559       -21.2945
  11   1.0000      -0.782302       -21.2875
  12   1.0000      -0.698409       -19.0047
  13   1.0000      -0.647994       -17.6328
  14   1.0000      -0.618637       -16.8340
  15   1.0000      -0.564470       -15.3600
  16   1.0000      -0.557837       -15.1795
  17   1.0000      -0.490048       -13.3349
  18   1.0000      -0.474279       -12.9058
  19   1.0000      -0.452743       -12.3198
  20   1.0000      -0.451377       -12.2826
  21   1.0000      -0.432273       -11.7627
  22   1.0000      -0.408307       -11.1106
  23   1.0000      -0.395339       -10.7577
  24   1.0000      -0.386391       -10.5142
  25   1.0000      -0.362350        -9.8600
  26   1.0000      -0.326159        -8.8752
  27   1.0000      -0.288386        -7.8474
  28   0.0000      -0.167926        -4.5695
  29   0.0000      -0.032074        -0.8728
  30   0.0000      -0.018080        -0.4920
  31   0.0000      -0.007254        -0.1974
  32   0.0000       0.002263         0.0616

MULLIKEN ATOMIC CHARGES AND SPIN POPULATIONS
--------------------------------------------
   0 C :   -0.660525    0.167678
   1 C :   -0.714999   -0.083591
   2 C :    1.378176    0.388507
   3 C :   -0.721892   -0.031100
   4 H :    0.236231    0.004238
   5 H :    0.264848    0.032636
   6 H :    0.236516    0.005591
   7 C :   -0.726228   -0.082148
   8 C :   -0.666808    0.166062
   9 C :    1.154808    0.103712
  10 N :   -0.425991    0.338736
  11 H :    0.065965   -0.006696
  12 H :    0.065489   -0.006705
  13 H :    0.550887   -0.003676
  14 H :    0.207600    0.005317
  15 H :    0.200643    0.005160
  16 H :    0.555280   -0.003722
Sum of atomic charges         :    1.0000000

LOEWDIN ATOMIC CHARGES AND SPIN POPULATIONS
-------------------------------------------
   0 C :    0.280852    0.099507
   1 C :    0.259299    0.043982
   2 C :   -0.076722    0.175496
   3 C :    0.598771    0.059676
   4 H :   -0.149557    0.005025
   5 H :   -0.128964    0.018430
   6 H :   -0.148657    0.005621
   7 C :    0.259079    0.043720
   8 C :    0.280715    0.098689
   9 C :   -0.166560    0.131006
  10 N :    0.950567    0.235342
  11 H :   -0.199697    0.030420
  12 H :   -0.199705    0.030405
  13 H :   -0.136760    0.016118
  14 H :   -0.142764   -0.004861
  15 H :   -0.143195   -0.004864
  16 H :   -0.136704    0.016287

  Mayer bond orders larger than 0.100000
B(  0-C ,  1-C ) :   1.5103 B(  0-C ,  2-C ) :   0.2234 B(  0-C ,  7-C ) :  -0.1060
B(  0-C ,  8-C ) :   0.2148 B(  0-C ,  9-C ) :   0.7087 B(  0-C , 10-N ) :  -0.1400
B(  0-C , 16-H ) :   0.3466 B(  1-C ,  2-C ) :   0.4417 B(  1-C ,  7-C ) :  -0.1427
B(  1-C ,  9-C ) :  -0.2392 B(  1-C , 15-H ) :   1.0556 B(  2-C ,  3-C ) :   0.3564
B(  2-C ,  7-C ) :   0.4400 B(  2-C ,  8-C ) :   0.2211 B(  2-C ,  9-C ) :   0.1774
B(  3-C ,  4-H ) :   0.9662 B(  3-C ,  5-H ) :   0.9365 B(  3-C ,  6-H ) :   0.9668
B(  3-C ,  7-C ) :   0.1179 B(  7-C ,  8-C ) :   1.5130 B(  7-C ,  9-C ) :  -0.2374
B(  7-C , 14-H ) :   1.0448 B(  8-C ,  9-C ) :   0.7106 B(  8-C , 10-N ) :  -0.1419
B(  8-C , 13-H ) :   0.3551 B(  9-C , 10-N ) :   0.9092 B(  9-C , 13-H ) :   0.1047
B(  9-C , 16-H ) :   0.1063 B( 10-N , 11-H ) :   1.1352 B( 10-N , 12-H ) :   1.1361

Dispersion correction           -0.028130722
FINAL SINGLE POINT ENERGY      -326.692289696436

DIPOLE MOMENT
-------------

Method             : SCF
Type of density    : Electron Density
Multiplicity       :   2
Irrep              :   0
Energy             :  -326.6641589744001521 Eh
Relativity type    :
Basis              : AO
                                X                 Y                 Z
Electronic contribution:     -5.072198426       0.002525113       0.157379141
Nuclear contribution   :      3.125767574      -0.005388112      -0.182011929
                        -----------------------------------------
Total Dipole Moment    :     -1.946430852      -0.002862999      -0.024632788
                        -----------------------------------------
Magnitude (a.u.)       :      1.946588820
Magnitude (Debye)      :      4.947835569

Rotational constants in cm-1:             0.174913             0.049835             0.039071
Rotational constants in MHz :          5243.747665          1494.011541          1171.305405

                             ****ORCA TERMINATED NORMALLY****
TOTAL RUN TIME: 0 days 0 hours 4 minutes 51 seconds 929 msec
