                         Program Version 6.0.0  -   RELEASE  -
|  1> !r2SCANh aug-cc-pVTZ d3 TightSCF SlowConv RIJCOSX defgrid2
|  2>
|  3> %pal
|  4> nprocs 4
|  5> end
|  6>
|  7> %scf
|  8> MaxIter 1500
|  9> end
| 10>
| 11> %maxcore 3000
| 12>
| 13> !CPCM
| 14> %cpcm smd true
| 15> SMDsolvent "MeCN"
| 16> surfacetype gepol_ses
| 17> rsolv 2.19
| 18> end
| 19>
| 20> * xyz 1 2
| 21> C           4.10305459754862      1.22314281313599      0.00027521208978
| 22> C           4.79422039490347      0.00010404925663      0.00001474520982
| 23> C           4.10316750393443     -1.22299872812941     -0.00027809333468
| 24> C           2.72290951060849     -1.23322125226980     -0.00030728966902
| 25> C           2.00889918594533     -0.00002719804681     -0.00003028315102
| 26> C           2.72279658019783      1.23323312421706      0.00025720757138
| 27> H           2.16604305248318      2.17317802213121      0.00045841677356
| 28> C           0.61901432200333     -0.00007429013767     -0.00003574573307
| 29> C          -0.61901896459109     -0.00007733941421     -0.00002817694639
| 30> C          -2.00890183862324     -0.00001737756946      0.00000366265820
| 31> C          -2.72291439835066     -1.23320607784155      0.00031293455070
| 32> C          -4.10317069141964     -1.22298169255025      0.00034320554116
| 33> C          -4.79421968584138      0.00012496763477      0.00007504669623
| 34> C          -4.10304842490867      1.22316147289229     -0.00022860923121
| 35> C          -2.72279167353165      1.23324700039037     -0.00027265723971
| 36> H          -2.16603414552242      2.17318982303946     -0.00050220004345
| 37> H          -4.65909006495211      2.16415224923801     -0.00043329601508
| 38> H          -5.88829015885600      0.00017960004272      0.00010113825142
| 39> H          -4.65930720000531     -2.16391674544739      0.00057854154628
| 40> H          -2.16624983163931     -2.17320454462336      0.00052121598527
| 41> H           2.16624496851568     -2.17322025060010     -0.00052876061055
| 42> H           4.65930013671208     -2.16393287374248     -0.00048580415313
| 43> H           5.88829198918564      0.00015431021773      0.00003862697270
| 44> H           4.65910043620338      2.16413103817623      0.00049636228080
| 45> *
| 46>
| 47>                          ****END OF INPUT****

CARTESIAN COORDINATES (ANGSTROEM)
---------------------------------
  C      4.103055    1.223143    0.000275
  C      4.794220    0.000104    0.000015
  C      4.103168   -1.222999   -0.000278
  C      2.722910   -1.233221   -0.000307
  C      2.008899   -0.000027   -0.000030
  C      2.722797    1.233233    0.000257
  H      2.166043    2.173178    0.000458
  C      0.619014   -0.000074   -0.000036
  C     -0.619019   -0.000077   -0.000028
  C     -2.008902   -0.000017    0.000004
  C     -2.722914   -1.233206    0.000313
  C     -4.103171   -1.222982    0.000343
  C     -4.794220    0.000125    0.000075
  C     -4.103048    1.223161   -0.000229
  C     -2.722792    1.233247   -0.000273
  H     -2.166034    2.173190   -0.000502
  H     -4.659090    2.164152   -0.000433
  H     -5.888290    0.000180    0.000101
  H     -4.659307   -2.163917    0.000579
  H     -2.166250   -2.173205    0.000521
  H      2.166245   -2.173220   -0.000529
  H      4.659300   -2.163933   -0.000486
  H      5.888292    0.000154    0.000039
  H      4.659100    2.164131    0.000496

 Total Charge           Charge          ....    1
 Multiplicity           Mult            ....    2
 Number of Electrons    NEL             ....   93
 Basis Dimension        Dim             ....  874

ORBITAL ENERGIES
----------------
                 SPIN UP ORBITALS
  NO   OCC          E(Eh)            E(eV)
   0   1.0000     -10.233534      -278.4686
   1   1.0000     -10.233527      -278.4684
   2   1.0000     -10.229210      -278.3510
   3   1.0000     -10.227363      -278.3007
   4   1.0000     -10.205915      -277.7171
   5   1.0000     -10.205911      -277.7170
   6   1.0000     -10.204484      -277.6781
   7   1.0000     -10.204477      -277.6779
   8   1.0000     -10.204474      -277.6779
   9   1.0000     -10.204472      -277.6778
  10   1.0000     -10.189097      -277.2594
  11   1.0000     -10.189094      -277.2593
  12   1.0000     -10.189093      -277.2593
  13   1.0000     -10.189089      -277.2592
  14   1.0000      -0.905157       -24.6306
  15   1.0000      -0.898756       -24.4564
  16   1.0000      -0.840525       -22.8719
  17   1.0000      -0.804763       -21.8987
  18   1.0000      -0.781181       -21.2570
  19   1.0000      -0.780989       -21.2518
  20   1.0000      -0.758488       -20.6395
  21   1.0000      -0.672153       -18.2902
  22   1.0000      -0.640746       -17.4356
  23   1.0000      -0.631855       -17.1937
  24   1.0000      -0.630139       -17.1470
  25   1.0000      -0.567342       -15.4382
  26   1.0000      -0.550710       -14.9856
  27   1.0000      -0.504652       -13.7323
  28   1.0000      -0.495325       -13.4785
  29   1.0000      -0.484412       -13.1815
  30   1.0000      -0.478288       -13.0149
  31   1.0000      -0.449061       -12.2196
  32   1.0000      -0.444961       -12.1080
  33   1.0000      -0.439437       -11.9577
  34   1.0000      -0.439084       -11.9481
  35   1.0000      -0.429415       -11.6850
  36   1.0000      -0.408400       -11.1131
  37   1.0000      -0.374224       -10.1832
  38   1.0000      -0.371146       -10.0994
  39   1.0000      -0.366551        -9.9744
  40   1.0000      -0.362025        -9.8512
  41   1.0000      -0.360049        -9.7974
  42   1.0000      -0.309083        -8.4106
  43   1.0000      -0.308301        -8.3893
  44   1.0000      -0.287161        -7.8141
  45   1.0000      -0.287037        -7.8107
  46   1.0000      -0.256725        -6.9859
  47   0.0000      -0.115964        -3.1555
  48   0.0000      -0.052283        -1.4227
  49   0.0000      -0.051089        -1.3902
  50   0.0000      -0.050986        -1.3874
  51   0.0000      -0.015501        -0.4218

                 SPIN DOWN ORBITALS
  NO   OCC          E(Eh)            E(eV)
   0   1.0000     -10.232994      -278.4539
   1   1.0000     -10.232986      -278.4537
   2   1.0000     -10.226282      -278.2713
   3   1.0000     -10.224456      -278.2216
   4   1.0000     -10.202290      -277.6184
   5   1.0000     -10.202283      -277.6182
   6   1.0000     -10.202280      -277.6182
   7   1.0000     -10.202278      -277.6181
   8   1.0000     -10.201897      -277.6077
   9   1.0000     -10.201892      -277.6076
  10   1.0000     -10.190495      -277.2975
  11   1.0000     -10.190492      -277.2974
  12   1.0000     -10.190488      -277.2973
  13   1.0000     -10.190484      -277.2972
  14   1.0000      -0.899699       -24.4821
  15   1.0000      -0.894217       -24.3329
  16   1.0000      -0.831726       -22.6324
  17   1.0000      -0.799952       -21.7678
  18   1.0000      -0.779495       -21.2111
  19   1.0000      -0.779320       -21.2064
  20   1.0000      -0.745761       -20.2932
  21   1.0000      -0.666267       -18.1300
  22   1.0000      -0.636049       -17.3078
  23   1.0000      -0.629881       -17.1399
  24   1.0000      -0.628070       -17.0907
  25   1.0000      -0.566303       -15.4099
  26   1.0000      -0.550333       -14.9753
  27   1.0000      -0.501841       -13.6558
  28   1.0000      -0.493033       -13.4161
  29   1.0000      -0.483469       -13.1559
  30   1.0000      -0.477339       -12.9891
  31   1.0000      -0.447545       -12.1783
  32   1.0000      -0.443536       -12.0692
  33   1.0000      -0.439304       -11.9541
  34   1.0000      -0.438983       -11.9453
  35   1.0000      -0.412287       -11.2189
  36   1.0000      -0.395755       -10.7690
  37   1.0000      -0.373216       -10.1557
  38   1.0000      -0.370389       -10.0788
  39   1.0000      -0.365579        -9.9479
  40   1.0000      -0.359253        -9.7758
  41   1.0000      -0.340563        -9.2672
  42   1.0000      -0.305003        -8.2995
  43   1.0000      -0.290388        -7.9019
  44   1.0000      -0.282654        -7.6914
  45   1.0000      -0.282578        -7.6893
  46   0.0000      -0.208075        -5.6620
  47   0.0000      -0.093729        -2.5505
  48   0.0000      -0.045650        -1.2422
  49   0.0000      -0.044108        -1.2002
  50   0.0000      -0.033649        -0.9156

MULLIKEN ATOMIC CHARGES AND SPIN POPULATIONS
--------------------------------------------
   0 C :   -0.745582   -0.106826
   1 C :    0.150187    0.244875
   2 C :   -0.763897   -0.106837
   3 C :   -1.000761    0.125983
   4 C :    1.795901    0.051507
   5 C :   -1.022612    0.126136
   6 H :   -0.396114    0.012728
   7 C :    1.236977    0.132771
   8 C :    1.208771    0.132299
   9 C :    1.814338    0.050471
  10 C :   -1.012015    0.126294
  11 C :   -0.799986   -0.105629
  12 C :    0.146936    0.244096
  13 C :   -0.784053   -0.106127
  14 C :   -1.019230    0.126436
  15 H :   -0.417306    0.013019
  16 H :    0.598886   -0.002110
  17 H :    0.531434    0.010977
  18 H :    0.617598   -0.001753
  19 H :   -0.410291    0.012163
  20 H :   -0.309349    0.011303
  21 H :    0.550385   -0.002671
  22 H :    0.447716    0.013706
  23 H :    0.582069   -0.002811
Sum of atomic charges         :    1.0000000

LOEWDIN ATOMIC CHARGES AND SPIN POPULATIONS
-------------------------------------------
   0 C :    0.242845    0.012809
   1 C :    0.251907    0.103519
   2 C :    0.242845    0.012811
   3 C :    0.243109    0.060458
   4 C :   -0.160393    0.076002
   5 C :    0.243109    0.060459
   6 H :   -0.143977    0.011402
   7 C :    0.174648    0.139000
   8 C :    0.174640    0.139011
   9 C :   -0.160424    0.075991
  10 C :    0.243091    0.060453
  11 C :    0.242827    0.012809
  12 C :    0.251901    0.103511
  13 C :    0.242833    0.012807
  14 C :    0.243093    0.060456
  15 H :   -0.143981    0.011401
  16 H :   -0.152839   -0.006689
  17 H :   -0.144370    0.025526
  18 H :   -0.152830   -0.006688
  19 H :   -0.143981    0.011400
  20 H :   -0.143954    0.011401
  21 H :   -0.152856   -0.006688
  22 H :   -0.144392    0.025529
  23 H :   -0.152849   -0.006689

  Mayer bond orders larger than 0.100000
B(  0-C ,  1-C ) :   0.9970 B(  0-C ,  2-C ) :   0.3680 B(  0-C ,  4-C ) :   0.2655
B(  0-C ,  5-C ) :   1.2922 B(  0-C ,  6-H ) :  -0.1016 B(  0-C ,  7-C ) :   0.4335
B(  0-C ,  8-C ) :  -0.6015 B(  0-C , 20-H ) :  -0.1155 B(  0-C , 23-H ) :   0.3302
B(  1-C ,  2-C ) :   0.9683 B(  1-C ,  3-C ) :  -0.4416 B(  1-C ,  4-C ) :  -0.3109
B(  1-C ,  5-C ) :  -0.4596 B(  1-C ,  6-H ) :  -0.1803 B(  1-C ,  7-C ) :  -0.1319
B(  1-C ,  8-C ) :   0.9137 B(  1-C , 20-H ) :  -0.1592 B(  1-C , 21-H ) :   0.1407
B(  1-C , 22-H ) :   0.6809 B(  1-C , 23-H ) :   0.1574 B(  2-C ,  3-C ) :   1.3065
B(  2-C ,  4-C ) :   0.2666 B(  2-C ,  5-C ) :   0.1495 B(  2-C ,  7-C ) :   0.4800
B(  2-C ,  8-C ) :  -0.6876 B(  2-C , 21-H ) :   0.3762 B(  3-C ,  5-C ) :  -0.9079
B(  3-C ,  6-H ) :   0.3719 B(  3-C ,  9-C ) :   0.1527 B(  3-C , 20-H ) :   2.3436
B(  3-C , 21-H ) :  -0.1894 B(  4-C ,  6-H ) :   0.1340 B(  4-C ,  7-C ) :   0.1683
B(  4-C ,  9-C ) :   0.3230 B(  4-C , 10-C ) :   0.1272 B(  4-C , 14-C ) :   0.1207
B(  4-C , 15-H ) :  -0.1982 B(  4-C , 16-H ) :   0.1664 B(  4-C , 18-H ) :   0.1709
B(  4-C , 19-H ) :  -0.1870 B(  4-C , 20-H ) :   0.1564 B(  5-C ,  6-H ) :   2.5570
B(  5-C ,  7-C ) :   0.1315 B(  5-C ,  9-C ) :   0.1319 B(  5-C , 20-H ) :   0.3398
B(  5-C , 23-H ) :  -0.2388 B(  6-H ,  7-C ) :  -0.5782 B(  6-H ,  8-C ) :  -0.7847
B(  6-H ,  9-C ) :  -0.1901 B(  6-H , 20-H ) :   0.6045 B(  6-H , 21-H ) :  -0.1591
B(  7-C ,  8-C ) :   4.6380 B(  7-C , 11-C ) :  -0.7479 B(  7-C , 12-C ) :   0.8498
B(  7-C , 13-C ) :  -0.7546 B(  7-C , 15-H ) :  -0.8414 B(  7-C , 17-H ) :   0.8064
B(  7-C , 19-H ) :  -0.8276 B(  7-C , 20-H ) :  -0.7179 B(  7-C , 21-H ) :   0.4699
B(  7-C , 22-H ) :  -0.5200 B(  7-C , 23-H ) :   0.3708 B(  8-C ,  9-C ) :   0.1559
B(  8-C , 11-C ) :   0.5675 B(  8-C , 12-C ) :  -0.1099 B(  8-C , 13-C ) :   0.5699
B(  8-C , 15-H ) :  -0.5476 B(  8-C , 16-H ) :   0.3773 B(  8-C , 17-H ) :  -0.7220
B(  8-C , 18-H ) :   0.3465 B(  8-C , 19-H ) :  -0.5655 B(  8-C , 20-H ) :  -0.5206
B(  8-C , 21-H ) :  -0.1313 B(  8-C , 22-H ) :   0.5452 B(  9-C , 11-C ) :   0.2825
B(  9-C , 12-C ) :  -0.2874 B(  9-C , 13-C ) :   0.2798 B(  9-C , 15-H ) :   0.1124
B(  9-C , 19-H ) :   0.1183 B(  9-C , 20-H ) :  -0.1111 B(  9-C , 21-H ) :   0.1052
B(  9-C , 22-H ) :  -0.1188 B(  9-C , 23-H ) :   0.1421 B( 10-C , 11-C ) :   1.3341
B( 10-C , 12-C ) :  -0.4583 B( 10-C , 13-C ) :   0.1141 B( 10-C , 14-C ) :  -0.9360
B( 10-C , 15-H ) :   0.3851 B( 10-C , 18-H ) :  -0.2202 B( 10-C , 19-H ) :   2.5481
B( 11-C , 12-C ) :   1.0175 B( 11-C , 13-C ) :   0.4247 B( 11-C , 14-C ) :   0.1221
B( 11-C , 18-H ) :   0.2312 B( 12-C , 13-C ) :   1.0084 B( 12-C , 14-C ) :  -0.4761
B( 12-C , 15-H ) :  -0.1475 B( 12-C , 16-H ) :   0.1850 B( 12-C , 17-H ) :   0.5934
B( 12-C , 18-H ) :   0.1906 B( 12-C , 19-H ) :  -0.1442 B( 13-C , 14-C ) :   1.3155
B( 13-C , 16-H ) :   0.2533 B( 14-C , 15-H ) :   2.5915 B( 14-C , 16-H ) :  -0.2302
B( 14-C , 19-H ) :   0.3957 B( 15-H , 16-H ) :  -0.1054 B( 15-H , 18-H ) :  -0.2023
B( 15-H , 19-H ) :   0.6988 B( 16-H , 19-H ) :  -0.1895 B( 18-H , 19-H ) :  -0.1194
B( 20-H , 23-H ) :  -0.1549

Dispersion correction           -0.008690600
FINAL SINGLE POINT ENERGY      -539.113836691341

DIPOLE MOMENT
-------------

Method             : SCF
Type of density    : Electron Density
Multiplicity       :   2
Irrep              :   0
Energy             :  -539.1051460915537064 Eh
Relativity type    :
Basis              : AO
                                X                 Y                 Z
Electronic contribution:      0.000336087      -0.000219668      -0.000136241
Nuclear contribution   :      0.000010392       0.000370111       0.000152227
                        -----------------------------------------
Total Dipole Moment    :      0.000346479       0.000150443       0.000015986
                        -----------------------------------------
Magnitude (a.u.)       :      0.000378069
Magnitude (Debye)      :      0.000960974

Rotational constants in cm-1:             0.092188             0.008430             0.007724
Rotational constants in MHz :          2763.733748           252.731480           231.556631

                             ****ORCA TERMINATED NORMALLY****
TOTAL RUN TIME: 0 days 0 hours 17 minutes 18 seconds 700 msec
