                         Program Version 6.0.0  -   RELEASE  -
|  1> !B3LYP opt aug-cc-pVTZ d3 TightSCF SlowConv RIJCOSX defgrid2
|  2>
|  3> %pal
|  4> nprocs 8
|  5> end
|  6>
|  7> %scf
|  8> MaxIter 1500
|  9> end
| 10>
| 11> %maxcore 3500
| 12>
| 13> !CPCM
| 14> %cpcm smd true
| 15> SMDsolvent "MeCN"
| 16> surfacetype gepol_ses
| 17> rsolv 2.19
| 18> end
| 19>
| 20> * xyz 1 2
| 21> C          -0.69806914174773     -1.08130758385803      0.00000478073461
| 22> C          -1.29995911913199      0.21220975823502      0.00000712364871
| 23> C          -0.48713495449795      1.39007645246692     -0.00001560397811
| 24> C           0.87407248196079      1.28097563070640     -0.00003015609287
| 25> C           1.48961473063931     -0.00988444370075     -0.00003464832734
| 26> C           0.66713129411178     -1.18242862965134     -0.00001675195059
| 27> H           1.14787115207094     -2.16374838611022     -0.00001833432844
| 28> C           2.87923367476782     -0.13303827989769     -0.00003947759998
| 29> C           4.09817372516796     -0.24492334399421     -0.00000244744274
| 30> H           5.17420938419188     -0.34031758843355     -0.00000256865577
| 31> H           1.50568477881681      2.17231925078041     -0.00004562485067
| 32> H          -0.99220253079888      2.35905562684180     -0.00001378344560
| 33> O          -2.58101948918323      0.42008257874155      0.00003691245038
| 34> C          -3.53711041258472     -0.64087278516494      0.00007811011347
| 35> H          -4.51842922650600     -0.15013878054896      0.00011237958636
| 36> H          -3.42139067434806     -1.25399713854605     -0.90847216906212
| 37> H          -3.42131652654994     -1.25398175148381      0.90862972609483
| 38> H          -1.31361454637877     -1.98259848638256      0.00002453310588
| 39> *
| 40>
| 41>                          ****END OF INPUT****
 Total Charge           Charge          ....    1
 Multiplicity           Mult            ....    2
 Number of Electrons    NEL             ....   69
Dispersion correction           -0.031260995
FINAL SINGLE POINT ENERGY      -422.652429514888
Dispersion correction             ... done (  0.0 sec)
Dispersion correction           -0.031404253
FINAL SINGLE POINT ENERGY      -422.654100335718
Dispersion correction             ... done (  0.0 sec)
Dispersion correction           -0.031436953
FINAL SINGLE POINT ENERGY      -422.654195327672
Dispersion correction             ... done (  0.0 sec)
Dispersion correction           -0.031442358
FINAL SINGLE POINT ENERGY      -422.654222853635
Dispersion correction             ... done (  0.1 sec)
Dispersion correction           -0.031438891
FINAL SINGLE POINT ENERGY      -422.654229892321
Dispersion correction             ... done (  0.1 sec)
                    ***********************HURRAY********************

CARTESIAN COORDINATES (ANGSTROEM)
---------------------------------
  C     -0.704141   -1.065865   -0.002608
  C     -1.291167    0.228399   -0.000432
  C     -0.478578    1.400257   -0.000913
  C      0.874675    1.281871   -0.001175
  C      1.475089   -0.009409   -0.001294
  C      0.652790   -1.174398   -0.002853
  H      1.123047   -2.145941   -0.003696
  C      2.862321   -0.139155    0.000671
  C      4.066782   -0.254525    0.002547
  H      5.129045   -0.353146    0.003794
  H      1.506442    2.156701   -0.001478
  H     -0.965999    2.363928   -0.000090
  O     -2.579826    0.442409    0.002185
  C     -3.520857   -0.663748    0.002025
  H     -4.498994   -0.197846   -0.000593
  H     -3.379440   -1.263125   -0.893981
  H     -3.383053   -1.260568    0.900465
  H     -1.322391   -1.948358   -0.002371

 Multiplicity           Mult            ....    2
 Number of Electrons    NEL             ....   69
 Basis Dimension        Dim             ....  644

ORBITAL ENERGIES
----------------
                 SPIN UP ORBITALS
  NO   OCC          E(Eh)            E(eV)
   0   1.0000     -19.233525      -523.3708
   1   1.0000     -10.308872      -280.5187
   2   1.0000     -10.262980      -279.2699
   3   1.0000     -10.239434      -278.6292
   4   1.0000     -10.227920      -278.3159
   5   1.0000     -10.223157      -278.1862
   6   1.0000     -10.223104      -278.1848
   7   1.0000     -10.221697      -278.1465
   8   1.0000     -10.221670      -278.1458
   9   1.0000     -10.217604      -278.0351
  10   1.0000      -1.141487       -31.0614
  11   1.0000      -0.913107       -24.8469
  12   1.0000      -0.834478       -22.7073
  13   1.0000      -0.804369       -21.8880
  14   1.0000      -0.782025       -21.2800
  15   1.0000      -0.740199       -20.1418
  16   1.0000      -0.664399       -18.0792
  17   1.0000      -0.647041       -17.6069
  18   1.0000      -0.589127       -16.0310
  19   1.0000      -0.568463       -15.4687
  20   1.0000      -0.537878       -14.6364
  21   1.0000      -0.536574       -14.6009
  22   1.0000      -0.518373       -14.1056
  23   1.0000      -0.480115       -13.0646
  24   1.0000      -0.468888       -12.7591
  25   1.0000      -0.452665       -12.3176
  26   1.0000      -0.436908       -11.8889
  27   1.0000      -0.434462       -11.8223
  28   1.0000      -0.404818       -11.0157
  29   1.0000      -0.397665       -10.8210
  30   1.0000      -0.368958       -10.0398
  31   1.0000      -0.340745        -9.2721
  32   1.0000      -0.320668        -8.7258
  33   1.0000      -0.307772        -8.3749
  34   1.0000      -0.267964        -7.2917
  35   0.0000      -0.080991        -2.2039
  36   0.0000      -0.050665        -1.3787
  37   0.0000      -0.007628        -0.2076
  38   0.0000       0.001177         0.0320
  39   0.0000       0.003622         0.0986

                 SPIN DOWN ORBITALS
  NO   OCC          E(Eh)            E(eV)
   0   1.0000     -19.228231      -523.2268
   1   1.0000     -10.306605      -280.4570
   2   1.0000     -10.258247      -279.1411
   3   1.0000     -10.239586      -278.6333
   4   1.0000     -10.228061      -278.3197
   5   1.0000     -10.223776      -278.2031
   6   1.0000     -10.220469      -278.1131
   7   1.0000     -10.220118      -278.1036
   8   1.0000     -10.219934      -278.0985
   9   1.0000     -10.217298      -278.0268
  10   1.0000      -1.131729       -30.7959
  11   1.0000      -0.906458       -24.6660
  12   1.0000      -0.826786       -22.4980
  13   1.0000      -0.802228       -21.8297
  14   1.0000      -0.774956       -21.0876
  15   1.0000      -0.733474       -19.9589
  16   1.0000      -0.660060       -17.9611
  17   1.0000      -0.643258       -17.5039
  18   1.0000      -0.586429       -15.9575
  19   1.0000      -0.564844       -15.3702
  20   1.0000      -0.535424       -14.5696
  21   1.0000      -0.533124       -14.5070
  22   1.0000      -0.500913       -13.6305
  23   1.0000      -0.477885       -13.0039
  24   1.0000      -0.467873       -12.7315
  25   1.0000      -0.450702       -12.2642
  26   1.0000      -0.435682       -11.8555
  27   1.0000      -0.420223       -11.4348
  28   1.0000      -0.403177       -10.9710
  29   1.0000      -0.379660       -10.3311
  30   1.0000      -0.365828        -9.9547
  31   1.0000      -0.317682        -8.6446
  32   1.0000      -0.316280        -8.6064
  33   1.0000      -0.302863        -8.2413
  34   0.0000      -0.196524        -5.3477
  35   0.0000      -0.058433        -1.5900
  36   0.0000      -0.040320        -1.0972
  37   0.0000      -0.007397        -0.2013
  38   0.0000       0.001744         0.0474

MULLIKEN ATOMIC CHARGES AND SPIN POPULATIONS
--------------------------------------------
   0 C :   -0.147450    0.073703
   1 C :    1.390800    0.160407
   2 C :   -0.696436    0.091691
   3 C :   -1.079277   -0.057500
   4 C :    1.564201    0.348402
   5 C :   -1.187954   -0.015032
   6 H :   -0.261047   -0.003211
   7 C :    1.277602   -0.099748
   8 C :   -0.729578    0.331740
   9 H :    0.333011   -0.012644
  10 H :   -0.230451   -0.001264
  11 H :    0.602677    0.000416
  12 O :   -0.658729    0.175489
  13 C :   -0.624468   -0.010860
  14 H :    0.256727    0.000879
  15 H :    0.314276    0.006803
  16 H :    0.312991    0.007098
  17 H :    0.563104    0.003633
Sum of atomic charges         :    1.0000000

LOEWDIN ATOMIC CHARGES AND SPIN POPULATIONS
-------------------------------------------
   0 C :    0.286464    0.071373
   1 C :   -0.325951    0.130482
   2 C :    0.280162    0.075637
   3 C :    0.260282    0.035717
   4 C :   -0.147044    0.146169
   5 C :    0.270214    0.050389
   6 H :   -0.141420    0.000610
   7 C :    0.056184    0.074907
   8 C :    0.506362    0.177599
   9 H :   -0.240996    0.041507
  10 H :   -0.144462   -0.003123
  11 H :   -0.148173    0.010953
  12 O :    0.665187    0.155097
  13 C :    0.457379    0.015558
  14 H :   -0.162207   -0.000394
  15 H :   -0.153419    0.003852
  16 H :   -0.152772    0.003877
  17 H :   -0.165791    0.009788

  Mayer bond orders larger than 0.100000
B(  0-C ,  1-C ) :   0.8620 B(  0-C ,  2-C ) :   0.1289 B(  0-C ,  4-C ) :   0.6898
B(  0-C ,  5-C ) :   1.1819 B(  0-C ,  6-H ) :  -0.1924 B(  0-C ,  7-C ) :  -0.2400
B(  0-C , 11-H ) :  -0.1070 B(  0-C , 17-H ) :   0.3442 B(  1-C ,  2-C ) :   0.6252
B(  1-C ,  3-C ) :  -0.4969 B(  1-C ,  4-C ) :  -0.1890 B(  1-C ,  5-C ) :  -0.4727
B(  1-C ,  7-C ) :   0.3177 B(  1-C , 10-H ) :  -0.1224 B(  1-C , 11-H ) :   0.1626
B(  1-C , 12-O ) :   0.4707 B(  1-C , 17-H ) :   0.1386 B(  2-C ,  3-C ) :   1.4267
B(  2-C ,  4-C ) :   0.5520 B(  2-C ,  7-C ) :  -0.1398 B(  2-C , 11-H ) :   0.2777
B(  2-C , 12-O ) :   0.3067 B(  3-C ,  5-C ) :  -0.4767 B(  3-C ,  6-H ) :   0.2478
B(  3-C ,  7-C ) :   0.4169 B(  3-C , 10-H ) :   2.0735 B(  4-C ,  5-C ) :   0.1447
B(  4-C ,  6-H ) :  -0.2047 B(  4-C ,  8-C ) :   0.8152 B(  4-C , 12-O ) :   0.1267
B(  5-C ,  6-H ) :   2.1705 B(  5-C ,  7-C ) :   0.3373 B(  5-C ,  8-C ) :  -0.1695
B(  5-C , 10-H ) :   0.2306 B(  6-H ,  7-C ) :  -0.2521 B(  6-H ,  8-C ) :  -0.3814
B(  6-H , 10-H ) :   0.4587 B(  7-C ,  8-C ) :   1.6667 B(  7-C ,  9-H ) :  -0.2545
B(  7-C , 10-H ) :  -0.3364 B(  8-C ,  9-H ) :   1.1879 B(  8-C , 10-H ) :  -0.3845
B(  8-C , 11-H ) :   0.1179 B(  8-C , 17-H ) :   0.2104 B( 12-O , 13-C ) :   0.9133
B( 13-C , 14-H ) :   0.9787 B( 13-C , 15-H ) :   0.8833 B( 13-C , 16-H ) :   0.8846

Dispersion correction           -0.031437310
FINAL SINGLE POINT ENERGY      -422.654230128065

DIPOLE MOMENT
-------------

Method             : SCF
Type of density    : Electron Density
Multiplicity       :   2
Irrep              :   0
Energy             :  -422.6227928179389437 Eh
Relativity type    :
Basis              : AO
                                X                 Y                 Z
Electronic contribution:      5.168166753       1.771464378      -0.002544482
Nuclear contribution   :     -5.481353755      -2.457901133       0.002603528
                        -----------------------------------------
Total Dipole Moment    :     -0.313187003      -0.686436755       0.000059046
                        -----------------------------------------
Magnitude (a.u.)       :      0.754507469
Magnitude (Debye)      :      1.917805577

Rotational constants in cm-1:             0.157061             0.024101             0.020979
Rotational constants in MHz :          4708.566435           722.521087           628.931955

                             ****ORCA TERMINATED NORMALLY****
TOTAL RUN TIME: 0 days 0 hours 29 minutes 1 seconds 137 msec
