                         Program Version 6.0.0  -   RELEASE  -
|  1> !TPSSh aug-cc-pVTZ d3 TightSCF SlowConv RIJCOSX defgrid2
|  2>
|  3> %pal
|  4> nprocs 4
|  5> end
|  6>
|  7> %scf
|  8> MaxIter 1500
|  9> end
| 10>
| 11> %maxcore 3000
| 12>
| 13> !CPCM
| 14> %cpcm smd true
| 15> SMDsolvent "MeCN"
| 16> surfacetype gepol_ses
| 17> rsolv 2.19
| 18> end
| 19>
| 20> * xyz 0 1
| 21> C          -0.72498712360752     -1.03199143591489     -0.00035587408950
| 22> C          -1.31725281953672      0.23700082940336     -0.00009216740947
| 23> C          -0.49927603036286      1.37741269983118     -0.00017815340748
| 24> C           0.87877130461947      1.25225114649976     -0.00046421372633
| 25> C           1.48912617012247     -0.01748708715836     -0.00062594889474
| 26> C           0.66252427774642     -1.14934366375667     -0.00064528665934
| 27> H           1.11889620163877     -2.14249327366435     -0.00083021648088
| 28> C           2.91104462440564     -0.14733894022628     -0.00063151415770
| 29> C           4.11990582812650     -0.25742637188868      0.00161358861277
| 30> H           5.19058139416864     -0.35415649223885      0.00097524906911
| 31> H           1.50779855780145      2.14601626186340     -0.00050473395896
| 32> H          -0.98017045333696      2.35860761783862      0.00000793066196
| 33> O          -2.64430351331883      0.45808400164866      0.00024605971359
| 34> C          -3.51534558275692     -0.63765175952228      0.00045178300619
| 35> H          -4.53490407246321     -0.22445155867607      0.00076695107216
| 36> H          -3.38161982455796     -1.26589006640153     -0.90098962915142
| 37> H          -3.38109122143507     -1.26596319208985      0.90176498266982
| 38> H          -1.33393961725331     -1.93771991554716     -0.00032660686979
| 39> *
| 40>
| 41>                          ****END OF INPUT****

CARTESIAN COORDINATES (ANGSTROEM)
---------------------------------
  C     -0.724987   -1.031991   -0.000356
  C     -1.317253    0.237001   -0.000092
  C     -0.499276    1.377413   -0.000178
  C      0.878771    1.252251   -0.000464
  C      1.489126   -0.017487   -0.000626
  C      0.662524   -1.149344   -0.000645
  H      1.118896   -2.142493   -0.000830
  C      2.911045   -0.147339   -0.000632
  C      4.119906   -0.257426    0.001614
  H      5.190581   -0.354156    0.000975
  H      1.507799    2.146016   -0.000505
  H     -0.980170    2.358608    0.000008
  O     -2.644304    0.458084    0.000246
  C     -3.515346   -0.637652    0.000452
  H     -4.534904   -0.224452    0.000767
  H     -3.381620   -1.265890   -0.900990
  H     -3.381091   -1.265963    0.901765
  H     -1.333940   -1.937720   -0.000327

 Total Charge           Charge          ....    0
 Multiplicity           Mult            ....    1
 Number of Electrons    NEL             ....   70
 Basis Dimension        Dim             ....  644

ORBITAL ENERGIES
----------------

  NO   OCC          E(Eh)            E(eV)
   0   2.0000     -19.092221      -519.5258
   1   2.0000     -10.183187      -277.0986
   2   2.0000     -10.159968      -276.4668
   3   2.0000     -10.141222      -275.9567
   4   2.0000     -10.129086      -275.6264
   5   2.0000     -10.128509      -275.6107
   6   2.0000     -10.124511      -275.5020
   7   2.0000     -10.121009      -275.4067
   8   2.0000     -10.119650      -275.3697
   9   2.0000     -10.113322      -275.1975
  10   2.0000      -1.058931       -28.8150
  11   2.0000      -0.846596       -23.0370
  12   2.0000      -0.769152       -20.9297
  13   2.0000      -0.738127       -20.0855
  14   2.0000      -0.719275       -19.5725
  15   2.0000      -0.677418       -18.4335
  16   2.0000      -0.602755       -16.4018
  17   2.0000      -0.589168       -16.0321
  18   2.0000      -0.532889       -14.5006
  19   2.0000      -0.513023       -13.9601
  20   2.0000      -0.479048       -13.0356
  21   2.0000      -0.472523       -12.8580
  22   2.0000      -0.452299       -12.3077
  23   2.0000      -0.430730       -11.7208
  24   2.0000      -0.409309       -11.1379
  25   2.0000      -0.399850       -10.8805
  26   2.0000      -0.376931       -10.2568
  27   2.0000      -0.376055       -10.2330
  28   2.0000      -0.347425        -9.4539
  29   2.0000      -0.331849        -9.0301
  30   2.0000      -0.312171        -8.4946
  31   2.0000      -0.280024        -7.6198
  32   2.0000      -0.272502        -7.4152
  33   2.0000      -0.254975        -6.9382
  34   2.0000      -0.210999        -5.7416
  35   0.0000      -0.044174        -1.2020
  36   0.0000      -0.030989        -0.8432
  37   0.0000      -0.004161        -0.1132
  38   0.0000       0.006546         0.1781
  39   0.0000       0.010967         0.2984

MULLIKEN ATOMIC CHARGES
-----------------------
   0 C :   -0.120084
   1 C :    1.120494
   2 C :   -0.608601
   3 C :   -0.894834
   4 C :    1.271357
   5 C :   -0.999585
   6 H :   -0.347793
   7 C :    1.186463
   8 C :   -0.630410
   9 H :    0.029183
  10 H :   -0.313760
  11 H :    0.424636
  12 O :   -0.738228
  13 C :   -0.279042
  14 H :    0.029663
  15 H :    0.212737
  16 H :    0.211963
  17 H :    0.445841
Sum of atomic charges:   -0.0000000

LOEWDIN ATOMIC CHARGES
----------------------
   0 C :    0.213486
   1 C :   -0.398812
   2 C :    0.208340
   3 C :    0.186659
   4 C :   -0.237566
   5 C :    0.191686
   6 H :   -0.160912
   7 C :   -0.030282
   8 C :    0.393317
   9 H :   -0.287830
  10 H :   -0.162339
  11 H :   -0.168618
  12 O :    0.600242
  13 C :    0.324978
  14 H :   -0.167733
  15 H :   -0.159316
  16 H :   -0.159274
  17 H :   -0.186026

  Mayer bond orders larger than 0.100000
B(  0-C ,  1-C ) :   1.0774 B(  0-C ,  2-C ) :   0.1899 B(  0-C ,  4-C ) :   0.4603
B(  0-C ,  5-C ) :   1.2247 B(  0-C ,  6-H ) :  -0.1252 B(  0-C ,  8-C ) :  -0.1843
B(  0-C , 17-H ) :   0.3715 B(  1-C ,  2-C ) :   0.9430 B(  1-C ,  3-C ) :  -0.4481
B(  1-C ,  4-C ) :  -0.1314 B(  1-C ,  5-C ) :  -0.3802 B(  1-C ,  7-C ) :   0.2381
B(  1-C ,  8-C ) :   0.1021 B(  1-C , 11-H ) :   0.2096 B(  1-C , 17-H ) :   0.2090
B(  2-C ,  3-C ) :   1.5379 B(  2-C ,  4-C ) :   0.3683 B(  2-C ,  8-C ) :  -0.1533
B(  2-C , 11-H ) :   0.3682 B(  2-C , 12-O ) :   0.3918 B(  3-C ,  4-C ) :   0.5272
B(  3-C ,  5-C ) :  -0.5132 B(  3-C ,  6-H ) :   0.1450 B(  3-C ,  7-C ) :   0.3570
B(  3-C , 10-H ) :   1.7909 B(  4-C ,  5-C ) :   0.4776 B(  4-C ,  7-C ) :  -0.1605
B(  4-C ,  8-C ) :   0.6647 B(  4-C ,  9-H ) :   0.1113 B(  4-C , 12-O ) :   0.1337
B(  5-C ,  6-H ) :   1.9606 B(  5-C ,  7-C ) :   0.2911 B(  5-C , 10-H ) :   0.1418
B(  5-C , 17-H ) :  -0.1492 B(  6-H ,  7-C ) :  -0.2506 B(  6-H ,  8-C ) :  -0.3054
B(  6-H , 10-H ) :   0.4924 B(  7-C ,  8-C ) :   1.7561 B(  7-C ,  9-H ) :  -0.4126
B(  7-C , 10-H ) :  -0.3102 B(  8-C ,  9-H ) :   1.4882 B(  8-C , 10-H ) :  -0.2987
B(  8-C , 11-H ) :   0.1388 B(  8-C , 17-H ) :   0.2048 B( 12-O , 13-C ) :   1.0131
B( 13-C , 14-H ) :   1.0797 B( 13-C , 15-H ) :   0.9165 B( 13-C , 16-H ) :   0.9170

Dispersion correction           -0.021288606
FINAL SINGLE POINT ENERGY      -423.126737304628

DIPOLE MOMENT
-------------

Method             : SCF
Type of density    : Electron Density
Multiplicity       :   1
Irrep              :   0
Energy             :  -423.1054486983630909 Eh
Relativity type    :
Basis              : AO
                                X                 Y                 Z
Electronic contribution:      4.412765470       1.960753860      -0.001235923
Nuclear contribution   :     -5.472543809      -2.520175441       0.001174688
                        -----------------------------------------
Total Dipole Moment    :     -1.059778338      -0.559421580      -0.000061235
                        -----------------------------------------
Magnitude (a.u.)       :      1.198366653
Magnitude (Debye)      :      3.046005961

Rotational constants in cm-1:             0.162149             0.023538             0.020637
Rotational constants in MHz :          4861.113339           705.666032           618.684466

                             ****ORCA TERMINATED NORMALLY****
TOTAL RUN TIME: 0 days 0 hours 6 minutes 9 seconds 338 msec
