                         Program Version 6.0.0  -   RELEASE  -
|  1> !PBE0 aug-cc-pVTZ d3 TightSCF SlowConv RIJCOSX defgrid2
|  2>
|  3> %pal
|  4> nprocs 4
|  5> end
|  6>
|  7> %scf
|  8> MaxIter 1500
|  9> end
| 10>
| 11> %maxcore 3000
| 12>
| 13> !CPCM
| 14> %cpcm smd true
| 15> SMDsolvent "MeCN"
| 16> surfacetype gepol_ses
| 17> rsolv 2.19
| 18> end
| 19>
| 20> * xyz -1 2
| 21> C           0.68315502285048     -1.23058998559791     -0.00197785400563
| 22> C          -0.69097039389614     -1.22820808682412     -0.00110778792906
| 23> C          -1.39878915837568      0.00192561974512      0.00006123035750
| 24> C          -0.67088260295619      1.21697689217912      0.00034729291936
| 25> C           0.70599002665524      1.19710781410292     -0.00056169847882
| 26> C           1.43890972865005     -0.02356673016238     -0.00174160392592
| 27> C           2.88835051512998     -0.09555430971111     -0.00265662366589
| 28> O           3.51113560358604     -1.16132419888811     -0.00429988492646
| 29> C           3.67215429347512      1.21312233920081     -0.00319382492201
| 30> H           3.44490427270519      1.82862721041062      0.88658626511100
| 31> H           4.74564035342603      0.96713680695522     -0.00513239151038
| 32> H           3.44193148262032      1.82994436135706     -0.89128425723845
| 33> H           1.24130264942652      2.15210104681416     -0.00032125400509
| 34> H          -1.23634900308120      2.15002194871812      0.00128004669295
| 35> N          -2.79949677516438      0.01738261553575      0.00104508920787
| 36> O          -3.38660343043673      1.11542368371417      0.00320409549424
| 37> O          -3.41030224545591     -1.06695584054066      0.00182719273433
| 38> H          -1.27295707729704     -2.15125183977829     -0.00128101747157
| 39> H           1.24384223813830     -2.16976914723049     -0.00287851443797
| 40> *
| 41>
| 42>                          ****END OF INPUT****

CARTESIAN COORDINATES (ANGSTROEM)
---------------------------------
  C      0.683155   -1.230590   -0.001978
  C     -0.690970   -1.228208   -0.001108
  C     -1.398789    0.001926    0.000061
  C     -0.670883    1.216977    0.000347
  C      0.705990    1.197108   -0.000562
  C      1.438910   -0.023567   -0.001742
  C      2.888351   -0.095554   -0.002657
  O      3.511136   -1.161324   -0.004300
  C      3.672154    1.213122   -0.003194
  H      3.444904    1.828627    0.886586
  H      4.745640    0.967137   -0.005132
  H      3.441931    1.829944   -0.891284
  H      1.241303    2.152101   -0.000321
  H     -1.236349    2.150022    0.001280
  N     -2.799497    0.017383    0.001045
  O     -3.386603    1.115424    0.003204
  O     -3.410302   -1.066956    0.001827
  H     -1.272957   -2.151252   -0.001281
  H      1.243842   -2.169769   -0.002879

 Total Charge           Charge          ....   -1
 Multiplicity           Mult            ....    2
 Number of Electrons    NEL             ....   87
 Basis Dimension        Dim             ....  713

ORBITAL ENERGIES
----------------
                 SPIN UP ORBITALS
  NO   OCC          E(Eh)            E(eV)
   0   1.0000     -19.179420      -521.8986
   1   1.0000     -19.179297      -521.8952
   2   1.0000     -19.173793      -521.7454
   3   1.0000     -14.549166      -395.9029
   4   1.0000     -10.291887      -280.0565
   5   1.0000     -10.255087      -279.0551
   6   1.0000     -10.228473      -278.3309
   7   1.0000     -10.224372      -278.2193
   8   1.0000     -10.223040      -278.1831
   9   1.0000     -10.222868      -278.1784
  10   1.0000     -10.222053      -278.1562
  11   1.0000     -10.208830      -277.7964
  12   1.0000      -1.197163       -32.5765
  13   1.0000      -1.044562       -28.4240
  14   1.0000      -1.018829       -27.7238
  15   1.0000      -0.883633       -24.0449
  16   1.0000      -0.812480       -22.1087
  17   1.0000      -0.767656       -20.8890
  18   1.0000      -0.747926       -20.3521
  19   1.0000      -0.700710       -19.0673
  20   1.0000      -0.614400       -16.7187
  21   1.0000      -0.602305       -16.3896
  22   1.0000      -0.555881       -15.1263
  23   1.0000      -0.532727       -14.4962
  24   1.0000      -0.512806       -13.9542
  25   1.0000      -0.494035       -13.4434
  26   1.0000      -0.479664       -13.0523
  27   1.0000      -0.457895       -12.4599
  28   1.0000      -0.445572       -12.1246
  29   1.0000      -0.440752       -11.9935
  30   1.0000      -0.426279       -11.5997
  31   1.0000      -0.411639       -11.2013
  32   1.0000      -0.404299       -11.0015
  33   1.0000      -0.381003       -10.3676
  34   1.0000      -0.374032       -10.1779
  35   1.0000      -0.355735        -9.6801
  36   1.0000      -0.336061        -9.1447
  37   1.0000      -0.298694        -8.1279
  38   1.0000      -0.287529        -7.8241
  39   1.0000      -0.271931        -7.3996
  40   1.0000      -0.269107        -7.3228
  41   1.0000      -0.260420        -7.0864
  42   1.0000      -0.252717        -6.8768
  43   1.0000      -0.142179        -3.8689
  44   0.0000      -0.033139        -0.9018
  45   0.0000      -0.001850        -0.0503
  46   0.0000       0.002496         0.0679
  47   0.0000       0.015294         0.4162
  48   0.0000       0.019306         0.5253

                 SPIN DOWN ORBITALS
  NO   OCC          E(Eh)            E(eV)
   0   1.0000     -19.174828      -521.7736
   1   1.0000     -19.174779      -521.7723
   2   1.0000     -19.170941      -521.6678
   3   1.0000     -14.544249      -395.7691
   4   1.0000     -10.291393      -280.0430
   5   1.0000     -10.254022      -279.0261
   6   1.0000     -10.228957      -278.3441
   7   1.0000     -10.224730      -278.2291
   8   1.0000     -10.221848      -278.1506
   9   1.0000     -10.221492      -278.1409
  10   1.0000     -10.219356      -278.0828
  11   1.0000     -10.208891      -277.7981
  12   1.0000      -1.187854       -32.3231
  13   1.0000      -1.039451       -28.2849
  14   1.0000      -1.010069       -27.4854
  15   1.0000      -0.879964       -23.9450
  16   1.0000      -0.805084       -21.9074
  17   1.0000      -0.764885       -20.8136
  18   1.0000      -0.743906       -20.2427
  19   1.0000      -0.693824       -18.8799
  20   1.0000      -0.613635       -16.6979
  21   1.0000      -0.597195       -16.2505
  22   1.0000      -0.553756       -15.0685
  23   1.0000      -0.526849       -14.3363
  24   1.0000      -0.489276       -13.3139
  25   1.0000      -0.484173       -13.1750
  26   1.0000      -0.477346       -12.9892
  27   1.0000      -0.454778       -12.3751
  28   1.0000      -0.444312       -12.0903
  29   1.0000      -0.434130       -11.8133
  30   1.0000      -0.425619       -11.5817
  31   1.0000      -0.410023       -11.1573
  32   1.0000      -0.403225       -10.9723
  33   1.0000      -0.373657       -10.1677
  34   1.0000      -0.372938       -10.1482
  35   1.0000      -0.344145        -9.3646
  36   1.0000      -0.335384        -9.1263
  37   1.0000      -0.283139        -7.7046
  38   1.0000      -0.268999        -7.3198
  39   1.0000      -0.257941        -7.0189
  40   1.0000      -0.256194        -6.9714
  41   1.0000      -0.251131        -6.8336
  42   1.0000      -0.249956        -6.8016
  43   0.0000      -0.066991        -1.8229
  44   0.0000      -0.002430        -0.0661
  45   0.0000       0.000603         0.0164
  46   0.0000       0.003805         0.1035
  47   0.0000       0.016500         0.4490

MULLIKEN ATOMIC CHARGES AND SPIN POPULATIONS
--------------------------------------------
   0 C :   -0.924079   -0.014420
   1 C :   -0.505394    0.093756
   2 C :    0.353842    0.053163
   3 C :   -0.734781    0.104311
   4 C :   -0.564690   -0.011240
   5 C :    1.106199    0.171106
   6 C :    0.615214    0.025081
   7 O :   -0.966091    0.105141
   8 C :   -0.677193   -0.004542
   9 H :    0.286722    0.002799
  10 H :    0.179850   -0.001158
  11 H :    0.286313    0.002825
  12 H :    0.202233   -0.002401
  13 H :    0.558030   -0.004823
  14 N :    0.651862    0.134644
  15 O :   -0.836061    0.176327
  16 O :   -0.835531    0.178923
  17 H :    0.609085   -0.006623
  18 H :    0.194471   -0.002870
Sum of atomic charges         :   -1.0000000

LOEWDIN ATOMIC CHARGES AND SPIN POPULATIONS
-------------------------------------------
   0 C :    0.168106    0.024988
   1 C :    0.173555    0.050014
   2 C :   -0.303817    0.071736
   3 C :    0.175872    0.054121
   4 C :    0.179547    0.027141
   5 C :   -0.165839    0.091677
   6 C :   -0.603810    0.063294
   7 O :    0.434303    0.087830
   8 C :    0.541361    0.007958
   9 H :   -0.163158    0.001841
  10 H :   -0.186229   -0.000158
  11 H :   -0.163177    0.001840
  12 H :   -0.183114   -0.000289
  13 H :   -0.208998    0.010969
  14 N :   -0.856100    0.177057
  15 O :    0.281090    0.159216
  16 O :    0.281118    0.161389
  17 H :   -0.209320    0.010006
  18 H :   -0.191391   -0.000629

  Mayer bond orders larger than 0.100000
B(  0-C ,  1-C ) :   1.5750 B(  0-C ,  2-C ) :  -0.3359 B(  0-C ,  4-C ) :  -0.4018
B(  0-C ,  5-C ) :   0.3732 B(  0-C ,  6-C ) :   0.2387 B(  0-C , 16-O ) :  -0.1264
B(  0-C , 18-H ) :   1.0305 B(  1-C ,  2-C ) :   0.9644 B(  1-C ,  3-C ) :   0.1621
B(  1-C ,  4-C ) :  -0.1502 B(  1-C ,  5-C ) :   0.2072 B(  1-C ,  7-O ) :  -0.1012
B(  1-C , 14-N ) :  -0.1487 B(  1-C , 17-H ) :   0.2652 B(  2-C ,  3-C ) :   0.8666
B(  2-C ,  4-C ) :  -0.2722 B(  2-C , 14-N ) :   1.3733 B(  2-C , 15-O ) :   0.4241
B(  2-C , 16-O ) :   0.4300 B(  3-C ,  4-C ) :   1.2935 B(  3-C ,  5-C ) :   0.2558
B(  3-C , 13-H ) :   0.3239 B(  3-C , 14-N ) :  -0.2279 B(  4-C ,  5-C ) :   0.4600
B(  4-C ,  6-C ) :   0.1637 B(  4-C , 12-H ) :   1.1314 B(  4-C , 15-O ) :  -0.1182
B(  5-C ,  6-C ) :   0.4325 B(  5-C ,  7-O ) :   0.2624 B(  6-C ,  7-O ) :   0.7559
B(  6-C ,  8-C ) :   0.9802 B(  7-O , 18-H ) :   0.1601 B(  8-C ,  9-H ) :   0.9139
B(  8-C , 10-H ) :   0.9626 B(  8-C , 11-H ) :   0.9139 B( 14-N , 15-O ) :   0.7465
B( 14-N , 16-O ) :   0.7431

Dispersion correction           -0.018307986
FINAL SINGLE POINT ENERGY      -589.109643511655

DIPOLE MOMENT
-------------

Method             : SCF
Type of density    : Electron Density
Multiplicity       :   2
Irrep              :   0
Energy             :  -589.0913355253667305 Eh
Relativity type    :
Basis              : AO
                                X                 Y                 Z
Electronic contribution:     -7.953318945      -2.986664693       0.005356447
Nuclear contribution   :     10.845568770       4.317310741      -0.007525614
                        -----------------------------------------
Total Dipole Moment    :      2.892249825       1.330646048      -0.002169167
                        -----------------------------------------
Magnitude (a.u.)       :      3.183666544
Magnitude (Debye)      :      8.092237254

Rotational constants in cm-1:             0.095337             0.015839             0.013617
Rotational constants in MHz :          2858.135441           474.832890           408.233574

                             ****ORCA TERMINATED NORMALLY****
TOTAL RUN TIME: 0 days 0 hours 9 minutes 19 seconds 856 msec
