                         Program Version 6.0.0  -   RELEASE  -
|  1> !r2SCAN aug-cc-pVTZ d3 TightSCF SlowConv RIJCOSX defgrid2
|  2>
|  3> %pal
|  4> nprocs 15
|  5> end
|  6>
|  7> %scf
|  8> MaxIter 1500
|  9> end
| 10>
| 11> %maxcore 3500
| 12>
| 13> !CPCM
| 14> %cpcm smd true
| 15> SMDsolvent "WATER"
| 16> surfacetype gepol_ses
| 17> rsolv 1.40
| 18> end
| 19>
| 20> * xyz 0 2
| 21> O           1.88690927477882      3.74806898805585      1.42790289574278
| 22> N           2.66570902784045      2.77513380487914      1.23314234100198
| 23> C           3.71807770622021      2.91486477310037      0.20083862291935
| 24> C           4.06679330721770      1.52187309981258     -0.33561683406574
| 25> C           4.26235980542420      0.51991448657483      0.75657521226637
| 26> C           3.67404864254557      0.65032800080598      1.94644397870158
| 27> C           2.73307636235429      1.76248913631005      2.31086399015079
| 28> C           4.95112257605395      3.58551917484617      0.81923431194237
| 29> C           3.16091226951920      3.78193702577193     -0.92132048240517
| 30> C           3.17395858898893      2.44345537325049      3.61369764885195
| 31> C           1.32073939913320      1.18748524121188      2.48092813116148
| 32> H           4.97513017363378      1.60092795230428     -0.95867141911157
| 33> H           3.26044945528291      1.18093042448815     -1.01431485641457
| 34> H           4.90234278810831     -0.34794900982598      0.56007401454088
| 35> H           3.82972945021685     -0.10316520119785      2.72741095147656
| 36> H           4.65258295126461      4.52123052785349      1.32092945486630
| 37> H           5.44112718582814      2.92720008818477      1.55542007959442
| 38> H           5.68693306335011      3.83067566104788      0.03349341051902
| 39> H           2.94941849475266      4.80089518300529     -0.56613909595122
| 40> H           2.22162992414553      3.35760034153928     -1.31367493520621
| 41> H           3.89642864117668      3.83221617465297     -1.74256230977595
| 42> H           2.49710932074295      3.28563400859979      3.82950614292032
| 43> H           4.20428697805417      2.82730905875215      3.53671032500385
| 44> H           3.13322334174784      1.72739398341330      4.45203000678507
| 45> H           0.61667710656740      2.00289288566967      2.71131797235433
| 46> H           0.99501687952592      0.68921661071683      1.55267423468629
| 47> H           1.30310628552554      0.45079320617666      3.30164820744471
| 48> *
| 49>
| 50>                          ****END OF INPUT****

CARTESIAN COORDINATES (ANGSTROEM)
---------------------------------
  O      1.886909    3.748069    1.427903
  N      2.665709    2.775134    1.233142
  C      3.718078    2.914865    0.200839
  C      4.066793    1.521873   -0.335617
  C      4.262360    0.519914    0.756575
  C      3.674049    0.650328    1.946444
  C      2.733076    1.762489    2.310864
  C      4.951123    3.585519    0.819234
  C      3.160912    3.781937   -0.921320
  C      3.173959    2.443455    3.613698
  C      1.320739    1.187485    2.480928
  H      4.975130    1.600928   -0.958671
  H      3.260449    1.180930   -1.014315
  H      4.902343   -0.347949    0.560074
  H      3.829729   -0.103165    2.727411
  H      4.652583    4.521231    1.320929
  H      5.441127    2.927200    1.555420
  H      5.686933    3.830676    0.033493
  H      2.949418    4.800895   -0.566139
  H      2.221630    3.357600   -1.313675
  H      3.896429    3.832216   -1.742562
  H      2.497109    3.285634    3.829506
  H      4.204287    2.827309    3.536710
  H      3.133223    1.727394    4.452030
  H      0.616677    2.002893    2.711318
  H      0.995017    0.689217    1.552674
  H      1.303106    0.450793    3.301648

 Total Charge           Charge          ....    0
 Multiplicity           Mult            ....    2
 Number of Electrons    NEL             ....   85
 Basis Dimension        Dim             ....  874

ORBITAL ENERGIES
----------------
                 SPIN UP ORBITALS
  NO   OCC          E(Eh)            E(eV)
   0   1.0000     -18.959902      -515.9252
   1   1.0000     -14.261246      -388.0682
   2   1.0000     -10.088801      -274.5302
   3   1.0000     -10.085935      -274.4522
   4   1.0000     -10.037952      -273.1466
   5   1.0000     -10.036928      -273.1187
   6   1.0000     -10.034808      -273.0610
   7   1.0000     -10.025589      -272.8101
   8   1.0000     -10.025512      -272.8080
   9   1.0000     -10.025294      -272.8021
  10   1.0000     -10.022017      -272.7130
  11   1.0000      -1.077496       -29.3202
  12   1.0000      -0.843793       -22.9608
  13   1.0000      -0.788491       -21.4559
  14   1.0000      -0.737044       -20.0560
  15   1.0000      -0.688477       -18.7344
  16   1.0000      -0.659438       -17.9442
  17   1.0000      -0.650288       -17.6952
  18   1.0000      -0.647547       -17.6207
  19   1.0000      -0.568425       -15.4676
  20   1.0000      -0.551652       -15.0112
  21   1.0000      -0.478063       -13.0088
  22   1.0000      -0.464797       -12.6478
  23   1.0000      -0.461486       -12.5577
  24   1.0000      -0.436857       -11.8875
  25   1.0000      -0.417575       -11.3628
  26   1.0000      -0.407459       -11.0875
  27   1.0000      -0.404886       -11.0175
  28   1.0000      -0.380425       -10.3519
  29   1.0000      -0.372909       -10.1474
  30   1.0000      -0.368150       -10.0179
  31   1.0000      -0.356491        -9.7006
  32   1.0000      -0.343769        -9.3544
  33   1.0000      -0.341911        -9.3039
  34   1.0000      -0.339228        -9.2309
  35   1.0000      -0.333942        -9.0870
  36   1.0000      -0.316277        -8.6063
  37   1.0000      -0.313021        -8.5177
  38   1.0000      -0.307297        -8.3620
  39   1.0000      -0.286591        -7.7985
  40   1.0000      -0.233382        -6.3507
  41   1.0000      -0.228939        -6.2297
  42   1.0000      -0.168776        -4.5926
  43   0.0000      -0.018150        -0.4939
  44   0.0000       0.006979         0.1899
  45   0.0000       0.018789         0.5113
  46   0.0000       0.022378         0.6089
  47   0.0000       0.025438         0.6922

                 SPIN DOWN ORBITALS
  NO   OCC          E(Eh)            E(eV)
   0   1.0000     -18.945595      -515.5359
   1   1.0000     -14.246615      -387.6701
   2   1.0000     -10.089318      -274.5443
   3   1.0000     -10.086406      -274.4650
   4   1.0000     -10.037756      -273.1412
   5   1.0000     -10.036992      -273.1204
   6   1.0000     -10.034733      -273.0590
   7   1.0000     -10.025178      -272.7990
   8   1.0000     -10.024863      -272.7904
   9   1.0000     -10.024453      -272.7792
  10   1.0000     -10.021893      -272.7096
  11   1.0000      -1.056422       -28.7467
  12   1.0000      -0.835087       -22.7239
  13   1.0000      -0.787659       -21.4333
  14   1.0000      -0.731789       -19.9130
  15   1.0000      -0.675984       -18.3945
  16   1.0000      -0.657043       -17.8791
  17   1.0000      -0.648884       -17.6570
  18   1.0000      -0.647119       -17.6090
  19   1.0000      -0.565561       -15.3897
  20   1.0000      -0.548270       -14.9192
  21   1.0000      -0.469281       -12.7698
  22   1.0000      -0.462424       -12.5832
  23   1.0000      -0.450367       -12.2551
  24   1.0000      -0.421849       -11.4791
  25   1.0000      -0.412657       -11.2290
  26   1.0000      -0.404903       -11.0180
  27   1.0000      -0.399886       -10.8814
  28   1.0000      -0.379342       -10.3224
  29   1.0000      -0.366864        -9.9829
  30   1.0000      -0.364454        -9.9173
  31   1.0000      -0.354839        -9.6557
  32   1.0000      -0.343226        -9.3397
  33   1.0000      -0.337986        -9.1971
  34   1.0000      -0.333529        -9.0758
  35   1.0000      -0.329163        -8.9570
  36   1.0000      -0.314779        -8.5656
  37   1.0000      -0.308046        -8.3824
  38   1.0000      -0.291518        -7.9326
  39   1.0000      -0.284870        -7.7517
  40   1.0000      -0.228662        -6.2222
  41   1.0000      -0.222743        -6.0612
  42   0.0000      -0.087164        -2.3718
  43   0.0000      -0.017757        -0.4832
  44   0.0000       0.008004         0.2178
  45   0.0000       0.020209         0.5499
  46   0.0000       0.022932         0.6240

MULLIKEN ATOMIC CHARGES AND SPIN POPULATIONS
--------------------------------------------
   0 O :   -1.099663    0.492877
   1 N :    0.451133    0.526646
   2 C :    2.392314   -0.070028
   3 C :   -0.378440   -0.005204
   4 C :   -0.725980   -0.009154
   5 C :   -0.618303    0.003677
   6 C :    1.934528   -0.070379
   7 C :   -1.076572    0.044213
   8 C :   -1.401035    0.006314
   9 C :   -1.242510    0.043482
  10 C :   -1.334881    0.020777
  11 H :    0.075600    0.000121
  12 H :    0.202597   -0.004096
  13 H :    0.681219    0.000396
  14 H :    0.228591   -0.000209
  15 H :    0.166769   -0.001148
  16 H :    0.243017    0.002676
  17 H :    0.088536    0.012037
  18 H :    0.126344   -0.005266
  19 H :    0.143746    0.003608
  20 H :    0.151980   -0.000551
  21 H :    0.122803   -0.000542
  22 H :    0.248969    0.000056
  23 H :    0.110392    0.002611
  24 H :    0.155553   -0.001935
  25 H :    0.201211    0.008011
  26 H :    0.152083    0.001009
Sum of atomic charges         :   -0.0000000

LOEWDIN ATOMIC CHARGES AND SPIN POPULATIONS
-------------------------------------------
   0 O :    0.386973    0.428570
   1 N :   -0.122761    0.407812
   2 C :   -0.457872    0.042313
   3 C :    0.276984    0.005382
   4 C :    0.242336   -0.000483
   5 C :    0.220769    0.002267
   6 C :   -0.481312    0.039551
   7 C :    0.596265    0.022584
   8 C :    0.562799    0.000419
   9 C :    0.584755    0.017758
  10 C :    0.579330    0.009227
  11 H :   -0.123242    0.000723
  12 H :   -0.122279    0.001226
  13 H :   -0.158049   -0.000311
  14 H :   -0.148285    0.000053
  15 H :   -0.144186    0.001589
  16 H :   -0.161028    0.002023
  17 H :   -0.137628    0.007128
  18 H :   -0.173698   -0.000418
  19 H :   -0.149126    0.000567
  20 H :   -0.141256   -0.000217
  21 H :   -0.167122    0.002052
  22 H :   -0.158604    0.001730
  23 H :   -0.143156    0.004635
  24 H :   -0.171607    0.000059
  25 H :   -0.144629    0.001817
  26 H :   -0.144372    0.001944

  Mayer bond orders larger than 0.100000
B(  0-O ,  1-N ) :   0.5918 B(  0-O ,  6-C ) :  -0.1419 B(  0-O ,  8-C ) :   0.1009
B(  1-N ,  2-C ) :   0.6055 B(  1-N ,  3-C ) :   0.3670 B(  1-N ,  6-C ) :   0.8976
B(  1-N ,  8-C ) :  -0.1949 B(  2-C ,  4-C ) :   0.2149 B(  2-C ,  5-C ) :   0.2090
B(  2-C ,  8-C ) :  -0.2747 B(  2-C , 18-H ) :  -0.1215 B(  3-C ,  4-C ) :   0.5390
B(  3-C ,  7-C ) :   0.1539 B(  3-C , 11-H ) :   0.9772 B(  3-C , 12-H ) :   0.9781
B(  3-C , 13-H ) :   0.2394 B(  4-C ,  5-C ) :   1.4631 B(  5-C ,  6-C ) :   0.5591
B(  5-C ,  9-C ) :  -0.1116 B(  5-C , 14-H ) :   1.0512 B(  6-C ,  9-C ) :   0.1736
B(  6-C , 13-H ) :  -0.1011 B(  7-C ,  8-C ) :   0.2278 B(  7-C , 15-H ) :   1.0155
B(  7-C , 16-H ) :   0.9792 B(  7-C , 17-H ) :   1.0950 B(  8-C , 18-H ) :   1.1233
B(  8-C , 19-H ) :   1.1331 B(  8-C , 20-H ) :   1.0661 B(  9-C , 10-C ) :   0.2557
B(  9-C , 14-H ) :  -0.1025 B(  9-C , 21-H ) :   1.1066 B(  9-C , 22-H ) :   0.9611
B(  9-C , 23-H ) :   1.1390 B( 10-C , 24-H ) :   1.0870 B( 10-C , 25-H ) :   1.0414
B( 10-C , 26-H ) :   1.0983

Dispersion correction           -0.009681929
FINAL SINGLE POINT ENERGY      -482.401627379948

DIPOLE MOMENT
-------------

Method             : SCF
Type of density    : Electron Density
Multiplicity       :   2
Irrep              :   0
Energy             :  -482.3919454507989713 Eh
Relativity type    :
Basis              : AO
                                X                 Y                 Z
Electronic contribution:     -1.691007656      -0.868451597      -0.442963212
Nuclear contribution   :      2.934205534      -0.334114235       0.179164827
                        -----------------------------------------
Total Dipole Moment    :      1.243197879      -1.202565832      -0.263798385
                        -----------------------------------------
Magnitude (a.u.)       :      1.749655719
Magnitude (Debye)      :      4.447271407

Rotational constants in cm-1:             0.051691             0.036550             0.029790
Rotational constants in MHz :          1549.648951          1095.742777           893.076591

                             ****ORCA TERMINATED NORMALLY****
TOTAL RUN TIME: 0 days 0 hours 5 minutes 17 seconds 881 msec
