                         Program Version 6.0.0  -   RELEASE  -
|  1> !PBE0 aug-cc-pVTZ d3 TightSCF SlowConv RIJCOSX defgrid2
|  2>
|  3> %pal
|  4> nprocs 4
|  5> end
|  6>
|  7> %scf
|  8> MaxIter 1500
|  9> end
| 10>
| 11> %maxcore 3000
| 12>
| 13> !CPCM
| 14> %cpcm smd true
| 15> SMDsolvent "MeCN"
| 16> surfacetype gepol_ses
| 17> rsolv 2.19
| 18> end
| 19>
| 20> * xyz 0 1
| 21> C          -0.72498712360752     -1.03199143591489     -0.00035587408950
| 22> C          -1.31725281953672      0.23700082940336     -0.00009216740947
| 23> C          -0.49927603036286      1.37741269983118     -0.00017815340748
| 24> C           0.87877130461947      1.25225114649976     -0.00046421372633
| 25> C           1.48912617012247     -0.01748708715836     -0.00062594889474
| 26> C           0.66252427774642     -1.14934366375667     -0.00064528665934
| 27> H           1.11889620163877     -2.14249327366435     -0.00083021648088
| 28> C           2.91104462440564     -0.14733894022628     -0.00063151415770
| 29> C           4.11990582812650     -0.25742637188868      0.00161358861277
| 30> H           5.19058139416864     -0.35415649223885      0.00097524906911
| 31> H           1.50779855780145      2.14601626186340     -0.00050473395896
| 32> H          -0.98017045333696      2.35860761783862      0.00000793066196
| 33> O          -2.64430351331883      0.45808400164866      0.00024605971359
| 34> C          -3.51534558275692     -0.63765175952228      0.00045178300619
| 35> H          -4.53490407246321     -0.22445155867607      0.00076695107216
| 36> H          -3.38161982455796     -1.26589006640153     -0.90098962915142
| 37> H          -3.38109122143507     -1.26596319208985      0.90176498266982
| 38> H          -1.33393961725331     -1.93771991554716     -0.00032660686979
| 39> *
| 40>
| 41>                          ****END OF INPUT****

CARTESIAN COORDINATES (ANGSTROEM)
---------------------------------
  C     -0.724987   -1.031991   -0.000356
  C     -1.317253    0.237001   -0.000092
  C     -0.499276    1.377413   -0.000178
  C      0.878771    1.252251   -0.000464
  C      1.489126   -0.017487   -0.000626
  C      0.662524   -1.149344   -0.000645
  H      1.118896   -2.142493   -0.000830
  C      2.911045   -0.147339   -0.000632
  C      4.119906   -0.257426    0.001614
  H      5.190581   -0.354156    0.000975
  H      1.507799    2.146016   -0.000505
  H     -0.980170    2.358608    0.000008
  O     -2.644304    0.458084    0.000246
  C     -3.515346   -0.637652    0.000452
  H     -4.534904   -0.224452    0.000767
  H     -3.381620   -1.265890   -0.900990
  H     -3.381091   -1.265963    0.901765
  H     -1.333940   -1.937720   -0.000327

 Total Charge           Charge          ....    0
 Multiplicity           Mult            ....    1
 Number of Electrons    NEL             ....   70
 Basis Dimension        Dim             ....  644

ORBITAL ENERGIES
----------------

  NO   OCC          E(Eh)            E(eV)
   0   2.0000     -19.250939      -523.8447
   1   2.0000     -10.299953      -280.2760
   2   2.0000     -10.268352      -279.4161
   3   2.0000     -10.256983      -279.1067
   4   2.0000     -10.244051      -278.7548
   5   2.0000     -10.243443      -278.7382
   6   2.0000     -10.241313      -278.6803
   7   2.0000     -10.235062      -278.5102
   8   2.0000     -10.233697      -278.4731
   9   2.0000     -10.228293      -278.3260
  10   2.0000      -1.113543       -30.3010
  11   2.0000      -0.895482       -24.3673
  12   2.0000      -0.815137       -22.1810
  13   2.0000      -0.782330       -21.2883
  14   2.0000      -0.763348       -20.7717
  15   2.0000      -0.718899       -19.5622
  16   2.0000      -0.642185       -17.4747
  17   2.0000      -0.626850       -17.0575
  18   2.0000      -0.568263       -15.4632
  19   2.0000      -0.548143       -14.9157
  20   2.0000      -0.512943       -13.9579
  21   2.0000      -0.510151       -13.8819
  22   2.0000      -0.487936       -13.2774
  23   2.0000      -0.461172       -12.5491
  24   2.0000      -0.440863       -11.9965
  25   2.0000      -0.432002       -11.7554
  26   2.0000      -0.407832       -11.0977
  27   2.0000      -0.407711       -11.0944
  28   2.0000      -0.376733       -10.2514
  29   2.0000      -0.360995        -9.8232
  30   2.0000      -0.342752        -9.3268
  31   2.0000      -0.308479        -8.3941
  32   2.0000      -0.300015        -8.1638
  33   2.0000      -0.278650        -7.5824
  34   2.0000      -0.233441        -6.3523
  35   0.0000      -0.031725        -0.8633
  36   0.0000      -0.017924        -0.4877
  37   0.0000       0.001188         0.0323
  38   0.0000       0.011642         0.3168
  39   0.0000       0.016779         0.4566

MULLIKEN ATOMIC CHARGES
-----------------------
   0 C :   -0.385403
   1 C :    1.174388
   2 C :   -0.858894
   3 C :   -1.164810
   4 C :    1.352394
   5 C :   -1.306185
   6 H :   -0.130641
   7 C :    1.166544
   8 C :   -0.897124
   9 H :    0.331442
  10 H :   -0.097394
  11 H :    0.651058
  12 O :   -0.642444
  13 C :   -0.725502
  14 H :    0.252776
  15 H :    0.307726
  16 H :    0.306501
  17 H :    0.665567
Sum of atomic charges:   -0.0000000

LOEWDIN ATOMIC CHARGES
----------------------
   0 C :    0.211152
   1 C :   -0.402229
   2 C :    0.206038
   3 C :    0.184277
   4 C :   -0.240402
   5 C :    0.189228
   6 H :   -0.157041
   7 C :   -0.031523
   8 C :    0.391609
   9 H :   -0.283006
  10 H :   -0.158478
  11 H :   -0.164946
  12 O :    0.598389
  13 C :    0.320437
  14 H :   -0.166110
  15 H :   -0.157212
  16 H :   -0.157171
  17 H :   -0.183013

  Mayer bond orders larger than 0.100000
B(  0-C ,  1-C ) :   1.0641 B(  0-C ,  2-C ) :   0.1994 B(  0-C ,  4-C ) :   0.5918
B(  0-C ,  5-C ) :   1.1568 B(  0-C ,  6-H ) :  -0.1427 B(  0-C ,  7-C ) :  -0.2252
B(  0-C ,  8-C ) :  -0.1430 B(  0-C , 17-H ) :   0.1289 B(  1-C ,  2-C ) :   0.8409
B(  1-C ,  3-C ) :  -0.5331 B(  1-C ,  4-C ) :  -0.1245 B(  1-C ,  5-C ) :  -0.4692
B(  1-C ,  7-C ) :   0.2567 B(  1-C ,  8-C ) :   0.1030 B(  1-C , 10-H ) :  -0.1009
B(  1-C , 11-H ) :   0.1890 B(  1-C , 12-O ) :   0.3534 B(  1-C , 17-H ) :   0.1883
B(  2-C ,  3-C ) :   1.4546 B(  2-C ,  4-C ) :   0.4605 B(  2-C ,  7-C ) :  -0.1200
B(  2-C , 11-H ) :   0.1274 B(  2-C , 12-O ) :   0.2915 B(  3-C ,  4-C ) :   0.3850
B(  3-C ,  5-C ) :  -0.5376 B(  3-C ,  6-H ) :   0.1932 B(  3-C ,  7-C ) :   0.4277
B(  3-C , 10-H ) :   1.8019 B(  4-C ,  5-C ) :   0.3986 B(  4-C ,  8-C ) :   0.6917
B(  4-C , 12-O ) :   0.1202 B(  5-C ,  6-H ) :   1.9536 B(  5-C ,  7-C ) :   0.3296
B(  5-C ,  8-C ) :  -0.1512 B(  5-C , 10-H ) :   0.1784 B(  6-H ,  7-C ) :  -0.2354
B(  6-H ,  8-C ) :  -0.3221 B(  6-H , 10-H ) :   0.4803 B(  7-C ,  8-C ) :   1.7921
B(  7-C ,  9-H ) :  -0.2525 B(  7-C , 10-H ) :  -0.2880 B(  8-C ,  9-H ) :   1.1894
B(  8-C , 10-H ) :  -0.3269 B(  8-C , 11-H ) :   0.1000 B(  8-C , 17-H ) :   0.1694
B( 12-O , 13-C ) :   1.0407 B( 13-C , 14-H ) :   0.9701 B( 13-C , 15-H ) :   0.8802
B( 13-C , 16-H ) :   0.8813

Dispersion correction           -0.015950126
FINAL SINGLE POINT ENERGY      -422.591748058524

DIPOLE MOMENT
-------------

Method             : SCF
Type of density    : Electron Density
Multiplicity       :   1
Irrep              :   0
Energy             :  -422.5757979326466511 Eh
Relativity type    :
Basis              : AO
                                X                 Y                 Z
Electronic contribution:      4.450701359       1.949544256      -0.001223009
Nuclear contribution   :     -5.472543809      -2.520175441       0.001174688
                        -----------------------------------------
Total Dipole Moment    :     -1.021842450      -0.570631185      -0.000048321
                        -----------------------------------------
Magnitude (a.u.)       :      1.170376838
Magnitude (Debye)      :      2.974861507

Rotational constants in cm-1:             0.162149             0.023538             0.020637
Rotational constants in MHz :          4861.113339           705.666032           618.684466

                             ****ORCA TERMINATED NORMALLY****
TOTAL RUN TIME: 0 days 0 hours 5 minutes 24 seconds 953 msec
