                         Program Version 6.0.0  -   RELEASE  -
|  1> !PBE0 aug-cc-pVTZ d3 TightSCF SlowConv RIJCOSX defgrid2
|  2>
|  3> %pal
|  4> nprocs 4
|  5> end
|  6>
|  7> %scf
|  8> MaxIter 1500
|  9> end
| 10>
| 11> %maxcore 3000
| 12>
| 13> !CPCM
| 14> %cpcm smd true
| 15> SMDsolvent "MeCN"
| 16> surfacetype gepol_ses
| 17> rsolv 2.19
| 18> end
| 19>
| 20> * xyz 1 2
| 21> C           1.71497106575748      1.06171932835084     -0.03514469304606
| 22> C           0.56719485465527      1.82392831640831     -0.00294767414977
| 23> C          -0.68893058329112      1.20760587034953      0.00674165425173
| 24> C          -0.80034038219193     -0.22800805453168     -0.01673661650706
| 25> C           0.34844024659380     -1.00330914690348     -0.04917310869374
| 26> C           1.61061604456188     -0.38138433792306     -0.05904556326935
| 27> N           2.73628401268176     -1.09580230581758     -0.09073600890504
| 28> H           2.71545111037900     -2.11343777495485     -0.10881829621903
| 29> H           3.64963295510932     -0.64805903858531     -0.09811724471076
| 30> H           0.25123309236129     -2.09096960143506     -0.06695996926436
| 31> O          -1.95374878515058     -0.85587592591482     -0.00850993427148
| 32> C          -3.19266872724087     -0.16172631263894      0.01967853662734
| 33> H          -3.96658303938529     -0.94029601988636      0.01614088330526
| 34> H          -3.30896028056596      0.47212649064151     -0.87574217138754
| 35> H          -3.28534792940125      0.44030899731552      0.93950878924919
| 36> H          -1.58838328810020      1.82581855641198      0.03268809937411
| 37> H           0.63303154865974      2.91458072514130      0.01531465253765
| 38> H           2.70276038456766      1.53066783397213     -0.04298803492109
| 39> *
| 40>
| 41>                          ****END OF INPUT****

CARTESIAN COORDINATES (ANGSTROEM)
---------------------------------
  C      1.714971    1.061719   -0.035145
  C      0.567195    1.823928   -0.002948
  C     -0.688931    1.207606    0.006742
  C     -0.800340   -0.228008   -0.016737
  C      0.348440   -1.003309   -0.049173
  C      1.610616   -0.381384   -0.059046
  N      2.736284   -1.095802   -0.090736
  H      2.715451   -2.113438   -0.108818
  H      3.649633   -0.648059   -0.098117
  H      0.251233   -2.090970   -0.066960
  O     -1.953749   -0.855876   -0.008510
  C     -3.192669   -0.161726    0.019679
  H     -3.966583   -0.940296    0.016141
  H     -3.308960    0.472126   -0.875742
  H     -3.285348    0.440309    0.939509
  H     -1.588383    1.825819    0.032688
  H      0.633032    2.914581    0.015315
  H      2.702760    1.530668   -0.042988

 Total Charge           Charge          ....    1
 Multiplicity           Mult            ....    2
 Number of Electrons    NEL             ....   65
 Basis Dimension        Dim             ....  621

ORBITAL ENERGIES
----------------
                 SPIN UP ORBITALS
  NO   OCC          E(Eh)            E(eV)
   0   1.0000     -19.274295      -524.4802
   1   1.0000     -14.468564      -393.7096
   2   1.0000     -10.334145      -281.2064
   3   1.0000     -10.332862      -281.1715
   4   1.0000     -10.284765      -279.8627
   5   1.0000     -10.281234      -279.7666
   6   1.0000     -10.280591      -279.7491
   7   1.0000     -10.264120      -279.3009
   8   1.0000     -10.255709      -279.0720
   9   1.0000      -1.140961       -31.0471
  10   1.0000      -1.017705       -27.6932
  11   1.0000      -0.906132       -24.6571
  12   1.0000      -0.819824       -22.3085
  13   1.0000      -0.793988       -21.6055
  14   1.0000      -0.746237       -20.3061
  15   1.0000      -0.674222       -18.3465
  16   1.0000      -0.653210       -17.7747
  17   1.0000      -0.588142       -16.0041
  18   1.0000      -0.584594       -15.9076
  19   1.0000      -0.538128       -14.6432
  20   1.0000      -0.527148       -14.3444
  21   1.0000      -0.511880       -13.9290
  22   1.0000      -0.508833       -13.8461
  23   1.0000      -0.470112       -12.7924
  24   1.0000      -0.460476       -12.5302
  25   1.0000      -0.445845       -12.1321
  26   1.0000      -0.421105       -11.4589
  27   1.0000      -0.406483       -11.0610
  28   1.0000      -0.401344       -10.9211
  29   1.0000      -0.361438        -9.8352
  30   1.0000      -0.360369        -9.8062
  31   1.0000      -0.277600        -7.5539
  32   1.0000      -0.274181        -7.4608
  33   0.0000      -0.035632        -0.9696
  34   0.0000      -0.030968        -0.8427
  35   0.0000      -0.002657        -0.0723
  36   0.0000       0.008141         0.2215
  37   0.0000       0.012973         0.3530

                 SPIN DOWN ORBITALS
  NO   OCC          E(Eh)            E(eV)
   0   1.0000     -19.274005      -524.4723
   1   1.0000     -14.461190      -393.5090
   2   1.0000     -10.334989      -281.2293
   3   1.0000     -10.332639      -281.1654
   4   1.0000     -10.281253      -279.7671
   5   1.0000     -10.277691      -279.6702
   6   1.0000     -10.274866      -279.5933
   7   1.0000     -10.266818      -279.3743
   8   1.0000     -10.254647      -279.0431
   9   1.0000      -1.140406       -31.0320
  10   1.0000      -1.004977       -27.3468
  11   1.0000      -0.897222       -24.4146
  12   1.0000      -0.817586       -22.2476
  13   1.0000      -0.779173       -21.2024
  14   1.0000      -0.741214       -20.1695
  15   1.0000      -0.670240       -18.2382
  16   1.0000      -0.649408       -17.6713
  17   1.0000      -0.586743       -15.9661
  18   1.0000      -0.580475       -15.7955
  19   1.0000      -0.533655       -14.5215
  20   1.0000      -0.523815       -14.2537
  21   1.0000      -0.508412       -13.8346
  22   1.0000      -0.505703       -13.7609
  23   1.0000      -0.469615       -12.7789
  24   1.0000      -0.444214       -12.0877
  25   1.0000      -0.436049       -11.8655
  26   1.0000      -0.418273       -11.3818
  27   1.0000      -0.404632       -11.0106
  28   1.0000      -0.385763       -10.4972
  29   1.0000      -0.360129        -9.7996
  30   1.0000      -0.337433        -9.1820
  31   1.0000      -0.265523        -7.2253
  32   0.0000      -0.169108        -4.6017
  33   0.0000      -0.022828        -0.6212
  34   0.0000      -0.006562        -0.1786
  35   0.0000      -0.001681        -0.0457
  36   0.0000       0.008968         0.2440

MULLIKEN ATOMIC CHARGES AND SPIN POPULATIONS
--------------------------------------------
   0 C :   -0.582097    0.339510
   1 C :   -0.504163   -0.153702
   2 C :   -0.506327    0.438308
   3 C :    0.844461   -0.039349
   4 C :   -0.791923    0.044827
   5 C :    0.809535    0.072221
   6 N :   -0.377380    0.310287
   7 H :    0.076960   -0.004588
   8 H :    0.083972   -0.004096
   9 H :    0.552841   -0.003673
  10 O :   -0.589702    0.013385
  11 C :   -0.670525    0.003211
  12 H :    0.280290   -0.000059
  13 H :    0.294801   -0.001117
  14 H :    0.294280   -0.001100
  15 H :    0.598485   -0.016943
  16 H :    0.607698    0.007740
  17 H :    0.578793   -0.004862
Sum of atomic charges         :    1.0000000

LOEWDIN ATOMIC CHARGES AND SPIN POPULATIONS
-------------------------------------------
   0 C :    0.287289    0.175440
   1 C :    0.243354    0.041980
   2 C :    0.281544    0.215787
   3 C :   -0.376713    0.055813
   4 C :    0.261918    0.041121
   5 C :   -0.187699    0.112674
   6 N :    0.952552    0.213121
   7 H :   -0.200167    0.029459
   8 H :   -0.206417    0.027090
   9 H :   -0.145821    0.006145
  10 O :    0.619084    0.006995
  11 C :    0.377541    0.001526
  12 H :   -0.162053   -0.000103
  13 H :   -0.152250    0.000485
  14 H :   -0.152165    0.000473
  15 H :   -0.158731    0.049640
  16 H :   -0.145399   -0.012999
  17 H :   -0.135865    0.035354

  Mayer bond orders larger than 0.100000
B(  0-C ,  1-C ) :   1.4502 B(  0-C ,  2-C ) :   0.1464 B(  0-C ,  4-C ) :   0.3226
B(  0-C ,  5-C ) :   0.7708 B(  0-C ,  6-N ) :  -0.1474 B(  0-C , 17-H ) :   0.3474
B(  1-C ,  2-C ) :   1.1604 B(  1-C ,  3-C ) :  -0.1776 B(  1-C ,  4-C ) :  -0.1180
B(  1-C ,  5-C ) :  -0.1644 B(  1-C , 16-H ) :   0.3890 B(  2-C ,  3-C ) :   0.9293
B(  2-C ,  4-C ) :   0.2856 B(  2-C ,  5-C ) :  -0.1026 B(  2-C , 15-H ) :   0.3664
B(  3-C ,  4-C ) :   0.8496 B(  3-C ,  5-C ) :  -0.2372 B(  3-C ,  6-N ) :   0.1068
B(  3-C , 10-O ) :   0.5141 B(  4-C ,  5-C ) :   0.7891 B(  4-C ,  6-N ) :  -0.1823
B(  4-C ,  9-H ) :   0.2545 B(  4-C , 10-O ) :   0.2968 B(  5-C ,  6-N ) :   0.9923
B(  5-C ,  9-H ) :   0.1153 B(  6-N ,  7-H ) :   1.1184 B(  6-N ,  8-H ) :   1.0990
B( 10-O , 11-C ) :   0.9786 B( 11-C , 12-H ) :   0.9276 B( 11-C , 13-H ) :   0.8946
B( 11-C , 14-H ) :   0.8953

Dispersion correction           -0.015046535
FINAL SINGLE POINT ENERGY      -401.644063435059

DIPOLE MOMENT
-------------

Method             : SCF
Type of density    : Electron Density
Multiplicity       :   2
Irrep              :   0
Energy             :  -401.6290169004665813 Eh
Relativity type    :
Basis              : AO
                                X                 Y                 Z
Electronic contribution:      3.963130942      -1.187577303      -0.077568206
Nuclear contribution   :     -2.044978462       1.271551477       0.044658972
                        -----------------------------------------
Total Dipole Moment    :      1.918152481       0.083974174      -0.032909234
                        -----------------------------------------
Magnitude (a.u.)       :      1.920271757
Magnitude (Debye)      :      4.880942911

Rotational constants in cm-1:             0.119593             0.037937             0.028965
Rotational constants in MHz :          3585.313936          1137.321017           868.358011

                             ****ORCA TERMINATED NORMALLY****
TOTAL RUN TIME: 0 days 0 hours 7 minutes 11 seconds 676 msec
