                         Program Version 6.0.0  -   RELEASE  -
|  1> !PBE0 aug-cc-pVTZ d3 TightSCF SlowConv RIJCOSX defgrid2
|  2>
|  3> %pal
|  4> nprocs 4
|  5> end
|  6>
|  7> %scf
|  8> MaxIter 1500
|  9> end
| 10>
| 11> %maxcore 3000
| 12>
| 13> !CPCM
| 14> %cpcm smd true
| 15> SMDsolvent "MeCN"
| 16> surfacetype gepol_ses
| 17> rsolv 2.19
| 18> end
| 19>
| 20> * xyz 0 1
| 21> C           0.49470507986689     -1.28935631990851      0.00010874258042
| 22> C           1.40908641826733     -0.22147183581534      0.00012909194558
| 23> C           0.87652773876151      1.07792685723328      0.00000492945569
| 24> C          -0.49469394553322      1.28942538906843     -0.00011206028261
| 25> C          -1.40907528767924      0.22153956382169     -0.00008845068658
| 26> C          -0.87651553070888     -1.07785825260461     -0.00000990536767
| 27> H          -1.54545333719204     -1.94291362486448     -0.00009686185205
| 28> C          -2.84456825365451      0.51115677736565     -0.00016134460175
| 29> C          -3.85777664336290     -0.37016514253978      0.00069395658741
| 30> C          -5.30325422186199     -0.00132827117349      0.00054902064982
| 31> H          -5.82268564165386     -0.41483693779544     -0.88475753685959
| 32> H          -5.44363484922644      1.09278775657122     -0.00048184652449
| 33> H          -5.82242918676140     -0.41313393815800      0.88680059997485
| 34> H          -3.63558487599837     -1.44572430894995      0.00161496983067
| 35> H          -3.09792946711740      1.58024959925667     -0.00095926539794
| 36> H          -0.87860533471525      2.31485410603895     -0.00020323655719
| 37> H           1.54546492447861      1.94298328215137     -0.00000160713393
| 38> C           2.84457766493005     -0.51109546895278      0.00024640262469
| 39> C           3.85779145901576      0.37021961014473      0.00027505555542
| 40> C           5.30326751721893      0.00137504492038      0.00037195486634
| 41> H           5.82255778844256      0.41418506123902      0.88608667850665
| 42> H           5.82258564966444      0.41388438927124     -0.88546931241510
| 43> H           5.44364800850219     -1.09274127411065      0.00055173822611
| 44> H           3.63560517323574      1.44578042657169      0.00020897424361
| 45> H           3.09793184852103     -1.58018954757629      0.00031964622318
| 46> H           0.87861580456047     -2.31478514120501      0.00015816640849
| 47> *
| 48>
| 49>                          ****END OF INPUT****

CARTESIAN COORDINATES (ANGSTROEM)
---------------------------------
  C      0.494705   -1.289356    0.000109
  C      1.409086   -0.221472    0.000129
  C      0.876528    1.077927    0.000005
  C     -0.494694    1.289425   -0.000112
  C     -1.409075    0.221540   -0.000088
  C     -0.876516   -1.077858   -0.000010
  H     -1.545453   -1.942914   -0.000097
  C     -2.844568    0.511157   -0.000161
  C     -3.857777   -0.370165    0.000694
  C     -5.303254   -0.001328    0.000549
  H     -5.822686   -0.414837   -0.884758
  H     -5.443635    1.092788   -0.000482
  H     -5.822429   -0.413134    0.886801
  H     -3.635585   -1.445724    0.001615
  H     -3.097929    1.580250   -0.000959
  H     -0.878605    2.314854   -0.000203
  H      1.545465    1.942983   -0.000002
  C      2.844578   -0.511095    0.000246
  C      3.857791    0.370220    0.000275
  C      5.303268    0.001375    0.000372
  H      5.822558    0.414185    0.886087
  H      5.822586    0.413884   -0.885469
  H      5.443648   -1.092741    0.000552
  H      3.635605    1.445780    0.000209
  H      3.097932   -1.580190    0.000320
  H      0.878616   -2.314785    0.000158

 Total Charge           Charge          ....    0
 Multiplicity           Mult            ....    1
 Number of Electrons    NEL             ....   86
 Basis Dimension        Dim             ....  874

ORBITAL ENERGIES
----------------

  NO   OCC          E(Eh)            E(eV)
   0   2.0000     -10.241587      -278.6877
   1   2.0000     -10.241558      -278.6870
   2   2.0000     -10.231006      -278.3998
   3   2.0000     -10.230999      -278.3996
   4   2.0000     -10.230381      -278.3828
   5   2.0000     -10.230341      -278.3817
   6   2.0000     -10.229622      -278.3622
   7   2.0000     -10.229595      -278.3614
   8   2.0000     -10.225650      -278.2541
   9   2.0000     -10.225643      -278.2539
  10   2.0000     -10.216264      -277.9987
  11   2.0000     -10.216262      -277.9986
  12   2.0000      -0.892077       -24.2747
  13   2.0000      -0.837322       -22.7847
  14   2.0000      -0.810894       -22.0655
  15   2.0000      -0.774972       -21.0881
  16   2.0000      -0.768713       -20.9178
  17   2.0000      -0.718360       -19.5476
  18   2.0000      -0.680198       -18.5091
  19   2.0000      -0.637737       -17.3537
  20   2.0000      -0.611704       -16.6453
  21   2.0000      -0.572753       -15.5854
  22   2.0000      -0.558371       -15.1940
  23   2.0000      -0.522211       -14.2101
  24   2.0000      -0.488177       -13.2840
  25   2.0000      -0.478122       -13.0104
  26   2.0000      -0.452213       -12.3053
  27   2.0000      -0.429940       -11.6993
  28   2.0000      -0.428083       -11.6487
  29   2.0000      -0.420674       -11.4471
  30   2.0000      -0.418866       -11.3979
  31   2.0000      -0.415695       -11.3116
  32   2.0000      -0.406795       -11.0694
  33   2.0000      -0.398447       -10.8423
  34   2.0000      -0.380431       -10.3521
  35   2.0000      -0.368031       -10.0146
  36   2.0000      -0.353078        -9.6078
  37   2.0000      -0.352180        -9.5833
  38   2.0000      -0.338177        -9.2023
  39   2.0000      -0.332188        -9.0393
  40   2.0000      -0.272889        -7.4257
  41   2.0000      -0.271015        -7.3747
  42   2.0000      -0.216947        -5.9034
  43   0.0000      -0.051343        -1.3971
  44   0.0000      -0.010555        -0.2872
  45   0.0000       0.003012         0.0820
  46   0.0000       0.008952         0.2436
  47   0.0000       0.014234         0.3873

MULLIKEN ATOMIC CHARGES
-----------------------
   0 C :   -1.280019
   1 C :    1.694035
   2 C :   -0.801681
   3 C :   -1.281056
   4 C :    1.711413
   5 C :   -0.806405
   6 H :    0.170553
   7 C :    0.117997
   8 C :   -0.452217
   9 C :   -0.874404
  10 H :    0.221875
  11 H :    0.290315
  12 H :    0.220735
  13 H :    0.298059
  14 H :    0.171307
  15 H :    0.213119
  16 H :    0.168096
  17 C :    0.105650
  18 C :   -0.444159
  19 C :   -0.867116
  20 H :    0.217684
  21 H :    0.217229
  22 H :    0.288293
  23 H :    0.311556
  24 H :    0.178618
  25 H :    0.210524
Sum of atomic charges:    0.0000000

LOEWDIN ATOMIC CHARGES
----------------------
   0 C :    0.205065
   1 C :   -0.152118
   2 C :    0.208844
   3 C :    0.205061
   4 C :   -0.152102
   5 C :    0.208843
   6 H :   -0.176129
   7 C :    0.194892
   8 C :    0.194861
   9 C :    0.544569
  10 H :   -0.162080
  11 H :   -0.171943
  12 H :   -0.162049
  13 H :   -0.180209
  14 H :   -0.180895
  15 H :   -0.162817
  16 H :   -0.176126
  17 C :    0.194876
  18 C :    0.194864
  19 C :    0.544581
  20 H :   -0.162086
  21 H :   -0.162048
  22 H :   -0.171947
  23 H :   -0.180206
  24 H :   -0.180884
  25 H :   -0.162817

  Mayer bond orders larger than 0.100000
B(  0-C ,  1-C ) :   0.1861 B(  0-C ,  2-C ) :  -0.5523 B(  0-C ,  3-C ) :   0.4438
B(  0-C ,  4-C ) :  -0.1357 B(  0-C ,  5-C ) :   1.1971 B(  0-C ,  8-C ) :  -0.1057
B(  0-C , 25-H ) :   1.1918 B(  1-C ,  2-C ) :   0.5132 B(  1-C ,  3-C ) :  -0.1384
B(  1-C ,  4-C ) :  -0.2294 B(  1-C ,  7-C ) :   0.3128 B(  1-C , 17-C ) :   0.3858
B(  1-C , 18-C ) :  -0.1676 B(  1-C , 25-H ) :  -0.1125 B(  2-C ,  3-C ) :   1.1956
B(  2-C ,  5-C ) :  -0.2625 B(  2-C ,  6-H ) :  -0.1722 B(  2-C ,  7-C ) :  -0.1427
B(  2-C , 15-H ) :  -0.1328 B(  2-C , 16-H ) :   1.3904 B(  2-C , 17-C ) :   0.2151
B(  2-C , 18-C ) :   0.1526 B(  2-C , 25-H ) :   0.1061 B(  3-C ,  4-C ) :   0.1958
B(  3-C ,  5-C ) :  -0.5459 B(  3-C , 15-H ) :   1.2029 B(  3-C , 18-C ) :  -0.1033
B(  3-C , 25-H ) :   0.1017 B(  4-C ,  5-C ) :   0.5018 B(  4-C ,  7-C ) :   0.3646
B(  4-C ,  8-C ) :  -0.1712 B(  4-C , 15-H ) :  -0.1105 B(  4-C , 17-C ) :   0.3062
B(  5-C ,  6-H ) :   1.3854 B(  5-C ,  7-C ) :   0.2186 B(  5-C ,  8-C ) :   0.1523
B(  5-C , 15-H ) :   0.1123 B(  5-C , 16-H ) :  -0.1778 B(  5-C , 17-C ) :  -0.1301
B(  5-C , 25-H ) :  -0.1305 B(  6-H , 15-H ) :   0.1335 B(  7-C ,  8-C ) :   1.0317
B(  7-C , 14-H ) :   1.0657 B(  7-C , 17-C ) :   0.1414 B(  7-C , 18-C ) :  -0.1236
B(  8-C ,  9-C ) :   0.8096 B(  8-C , 13-H ) :   1.0965 B(  8-C , 17-C ) :  -0.1268
B(  8-C , 18-C ) :   0.1857 B(  9-C , 10-H ) :   0.9905 B(  9-C , 11-H ) :   0.8985
B(  9-C , 12-H ) :   0.9937 B(  9-C , 13-H ) :  -0.1242 B( 16-H , 25-H ) :   0.1329
B( 17-C , 18-C ) :   1.0300 B( 17-C , 24-H ) :   1.0601 B( 18-C , 19-C ) :   0.8295
B( 18-C , 23-H ) :   1.0674 B( 19-C , 20-H ) :   1.0006 B( 19-C , 21-H ) :   0.9959
B( 19-C , 22-H ) :   0.8946 B( 19-C , 23-H ) :  -0.1365

Dispersion correction           -0.023188846
FINAL SINGLE POINT ENERGY      -465.306915074807

DIPOLE MOMENT
-------------

Method             : SCF
Type of density    : Electron Density
Multiplicity       :   1
Irrep              :   0
Energy             :  -465.2837262286843156 Eh
Relativity type    :
Basis              : AO
                                X                 Y                 Z
Electronic contribution:     -0.000041641       0.000037739      -0.001116134
Nuclear contribution   :      0.000002145      -0.000025147       0.001221223
                        -----------------------------------------
Total Dipole Moment    :     -0.000039496       0.000012593       0.000105089
                        -----------------------------------------
Magnitude (a.u.)       :      0.000112970
Magnitude (Debye)      :      0.000287146

Rotational constants in cm-1:             0.149823             0.010865             0.010169
Rotational constants in MHz :          4491.593991           325.738832           304.872217

                             ****ORCA TERMINATED NORMALLY****
TOTAL RUN TIME: 0 days 0 hours 11 minutes 0 seconds 657 msec
