                         Program Version 6.0.0  -   RELEASE  -
|  1> !PBE0 aug-cc-pVTZ d3 TightSCF SlowConv RIJCOSX defgrid2
|  2>
|  3> %pal
|  4> nprocs 4
|  5> end
|  6>
|  7> %scf
|  8> MaxIter 1500
|  9> end
| 10>
| 11> %maxcore 3000
| 12>
| 13> !CPCM
| 14> %cpcm smd true
| 15> SMDsolvent "MeCN"
| 16> surfacetype gepol_ses
| 17> rsolv 2.19
| 18> end
| 19>
| 20> * xyz 1 2
| 21> C           0.86770061929664     -1.42689432299132      0.00000897101558
| 22> C           2.10468085183811     -0.72689058389273     -0.00000825447661
| 23> C           2.18067581844409      0.67999913600521     -0.00001076122154
| 24> C           1.03283927538202      1.45145343690800      0.00000700381243
| 25> C          -0.22537653673213      0.77678989280940      0.00001343275561
| 26> C          -0.25105693451531     -0.64408759720608      0.00001506224490
| 27> O          -1.55281870061497     -1.07751154880539      0.00002630462179
| 28> C          -2.31401480280601     -0.00668804123383      0.00001929043081
| 29> C          -1.56234358562406      1.18487206630760      0.00001231970991
| 30> H          -1.97074260676972      2.19593761753153      0.00001018835187
| 31> H          -3.39348512015147     -0.17364143845796      0.00002005021122
| 32> H           1.07805269996545      2.54351477894486     -0.00000377489980
| 33> H           3.16218666325774      1.15998906195145     -0.00002790877216
| 34> H           3.03083245792013     -1.30967197800346     -0.00002115939682
| 35> H           0.82193140110952     -2.51820987986727      0.00000983561282
| 36> *
| 37>
| 38>                          ****END OF INPUT****

CARTESIAN COORDINATES (ANGSTROEM)
---------------------------------
  C      0.867701   -1.426894    0.000009
  C      2.104681   -0.726891   -0.000008
  C      2.180676    0.679999   -0.000011
  C      1.032839    1.451453    0.000007
  C     -0.225377    0.776790    0.000013
  C     -0.251057   -0.644088    0.000015
  O     -1.552819   -1.077512    0.000026
  C     -2.314015   -0.006688    0.000019
  C     -1.562344    1.184872    0.000012
  H     -1.970743    2.195938    0.000010
  H     -3.393485   -0.173641    0.000020
  H      1.078053    2.543515   -0.000004
  H      3.162187    1.159989   -0.000028
  H      3.030832   -1.309672   -0.000021
  H      0.821931   -2.518210    0.000010

 Total Charge           Charge          ....    1
 Multiplicity           Mult            ....    2
 Number of Electrons    NEL             ....   61
 Basis Dimension        Dim             ....  552

ORBITAL ENERGIES
----------------
                 SPIN UP ORBITALS
  NO   OCC          E(Eh)            E(eV)
   0   1.0000     -19.340396      -526.2789
   1   1.0000     -10.366722      -282.0929
   2   1.0000     -10.338914      -281.3361
   3   1.0000     -10.297808      -280.2176
   4   1.0000     -10.294855      -280.1372
   5   1.0000     -10.293879      -280.1107
   6   1.0000     -10.288104      -279.9535
   7   1.0000     -10.282466      -279.8001
   8   1.0000     -10.263714      -279.2899
   9   1.0000      -1.218950       -33.1693
  10   1.0000      -0.935399       -25.4535
  11   1.0000      -0.881128       -23.9767
  12   1.0000      -0.827600       -22.5201
  13   1.0000      -0.800027       -21.7698
  14   1.0000      -0.705734       -19.2040
  15   1.0000      -0.667306       -18.1583
  16   1.0000      -0.650317       -17.6960
  17   1.0000      -0.583169       -15.8688
  18   1.0000      -0.559652       -15.2289
  19   1.0000      -0.545584       -14.8461
  20   1.0000      -0.532287       -14.4843
  21   1.0000      -0.492889       -13.4122
  22   1.0000      -0.482619       -13.1327
  23   1.0000      -0.468731       -12.7548
  24   1.0000      -0.444688       -12.1006
  25   1.0000      -0.422686       -11.5019
  26   1.0000      -0.413686       -11.2570
  27   1.0000      -0.394298       -10.7294
  28   1.0000      -0.366561        -9.9746
  29   1.0000      -0.306039        -8.3277
  30   1.0000      -0.288293        -7.8449
  31   0.0000      -0.084005        -2.2859
  32   0.0000      -0.034548        -0.9401
  33   0.0000      -0.007396        -0.2013
  34   0.0000      -0.000297        -0.0081
  35   0.0000       0.011060         0.3010

                 SPIN DOWN ORBITALS
  NO   OCC          E(Eh)            E(eV)
   0   1.0000     -19.339725      -526.2607
   1   1.0000     -10.361212      -281.9429
   2   1.0000     -10.337314      -281.2926
   3   1.0000     -10.295360      -280.1510
   4   1.0000     -10.294492      -280.1274
   5   1.0000     -10.288996      -279.9778
   6   1.0000     -10.284491      -279.8552
   7   1.0000     -10.282856      -279.8107
   8   1.0000     -10.265611      -279.3415
   9   1.0000      -1.215249       -33.0686
  10   1.0000      -0.930073       -25.3086
  11   1.0000      -0.872279       -23.7359
  12   1.0000      -0.824119       -22.4254
  13   1.0000      -0.786642       -21.4056
  14   1.0000      -0.701473       -19.0880
  15   1.0000      -0.661269       -17.9940
  16   1.0000      -0.645438       -17.5633
  17   1.0000      -0.580394       -15.7933
  18   1.0000      -0.555378       -15.1126
  19   1.0000      -0.529939       -14.4204
  20   1.0000      -0.529179       -14.3997
  21   1.0000      -0.491395       -13.3715
  22   1.0000      -0.479879       -13.0582
  23   1.0000      -0.466606       -12.6970
  24   1.0000      -0.441630       -12.0174
  25   1.0000      -0.412022       -11.2117
  26   1.0000      -0.405344       -11.0300
  27   1.0000      -0.392825       -10.6893
  28   1.0000      -0.337431        -9.1820
  29   1.0000      -0.300265        -8.1706
  30   0.0000      -0.197562        -5.3759
  31   0.0000      -0.052097        -1.4176
  32   0.0000      -0.021832        -0.5941
  33   0.0000       0.000671         0.0183
  34   0.0000       0.012080         0.3287

MULLIKEN ATOMIC CHARGES AND SPIN POPULATIONS
--------------------------------------------
   0 C :   -0.891679   -0.001431
   1 C :   -0.220878    0.282173
   2 C :   -0.623393   -0.103091
   3 C :   -0.567133    0.213604
   4 C :    0.895329    0.033159
   5 C :    0.365658    0.077833
   6 O :   -0.449022    0.007233
   7 C :   -0.340089    0.300272
   8 C :   -0.606107    0.203602
   9 H :    0.518384   -0.006946
  10 H :    0.656333    0.005731
  11 H :    0.296228   -0.013716
  12 H :    0.746239   -0.002000
  13 H :    0.485089   -0.000887
  14 H :    0.735043    0.004465
Sum of atomic charges         :    1.0000000

LOEWDIN ATOMIC CHARGES AND SPIN POPULATIONS
-------------------------------------------
   0 C :    0.300205    0.048963
   1 C :    0.272799    0.151642
   2 C :    0.248302    0.022955
   3 C :    0.295014    0.111781
   4 C :   -0.106036    0.078396
   5 C :   -0.334346    0.056097
   6 O :    0.669506    0.060115
   7 C :    0.094467    0.216488
   8 C :    0.341723    0.148708
   9 H :   -0.118880    0.020126
  10 H :   -0.113277    0.036471
  11 H :   -0.130464    0.022901
  12 H :   -0.151528   -0.009708
  13 H :   -0.135068    0.034746
  14 H :   -0.132416    0.000321

  Mayer bond orders larger than 0.100000
B(  0-C ,  1-C ) :   1.3024 B(  0-C ,  2-C ) :   0.3155 B(  0-C ,  4-C ) :   0.1831
B(  0-C ,  5-C ) :   1.2780 B(  0-C ,  6-O ) :   0.1166 B(  0-C , 13-H ) :   0.1169
B(  1-C ,  2-C ) :   1.3004 B(  1-C ,  3-C ) :  -0.2831 B(  1-C ,  5-C ) :  -0.5465
B(  1-C ,  8-C ) :   0.1270 B(  1-C , 12-H ) :   0.1537 B(  1-C , 13-H ) :   0.6154
B(  1-C , 14-H ) :   0.1472 B(  2-C ,  3-C ) :   1.3401 B(  2-C ,  5-C ) :   0.1719
B(  2-C ,  8-C ) :   0.1585 B(  2-C , 12-H ) :   0.1004 B(  3-C ,  4-C ) :   0.7897
B(  3-C ,  5-C ) :  -0.5858 B(  3-C ,  9-H ) :   0.1028 B(  3-C , 11-H ) :   1.1093
B(  3-C , 14-H ) :   0.1073 B(  4-C ,  5-C ) :   1.1982 B(  4-C ,  7-C ) :  -0.3170
B(  4-C ,  8-C ) :   0.8303 B(  4-C , 13-H ) :  -0.1034 B(  5-C ,  6-O ) :   0.5034
B(  5-C ,  8-C ) :   0.2695 B(  5-C , 11-H ) :   0.1117 B(  5-C , 13-H ) :   0.1213
B(  6-O ,  7-C ) :   1.4369 B(  7-C ,  8-C ) :   1.0879 B(  7-C , 10-H ) :   0.4948
B(  8-C ,  9-H ) :   0.6106

Dispersion correction           -0.013688724
FINAL SINGLE POINT ENERGY      -383.166656065009

DIPOLE MOMENT
-------------

Method             : SCF
Type of density    : Electron Density
Multiplicity       :   2
Irrep              :   0
Energy             :  -383.1529673409933139 Eh
Relativity type    :
Basis              : AO
                                X                 Y                 Z
Electronic contribution:     -3.039729297      -1.157294355      -0.000425708
Nuclear contribution   :      2.540715655       1.757441244      -0.000063826
                        -----------------------------------------
Total Dipole Moment    :     -0.499013642       0.600146889      -0.000489534
                        -----------------------------------------
Magnitude (a.u.)       :      0.780506978
Magnitude (Debye)      :      1.983891076

Rotational constants in cm-1:             0.129539             0.055719             0.038960
Rotational constants in MHz :          3883.478039          1670.401185          1168.006371

                             ****ORCA TERMINATED NORMALLY****
TOTAL RUN TIME: 0 days 0 hours 4 minutes 51 seconds 865 msec
