                         Program Version 6.0.0  -   RELEASE  -
|  1> !r2SCANh aug-cc-pVTZ d3 TightSCF SlowConv RIJCOSX defgrid2
|  2>
|  3> %pal
|  4> nprocs 4
|  5> end
|  6>
|  7> %scf
|  8> MaxIter 1500
|  9> end
| 10>
| 11> %maxcore 3000
| 12>
| 13> !CPCM
| 14> %cpcm smd true
| 15> SMDsolvent "MeCN"
| 16> surfacetype gepol_ses
| 17> rsolv 2.19
| 18> end
| 19>
| 20> * xyz -1 2
| 21> C          -0.46059128201799      1.20494017119812      0.00001211596921
| 22> C           0.92271322931352      1.21537673965483      0.00007247103149
| 23> C           1.63885056458078      0.00584757553838      0.00005340465348
| 24> C           0.94016898670995     -1.22082416695804     -0.00001729460884
| 25> C          -0.43745517805739     -1.22871797254679     -0.00008369129513
| 26> C          -1.21082253995963     -0.01928165729328     -0.00007938241516
| 27> C          -2.64176417107169     -0.09933130049804     -0.00014945388498
| 28> O          -3.27680801972250     -1.18193238288940     -0.00022292736286
| 29> C          -3.42795564044194      1.21049531549301     -0.00017211433464
| 30> H          -3.21403956731584      1.83831096883377      0.88847865430575
| 31> H          -3.21389493669869      1.83838205326155     -0.88873743958169
| 32> H          -4.50069805080380      0.95600695488766     -0.00026718717856
| 33> H          -0.99549954367814     -2.16941515727402     -0.00014058350972
| 34> H           1.50562929532190     -2.15884116459823     -0.00002292839518
| 35> Cl          3.39541668285857      0.02068681811563      0.00014426998260
| 36> H           1.47138203008123      2.16312523531408      0.00014024216876
| 37> H          -0.98755245909833      2.16458456976078      0.00003664445548
| 38> *
| 39>
| 40>                          ****END OF INPUT****

CARTESIAN COORDINATES (ANGSTROEM)
---------------------------------
  C     -0.460591    1.204940    0.000012
  C      0.922713    1.215377    0.000072
  C      1.638851    0.005848    0.000053
  C      0.940169   -1.220824   -0.000017
  C     -0.437455   -1.228718   -0.000084
  C     -1.210823   -0.019282   -0.000079
  C     -2.641764   -0.099331   -0.000149
  O     -3.276808   -1.181932   -0.000223
  C     -3.427956    1.210495   -0.000172
  H     -3.214040    1.838311    0.888479
  H     -3.213895    1.838382   -0.888737
  H     -4.500698    0.956007   -0.000267
  H     -0.995500   -2.169415   -0.000141
  H      1.505629   -2.158841   -0.000023
  Cl     3.395417    0.020687    0.000144
  H      1.471382    2.163125    0.000140
  H     -0.987552    2.164585    0.000037

 Total Charge           Charge          ....   -1
 Multiplicity           Mult            ....    2
 Number of Electrons    NEL             ....   81
 Basis Dimension        Dim             ....  625

ORBITAL ENERGIES
----------------
                 SPIN UP ORBITALS
  NO   OCC          E(Eh)            E(eV)
   0   1.0000    -101.573169     -2763.9465
   1   1.0000     -19.039330      -518.0865
   2   1.0000     -10.190931      -277.3093
   3   1.0000     -10.175342      -276.8851
   4   1.0000     -10.147459      -276.1264
   5   1.0000     -10.147285      -276.1217
   6   1.0000     -10.142733      -275.9978
   7   1.0000     -10.137496      -275.8553
   8   1.0000     -10.129154      -275.6283
   9   1.0000     -10.126130      -275.5460
  10   1.0000      -9.483742      -258.0657
  11   1.0000      -7.202246      -195.9831
  12   1.0000      -7.194769      -195.7796
  13   1.0000      -7.194463      -195.7713
  14   1.0000      -0.971848       -26.4453
  15   1.0000      -0.866350       -23.5746
  16   1.0000      -0.811036       -22.0694
  17   1.0000      -0.733553       -19.9610
  18   1.0000      -0.726072       -19.7574
  19   1.0000      -0.683541       -18.6001
  20   1.0000      -0.595242       -16.1974
  21   1.0000      -0.579999       -15.7826
  22   1.0000      -0.518479       -14.1085
  23   1.0000      -0.468320       -12.7436
  24   1.0000      -0.435928       -11.8622
  25   1.0000      -0.421855       -11.4793
  26   1.0000      -0.407701       -11.0941
  27   1.0000      -0.400371       -10.8946
  28   1.0000      -0.393447       -10.7062
  29   1.0000      -0.373322       -10.1586
  30   1.0000      -0.362771        -9.8715
  31   1.0000      -0.356034        -9.6882
  32   1.0000      -0.330079        -8.9819
  33   1.0000      -0.326981        -8.8976
  34   1.0000      -0.309332        -8.4173
  35   1.0000      -0.300157        -8.1677
  36   1.0000      -0.289880        -7.8880
  37   1.0000      -0.246725        -6.7137
  38   1.0000      -0.226048        -6.1511
  39   1.0000      -0.198181        -5.3928
  40   1.0000      -0.093473        -2.5435
  41   0.0000      -0.011714        -0.3188
  42   0.0000       0.007306         0.1988
  43   0.0000       0.018988         0.5167
  44   0.0000       0.023927         0.6511
  45   0.0000       0.025511         0.6942

                 SPIN DOWN ORBITALS
  NO   OCC          E(Eh)            E(eV)
   0   1.0000    -101.573049     -2763.9432
   1   1.0000     -19.032849      -517.9102
   2   1.0000     -10.184878      -277.1446
   3   1.0000     -10.170842      -276.7627
   4   1.0000     -10.149249      -276.1751
   5   1.0000     -10.148980      -276.1678
   6   1.0000     -10.139873      -275.9200
   7   1.0000     -10.134479      -275.7732
   8   1.0000     -10.127781      -275.5909
   9   1.0000     -10.126548      -275.5574
  10   1.0000      -9.483666      -258.0637
  11   1.0000      -7.202423      -195.9879
  12   1.0000      -7.194402      -195.7696
  13   1.0000      -7.194208      -195.7644
  14   1.0000      -0.960886       -26.1470
  15   1.0000      -0.861715       -23.4484
  16   1.0000      -0.807718       -21.9791
  17   1.0000      -0.729938       -19.8626
  18   1.0000      -0.720409       -19.6033
  19   1.0000      -0.681338       -18.5402
  20   1.0000      -0.584800       -15.9132
  21   1.0000      -0.577692       -15.7198
  22   1.0000      -0.514453       -13.9990
  23   1.0000      -0.463501       -12.6125
  24   1.0000      -0.434397       -11.8205
  25   1.0000      -0.417855       -11.3704
  26   1.0000      -0.406609       -11.0644
  27   1.0000      -0.392912       -10.6917
  28   1.0000      -0.387666       -10.5489
  29   1.0000      -0.361872        -9.8470
  30   1.0000      -0.358951        -9.7676
  31   1.0000      -0.354917        -9.6578
  32   1.0000      -0.327669        -8.9163
  33   1.0000      -0.314067        -8.5462
  34   1.0000      -0.308408        -8.3922
  35   1.0000      -0.289117        -7.8673
  36   1.0000      -0.281566        -7.6618
  37   1.0000      -0.237698        -6.4681
  38   1.0000      -0.205614        -5.5950
  39   1.0000      -0.193109        -5.2548
  40   0.0000      -0.032524        -0.8850
  41   0.0000      -0.007073        -0.1925
  42   0.0000       0.009705         0.2641
  43   0.0000       0.022105         0.6015
  44   0.0000       0.026886         0.7316

MULLIKEN ATOMIC CHARGES AND SPIN POPULATIONS
--------------------------------------------
   0 C :   -0.391788    0.268638
   1 C :   -0.937691   -0.163828
   2 C :    0.544748    0.326215
   3 C :   -0.789597   -0.166753
   4 C :   -0.971619    0.252654
   5 C :    1.797907    0.046561
   6 C :    0.403250    0.238293
   7 O :   -1.082659    0.215762
   8 C :   -0.621645   -0.052684
   9 H :    0.218080    0.019730
  10 H :    0.219067    0.019717
  11 H :    0.147987   -0.006374
  12 H :    0.120098   -0.011728
  13 H :    0.416164   -0.004908
  14 Cl:   -0.473931    0.030631
  15 H :    0.386752   -0.003111
  16 H :    0.014877   -0.008815
Sum of atomic charges         :   -1.0000000

LOEWDIN ATOMIC CHARGES AND SPIN POPULATIONS
-------------------------------------------
   0 C :    0.143682    0.092581
   1 C :    0.050356    0.022882
   2 C :   -0.818673    0.152251
   3 C :    0.050331    0.021336
   4 C :    0.129573    0.092971
   5 C :   -0.210305    0.122953
   6 C :   -0.673762    0.176420
   7 O :    0.340413    0.189758
   8 C :    0.501352    0.032324
   9 H :   -0.177949    0.008328
  10 H :   -0.177983    0.008327
  11 H :   -0.203061   -0.000926
  12 H :   -0.213294    0.020855
  13 H :   -0.207633   -0.006597
  14 Cl:    0.875690    0.052130
  15 H :   -0.206663   -0.005935
  16 H :   -0.202076    0.020342

  Mayer bond orders larger than 0.100000
B(  0-C ,  1-C ) :   0.9891 B(  0-C ,  3-C ) :  -0.2040 B(  0-C ,  4-C ) :  -0.4440
B(  0-C ,  6-C ) :   0.1961 B(  0-C , 16-H ) :   1.4526 B(  1-C ,  2-C ) :   1.1890
B(  1-C ,  3-C ) :   0.1507 B(  1-C , 14-Cl) :   0.1336 B(  1-C , 15-H ) :   0.6715
B(  2-C ,  3-C ) :   1.1601 B(  2-C , 14-Cl) :   0.3638 B(  3-C ,  4-C ) :   1.3856
B(  3-C , 13-H ) :   0.6712 B(  3-C , 14-Cl) :   0.1497 B(  4-C ,  6-C ) :   0.4215
B(  4-C , 12-H ) :   1.1208 B(  5-C ,  6-C ) :   0.3166 B(  5-C ,  7-O ) :   0.1905
B(  5-C , 12-H ) :  -0.1311 B(  5-C , 16-H ) :  -0.2679 B(  6-C ,  7-O ) :   0.6893
B(  6-C ,  8-C ) :   0.9174 B(  7-O , 12-H ) :   0.1020 B(  8-C ,  9-H ) :   0.9750
B(  8-C , 10-H ) :   0.9745 B(  8-C , 11-H ) :   0.9765

Dispersion correction           -0.006076222
FINAL SINGLE POINT ENERGY      -844.493487997123

DIPOLE MOMENT
-------------

Method             : SCF
Type of density    : Electron Density
Multiplicity       :   2
Irrep              :   0
Energy             :  -844.4874117750570122 Eh
Relativity type    :
Basis              : AO
                                X                 Y                 Z
Electronic contribution:     16.063076810      -2.881187655       0.001258109
Nuclear contribution   :    -13.986086072       4.323351945      -0.000564645
                        -----------------------------------------
Total Dipole Moment    :      2.076990738       1.442164290       0.000693464
                        -----------------------------------------
Magnitude (a.u.)       :      2.528582378
Magnitude (Debye)      :      6.427145632

Rotational constants in cm-1:             0.120838             0.018120             0.015805
Rotational constants in MHz :          3622.634829           543.238146           473.808861

                             ****ORCA TERMINATED NORMALLY****
TOTAL RUN TIME: 0 days 0 hours 7 minutes 54 seconds 994 msec
