                         Program Version 6.0.0  -   RELEASE  -
|  1> !PBE0 freq aug-cc-pVTZ d3 TightSCF SlowConv RIJCOSX defgrid2
|  2>
|  3> %pal
|  4> nprocs 12
|  5> end
|  6>
|  7> %scf
|  8> MaxIter 1500
|  9> end
| 10>
| 11> %maxcore 5000
| 12>
| 13> !CPCM
| 14> %cpcm smd true
| 15> SMDsolvent "MeCN"
| 16> surfacetype gepol_ses
| 17> rsolv 2.19
| 18> end
| 19>
| 20> * xyz -1 2
| 21> C          -1.21098045536565     -0.03683468711294      0.00001228254539
| 22> C          -1.21515553525190      1.41070507395901     -0.00025163650753
| 23> C           0.00004643306122      2.07510717548855     -0.00000530653421
| 24> C           1.21521443383751      1.41064777131588      0.00025592766646
| 25> C           1.21097179886857     -0.03688867892072      0.00002421917968
| 26> C          -0.00001936671636     -0.72251722463984      0.00002435901941
| 27> H          -0.00003866033884     -1.80610059333004      0.00002069697885
| 28> C           2.41057164616055     -0.76223955314135     -0.00020035921975
| 29> N           3.41801404549020     -1.34396061606462     -0.00039577200660
| 30> H           2.15225026102783      1.95014032281008      0.00097405992503
| 31> H           0.00007663387792      3.16041677684308     -0.00001479297797
| 32> H          -2.15216620131603      1.95024152694806     -0.00098713952981
| 33> C          -2.41061367894525     -0.76212902486148      0.00021235829288
| 34> N          -3.41808045438978     -1.34380856929368      0.00038200316816
| 35> *
| 36>
| 37>                          ****END OF INPUT****

CARTESIAN COORDINATES (ANGSTROEM)
---------------------------------
  C     -1.210980   -0.036835    0.000012
  C     -1.215156    1.410705   -0.000252
  C      0.000046    2.075107   -0.000005
  C      1.215214    1.410648    0.000256
  C      1.210972   -0.036889    0.000024
  C     -0.000019   -0.722517    0.000024
  H     -0.000039   -1.806101    0.000021
  C      2.410572   -0.762240   -0.000200
  N      3.418014   -1.343961   -0.000396
  H      2.152250    1.950140    0.000974
  H      0.000077    3.160417   -0.000015
  H     -2.152166    1.950242   -0.000987
  C     -2.410614   -0.762129    0.000212
  N     -3.418080   -1.343809    0.000382

 Total Charge           Charge          ....   -1
 Multiplicity           Mult            ....    2
 Number of Electrons    NEL             ....   67
 Basis Dimension        Dim             ....  552

ORBITAL ENERGIES
----------------
                 SPIN UP ORBITALS
  NO   OCC          E(Eh)            E(eV)
   0   1.0000     -14.366231      -390.9250
   1   1.0000     -14.366228      -390.9249
   2   1.0000     -10.253477      -279.0113
   3   1.0000     -10.253471      -279.0111
   4   1.0000     -10.241591      -278.6879
   5   1.0000     -10.238506      -278.6039
   6   1.0000     -10.238446      -278.6023
   7   1.0000     -10.217646      -278.0363
   8   1.0000     -10.211033      -277.8563
   9   1.0000     -10.210999      -277.8554
  10   1.0000      -0.925786       -25.1919
  11   1.0000      -0.922266       -25.0961
  12   1.0000      -0.876742       -23.8574
  13   1.0000      -0.788341       -21.4518
  14   1.0000      -0.778171       -21.1751
  15   1.0000      -0.660145       -17.9634
  16   1.0000      -0.645505       -17.5651
  17   1.0000      -0.578114       -15.7313
  18   1.0000      -0.496987       -13.5237
  19   1.0000      -0.486584       -13.2406
  20   1.0000      -0.464749       -12.6465
  21   1.0000      -0.435062       -11.8386
  22   1.0000      -0.416680       -11.3384
  23   1.0000      -0.386387       -10.5141
  24   1.0000      -0.385164       -10.4809
  25   1.0000      -0.382632       -10.4119
  26   1.0000      -0.367853       -10.0098
  27   1.0000      -0.367207        -9.9922
  28   1.0000      -0.342513        -9.3202
  29   1.0000      -0.335725        -9.1355
  30   1.0000      -0.330512        -8.9937
  31   1.0000      -0.273903        -7.4533
  32   1.0000      -0.265093        -7.2135
  33   1.0000      -0.113160        -3.0792
  34   0.0000      -0.028284        -0.7697
  35   0.0000       0.001847         0.0503
  36   0.0000       0.017887         0.4867
  37   0.0000       0.019069         0.5189
  38   0.0000       0.035248         0.9591

                 SPIN DOWN ORBITALS
  NO   OCC          E(Eh)            E(eV)
   0   1.0000     -14.364208      -390.8700
   1   1.0000     -14.364205      -390.8699
   2   1.0000     -10.253521      -279.0125
   3   1.0000     -10.253515      -279.0123
   4   1.0000     -10.242441      -278.7110
   5   1.0000     -10.236757      -278.5563
   6   1.0000     -10.236729      -278.5556
   7   1.0000     -10.219827      -278.0956
   8   1.0000     -10.205097      -277.6948
   9   1.0000     -10.205091      -277.6946
  10   1.0000      -0.922443       -25.1009
  11   1.0000      -0.919137       -25.0110
  12   1.0000      -0.871744       -23.7214
  13   1.0000      -0.779788       -21.2191
  14   1.0000      -0.773506       -21.0482
  15   1.0000      -0.646241       -17.5851
  16   1.0000      -0.643411       -17.5081
  17   1.0000      -0.577087       -15.7033
  18   1.0000      -0.491586       -13.3767
  19   1.0000      -0.484423       -13.1818
  20   1.0000      -0.461410       -12.5556
  21   1.0000      -0.434718       -11.8293
  22   1.0000      -0.403743       -10.9864
  23   1.0000      -0.382897       -10.4192
  24   1.0000      -0.381981       -10.3942
  25   1.0000      -0.371073       -10.0974
  26   1.0000      -0.365548        -9.9471
  27   1.0000      -0.364875        -9.9288
  28   1.0000      -0.334335        -9.0977
  29   1.0000      -0.329052        -8.9540
  30   1.0000      -0.328680        -8.9438
  31   1.0000      -0.262405        -7.1404
  32   1.0000      -0.234645        -6.3850
  33   0.0000      -0.028661        -0.7799
  34   0.0000      -0.023454        -0.6382
  35   0.0000       0.003814         0.1038
  36   0.0000       0.020167         0.5488
  37   0.0000       0.020267         0.5515

MULLIKEN ATOMIC CHARGES AND SPIN POPULATIONS
--------------------------------------------
   0 C :    1.153839    0.106351
   1 C :   -0.936293    0.421493
   2 C :   -0.582479   -0.119755
   3 C :   -0.936009    0.421543
   4 C :    1.153646    0.106311
   5 C :   -1.105999   -0.041091
   6 H :    0.006727    0.008666
   7 C :    0.483974   -0.017708
   8 N :   -0.890785    0.099355
   9 H :    0.202695   -0.028203
  10 H :    0.654290   -0.010372
  11 H :    0.203589   -0.028201
  12 C :    0.484121   -0.017743
  13 N :   -0.891314    0.099356
Sum of atomic charges         :   -1.0000000

LOEWDIN ATOMIC CHARGES AND SPIN POPULATIONS
-------------------------------------------
   0 C :   -0.262029    0.103121
   1 C :    0.157076    0.197805
   2 C :    0.126524    0.057980
   3 C :    0.157069    0.197804
   4 C :   -0.262033    0.103119
   5 C :    0.143324    0.014520
   6 H :   -0.166265   -0.001073
   7 C :   -0.329446    0.044720
   8 N :    0.178773    0.074617
   9 H :   -0.203388    0.047378
  10 H :   -0.185546   -0.006707
  11 H :   -0.203387    0.047378
  12 C :   -0.329447    0.044720
  13 N :    0.178774    0.074619

  Mayer bond orders larger than 0.100000
B(  0-C ,  1-C ) :   0.1895 B(  0-C ,  2-C ) :   0.1226 B(  0-C ,  4-C ) :   0.2635
B(  0-C ,  5-C ) :   0.5918 B(  0-C ,  6-H ) :  -0.1064 B(  0-C , 11-H ) :  -0.1370
B(  0-C , 12-C ) :   0.8562 B(  0-C , 13-N ) :   0.1074 B(  1-C ,  2-C ) :   1.2872
B(  1-C ,  3-C ) :  -0.1056 B(  1-C ,  5-C ) :  -0.2039 B(  1-C , 11-H ) :   1.1289
B(  1-C , 12-C ) :   0.2970 B(  2-C ,  3-C ) :   1.2881 B(  2-C ,  4-C ) :   0.1227
B(  2-C , 10-H ) :   0.4112 B(  3-C ,  4-C ) :   0.1893 B(  3-C ,  5-C ) :  -0.2044
B(  3-C ,  7-C ) :   0.2968 B(  3-C ,  9-H ) :   1.1303 B(  4-C ,  5-C ) :   0.5909
B(  4-C ,  6-H ) :  -0.1061 B(  4-C ,  7-C ) :   0.8564 B(  4-C ,  8-N ) :   0.1081
B(  4-C ,  9-H ) :  -0.1374 B(  5-C ,  6-H ) :   1.3529 B(  5-C ,  7-C ) :   0.1075
B(  5-C , 12-C ) :   0.1071 B(  7-C ,  8-N ) :   1.5828 B(  7-C , 12-C ) :   0.2119
B( 12-C , 13-N ) :   1.5821

Dispersion correction           -0.014222903
FINAL SINGLE POINT ENERGY      -416.500160571473

DIPOLE MOMENT
-------------

Method             : SCF
Type of density    : Electron Density
Multiplicity       :   2
Irrep              :   0
Energy             :  -416.4859376680198011 Eh
Relativity type    :
Basis              : AO
                                X                 Y                 Z
Electronic contribution:     -0.000105098      -3.170700699       0.000033968
Nuclear contribution   :      0.000125387       4.956517156      -0.000026277
                        -----------------------------------------
Total Dipole Moment    :      0.000020289       1.785816456       0.000007691
                        -----------------------------------------
Magnitude (a.u.)       :      1.785816457
Magnitude (Debye)      :      4.539184698

VIBRATIONAL FREQUENCIES
-----------------------

Scaling factor for frequencies =  1.000000000  (already applied!)

     0:       0.00 cm**-1
     1:       0.00 cm**-1
     2:       0.00 cm**-1
     3:       0.00 cm**-1
     4:       0.00 cm**-1
     5:       0.00 cm**-1
     6:     117.63 cm**-1
     7:     118.96 cm**-1
     8:     132.83 cm**-1
     9:     192.99 cm**-1
    10:     329.94 cm**-1
    11:     403.09 cm**-1
    12:     421.93 cm**-1
    13:     469.54 cm**-1
    14:     509.15 cm**-1
    15:     567.59 cm**-1
    16:     582.48 cm**-1
    17:     616.44 cm**-1
    18:     627.03 cm**-1
    19:     671.55 cm**-1
    20:     676.71 cm**-1
    21:     695.40 cm**-1
    22:     885.62 cm**-1
    23:     926.64 cm**-1
    24:     961.80 cm**-1
    25:     988.75 cm**-1
    26:    1017.33 cm**-1
    27:    1095.79 cm**-1
    28:    1145.66 cm**-1
    29:    1279.86 cm**-1
    30:    1282.79 cm**-1
    31:    1360.44 cm**-1
    32:    1396.61 cm**-1
    33:    1426.42 cm**-1
    34:    1476.78 cm**-1
    35:    1540.26 cm**-1
    36:    2164.18 cm**-1
    37:    2268.69 cm**-1
    38:    3170.88 cm**-1
    39:    3195.84 cm**-1
    40:    3212.53 cm**-1
    41:    3219.52 cm**-1

IR SPECTRUM
-----------

 Mode   freq       eps      Int      T**2         TX        TY        TZ
       cm**-1   L/(mol*cm) km/mol    a.u.
----------------------------------------------------------------------------
  6:    117.63   0.003534   17.86  0.009377  ( 0.000011 -0.096835 -0.000063)
  7:    118.96   0.001550    7.83  0.004067  (-0.000081  0.000097 -0.063772)
  8:    132.83   0.000000    0.00  0.000000  ( 0.000012 -0.000136  0.000015)
  9:    192.99   0.000769    3.88  0.001243  (-0.035255  0.000005 -0.000185)
 10:    329.94   0.000000    0.00  0.000000  ( 0.000013 -0.000022  0.000006)
 11:    403.09   0.005397   27.27  0.004178  ( 0.000932 -0.000001 -0.064630)
 12:    421.93   0.021005  106.15  0.015535  (-0.124641  0.000003 -0.000179)
 13:    469.54   0.000065    0.33  0.000043  ( 0.000004  0.006582 -0.000000)
 14:    509.15   0.010094   51.01  0.006187  ( 0.000330  0.000001  0.078654)
 15:    567.59   0.000257    1.30  0.000141  ( 0.000011  0.011876 -0.000001)
 16:    582.48   0.000000    0.00  0.000000  ( 0.000005 -0.000079 -0.000016)
 17:    616.44   0.000489    2.47  0.000248  ( 0.015515 -0.000003  0.002614)
 18:    627.03   0.029623  149.70  0.014743  (-0.000794  0.000002  0.121418)
 19:    671.55   0.001826    9.23  0.000849  ( 0.000051 -0.000000  0.029130)
 20:    676.71   0.000000    0.00  0.000000  (-0.000006 -0.000147 -0.000033)
 21:    695.40   0.000000    0.00  0.000000  ( 0.000003 -0.000258 -0.000001)
 22:    885.62   0.046095  232.95  0.016243  ( 0.127446  0.000003 -0.000148)
 23:    926.64   0.003341   16.88  0.001125  ( 0.001105  0.000002 -0.033523)
 24:    961.80   0.000186    0.94  0.000060  (-0.001160 -0.000002 -0.007684)
 25:    988.75   0.000014    0.07  0.000004  ( 0.000019 -0.002083  0.000000)
 26:   1017.33   0.504185  2547.95  0.154658  ( 0.393265 -0.000004  0.000121)
 27:   1095.79   0.001819    9.19  0.000518  (-0.000012 -0.022759  0.000000)
 28:   1145.66   0.040562  204.98  0.011048  ( 0.105112 -0.000000  0.000097)
 29:   1279.86   0.062737  317.05  0.015297  ( 0.123681  0.000000 -0.000152)
 30:   1282.79   0.000004    0.02  0.000001  ( 0.000116 -0.000917 -0.000000)
 31:   1360.44   0.046240  233.68  0.010607  ( 0.102989 -0.000004 -0.000093)
 32:   1396.61   0.217715  1100.24  0.048647  (-0.220561  0.000009  0.000066)
 33:   1426.42   0.000330    1.67  0.000072  (-0.000024  0.008492  0.000002)
 34:   1476.78   0.222523  1124.54  0.047022  ( 0.216845 -0.000005  0.000012)
 35:   1540.26   0.000199    1.00  0.000040  (-0.000004  0.006346  0.000001)
 36:   2164.18   0.942749  4764.27  0.135940  ( 0.368700 -0.000006 -0.000067)
 37:   2268.69   0.072357  365.66  0.009953  (-0.000002 -0.099764 -0.000002)
 38:   3170.88   0.003556   17.97  0.000350  ( 0.000001 -0.018709  0.000000)
 39:   3195.84   0.000621    3.14  0.000061  (-0.000006 -0.007788  0.000000)
 40:   3212.53   0.005323   26.90  0.000517  (-0.022740  0.000004  0.000062)
 41:   3219.52   0.003785   19.13  0.000367  (-0.000005 -0.019153 -0.000000)

--------------------------
THERMOCHEMISTRY AT 298.15K
--------------------------

Temperature         ...   298.15 K
Pressure            ...     1.00 atm
Total Mass          ...   128.13 AMU
Quasi RRHO          ...     True
Cut-Off Frequency   ...     1.00 cm^-1

Throughout the following assumptions are being made:
  (1) The electronic state is orbitally nondegenerate
      but the spin degeneracy is treated
  (2) There are no thermally accessible electronically excited states
  (3) Hindered rotations indicated by low frequency modes are not
      treated as such but are treated as vibrations and this may
      cause some error
  (4) All equations used are the standard statistical mechanics
      equations for an ideal gas
  (5) All vibrations are strictly harmonic

freq.     117.63  E(vib)   ...       0.44
freq.     118.96  E(vib)   ...       0.44
freq.     132.83  E(vib)   ...       0.42
freq.     192.99  E(vib)   ...       0.36
freq.     329.94  E(vib)   ...       0.24
freq.     403.09  E(vib)   ...       0.19
freq.     421.93  E(vib)   ...       0.18
freq.     469.54  E(vib)   ...       0.16
freq.     509.15  E(vib)   ...       0.14
freq.     567.59  E(vib)   ...       0.11
freq.     582.48  E(vib)   ...       0.11
freq.     616.44  E(vib)   ...       0.09
freq.     627.03  E(vib)   ...       0.09
freq.     671.55  E(vib)   ...       0.08
freq.     676.71  E(vib)   ...       0.08
freq.     695.40  E(vib)   ...       0.07
freq.     885.62  E(vib)   ...       0.04
freq.     926.64  E(vib)   ...       0.03
freq.     961.80  E(vib)   ...       0.03
freq.     988.75  E(vib)   ...       0.02
freq.    1017.33  E(vib)   ...       0.02
freq.    1095.79  E(vib)   ...       0.02
freq.    1145.66  E(vib)   ...       0.01
freq.    1279.86  E(vib)   ...       0.01
freq.    1282.79  E(vib)   ...       0.01
freq.    1360.44  E(vib)   ...       0.01
freq.    1396.61  E(vib)   ...       0.00
freq.    1426.42  E(vib)   ...       0.00
freq.    1476.78  E(vib)   ...       0.00
freq.    1540.26  E(vib)   ...       0.00
freq.    2164.18  E(vib)   ...       0.00
freq.    2268.69  E(vib)   ...       0.00
freq.    3170.88  E(vib)   ...       0.00
freq.    3195.84  E(vib)   ...       0.00
freq.    3212.53  E(vib)   ...       0.00
freq.    3219.52  E(vib)   ...       0.00

------------
INNER ENERGY
------------

The inner energy is: U= E(el) + E(ZPE) + E(vib) + E(rot) + E(trans)
    E(el)   - is the total energy from the electronic structure calculation
              = E(kin-el) + E(nuc-el) + E(el-el) + E(nuc-nuc)
    E(ZPE)  - the the zero temperature vibrational energy from the frequency calculation
    E(vib)  - the the finite temperature correction to E(ZPE) due to population
              of excited vibrational states
    E(rot)  - is the rotational thermal energy
    E(trans)- is the translational thermal energy

Summary of contributions to the inner energy U:
Electronic energy                ...   -416.50016057 Eh
Zero point energy                ...      0.09374578 Eh      58.83 kcal/mol
Thermal vibrational correction   ...      0.00542190 Eh       3.40 kcal/mol
Thermal rotational correction    ...      0.00141627 Eh       0.89 kcal/mol
Thermal translational correction ...      0.00141627 Eh       0.89 kcal/mol
-----------------------------------------------------------------------
Total thermal energy                   -416.39816035 Eh

Summary of corrections to the electronic energy:
(perhaps to be used in another calculation)
Total thermal correction                  0.00825444 Eh       5.18 kcal/mol
Non-thermal (ZPE) correction              0.09374578 Eh      58.83 kcal/mol
-----------------------------------------------------------------------
Total correction                          0.10200022 Eh      64.01 kcal/mol

--------
ENTHALPY
--------

The enthalpy is H = U + kB*T
                kB is Boltzmann's constant
Total thermal energy              ...   -416.39816035 Eh
Thermal Enthalpy correction       ...      0.00094421 Eh       0.59 kcal/mol
-----------------------------------------------------------------------
Total Enthalpy                    ...   -416.39721614 Eh

Note: Rotational entropy computed according to Herzberg
Infrared and Raman Spectra, Chapter V,1, Van Nostrand Reinhold, 1945
Point Group:  C2, Symmetry Number:   2
Rotational constants in cm-1:     0.088083     0.030823     0.022833

Vibrational entropy computed according to the QRRHO of S. Grimme
Chem.Eur.J. 2012 18 9955 using a reference frequency of 100.0 cm-1

-------
ENTROPY
-------

The entropy contributions are T*S = T*(S(el)+S(vib)+S(rot)+S(trans))
     S(el)   - electronic entropy
     S(vib)  - vibrational entropy
     S(rot)  - rotational entropy
     S(trans)- translational entropy
The entropies will be listed as multiplied by the temperature to get
units of energy

Electronic entropy                ...      0.00065446 Eh      0.41 kcal/mol
Vibrational entropy               ...      0.00907171 Eh      5.69 kcal/mol
Rotational entropy                ...      0.01343021 Eh      8.43 kcal/mol
Translational entropy             ...      0.01922234 Eh     12.06 kcal/mol
-----------------------------------------------------------------------
Final entropy term                ...      0.04237873 Eh     26.59 kcal/mol

In case the symmetry of your molecule has not been determined correctly
or in case you have a reason to use a different symmetry number we print
out the resulting rotational entropy values for sn=1,12:

 non-linear molecules -----------------------------------
|  sn= 1 | S(rot)=       0.01408467 Eh      8.84 kcal/mol|
|  sn= 2 | S(rot)=       0.01343021 Eh      8.43 kcal/mol|
|  sn= 3 | S(rot)=       0.01304738 Eh      8.19 kcal/mol|
|  sn= 4 | S(rot)=       0.01277576 Eh      8.02 kcal/mol|
|  sn= 5 | S(rot)=       0.01256507 Eh      7.88 kcal/mol|
|  sn= 6 | S(rot)=       0.01239292 Eh      7.78 kcal/mol|
|  sn= 7 | S(rot)=       0.01224738 Eh      7.69 kcal/mol|
|  sn= 8 | S(rot)=       0.01212130 Eh      7.61 kcal/mol|
|  sn= 9 | S(rot)=       0.01201009 Eh      7.54 kcal/mol|
|  sn=10 | S(rot)=       0.01191061 Eh      7.47 kcal/mol|
|  sn=11 | S(rot)=       0.01182062 Eh      7.42 kcal/mol|
|  sn=12 | S(rot)=       0.01173847 Eh      7.37 kcal/mol|
 linear molecules ---------------------------------------
|  Dinfh | S(rot)=       0.00889438 Eh      5.58 kcal/mol|
|  Cinfv | S(rot)=       0.00954884 Eh      5.99 kcal/mol|
 --------------------------------------------------------

-------------------
GIBBS FREE ENERGY
-------------------

The Gibbs free energy is G = H - T*S

Total enthalpy                    ...   -416.39721614 Eh
Total entropy correction          ...     -0.04237873 Eh    -26.59 kcal/mol
-----------------------------------------------------------------------
Final Gibbs free energy         ...   -416.43959487 Eh

                             ****ORCA TERMINATED NORMALLY****
TOTAL RUN TIME: 0 days 0 hours 33 minutes 13 seconds 316 msec
