                         Program Version 6.0.0  -   RELEASE  -
|  1> !PBE0 opt aug-cc-pVTZ d3 TightSCF SlowConv RIJCOSX defgrid2
|  2>
|  3> %pal
|  4> nprocs 8
|  5> end
|  6>
|  7> %scf
|  8> MaxIter 1500
|  9> end
| 10>
| 11> %maxcore 3500
| 12>
| 13> !CPCM
| 14> %cpcm smd true
| 15> SMDsolvent "MeCN"
| 16> surfacetype gepol_ses
| 17> rsolv 2.19
| 18> end
| 19>
| 20> * xyz 1 2
| 21> C          -0.22428548195010     -1.24213438922305     -0.03849982740281
| 22> C           1.14800811610277     -1.22870080724969      0.00227297677880
| 23> C           1.84566180598227     -0.00004019353139      0.02297012210753
| 24> C           1.14805042698559      1.22864411313713      0.00227054482980
| 25> C          -0.22424154749405      1.24212983950181     -0.03850931873892
| 26> C          -0.94084900168795      0.00001024661649     -0.05989305493678
| 27> N          -2.26985305582395      0.00003075135377     -0.09979281491323
| 28> H          -2.80165535396914      0.86997483968693     -0.11591197867223
| 29> H          -2.80167508667297     -0.86990117124685     -0.11590823438470
| 30> H          -0.77890173993705      2.18488554366972     -0.05504522287995
| 31> H           1.70373713208460      2.16980587419055      0.01885237386387
| 32> H           2.93889913121278     -0.00005967561260      0.05550059305168
| 33> H           1.70365895934134     -2.16988118368011      0.01885253182221
| 34> H          -0.77898600417414     -2.18486378761269     -0.05503389052528
| 35> *
| 36>
| 37>                          ****END OF INPUT****
 Total Charge           Charge          ....    1
 Multiplicity           Mult            ....    2
 Number of Electrons    NEL             ....   49
Dispersion correction           -0.011428278
FINAL SINGLE POINT ENERGY      -287.196789101664
Dispersion correction             ... done (  0.1 sec)
Dispersion correction           -0.011483384
FINAL SINGLE POINT ENERGY      -287.197835130820
Dispersion correction             ... done (  0.0 sec)
Dispersion correction           -0.011488709
FINAL SINGLE POINT ENERGY      -287.197845513393
Dispersion correction             ... done (  0.1 sec)
Dispersion correction           -0.011489847
FINAL SINGLE POINT ENERGY      -287.197849802884
Dispersion correction             ... done (  0.1 sec)
Dispersion correction           -0.011489929
FINAL SINGLE POINT ENERGY      -287.197854287187
Dispersion correction             ... done (  0.0 sec)
                    ***********************HURRAY********************

CARTESIAN COORDINATES (ANGSTROEM)
---------------------------------
  C     -0.223683   -1.236251   -0.038975
  C      1.140732   -1.221074    0.002226
  C      1.832234   -0.000039    0.023075
  C      1.140777    1.221022    0.002220
  C     -0.223638    1.236244   -0.038980
  C     -0.932526    0.000009   -0.059808
  N     -2.250425    0.000031   -0.098131
  H     -2.774563    0.864313   -0.114713
  H     -2.774593   -0.864233   -0.114718
  H     -0.783152    2.162800   -0.056266
  H      1.692901    2.151018    0.018800
  H      2.913907   -0.000061    0.054845
  H      1.692824   -2.151088    0.018810
  H     -0.783227   -2.162789   -0.056261

 Multiplicity           Mult            ....    2
 Number of Electrons    NEL             ....   49
 Basis Dimension        Dim             ....  483

ORBITAL ENERGIES
----------------
                 SPIN UP ORBITALS
  NO   OCC          E(Eh)            E(eV)
   0   1.0000     -14.479572      -394.0092
   1   1.0000     -10.332121      -281.1513
   2   1.0000     -10.277433      -279.6632
   3   1.0000     -10.273087      -279.5449
   4   1.0000     -10.273086      -279.5449
   5   1.0000     -10.260490      -279.2021
   6   1.0000     -10.260484      -279.2020
   7   1.0000      -1.033167       -28.1139
   8   1.0000      -0.913856       -24.8673
   9   1.0000      -0.816482       -22.2176
  10   1.0000      -0.795496       -21.6465
  11   1.0000      -0.677604       -18.4385
  12   1.0000      -0.673146       -18.3172
  13   1.0000      -0.591807       -16.1039
  14   1.0000      -0.583664       -15.8823
  15   1.0000      -0.538187       -14.6448
  16   1.0000      -0.487472       -13.2648
  17   1.0000      -0.477186       -12.9849
  18   1.0000      -0.474003       -12.8983
  19   1.0000      -0.470700       -12.8084
  20   1.0000      -0.407219       -11.0810
  21   1.0000      -0.393223       -10.7001
  22   1.0000      -0.385340       -10.4856
  23   1.0000      -0.313294        -8.5252
  24   1.0000      -0.275626        -7.5002
  25   0.0000      -0.040499        -1.1020
  26   0.0000      -0.038691        -1.0528
  27   0.0000      -0.001896        -0.0516
  28   0.0000       0.010963         0.2983
  29   0.0000       0.015660         0.4261

                 SPIN DOWN ORBITALS
  NO   OCC          E(Eh)            E(eV)
   0   1.0000     -14.470735      -393.7687
   1   1.0000     -10.331859      -281.1442
   2   1.0000     -10.271294      -279.4961
   3   1.0000     -10.269484      -279.4469
   4   1.0000     -10.269481      -279.4468
   5   1.0000     -10.262403      -279.2542
   6   1.0000     -10.262389      -279.2538
   7   1.0000      -1.017873       -27.6977
   8   1.0000      -0.904911       -24.6239
   9   1.0000      -0.812681       -22.1142
  10   1.0000      -0.780202       -21.2304
  11   1.0000      -0.674164       -18.3449
  12   1.0000      -0.666072       -18.1247
  13   1.0000      -0.589203       -16.0330
  14   1.0000      -0.578185       -15.7332
  15   1.0000      -0.533196       -14.5090
  16   1.0000      -0.483726       -13.1629
  17   1.0000      -0.474489       -12.9115
  18   1.0000      -0.469897       -12.7865
  19   1.0000      -0.442132       -12.0310
  20   1.0000      -0.404797       -11.0151
  21   1.0000      -0.383442       -10.4340
  22   1.0000      -0.356222        -9.6933
  23   1.0000      -0.303360        -8.2548
  24   0.0000      -0.170625        -4.6429
  25   0.0000      -0.027267        -0.7420
  26   0.0000      -0.011960        -0.3254
  27   0.0000      -0.000766        -0.0208
  28   0.0000       0.012163         0.3310

MULLIKEN ATOMIC CHARGES AND SPIN POPULATIONS
--------------------------------------------
   0 C :   -0.670210    0.196072
   1 C :   -0.472504   -0.109463
   2 C :   -0.474761    0.357048
   3 C :   -0.473352   -0.109474
   4 C :   -0.672097    0.196048
   5 C :    0.906048    0.097600
   6 N :   -0.323128    0.366888
   7 H :    0.072439   -0.003641
   8 H :    0.073008   -0.003643
   9 H :    0.708456   -0.001474
  10 H :    0.499118    0.003201
  11 H :    0.624641    0.009112
  12 H :    0.493677    0.003193
  13 H :    0.708664   -0.001469
Sum of atomic charges         :    1.0000000

LOEWDIN ATOMIC CHARGES AND SPIN POPULATIONS
-------------------------------------------
   0 C :    0.284006    0.112666
   1 C :    0.246165    0.036807
   2 C :    0.264706    0.180840
   3 C :    0.246165    0.036807
   4 C :    0.284004    0.112667
   5 C :   -0.168917    0.129737
   6 N :    0.975657    0.253240
   7 H :   -0.197688    0.034142
   8 H :   -0.197688    0.034142
   9 H :   -0.141035    0.021243
  10 H :   -0.153571   -0.008987
  11 H :   -0.147194    0.044440
  12 H :   -0.153576   -0.008987
  13 H :   -0.141034    0.021243

  Mayer bond orders larger than 0.100000
B(  0-C ,  1-C ) :   1.5639 B(  0-C ,  2-C ) :   0.2171 B(  0-C ,  4-C ) :   0.2624
B(  0-C ,  5-C ) :   0.7879 B(  0-C ,  6-N ) :  -0.1380 B(  1-C ,  2-C ) :   1.1738
B(  1-C ,  3-C ) :  -0.1003 B(  1-C ,  5-C ) :  -0.2350 B(  1-C , 12-H ) :   0.6428
B(  2-C ,  3-C ) :   1.1752 B(  2-C ,  4-C ) :   0.2163 B(  2-C , 11-H ) :   0.3801
B(  3-C ,  4-C ) :   1.5660 B(  3-C ,  5-C ) :  -0.2344 B(  3-C , 10-H ) :   0.6355
B(  4-C ,  5-C ) :   0.7881 B(  4-C ,  6-N ) :  -0.1380 B(  5-C ,  6-N ) :   1.0829
B(  6-N ,  7-H ) :   1.1172 B(  6-N ,  8-H ) :   1.1162

Dispersion correction           -0.011489675
FINAL SINGLE POINT ENERGY      -287.197854742403

DIPOLE MOMENT
-------------

Method             : SCF
Type of density    : Electron Density
Multiplicity       :   2
Irrep              :   0
Energy             :  -287.1863650672172525 Eh
Relativity type    :
Basis              : AO
                                X                 Y                 Z
Electronic contribution:     -0.916677762       0.000021952      -0.026964868
Nuclear contribution   :     -0.812626830       0.000010622      -0.026406841
                        -----------------------------------------
Total Dipole Moment    :     -1.729304592       0.000032573      -0.053371709
                        -----------------------------------------
Magnitude (a.u.)       :      1.730128004
Magnitude (Debye)      :      4.397635902

Rotational constants in cm-1:             0.181669             0.090916             0.060593
Rotational constants in MHz :          5446.307466          2725.594356          1816.520449

                             ****ORCA TERMINATED NORMALLY****
TOTAL RUN TIME: 0 days 0 hours 18 minutes 10 seconds 307 msec
