                         Program Version 6.0.0  -   RELEASE  -
|  1> !B3LYP aug-cc-pVTZ d3 TightSCF SlowConv RIJCOSX defgrid2
|  2>
|  3> %pal
|  4> nprocs 4
|  5> end
|  6>
|  7> %scf
|  8> MaxIter 1500
|  9> end
| 10>
| 11> %maxcore 3000
| 12>
| 13> !CPCM
| 14> %cpcm smd true
| 15> SMDsolvent "MeCN"
| 16> surfacetype gepol_ses
| 17> rsolv 2.19
| 18> end
| 19>
| 20> * xyz 1 2
| 21> C           0.39027202850425     -0.55394955520482     -0.01147318884514
| 22> C           1.46538411398227     -1.41201451226685      0.32843134291825
| 23> C           2.76223371510298     -0.95181499222389      0.33062494963678
| 24> C           3.04842985596685      0.39380533103560     -0.01062127484712
| 25> C           2.02568592855862      1.26931648709972     -0.30266231954854
| 26> C           0.67678776447609      0.85315037925119     -0.22862200210739
| 27> C          -0.33926818993375      1.86220315940674     -0.30117717382418
| 28> C          -1.56489251647505      1.82515242057598      0.30424492715440
| 29> C          -2.56690840928871      2.90896571125331      0.23231417274704
| 30> H          -3.53355272254525      2.51293544975722     -0.13479632863314
| 31> H          -2.77605157275142      3.30247609624592      1.24606137329070
| 32> H          -2.25129259404292      3.73887527736490     -0.41869887051134
| 33> H          -1.81399596674726      0.96710759352235      0.94261722102013
| 34> H          -0.04671759270647      2.79850717185556     -0.79419889631908
| 35> H           2.24475638702766      2.31715758324724     -0.52473414148750
| 36> H           4.08568441615477      0.73993162783082     -0.02214310519638
| 37> H           3.58311040506705     -1.63750220541102      0.55778721997041
| 38> H           1.27533483486936     -2.47214630677441      0.50835511028523
| 39> C          -0.92089212283098     -1.06759805095657     -0.27601443140599
| 40> C          -1.40401796068071     -2.28526831606367      0.13493631580958
| 41> C          -2.74957477405163     -2.79884516770918     -0.18467320513625
| 42> H          -3.33583401509727     -2.10778381332124     -0.80996844556913
| 43> H          -2.66557343194919     -3.77317132724075     -0.70581020687802
| 44> H          -3.31016753031929     -3.01606684555296      0.74550545986431
| 45> H          -0.77234901522658     -2.92837616395213      0.76142767228746
| 46> H          -1.58084503506342     -0.44553323176908     -0.89033947467507
| 47> *
| 48>
| 49>                          ****END OF INPUT****

CARTESIAN COORDINATES (ANGSTROEM)
---------------------------------
  C      0.390272   -0.553950   -0.011473
  C      1.465384   -1.412015    0.328431
  C      2.762234   -0.951815    0.330625
  C      3.048430    0.393805   -0.010621
  C      2.025686    1.269316   -0.302662
  C      0.676788    0.853150   -0.228622
  C     -0.339268    1.862203   -0.301177
  C     -1.564893    1.825152    0.304245
  C     -2.566908    2.908966    0.232314
  H     -3.533553    2.512935   -0.134796
  H     -2.776052    3.302476    1.246061
  H     -2.251293    3.738875   -0.418699
  H     -1.813996    0.967108    0.942617
  H     -0.046718    2.798507   -0.794199
  H      2.244756    2.317158   -0.524734
  H      4.085684    0.739932   -0.022143
  H      3.583110   -1.637502    0.557787
  H      1.275335   -2.472146    0.508355
  C     -0.920892   -1.067598   -0.276014
  C     -1.404018   -2.285268    0.134936
  C     -2.749575   -2.798845   -0.184673
  H     -3.335834   -2.107784   -0.809968
  H     -2.665573   -3.773171   -0.705810
  H     -3.310168   -3.016067    0.745505
  H     -0.772349   -2.928376    0.761428
  H     -1.580845   -0.445533   -0.890339

 Total Charge           Charge          ....    1
 Multiplicity           Mult            ....    2
 Number of Electrons    NEL             ....   85
 Basis Dimension        Dim             ....  874

ORBITAL ENERGIES
----------------
                 SPIN UP ORBITALS
  NO   OCC          E(Eh)            E(eV)
   0   1.0000     -10.237899      -278.5874
   1   1.0000     -10.235748      -278.5289
   2   1.0000     -10.230759      -278.3931
   3   1.0000     -10.224077      -278.2113
   4   1.0000     -10.214498      -277.9506
   5   1.0000     -10.208912      -277.7986
   6   1.0000     -10.208662      -277.7918
   7   1.0000     -10.207129      -277.7501
   8   1.0000     -10.203434      -277.6495
   9   1.0000     -10.201020      -277.5839
  10   1.0000     -10.181624      -277.0561
  11   1.0000     -10.179307      -276.9930
  12   1.0000      -0.901335       -24.5266
  13   1.0000      -0.836856       -22.7720
  14   1.0000      -0.833201       -22.6726
  15   1.0000      -0.780548       -21.2398
  16   1.0000      -0.779382       -21.2081
  17   1.0000      -0.716405       -19.4944
  18   1.0000      -0.694808       -18.9067
  19   1.0000      -0.642871       -17.4934
  20   1.0000      -0.625361       -17.0169
  21   1.0000      -0.578773       -15.7492
  22   1.0000      -0.574544       -15.6341
  23   1.0000      -0.533909       -14.5284
  24   1.0000      -0.502472       -13.6730
  25   1.0000      -0.494532       -13.4569
  26   1.0000      -0.468454       -12.7473
  27   1.0000      -0.454023       -12.3546
  28   1.0000      -0.452049       -12.3009
  29   1.0000      -0.431055       -11.7296
  30   1.0000      -0.428394       -11.6572
  31   1.0000      -0.424917       -11.5626
  32   1.0000      -0.410053       -11.1581
  33   1.0000      -0.405089       -11.0230
  34   1.0000      -0.399209       -10.8630
  35   1.0000      -0.381949       -10.3934
  36   1.0000      -0.375801       -10.2261
  37   1.0000      -0.370956       -10.0942
  38   1.0000      -0.360949        -9.8219
  39   1.0000      -0.327438        -8.9100
  40   1.0000      -0.322784        -8.7834
  41   1.0000      -0.266077        -7.2403
  42   1.0000      -0.245371        -6.6769
  43   0.0000      -0.088592        -2.4107
  44   0.0000      -0.056175        -1.5286
  45   0.0000      -0.009772        -0.2659
  46   0.0000      -0.003338        -0.0908
  47   0.0000       0.001440         0.0392

                 SPIN DOWN ORBITALS
  NO   OCC          E(Eh)            E(eV)
   0   1.0000     -10.235427      -278.5201
   1   1.0000     -10.233501      -278.4677
   2   1.0000     -10.225962      -278.2626
   3   1.0000     -10.220659      -278.1183
   4   1.0000     -10.214384      -277.9475
   5   1.0000     -10.208475      -277.7867
   6   1.0000     -10.207557      -277.7617
   7   1.0000     -10.206174      -277.7241
   8   1.0000     -10.203793      -277.6593
   9   1.0000     -10.201626      -277.6004
  10   1.0000     -10.181759      -277.0597
  11   1.0000     -10.179414      -276.9959
  12   1.0000      -0.896152       -24.3855
  13   1.0000      -0.830142       -22.5893
  14   1.0000      -0.827548       -22.5187
  15   1.0000      -0.776639       -21.1334
  16   1.0000      -0.773924       -21.0595
  17   1.0000      -0.715265       -19.4634
  18   1.0000      -0.690752       -18.7963
  19   1.0000      -0.638656       -17.3787
  20   1.0000      -0.621480       -16.9113
  21   1.0000      -0.574582       -15.6352
  22   1.0000      -0.571592       -15.5538
  23   1.0000      -0.532044       -14.4776
  24   1.0000      -0.500732       -13.6256
  25   1.0000      -0.492481       -13.4011
  26   1.0000      -0.466173       -12.6852
  27   1.0000      -0.452515       -12.3136
  28   1.0000      -0.448455       -12.2031
  29   1.0000      -0.428347       -11.6559
  30   1.0000      -0.419410       -11.4127
  31   1.0000      -0.418451       -11.3866
  32   1.0000      -0.408170       -11.1069
  33   1.0000      -0.397317       -10.8116
  34   1.0000      -0.394946       -10.7470
  35   1.0000      -0.380458       -10.3528
  36   1.0000      -0.374644       -10.1946
  37   1.0000      -0.369386       -10.0515
  38   1.0000      -0.358892        -9.7660
  39   1.0000      -0.316689        -8.6175
  40   1.0000      -0.308358        -8.3908
  41   1.0000      -0.254478        -6.9247
  42   0.0000      -0.182791        -4.9740
  43   0.0000      -0.067631        -1.8403
  44   0.0000      -0.047845        -1.3019
  45   0.0000      -0.006828        -0.1858
  46   0.0000       0.001561         0.0425

MULLIKEN ATOMIC CHARGES AND SPIN POPULATIONS
--------------------------------------------
   0 C :    1.448937    0.195637
   1 C :   -0.849555   -0.058106
   2 C :   -0.599552    0.077272
   3 C :   -0.313237    0.097154
   4 C :   -0.908030   -0.057937
   5 C :    1.209816    0.136559
   6 C :   -0.319814    0.015938
   7 C :   -0.016604    0.232567
   8 C :   -0.790334   -0.019334
   9 H :    0.222093    0.015878
  10 H :    0.216563    0.015948
  11 H :    0.243601   -0.002760
  12 H :    0.300848   -0.006711
  13 H :    0.100299    0.005240
  14 H :    0.129938    0.004114
  15 H :    0.503792   -0.000405
  16 H :    0.440884    0.000758
  17 H :    0.056752    0.001031
  18 C :   -0.004372    0.008416
  19 C :   -0.456436    0.328877
  20 C :   -0.759853   -0.030790
  21 H :    0.244936   -0.003741
  22 H :    0.239607    0.024785
  23 H :    0.207434    0.021923
  24 H :    0.232577   -0.006847
  25 H :    0.219711    0.004534
Sum of atomic charges         :    1.0000000

LOEWDIN ATOMIC CHARGES AND SPIN POPULATIONS
-------------------------------------------
   0 C :   -0.060986    0.103525
   1 C :    0.248833    0.019421
   2 C :    0.249106    0.047920
   3 C :    0.248080    0.056457
   4 C :    0.245858    0.015001
   5 C :   -0.071180    0.097856
   6 C :    0.258543    0.066187
   7 C :    0.258618    0.122833
   8 C :    0.591632    0.039005
   9 H :   -0.144380    0.008750
  10 H :   -0.143359    0.008831
  11 H :   -0.156263    0.000963
  12 H :   -0.152296    0.019011
  13 H :   -0.149105    0.005879
  14 H :   -0.147898   -0.004039
  15 H :   -0.146327    0.011438
  16 H :   -0.147229    0.008419
  17 H :   -0.164853   -0.002904
  18 C :    0.250875    0.082208
  19 C :    0.288527    0.174635
  20 C :    0.596939    0.056038
  21 H :   -0.154160    0.001262
  22 H :   -0.140904    0.013472
  23 H :   -0.141433    0.011638
  24 H :   -0.146670    0.030142
  25 H :   -0.169972    0.006050

  Mayer bond orders larger than 0.100000
B(  0-C ,  1-C ) :   0.4363 B(  0-C ,  3-C ) :  -0.2080 B(  0-C ,  4-C ) :  -0.1357
B(  0-C ,  5-C ) :   0.8546 B(  0-C , 17-H ) :  -0.1023 B(  0-C , 18-C ) :   0.3181
B(  1-C ,  2-C ) :   1.1118 B(  1-C ,  5-C ) :  -0.2560 B(  1-C , 17-H ) :   1.3226
B(  1-C , 18-C ) :   0.1994 B(  2-C ,  3-C ) :   1.1274 B(  2-C , 16-H ) :   0.6661
B(  2-C , 17-H ) :  -0.1203 B(  3-C ,  4-C ) :   1.0513 B(  3-C , 15-H ) :   0.6109
B(  4-C ,  5-C ) :   0.3735 B(  4-C ,  6-C ) :  -0.1271 B(  4-C ,  7-C ) :   0.1122
B(  4-C , 14-H ) :   1.1871 B(  4-C , 18-C ) :   0.1307 B(  5-C ,  6-C ) :   0.4647
B(  5-C , 18-C ) :  -0.1848 B(  5-C , 19-C ) :   0.1339 B(  6-C ,  7-C ) :   0.9919
B(  6-C , 13-H ) :   1.1171 B(  7-C ,  8-C ) :   0.7455 B(  7-C , 12-H ) :   1.0135
B(  7-C , 13-H ) :  -0.1200 B(  8-C ,  9-H ) :   0.9774 B(  8-C , 10-H ) :   0.9964
B(  8-C , 11-H ) :   0.9548 B( 18-C , 19-C ) :   0.9077 B( 18-C , 25-H ) :   1.0740
B( 19-C , 20-C ) :   0.7619 B( 19-C , 24-H ) :   1.0577 B( 19-C , 25-H ) :  -0.1148
B( 20-C , 21-H ) :   0.9565 B( 20-C , 22-H ) :   0.9641 B( 20-C , 23-H ) :   1.0117

Dispersion correction           -0.047579991
FINAL SINGLE POINT ENERGY      -465.395327202818

DIPOLE MOMENT
-------------

Method             : SCF
Type of density    : Electron Density
Multiplicity       :   2
Irrep              :   0
Energy             :  -465.3477472122775680 Eh
Relativity type    :
Basis              : AO
                                X                 Y                 Z
Electronic contribution:      9.427118751      -0.287622145      -0.221900372
Nuclear contribution   :    -10.132740029      -0.046037469       0.378723665
                        -----------------------------------------
Total Dipole Moment    :     -0.705621279      -0.333659614       0.156823293
                        -----------------------------------------
Magnitude (a.u.)       :      0.796130437
Magnitude (Debye)      :      2.023602752

Rotational constants in cm-1:             0.031811             0.026577             0.014887
Rotational constants in MHz :           953.672417           796.765756           446.304428

                             ****ORCA TERMINATED NORMALLY****
TOTAL RUN TIME: 0 days 0 hours 10 minutes 22 seconds 892 msec
