                         Program Version 6.0.0  -   RELEASE   -
|  1> !PBE0 def2-SV(p) Opt Freq d3 TightSCF SlowConv RIJCOSX defgrid2
|  2>
|  3>
|  4> %scf
|  5> MaxIter 1500
|  6> end
|  7>
|  8> %maxcore 3000
|  9>
| 10>
| 11>
| 12> * xyz 0 1
| 13> 6       -1.205680000     -1.098431000      0.019393000
| 14> 6        0.004323000     -1.789641000      0.038455000
| 15> 6        1.211153000     -1.095480000      0.029376000
| 16> 6        1.224958000      0.304080000     -0.001790000
| 17> 6        2.525862000      1.056515000     -0.033467000
| 18> 1        2.492140017      1.949439664      0.611953667
| 19> 1        3.364923444      0.423750852      0.305336723
| 20> 1        2.767142178      1.393657060     -1.058188681
| 21> 6        0.000316000      0.978043000     -0.018674000
| 22> 6       -1.223680000      0.299756000     -0.006184000
| 23> 6       -2.523904000      1.054132000      0.009307000
| 24> 1       -2.402748000      2.077337000     -0.382591000
| 25> 1       -2.919965000      1.139519000      1.038749000
| 26> 1       -3.293647000      0.544037000     -0.594666000
| 27> 1       -0.001195000      2.073744000     -0.043624000
| 28> 1        2.157749000     -1.646052000      0.043718000
| 29> 1        0.005425000     -2.883958000      0.058980000
| 30> 1       -2.150440000     -1.652142000      0.024412000
| 31> *
| 32>
| 33>                          ****END OF INPUT****
 Total Charge           Charge          ....    0
 Multiplicity           Mult            ....    1
 Number of Electrons    NEL             ....   58
Dispersion correction           -0.015022976
FINAL SINGLE POINT ENERGY      -310.275373701968
Dispersion correction             ... done (  0.1 sec)
Dispersion correction           -0.015022560
FINAL SINGLE POINT ENERGY      -310.275408211999
Dispersion correction             ... done (  0.2 sec)
Dispersion correction           -0.015022870
FINAL SINGLE POINT ENERGY      -310.275419712564
Dispersion correction             ... done (  0.1 sec)
                    ***********************HURRAY********************

CARTESIAN COORDINATES (ANGSTROEM)
---------------------------------
  C     -1.205700   -1.100397    0.015432
  C      0.001119   -1.793725    0.037169
  C      1.211185   -1.100882    0.033886
  C      1.228353    0.296828    0.004945
  C      2.523689    1.058441   -0.035931
  H      2.483412    1.960247    0.598893
  H      3.367706    0.437068    0.305996
  H      2.755169    1.394109   -1.063998
  C      0.003471    0.974998   -0.012914
  C     -1.220313    0.300009   -0.006145
  C     -2.519713    1.055700    0.009360
  H     -2.397310    2.080169   -0.379569
  H     -2.918233    1.138516    1.037796
  H     -3.288933    0.548421   -0.597478
  H      0.003944    2.071113   -0.032783
  H      2.156661   -1.652800    0.052087
  H      0.000275   -2.888030    0.056744
  H     -2.152050   -1.651480    0.017006

 Multiplicity           Mult            ....    1
 Number of Electrons    NEL             ....   58
 Basis Dimension        Dim             ....  132

ORBITAL ENERGIES
----------------

  NO   OCC          E(Eh)            E(eV)
   0   2.0000     -10.241080      -278.6740
   1   2.0000     -10.240804      -278.6664
   2   2.0000     -10.230716      -278.3919
   3   2.0000     -10.226764      -278.2844
   4   2.0000     -10.226719      -278.2832
   5   2.0000     -10.226131      -278.2672
   6   2.0000     -10.224818      -278.2314
   7   2.0000     -10.224679      -278.2277
   8   2.0000      -0.874780       -23.8040
   9   2.0000      -0.796123       -21.6636
  10   2.0000      -0.771390       -20.9906
  11   2.0000      -0.702268       -19.1097
  12   2.0000      -0.690103       -18.7787
  13   2.0000      -0.607915       -16.5422
  14   2.0000      -0.581122       -15.8131
  15   2.0000      -0.514796       -14.0083
  16   2.0000      -0.483638       -13.1605
  17   2.0000      -0.453905       -12.3514
  18   2.0000      -0.436575       -11.8798
  19   2.0000      -0.424319       -11.5463
  20   2.0000      -0.422480       -11.4963
  21   2.0000      -0.415636       -11.3100
  22   2.0000      -0.405719       -11.0402
  23   2.0000      -0.384150       -10.4532
  24   2.0000      -0.356613        -9.7039
  25   2.0000      -0.348990        -9.4965
  26   2.0000      -0.345225        -9.3940
  27   2.0000      -0.255663        -6.9569
  28   2.0000      -0.247791        -6.7427
  29   0.0000       0.000981         0.0267
  30   0.0000       0.003592         0.0977
  31   0.0000       0.075241         2.0474
  32   0.0000       0.092330         2.5124
  33   0.0000       0.096941         2.6379

MULLIKEN ATOMIC CHARGES
-----------------------
   0 C :   -0.137398
   1 C :   -0.085721
   2 C :   -0.142031
   3 C :    0.004300
   4 C :   -0.295461
   5 H :    0.133646
   6 H :    0.128641
   7 H :    0.144020
   8 C :   -0.180916
   9 C :    0.003898
  10 C :   -0.295600
  11 H :    0.129286
  12 H :    0.144642
  13 H :    0.132814
  14 H :    0.066584
  15 H :    0.079153
  16 H :    0.091236
  17 H :    0.078908
Sum of atomic charges:    0.0000000

LOEWDIN ATOMIC CHARGES
----------------------
   0 C :   -0.135753
   1 C :   -0.124094
   2 C :   -0.137251
   3 C :   -0.050206
   4 C :   -0.327847
   5 H :    0.129834
   6 H :    0.126929
   7 H :    0.135274
   8 C :   -0.129419
   9 C :   -0.050098
  10 C :   -0.327802
  11 H :    0.126967
  12 H :    0.135497
  13 H :    0.129566
  14 H :    0.121967
  15 H :    0.124448
  16 H :    0.127504
  17 H :    0.124485

  Mayer bond orders larger than 0.100000
B(  0-C ,  1-C ) :   1.4017 B(  0-C ,  9-C ) :   1.3922 B(  0-C , 17-H ) :   0.9649
B(  1-C ,  2-C ) :   1.3824 B(  1-C , 16-H ) :   0.9623 B(  2-C ,  3-C ) :   1.4172
B(  2-C , 15-H ) :   0.9611 B(  3-C ,  4-C ) :   1.0720 B(  3-C ,  8-C ) :   1.3854
B(  4-C ,  5-H ) :   0.9455 B(  4-C ,  6-H ) :   0.9492 B(  4-C ,  7-H ) :   0.9359
B(  8-C ,  9-C ) :   1.4126 B(  8-C , 14-H ) :   0.9609 B(  9-C , 10-C ) :   1.0719
B( 10-C , 11-H ) :   0.9492 B( 10-C , 12-H ) :   0.9354 B( 10-C , 13-H ) :   0.9456

Dispersion correction           -0.015023061
FINAL SINGLE POINT ENERGY      -310.275420545283

DIPOLE MOMENT
-------------

Method             : SCF
Type of density    : Electron Density
Multiplicity       :   1
Irrep              :   0
Energy             :  -310.2603974843032120 Eh
Relativity type    :
Basis              : AO
                                X                 Y                 Z
Electronic contribution:      0.002630778      -3.106805208       0.052316755
Nuclear contribution   :     -0.014413012       3.246643755      -0.053120895
                        -----------------------------------------
Total Dipole Moment    :     -0.011782234       0.139838547      -0.000804141
                        -----------------------------------------
Magnitude (a.u.)       :      0.140336335
Magnitude (Debye)      :      0.356706616

VIBRATIONAL FREQUENCIES
-----------------------

Scaling factor for frequencies =  1.000000000  (already applied!)

     0:       0.00 cm**-1
     1:       0.00 cm**-1
     2:       0.00 cm**-1
     3:       0.00 cm**-1
     4:       0.00 cm**-1
     5:       0.00 cm**-1
     6:      14.72 cm**-1
     7:      36.56 cm**-1
     8:     197.24 cm**-1
     9:     222.44 cm**-1
    10:     276.38 cm**-1
    11:     406.04 cm**-1
    12:     446.58 cm**-1
    13:     523.55 cm**-1
    14:     531.28 cm**-1
    15:     550.58 cm**-1
    16:     722.85 cm**-1
    17:     745.69 cm**-1
    18:     791.65 cm**-1
    19:     906.71 cm**-1
    20:     917.97 cm**-1
    21:     939.24 cm**-1
    22:    1001.64 cm**-1
    23:    1004.43 cm**-1
    24:    1021.27 cm**-1
    25:    1038.55 cm**-1
    26:    1062.24 cm**-1
    27:    1066.23 cm**-1
    28:    1127.66 cm**-1
    29:    1185.16 cm**-1
    30:    1196.92 cm**-1
    31:    1300.43 cm**-1
    32:    1325.70 cm**-1
    33:    1395.27 cm**-1
    34:    1407.26 cm**-1
    35:    1412.25 cm**-1
    36:    1453.92 cm**-1
    37:    1471.67 cm**-1
    38:    1472.17 cm**-1
    39:    1475.08 cm**-1
    40:    1510.47 cm**-1
    41:    1547.48 cm**-1
    42:    1677.85 cm**-1
    43:    1701.07 cm**-1
    44:    3032.79 cm**-1
    45:    3033.25 cm**-1
    46:    3114.05 cm**-1
    47:    3114.58 cm**-1
    48:    3141.67 cm**-1
    49:    3141.97 cm**-1
    50:    3171.80 cm**-1
    51:    3182.20 cm**-1
    52:    3190.54 cm**-1
    53:    3208.98 cm**-1

IR SPECTRUM
-----------

 Mode   freq       eps      Int      T**2         TX        TY        TZ
       cm**-1   L/(mol*cm) km/mol    a.u.
----------------------------------------------------------------------------
  6:     14.72   0.000040    0.20  0.000855  (-0.028661  0.004124  0.004076)
  7:     36.56   0.000121    0.61  0.001029  (-0.002404 -0.028395 -0.014721)
  8:    197.24   0.000858    4.34  0.001357  (-0.000338  0.000342 -0.036840)
  9:    222.44   0.000001    0.00  0.000001  ( 0.000449  0.000023 -0.000926)
 10:    276.38   0.000089    0.45  0.000101  (-0.000689 -0.010010  0.000226)
 11:    406.04   0.000075    0.38  0.000058  (-0.006952  0.000734  0.002990)
 12:    446.58   0.000936    4.73  0.000654  ( 0.001048  0.000400  0.025554)
 13:    523.55   0.000143    0.72  0.000085  (-0.008985  0.000668  0.002078)
 14:    531.28   0.000003    0.02  0.000002  ( 0.000922  0.000795 -0.000580)
 15:    550.58   0.000007    0.03  0.000004  ( 0.000704  0.001790  0.000222)
 16:    722.85   0.002895   14.63  0.001250  ( 0.001717 -0.000658 -0.035306)
 17:    745.69   0.000012    0.06  0.000005  ( 0.000416  0.002224  0.000113)
 18:    791.65   0.004858   24.55  0.001915  (-0.001886 -0.000807 -0.043714)
 19:    906.71   0.000226    1.14  0.000078  (-0.005970 -0.000300 -0.006473)
 20:    917.97   0.000013    0.07  0.000005  ( 0.000087 -0.002119 -0.000021)
 21:    939.24   0.000456    2.30  0.000151  (-0.011470 -0.002175  0.003899)
 22:   1001.64   0.000173    0.87  0.000054  (-0.006595 -0.003189  0.000312)
 23:   1004.43   0.000025    0.13  0.000008  (-0.002579  0.000098  0.001118)
 24:   1021.27   0.000037    0.19  0.000011  (-0.003319 -0.000137  0.000595)
 25:   1038.55   0.000334    1.69  0.000100  (-0.009246  0.003265  0.002054)
 26:   1062.24   0.000313    1.58  0.000092  (-0.001098  0.009528  0.000239)
 27:   1066.23   0.002842   14.36  0.000832  (-0.016113  0.000094  0.023917)
 28:   1127.66   0.001103    5.57  0.000305  ( 0.001311  0.017416 -0.000369)
 29:   1185.16   0.000141    0.71  0.000037  ( 0.006016  0.000337  0.000902)
 30:   1196.92   0.000020    0.10  0.000005  ( 0.000559  0.000359 -0.002188)
 31:   1300.43   0.000039    0.20  0.000009  ( 0.000133 -0.003062 -0.000116)
 32:   1325.70   0.000011    0.06  0.000003  (-0.000707 -0.001430  0.000333)
 33:   1395.27   0.000013    0.06  0.000003  ( 0.000541  0.001606 -0.000072)
 34:   1407.26   0.000199    1.01  0.000044  ( 0.005742  0.001409 -0.003044)
 35:   1412.25   0.000159    0.80  0.000035  (-0.000793  0.005869  0.000210)
 36:   1453.92   0.000736    3.72  0.000158  ( 0.001135  0.012410  0.001664)
 37:   1471.67   0.002139   10.81  0.000454  ( 0.004250  0.000043 -0.020870)
 38:   1472.17   0.001666    8.42  0.000353  ( 0.005663  0.000498  0.017912)
 39:   1475.08   0.000467    2.36  0.000099  ( 0.009844 -0.000896  0.001087)
 40:   1510.47   0.003711   18.75  0.000767  (-0.000969  0.027660 -0.000834)
 41:   1547.48   0.003680   18.60  0.000742  (-0.027216 -0.000316  0.001168)
 42:   1677.85   0.001083    5.47  0.000201  ( 0.000993  0.014155 -0.000274)
 43:   1701.07   0.003944   19.93  0.000724  ( 0.026883 -0.000089 -0.000913)
 44:   3032.79   0.006984   35.29  0.000719  ( 0.026541  0.000057 -0.003764)
 45:   3033.25   0.002061   10.41  0.000212  (-0.000530 -0.014549  0.000225)
 46:   3114.05   0.001797    9.08  0.000180  ( 0.004162  0.003125  0.012368)
 47:   3114.58   0.002099   10.61  0.000210  (-0.005053  0.002352 -0.013390)
 48:   3141.67   0.001387    7.01  0.000138  (-0.009741  0.006543 -0.000261)
 49:   3141.97   0.002105   10.64  0.000209  ( 0.002709  0.014205 -0.000027)
 50:   3171.80   0.002927   14.79  0.000288  ( 0.000272 -0.016964  0.000342)
 51:   3182.20   0.000042    0.21  0.000004  (-0.001816  0.000883 -0.000040)
 52:   3190.54   0.003424   17.31  0.000335  (-0.018285 -0.000696 -0.000316)
 53:   3208.98   0.002989   15.10  0.000291  (-0.000587  0.017036 -0.000311)

--------------------------
THERMOCHEMISTRY AT 298.15K
--------------------------

Temperature         ...   298.15 K
Pressure            ...     1.00 atm
Total Mass          ...   106.17 AMU
Quasi RRHO          ...     True
Cut-Off Frequency   ...     1.00 cm^-1

Throughout the following assumptions are being made:
  (1) The electronic state is orbitally nondegenerate
  (2) There are no thermally accessible electronically excited states
  (3) Hindered rotations indicated by low frequency modes are not
      treated as such but are treated as vibrations and this may
      cause some error
  (4) All equations used are the standard statistical mechanics
      equations for an ideal gas
  (5) All vibrations are strictly harmonic

freq.      14.72  E(vib)   ...       0.57
freq.      36.56  E(vib)   ...       0.54
freq.     197.24  E(vib)   ...       0.35
freq.     222.44  E(vib)   ...       0.33
freq.     276.38  E(vib)   ...       0.28
freq.     406.04  E(vib)   ...       0.19
freq.     446.58  E(vib)   ...       0.17
freq.     523.55  E(vib)   ...       0.13
freq.     531.28  E(vib)   ...       0.13
freq.     550.58  E(vib)   ...       0.12
freq.     722.85  E(vib)   ...       0.07
freq.     745.69  E(vib)   ...       0.06
freq.     791.65  E(vib)   ...       0.05
freq.     906.71  E(vib)   ...       0.03
freq.     917.97  E(vib)   ...       0.03
freq.     939.24  E(vib)   ...       0.03
freq.    1001.64  E(vib)   ...       0.02
freq.    1004.43  E(vib)   ...       0.02
freq.    1021.27  E(vib)   ...       0.02
freq.    1038.55  E(vib)   ...       0.02
freq.    1062.24  E(vib)   ...       0.02
freq.    1066.23  E(vib)   ...       0.02
freq.    1127.66  E(vib)   ...       0.01
freq.    1185.16  E(vib)   ...       0.01
freq.    1196.92  E(vib)   ...       0.01
freq.    1300.43  E(vib)   ...       0.01
freq.    1325.70  E(vib)   ...       0.01
freq.    1395.27  E(vib)   ...       0.00
freq.    1407.26  E(vib)   ...       0.00
freq.    1412.25  E(vib)   ...       0.00
freq.    1453.92  E(vib)   ...       0.00
freq.    1471.67  E(vib)   ...       0.00
freq.    1472.17  E(vib)   ...       0.00
freq.    1475.08  E(vib)   ...       0.00
freq.    1510.47  E(vib)   ...       0.00
freq.    1547.48  E(vib)   ...       0.00
freq.    1677.85  E(vib)   ...       0.00
freq.    1701.07  E(vib)   ...       0.00
freq.    3032.79  E(vib)   ...       0.00
freq.    3033.25  E(vib)   ...       0.00
freq.    3114.05  E(vib)   ...       0.00
freq.    3114.58  E(vib)   ...       0.00
freq.    3141.67  E(vib)   ...       0.00
freq.    3141.97  E(vib)   ...       0.00
freq.    3171.80  E(vib)   ...       0.00
freq.    3182.20  E(vib)   ...       0.00
freq.    3190.54  E(vib)   ...       0.00
freq.    3208.98  E(vib)   ...       0.00

------------
INNER ENERGY
------------

The inner energy is: U= E(el) + E(ZPE) + E(vib) + E(rot) + E(trans)
    E(el)   - is the total energy from the electronic structure calculation
              = E(kin-el) + E(nuc-el) + E(el-el) + E(nuc-nuc)
    E(ZPE)  - the the zero temperature vibrational energy from the frequency calculation
    E(vib)  - the the finite temperature correction to E(ZPE) due to population
              of excited vibrational states
    E(rot)  - is the rotational thermal energy
    E(trans)- is the translational thermal energy

Summary of contributions to the inner energy U:
Electronic energy                ...   -310.27542055 Eh
Zero point energy                ...      0.15586326 Eh      97.81 kcal/mol
Thermal vibrational correction   ...      0.00524704 Eh       3.29 kcal/mol
Thermal rotational correction    ...      0.00141627 Eh       0.89 kcal/mol
Thermal translational correction ...      0.00141627 Eh       0.89 kcal/mol
-----------------------------------------------------------------------
Total thermal energy                   -310.11147770 Eh

Summary of corrections to the electronic energy:
(perhaps to be used in another calculation)
Total thermal correction                  0.00807959 Eh       5.07 kcal/mol
Non-thermal (ZPE) correction              0.15586326 Eh      97.81 kcal/mol
-----------------------------------------------------------------------
Total correction                          0.16394285 Eh     102.88 kcal/mol

--------
ENTHALPY
--------

The enthalpy is H = U + kB*T
                kB is Boltzmann's constant
Total thermal energy              ...   -310.11147770 Eh
Thermal Enthalpy correction       ...      0.00094421 Eh       0.59 kcal/mol
-----------------------------------------------------------------------
Total Enthalpy                    ...   -310.11053349 Eh

Note: Only C1 symmetry has been detected, increase convergence thresholds
      if your molecule has a higher symmetry. Symmetry factor of 1.0 is
      used for the rotational entropy correction.

Note: Rotational entropy computed according to Herzberg
Infrared and Raman Spectra, Chapter V,1, Van Nostrand Reinhold, 1945
Point Group:  C1, Symmetry Number:   1
Rotational constants in cm-1:     0.119041     0.058741     0.039927

Vibrational entropy computed according to the QRRHO of S. Grimme
Chem.Eur.J. 2012 18 9955 using a reference frequency of 100.0 cm-1

-------
ENTROPY
-------

The entropy contributions are T*S = T*(S(el)+S(vib)+S(rot)+S(trans))
     S(el)   - electronic entropy
     S(vib)  - vibrational entropy
     S(rot)  - rotational entropy
     S(trans)- translational entropy
The entropies will be listed as multiplied by the temperature to get
units of energy

Electronic entropy                ...      0.00000000 Eh      0.00 kcal/mol
Vibrational entropy               ...      0.00938256 Eh      5.89 kcal/mol
Rotational entropy                ...      0.01337421 Eh      8.39 kcal/mol
Translational entropy             ...      0.01895601 Eh     11.90 kcal/mol
-----------------------------------------------------------------------
Final entropy term                ...      0.04171278 Eh     26.18 kcal/mol

In case the symmetry of your molecule has not been determined correctly
or in case you have a reason to use a different symmetry number we print
out the resulting rotational entropy values for sn=1,12:

 non-linear molecules -----------------------------------
|  sn= 1 | S(rot)=       0.01337421 Eh      8.39 kcal/mol|
|  sn= 2 | S(rot)=       0.01271975 Eh      7.98 kcal/mol|
|  sn= 3 | S(rot)=       0.01233692 Eh      7.74 kcal/mol|
|  sn= 4 | S(rot)=       0.01206530 Eh      7.57 kcal/mol|
|  sn= 5 | S(rot)=       0.01185461 Eh      7.44 kcal/mol|
|  sn= 6 | S(rot)=       0.01168247 Eh      7.33 kcal/mol|
|  sn= 7 | S(rot)=       0.01153692 Eh      7.24 kcal/mol|
|  sn= 8 | S(rot)=       0.01141084 Eh      7.16 kcal/mol|
|  sn= 9 | S(rot)=       0.01129963 Eh      7.09 kcal/mol|
|  sn=10 | S(rot)=       0.01120015 Eh      7.03 kcal/mol|
|  sn=11 | S(rot)=       0.01111016 Eh      6.97 kcal/mol|
|  sn=12 | S(rot)=       0.01102801 Eh      6.92 kcal/mol|

                             ****ORCA TERMINATED NORMALLY****
TOTAL RUN TIME: 0 days 0 hours 17 minutes 35 seconds 259 msec
