                         Program Version 6.0.0  -   RELEASE  -
|  1> !r2SCAN aug-cc-pVTZ d3 TightSCF SlowConv RIJCOSX defgrid2
|  2>
|  3> %pal
|  4> nprocs 15
|  5> end
|  6>
|  7> %scf
|  8> MaxIter 1500
|  9> end
| 10>
| 11> %maxcore 3500
| 12>
| 13> !CPCM
| 14> %cpcm smd true
| 15> SMDsolvent "WATER"
| 16> surfacetype gepol_ses
| 17> rsolv 1.40
| 18> end
| 19>
| 20> * xyz 0 1
| 21> C           0.00636908025291      0.00344693466191     -3.48568134762916
| 22> C          -0.07329586297975     -0.04398063872276      0.74138085624868
| 23> C           1.10272166896467     -0.10799321931825      1.50278690341546
| 24> C           1.00614211679588     -0.13690311443854      2.89048895011345
| 25> C          -0.25700371911238     -0.09995487217630      3.47371798070641
| 26> C          -1.36597504158140     -0.04157282452465      2.62711576918004
| 27> N          -1.28290853833089     -0.01622478520361      1.30443177594435
| 28> H           2.07864268736179     -0.16148217056008      1.01390529605249
| 29> H           1.90787256726744     -0.19674804501795      3.50759598842189
| 30> H          -0.38580781708437     -0.12069403978637      4.55934543988249
| 31> H          -2.37943344126066     -0.01230626984174      3.04845755675130
| 32> C          -0.01960087155986     -0.01156089996578     -0.74687997443611
| 33> C           1.03675391875749      0.62425707841442     -1.41531420429447
| 34> C           1.04680281402184      0.63075677304619     -2.80669132538117
| 35> C          -1.00064817669856     -0.59696094289784     -2.72713929450383
| 36> N          -1.01921053020765     -0.60549492558988     -1.40177260600152
| 37> H           1.82553959271218      1.12971852084172     -0.85261087525814
| 38> H           1.85413972205566      1.12838604917571     -3.35269269539613
| 39> H          -0.03136082161732     -0.01872909991858     -4.57822525423132
| 40> H          -1.83911827075703     -1.10093954717764     -3.22567631758471
| 41> *
| 42>
| 43>                          ****END OF INPUT****

CARTESIAN COORDINATES (ANGSTROEM)
---------------------------------
  C      0.006369    0.003447   -3.485681
  C     -0.073296   -0.043981    0.741381
  C      1.102722   -0.107993    1.502787
  C      1.006142   -0.136903    2.890489
  C     -0.257004   -0.099955    3.473718
  C     -1.365975   -0.041573    2.627116
  N     -1.282909   -0.016225    1.304432
  H      2.078643   -0.161482    1.013905
  H      1.907873   -0.196748    3.507596
  H     -0.385808   -0.120694    4.559345
  H     -2.379433   -0.012306    3.048458
  C     -0.019601   -0.011561   -0.746880
  C      1.036754    0.624257   -1.415314
  C      1.046803    0.630757   -2.806691
  C     -1.000648   -0.596961   -2.727139
  N     -1.019211   -0.605495   -1.401773
  H      1.825540    1.129719   -0.852611
  H      1.854140    1.128386   -3.352693
  H     -0.031361   -0.018729   -4.578225
  H     -1.839118   -1.100940   -3.225676

 Total Charge           Charge          ....    0
 Multiplicity           Mult            ....    1
 Number of Electrons    NEL             ....   82
 Basis Dimension        Dim             ....  736

ORBITAL ENERGIES
----------------

  NO   OCC          E(Eh)            E(eV)
   0   2.0000     -14.165326      -385.4581
   1   2.0000     -14.165312      -385.4577
   2   2.0000     -10.084695      -274.4185
   3   2.0000     -10.084492      -274.4130
   4   2.0000     -10.073473      -274.1131
   5   2.0000     -10.073456      -274.1127
   6   2.0000     -10.057152      -273.6690
   7   2.0000     -10.057107      -273.6678
   8   2.0000     -10.050165      -273.4789
   9   2.0000     -10.050132      -273.4780
  10   2.0000     -10.047768      -273.4137
  11   2.0000     -10.047752      -273.4132
  12   2.0000      -0.929551       -25.2944
  13   2.0000      -0.908069       -24.7098
  14   2.0000      -0.775712       -21.1082
  15   2.0000      -0.770004       -20.9529
  16   2.0000      -0.761955       -20.7338
  17   2.0000      -0.709951       -19.3187
  18   2.0000      -0.622812       -16.9476
  19   2.0000      -0.611317       -16.6348
  20   2.0000      -0.586273       -15.9533
  21   2.0000      -0.568954       -15.4820
  22   2.0000      -0.503900       -13.7118
  23   2.0000      -0.468003       -12.7350
  24   2.0000      -0.466163       -12.6849
  25   2.0000      -0.441895       -12.0246
  26   2.0000      -0.439749       -11.9662
  27   2.0000      -0.409396       -11.1402
  28   2.0000      -0.396008       -10.7759
  29   2.0000      -0.393947       -10.7198
  30   2.0000      -0.374121       -10.1803
  31   2.0000      -0.368393       -10.0245
  32   2.0000      -0.366525        -9.9736
  33   2.0000      -0.341466        -9.2918
  34   2.0000      -0.327085        -8.9004
  35   2.0000      -0.281559        -7.6616
  36   2.0000      -0.274230        -7.4622
  37   2.0000      -0.267566        -7.2809
  38   2.0000      -0.238129        -6.4798
  39   2.0000      -0.230140        -6.2624
  40   2.0000      -0.229258        -6.2384
  41   0.0000      -0.080164        -2.1814
  42   0.0000      -0.056882        -1.5478
  43   0.0000      -0.053101        -1.4449
  44   0.0000      -0.016307        -0.4437
  45   0.0000       0.005609         0.1526

MULLIKEN ATOMIC CHARGES
-----------------------
   0 C :   -0.067780
   1 C :    1.423944
   2 C :   -0.485066
   3 C :   -0.877458
   4 C :   -0.068793
   5 C :   -0.643091
   6 N :   -0.678320
   7 H :    0.041210
   8 H :    0.524170
   9 H :    0.199722
  10 H :    0.562265
  11 C :    1.424803
  12 C :   -0.486110
  13 C :   -0.877397
  14 C :   -0.642937
  15 N :   -0.677729
  16 H :    0.043153
  17 H :    0.523803
  18 H :    0.199170
  19 H :    0.562440
Sum of atomic charges:   -0.0000000

LOEWDIN ATOMIC CHARGES
----------------------
   0 C :    0.207474
   1 C :   -0.326658
   2 C :    0.219870
   3 C :    0.207029
   4 C :    0.207518
   5 C :    0.004539
   6 N :    0.361676
   7 H :   -0.167718
   8 H :   -0.156710
   9 H :   -0.167720
  10 H :   -0.181806
  11 C :   -0.326703
  12 C :    0.219942
  13 C :    0.207042
  14 C :    0.004534
  15 N :    0.361651
  16 H :   -0.167733
  17 H :   -0.156726
  18 H :   -0.167748
  19 H :   -0.181752

  Mayer bond orders larger than 0.100000
B(  0-C , 13-C ) :   1.2146 B(  0-C , 14-C ) :   0.7058 B(  0-C , 15-N ) :  -0.1153
B(  0-C , 18-H ) :   1.0557 B(  1-C ,  2-C ) :   0.5652 B(  1-C ,  3-C ) :  -0.2224
B(  1-C ,  6-N ) :   0.1673 B(  1-C ,  7-H ) :  -0.1353 B(  1-C , 11-C ) :   0.1755
B(  1-C , 15-N ) :   0.1793 B(  2-C ,  3-C ) :   1.2385 B(  2-C ,  5-C ) :  -0.1609
B(  2-C ,  6-N ) :   0.1084 B(  2-C ,  7-H ) :   1.3372 B(  2-C , 10-H ) :   0.1078
B(  3-C ,  4-C ) :   1.2154 B(  3-C ,  5-C ) :   0.3900 B(  3-C ,  7-H ) :  -0.1555
B(  3-C ,  8-H ) :   0.5478 B(  4-C ,  5-C ) :   0.7061 B(  4-C ,  6-N ) :  -0.1152
B(  4-C ,  9-H ) :   1.0553 B(  5-C ,  6-N ) :   1.4891 B(  5-C , 10-H ) :   0.4066
B(  6-N , 11-C ) :   0.1784 B(  7-H ,  9-H ) :   0.1034 B( 11-C , 12-C ) :   0.5657
B( 11-C , 13-C ) :  -0.2215 B( 11-C , 15-N ) :   0.1671 B( 11-C , 16-H ) :  -0.1350
B( 12-C , 13-C ) :   1.2380 B( 12-C , 14-C ) :  -0.1610 B( 12-C , 15-N ) :   0.1081
B( 12-C , 16-H ) :   1.3361 B( 12-C , 19-H ) :   0.1080 B( 13-C , 14-C ) :   0.3899
B( 13-C , 16-H ) :  -0.1550 B( 13-C , 17-H ) :   0.5482 B( 14-C , 15-N ) :   1.4890
B( 14-C , 19-H ) :   0.4063 B( 16-H , 18-H ) :   0.1033

Dispersion correction           -0.007098495
FINAL SINGLE POINT ENERGY      -495.288994210767

DIPOLE MOMENT
-------------

Method             : SCF
Type of density    : Electron Density
Multiplicity       :   1
Irrep              :   0
Energy             :  -495.2818957154861437 Eh
Relativity type    :
Basis              : AO
                                X                 Y                 Z
Electronic contribution:     -1.456118555      -0.372404717      -0.060656635
Nuclear contribution   :      3.378460210       0.864564887       0.140838942
                        -----------------------------------------
Total Dipole Moment    :      1.922341655       0.492160169       0.080182306
                        -----------------------------------------
Magnitude (a.u.)       :      1.985962808
Magnitude (Debye)      :      5.047916293

Rotational constants in cm-1:             0.098656             0.019232             0.016535
Rotational constants in MHz :          2957.622560           576.568291           495.704573

                             ****ORCA TERMINATED NORMALLY****
TOTAL RUN TIME: 0 days 0 hours 2 minutes 31 seconds 120 msec
