                         Program Version 6.0.0  -   RELEASE  -
|  1> !TPSSh aug-cc-pVTZ d3 TightSCF SlowConv RIJCOSX defgrid2
|  2>
|  3> %pal
|  4> nprocs 4
|  5> end
|  6>
|  7> %scf
|  8> MaxIter 1500
|  9> end
| 10>
| 11> %maxcore 3000
| 12>
| 13> !CPCM
| 14> %cpcm smd true
| 15> SMDsolvent "MeCN"
| 16> surfacetype gepol_ses
| 17> rsolv 2.19
| 18> end
| 19>
| 20> * xyz 1 2
| 21> C           0.40691282511463     -1.70325741551343      0.00016490908038
| 22> C          -0.96671189262499     -1.83667983985275      0.00018183586636
| 23> C          -1.68805707115252     -0.64261847572794      0.00008964722041
| 24> C          -1.04965590853916      0.63174029183313     -0.00002815696193
| 25> C           0.31128268883802      0.76926444998310     -0.00006174051828
| 26> C           1.07563281783288     -0.42742383238868      0.00003976058398
| 27> C           2.50697376337741     -0.44842167152090      0.00002305530846
| 28> C           3.33194801420144      0.64326709175403     -0.00015920562991
| 29> C           4.80599658250123      0.57741183606312     -0.00011946162688
| 30> H           5.18832353952918     -0.45487585344274     -0.00025429959810
| 31> H           5.21029428249422      1.11436451749660     -0.88040742471441
| 32> H           5.21019265645541      1.11403585874487      0.88042635965306
| 33> H           2.89207932946336      1.64904733647115     -0.00030687813280
| 34> H           2.97508026944189     -1.43956967985044      0.00016270833927
| 35> H           0.76741616602726      1.75937954473271     -0.00014274226054
| 36> O          -1.99397501474410      1.57230653765351     -0.00008671930137
| 37> C          -3.25136220491207      0.93015345618164     -0.00001294315373
| 38> H          -3.81339036666005      1.19156590903578     -0.91179779853392
| 39> H          -3.81336621741767      1.19172534012324      0.91174226589655
| 40> O          -2.99199983018881     -0.47270763267778      0.00010157254283
| 41> H          -1.46695007676095     -2.80656600519405      0.00027477962737
| 42> H           1.02699584772340     -2.60385336390417      0.00024457631318
| 43> *
| 44>
| 45>                          ****END OF INPUT****

CARTESIAN COORDINATES (ANGSTROEM)
---------------------------------
  C      0.406913   -1.703257    0.000165
  C     -0.966712   -1.836680    0.000182
  C     -1.688057   -0.642618    0.000090
  C     -1.049656    0.631740   -0.000028
  C      0.311283    0.769264   -0.000062
  C      1.075633   -0.427424    0.000040
  C      2.506974   -0.448422    0.000023
  C      3.331948    0.643267   -0.000159
  C      4.805997    0.577412   -0.000119
  H      5.188324   -0.454876   -0.000254
  H      5.210294    1.114365   -0.880407
  H      5.210193    1.114036    0.880426
  H      2.892079    1.649047   -0.000307
  H      2.975080   -1.439570    0.000163
  H      0.767416    1.759380   -0.000143
  O     -1.993975    1.572307   -0.000087
  C     -3.251362    0.930153   -0.000013
  H     -3.813390    1.191566   -0.911798
  H     -3.813366    1.191725    0.911742
  O     -2.992000   -0.472708    0.000102
  H     -1.466950   -2.806566    0.000275
  H      1.026996   -2.603853    0.000245

 Total Charge           Charge          ....    1
 Multiplicity           Mult            ....    2
 Number of Electrons    NEL             ....   85
 Basis Dimension        Dim             ....  782

ORBITAL ENERGIES
----------------
                 SPIN UP ORBITALS
  NO   OCC          E(Eh)            E(eV)
   0   1.0000     -19.164669      -521.4972
   1   1.0000     -19.149334      -521.0799
   2   1.0000     -10.259825      -279.1840
   3   1.0000     -10.238985      -278.6169
   4   1.0000     -10.225859      -278.2598
   5   1.0000     -10.180210      -277.0176
   6   1.0000     -10.166536      -276.6455
   7   1.0000     -10.163672      -276.5676
   8   1.0000     -10.158325      -276.4221
   9   1.0000     -10.152204      -276.2555
  10   1.0000     -10.147400      -276.1248
  11   1.0000     -10.122467      -275.4463
  12   1.0000      -1.173430       -31.9307
  13   1.0000      -1.082366       -29.4527
  14   1.0000      -0.885931       -24.1074
  15   1.0000      -0.820982       -22.3401
  16   1.0000      -0.781800       -21.2739
  17   1.0000      -0.771749       -21.0004
  18   1.0000      -0.714769       -19.4498
  19   1.0000      -0.677236       -18.4285
  20   1.0000      -0.648925       -17.6581
  21   1.0000      -0.639894       -17.4124
  22   1.0000      -0.572387       -15.5754
  23   1.0000      -0.547883       -14.9087
  24   1.0000      -0.546760       -14.8781
  25   1.0000      -0.535923       -14.5832
  26   1.0000      -0.509365       -13.8605
  27   1.0000      -0.465722       -12.6729
  28   1.0000      -0.458889       -12.4870
  29   1.0000      -0.447369       -12.1735
  30   1.0000      -0.427914       -11.6441
  31   1.0000      -0.421276       -11.4635
  32   1.0000      -0.417670       -11.3654
  33   1.0000      -0.409911       -11.1542
  34   1.0000      -0.408107       -11.1052
  35   1.0000      -0.404805       -11.0153
  36   1.0000      -0.375595       -10.2204
  37   1.0000      -0.364463        -9.9176
  38   1.0000      -0.362478        -9.8635
  39   1.0000      -0.352757        -9.5990
  40   1.0000      -0.300484        -8.1766
  41   1.0000      -0.263280        -7.1642
  42   1.0000      -0.229958        -6.2575
  43   0.0000      -0.090076        -2.4511
  44   0.0000      -0.051938        -1.4133
  45   0.0000      -0.007800        -0.2123
  46   0.0000       0.000019         0.0005
  47   0.0000       0.001623         0.0442

                 SPIN DOWN ORBITALS
  NO   OCC          E(Eh)            E(eV)
   0   1.0000     -19.160244      -521.3767
   1   1.0000     -19.146999      -521.0163
   2   1.0000     -10.260030      -279.1896
   3   1.0000     -10.235384      -278.5190
   4   1.0000     -10.224583      -278.2250
   5   1.0000     -10.177571      -276.9458
   6   1.0000     -10.163941      -276.5749
   7   1.0000     -10.159057      -276.4420
   8   1.0000     -10.158864      -276.4367
   9   1.0000     -10.153261      -276.2843
  10   1.0000     -10.147909      -276.1386
  11   1.0000     -10.122685      -275.4523
  12   1.0000      -1.168314       -31.7914
  13   1.0000      -1.076628       -29.2965
  14   1.0000      -0.880846       -23.9690
  15   1.0000      -0.814943       -22.1757
  16   1.0000      -0.778609       -21.1870
  17   1.0000      -0.767066       -20.8729
  18   1.0000      -0.713548       -19.4166
  19   1.0000      -0.671729       -18.2787
  20   1.0000      -0.646210       -17.5843
  21   1.0000      -0.636366       -17.3164
  22   1.0000      -0.568662       -15.4741
  23   1.0000      -0.545960       -14.8563
  24   1.0000      -0.536342       -14.5946
  25   1.0000      -0.533752       -14.5241
  26   1.0000      -0.506766       -13.7898
  27   1.0000      -0.463564       -12.6142
  28   1.0000      -0.458079       -12.4650
  29   1.0000      -0.444804       -12.1037
  30   1.0000      -0.416013       -11.3203
  31   1.0000      -0.413394       -11.2490
  32   1.0000      -0.406505       -11.0616
  33   1.0000      -0.406276       -11.0553
  34   1.0000      -0.402287       -10.9468
  35   1.0000      -0.401472       -10.9246
  36   1.0000      -0.374084       -10.1793
  37   1.0000      -0.363197        -9.8831
  38   1.0000      -0.351415        -9.5625
  39   1.0000      -0.347636        -9.4597
  40   1.0000      -0.288399        -7.8477
  41   1.0000      -0.253610        -6.9011
  42   0.0000      -0.183065        -4.9815
  43   0.0000      -0.068763        -1.8711
  44   0.0000      -0.039226        -1.0674
  45   0.0000      -0.007132        -0.1941
  46   0.0000       0.002215         0.0603

MULLIKEN ATOMIC CHARGES AND SPIN POPULATIONS
--------------------------------------------
   0 C :   -0.574026    0.141373
   1 C :   -0.380954   -0.053822
   2 C :    0.783769    0.216144
   3 C :    0.869925    0.099941
   4 C :   -0.238889   -0.098436
   5 C :    1.035570    0.194929
   6 C :   -0.080220   -0.019299
   7 C :   -0.250460    0.326009
   8 C :   -0.346073   -0.052082
   9 H :    0.130659   -0.003913
  10 H :    0.146248    0.020533
  11 H :    0.146665    0.020631
  12 H :    0.070793   -0.011966
  13 H :    0.027132   -0.000984
  14 H :   -0.106666    0.002625
  15 O :   -0.684577    0.069956
  16 C :    0.217363   -0.032427
  17 H :    0.180790    0.023263
  18 H :    0.180103    0.023253
  19 O :   -0.678404    0.137315
  20 H :    0.402844   -0.005904
  21 H :    0.148407    0.002862
Sum of atomic charges         :    1.0000000

LOEWDIN ATOMIC CHARGES AND SPIN POPULATIONS
-------------------------------------------
   0 C :    0.264635    0.105712
   1 C :    0.292537    0.042528
   2 C :   -0.347609    0.137058
   3 C :   -0.346296    0.069196
   4 C :    0.281366   -0.000691
   5 C :   -0.094492    0.099187
   6 C :    0.257728    0.057076
   7 C :    0.271270    0.151950
   8 C :    0.592126    0.047888
   9 H :   -0.159609    0.000902
  10 H :   -0.146744    0.010906
  11 H :   -0.146728    0.010915
  12 H :   -0.157282    0.027044
  13 H :   -0.165176   -0.001472
  14 H :   -0.158555   -0.006464
  15 O :    0.663677    0.064585
  16 C :   -0.053733    0.023033
  17 H :   -0.118810    0.008536
  18 H :   -0.118812    0.008537
  19 O :    0.677189    0.128418
  20 H :   -0.141485   -0.002184
  21 H :   -0.145197    0.017339

  Mayer bond orders larger than 0.100000
B(  0-C ,  1-C ) :   1.6153 B(  0-C ,  2-C ) :  -0.1687 B(  0-C ,  3-C ) :  -0.1373
B(  0-C ,  4-C ) :  -0.1182 B(  0-C ,  5-C ) :   0.7344 B(  0-C ,  6-C ) :  -0.1623
B(  0-C ,  7-C ) :   0.2154 B(  0-C , 21-H ) :   0.9215 B(  1-C ,  2-C ) :   0.8183
B(  1-C , 20-H ) :   0.4932 B(  2-C ,  3-C ) :   1.0416 B(  2-C ,  6-C ) :   0.1221
B(  2-C , 15-O ) :   0.1477 B(  2-C , 19-O ) :   0.2734 B(  2-C , 20-H ) :   0.1431
B(  3-C ,  4-C ) :   0.6385 B(  3-C ,  5-C ) :   0.2263 B(  3-C , 14-H ) :  -0.1429
B(  3-C , 19-O ) :   0.1790 B(  4-C ,  5-C ) :   0.6644 B(  4-C , 12-H ) :  -0.1415
B(  4-C , 14-H ) :   1.2330 B(  4-C , 15-O ) :   0.3348 B(  5-C ,  6-C ) :   0.2974
B(  5-C ,  7-C ) :  -0.1948 B(  5-C , 12-H ) :  -0.1788 B(  5-C , 14-H ) :  -0.1089
B(  5-C , 21-H ) :   0.1123 B(  6-C ,  7-C ) :   0.9589 B(  6-C , 12-H ) :   0.1515
B(  6-C , 13-H ) :   1.1507 B(  7-C ,  8-C ) :   1.0876 B(  7-C ,  9-H ) :   0.1201
B(  7-C , 12-H ) :   1.2067 B(  8-C ,  9-H ) :   0.9376 B(  8-C , 10-H ) :   0.9429
B(  8-C , 11-H ) :   0.9426 B( 14-H , 15-O ) :   0.1420 B( 15-O , 16-C ) :   0.8990
B( 15-O , 19-O ) :   0.1046 B( 16-C , 17-H ) :   0.9058 B( 16-C , 18-H ) :   0.9065
B( 16-C , 19-O ) :   0.8671

Dispersion correction           -0.026504922
FINAL SINGLE POINT ENERGY      -537.572381243770

DIPOLE MOMENT
-------------

Method             : SCF
Type of density    : Electron Density
Multiplicity       :   2
Irrep              :   0
Energy             :  -537.5458763216278157 Eh
Relativity type    :
Basis              : AO
                                X                 Y                 Z
Electronic contribution:    -13.087896753      -0.666129601      -0.000045206
Nuclear contribution   :     13.204705509       0.674639604      -0.000147023
                        -----------------------------------------
Total Dipole Moment    :      0.116808757       0.008510003      -0.000192229
                        -----------------------------------------
Magnitude (a.u.)       :      0.117118499
Magnitude (Debye)      :      0.297691566

Rotational constants in cm-1:             0.088323             0.016345             0.013866
Rotational constants in MHz :          2647.863415           489.996572           415.683402

                             ****ORCA TERMINATED NORMALLY****
TOTAL RUN TIME: 0 days 0 hours 10 minutes 42 seconds 734 msec
