                         Program Version 6.0.0  -   RELEASE  -
|  1> !B3LYP opt aug-cc-pVTZ d3 TightSCF SlowConv RIJCOSX defgrid2
|  2>
|  3> %pal
|  4> nprocs 8
|  5> end
|  6>
|  7> %scf
|  8> MaxIter 1500
|  9> end
| 10>
| 11> %maxcore 3500
| 12>
| 13> !CPCM
| 14> %cpcm smd true
| 15> SMDsolvent "MeCN"
| 16> surfacetype gepol_ses
| 17> rsolv 2.19
| 18> end
| 19>
| 20> * xyz 0 1
| 21> C           0.89625463995169     -1.41558669005642      0.00000212581931
| 22> C           2.11505403593339     -0.74430991173074     -0.00000149555587
| 23> C           2.17542044953981      0.66118914619392      0.00000118790347
| 24> C           1.02073349490689      1.43411488081899      0.00000740816991
| 25> C          -0.21978579987357      0.78024255664200      0.00000882693723
| 26> C          -0.24734548849214     -0.62587635066739      0.00000530658827
| 27> O          -1.52601546021974     -1.07032389872869      0.00001342203642
| 28> C          -2.31826979056253      0.02952741578344      0.00002075604744
| 29> C          -1.60215379632981      1.18293934552638      0.00000260268759
| 30> H          -2.00251324968155      2.19537072670951     -0.00000431996804
| 31> H          -3.38877681335679     -0.16931307117016      0.00002936397660
| 32> H           1.07767380530056      2.52621447644394      0.00000712336235
| 33> H           3.15304280126425      1.15182904763925     -0.00000361572869
| 34> H           3.04441141911605     -1.32116718166862     -0.00000606251848
| 35> H           0.83131985250349     -2.50587419173540      0.00000217024247
| 36> *
| 37>
| 38>                          ****END OF INPUT****
 Total Charge           Charge          ....    0
 Multiplicity           Mult            ....    1
 Number of Electrons    NEL             ....   62
Dispersion correction           -0.027247148
FINAL SINGLE POINT ENERGY      -383.621134026720
Dispersion correction             ... done (  0.1 sec)
Dispersion correction           -0.027333575
FINAL SINGLE POINT ENERGY      -383.622103436572
Dispersion correction             ... done (  0.1 sec)
Dispersion correction           -0.027353295
FINAL SINGLE POINT ENERGY      -383.622193069734
Dispersion correction             ... done (  0.1 sec)
Dispersion correction           -0.027357061
FINAL SINGLE POINT ENERGY      -383.622214418566
Dispersion correction             ... done (  0.1 sec)
                    ***********************HURRAY********************

CARTESIAN COORDINATES (ANGSTROEM)
---------------------------------
  C      0.900355   -1.415165   -0.000366
  C      2.115589   -0.741210    0.000013
  C      2.171426    0.660704   -0.000100
  C      1.016972    1.429208   -0.000463
  C     -0.217127    0.772646   -0.000703
  C     -0.238013   -0.629265   -0.000769
  O     -1.529541   -1.079717   -0.000575
  C     -2.324020    0.040999   -0.000090
  C     -1.598884    1.178721   -0.000262
  H     -1.990467    2.181749    0.000969
  H     -3.384050   -0.144133    0.001163
  H      1.070286    2.509403   -0.000451
  H      3.136792    1.148399    0.000584
  H      3.035871   -1.308943    0.001154
  H      0.843860   -2.494419   -0.000022

 Multiplicity           Mult            ....    1
 Number of Electrons    NEL             ....   62
 Basis Dimension        Dim             ....  552

ORBITAL ENERGIES
----------------

  NO   OCC          E(Eh)            E(eV)
   0   2.0000     -19.194108      -522.2982
   1   2.0000     -10.230029      -278.3732
   2   2.0000     -10.228774      -278.3391
   3   2.0000     -10.183524      -277.1078
   4   2.0000     -10.179091      -276.9871
   5   2.0000     -10.177314      -276.9388
   6   2.0000     -10.175379      -276.8861
   7   2.0000     -10.173885      -276.8455
   8   2.0000     -10.171754      -276.7875
   9   2.0000      -1.110500       -30.2182
  10   2.0000      -0.859831       -23.3972
  11   2.0000      -0.801072       -21.7983
  12   2.0000      -0.750324       -20.4174
  13   2.0000      -0.730275       -19.8718
  14   2.0000      -0.633025       -17.2255
  15   2.0000      -0.601154       -16.3582
  16   2.0000      -0.584829       -15.9140
  17   2.0000      -0.520842       -14.1728
  18   2.0000      -0.493194       -13.4205
  19   2.0000      -0.478952       -13.0329
  20   2.0000      -0.461670       -12.5627
  21   2.0000      -0.439587       -11.9618
  22   2.0000      -0.425333       -11.5739
  23   2.0000      -0.405914       -11.0455
  24   2.0000      -0.389339       -10.5945
  25   2.0000      -0.365182        -9.9371
  26   2.0000      -0.358764        -9.7625
  27   2.0000      -0.340567        -9.2673
  28   2.0000      -0.300460        -8.1759
  29   2.0000      -0.245804        -6.6887
  30   2.0000      -0.228073        -6.2062
  31   0.0000      -0.029517        -0.8032
  32   0.0000      -0.001327        -0.0361
  33   0.0000      -0.000502        -0.0137
  34   0.0000       0.010037         0.2731
  35   0.0000       0.014300         0.3891

MULLIKEN ATOMIC CHARGES
-----------------------
   0 C :   -1.089776
   1 C :   -0.159550
   2 C :   -0.531024
   3 C :   -0.622763
   4 C :    1.077977
   5 C :    0.368083
   6 O :   -0.568255
   7 C :   -0.489617
   8 C :   -0.661989
   9 H :    0.398090
  10 H :    0.647697
  11 H :    0.053790
  12 H :    0.626933
  13 H :    0.387664
  14 H :    0.562740
Sum of atomic charges:    0.0000000

LOEWDIN ATOMIC CHARGES
----------------------
   0 C :    0.221636
   1 C :    0.180990
   2 C :    0.182185
   3 C :    0.218531
   4 C :   -0.165102
   5 C :   -0.398390
   6 O :    0.614547
   7 C :   -0.007989
   8 C :    0.221528
   9 H :   -0.175382
  10 H :   -0.181703
  11 H :   -0.171693
  12 H :   -0.184603
  13 H :   -0.182705
  14 H :   -0.171849

  Mayer bond orders larger than 0.100000
B(  0-C ,  1-C ) :   1.2958 B(  0-C ,  2-C ) :   0.4141 B(  0-C ,  4-C ) :   0.1427
B(  0-C ,  5-C ) :   1.1759 B(  0-C ,  6-O ) :   0.1334 B(  0-C , 14-H ) :   0.2252
B(  1-C ,  2-C ) :   1.0789 B(  1-C ,  3-C ) :  -0.4170 B(  1-C ,  5-C ) :  -0.6597
B(  1-C ,  7-C ) :   0.1028 B(  1-C ,  8-C ) :   0.1177 B(  1-C , 12-H ) :   0.1499
B(  1-C , 13-H ) :   0.7628 B(  1-C , 14-H ) :   0.1456 B(  2-C ,  3-C ) :   1.0380
B(  2-C ,  5-C ) :   0.1711 B(  2-C ,  8-C ) :   0.1891 B(  2-C , 12-H ) :   0.3195
B(  2-C , 13-H ) :  -0.1400 B(  3-C ,  4-C ) :   0.8092 B(  3-C ,  5-C ) :  -0.7583
B(  3-C ,  8-C ) :   0.1387 B(  3-C ,  9-H ) :   0.1669 B(  3-C , 11-H ) :   1.4562
B(  3-C , 12-H ) :  -0.1392 B(  3-C , 14-H ) :   0.1121 B(  4-C ,  5-C ) :   1.2258
B(  4-C ,  7-C ) :  -0.3153 B(  4-C ,  8-C ) :   0.4954 B(  4-C , 11-H ) :  -0.1680
B(  4-C , 13-H ) :  -0.1181 B(  5-C ,  6-O ) :   0.5064 B(  5-C ,  8-C ) :   0.2437
B(  5-C , 11-H ) :   0.1921 B(  5-C , 13-H ) :   0.1424 B(  6-O ,  7-C ) :   1.2104
B(  7-C ,  8-C ) :   1.2983 B(  7-C , 10-H ) :   0.4741 B(  8-C ,  9-H ) :   0.8295

Dispersion correction           -0.027356078
FINAL SINGLE POINT ENERGY      -383.622215903219

DIPOLE MOMENT
-------------

Method             : SCF
Type of density    : Electron Density
Multiplicity       :   1
Irrep              :   0
Energy             :  -383.5948598256076139 Eh
Relativity type    :
Basis              : AO
                                X                 Y                 Z
Electronic contribution:     -2.669403971      -1.371988965      -0.002629257
Nuclear contribution   :      2.512504003       1.749237998       0.005027500
                        -----------------------------------------
Total Dipole Moment    :     -0.156899968       0.377249033       0.002398244
                        -----------------------------------------
Magnitude (a.u.)       :      0.408583143
Magnitude (Debye)      :      1.038535815

Rotational constants in cm-1:             0.131487             0.055558             0.039056
Rotational constants in MHz :          3941.872679          1665.589845          1170.858212

                             ****ORCA TERMINATED NORMALLY****
TOTAL RUN TIME: 0 days 0 hours 15 minutes 1 seconds 667 msec
