                         Program Version 6.0.0  -   RELEASE  -
|  1> !TPSSh aug-cc-pVTZ d3 TightSCF SlowConv RIJCOSX defgrid2
|  2>
|  3> %pal
|  4> nprocs 4
|  5> end
|  6>
|  7> %scf
|  8> MaxIter 1500
|  9> end
| 10>
| 11> %maxcore 3000
| 12>
| 13> !CPCM
| 14> %cpcm smd true
| 15> SMDsolvent "MeCN"
| 16> surfacetype gepol_ses
| 17> rsolv 2.19
| 18> end
| 19>
| 20> * xyz 0 1
| 21> C           2.55730705781469     -0.80272836948539      0.48102366137177
| 22> N           1.33294167009809     -1.43182229011705      0.05765766630002
| 23> C           0.34101911025700     -0.70024719108755     -0.29708224356517
| 24> N           0.31874552010949      0.68032432716300     -0.31461541058671
| 25> C          -0.89176882402801      1.43497112867922     -0.56114377570643
| 26> C          -1.99046257064471      1.26916813990179      0.49140268799889
| 27> C          -2.82765905468197      0.00715294881938      0.31516347050989
| 28> C          -2.04586918259982     -1.30153194326604      0.35164544445367
| 29> C          -0.92828974970724     -1.41500601198787     -0.69150138780777
| 30> H          -1.29203198403960     -1.06672742425397     -1.67656916039338
| 31> H          -0.63133731154972     -2.46745300434559     -0.80196281377539
| 32> H          -1.60570603630129     -1.45752170010282      1.35429556519630
| 33> H          -2.75596289666527     -2.13329897794767      0.19602041294681
| 34> H          -3.61539692476010     -0.01845840431235      1.08977014149609
| 35> H          -3.35605019663435      0.07487469231763     -0.65651142659301
| 36> H          -1.52340584005630      1.28855731350301      1.49408745577621
| 37> H          -2.66130549588890      2.14642124767486      0.44000200996492
| 38> H          -1.30052595544982      1.19153726692681     -1.56065100823810
| 39> H          -0.59215925219953      2.49412223128000     -0.60923298902630
| 40> C           1.46914234333312      1.40286101249685      0.18937626674719
| 41> C           2.73710761812345      0.60793735504758     -0.06280329082443
| 42> H           3.60249952280460      1.11378780244457      0.39882866501775
| 43> H           2.92030114355612      0.56196935074214     -1.15150232607945
| 44> H           1.52000693344937      2.38033435200841     -0.32184635939607
| 45> H           1.36269728052713      1.61326327329284      1.27517926988309
| 46> H           2.58886170713689     -0.78409197751190      1.58995809372292
| 47> H           3.40579976799671     -1.44067914787991      0.17257018060666
| 48> *
| 49>
| 50>                          ****END OF INPUT****

CARTESIAN COORDINATES (ANGSTROEM)
---------------------------------
  C      2.557307   -0.802728    0.481024
  N      1.332942   -1.431822    0.057658
  C      0.341019   -0.700247   -0.297082
  N      0.318746    0.680324   -0.314615
  C     -0.891769    1.434971   -0.561144
  C     -1.990463    1.269168    0.491403
  C     -2.827659    0.007153    0.315163
  C     -2.045869   -1.301532    0.351645
  C     -0.928290   -1.415006   -0.691501
  H     -1.292032   -1.066727   -1.676569
  H     -0.631337   -2.467453   -0.801963
  H     -1.605706   -1.457522    1.354296
  H     -2.755963   -2.133299    0.196020
  H     -3.615397   -0.018458    1.089770
  H     -3.356050    0.074875   -0.656511
  H     -1.523406    1.288557    1.494087
  H     -2.661305    2.146421    0.440002
  H     -1.300526    1.191537   -1.560651
  H     -0.592159    2.494122   -0.609233
  C      1.469142    1.402861    0.189376
  C      2.737108    0.607937   -0.062803
  H      3.602500    1.113788    0.398829
  H      2.920301    0.561969   -1.151502
  H      1.520007    2.380334   -0.321846
  H      1.362697    1.613263    1.275179
  H      2.588862   -0.784092    1.589958
  H      3.405800   -1.440679    0.172570

 Total Charge           Charge          ....    0
 Multiplicity           Mult            ....    1
 Number of Electrons    NEL             ....   84
 Basis Dimension        Dim             ....  874

ORBITAL ENERGIES
----------------

  NO   OCC          E(Eh)            E(eV)
   0   2.0000     -14.261256      -388.0685
   1   2.0000     -14.204462      -386.5231
   2   2.0000     -10.165759      -276.6244
   3   2.0000     -10.137929      -275.8671
   4   2.0000     -10.137423      -275.8533
   5   2.0000     -10.122688      -275.4523
   6   2.0000     -10.106765      -275.0191
   7   2.0000     -10.105474      -274.9839
   8   2.0000     -10.103269      -274.9239
   9   2.0000     -10.103193      -274.9219
  10   2.0000     -10.102077      -274.8915
  11   2.0000      -0.942992       -25.6601
  12   2.0000      -0.855239       -23.2722
  13   2.0000      -0.787606       -21.4318
  14   2.0000      -0.751256       -20.4427
  15   2.0000      -0.727978       -19.8093
  16   2.0000      -0.661534       -18.0012
  17   2.0000      -0.639407       -17.3991
  18   2.0000      -0.623329       -16.9616
  19   2.0000      -0.567779       -15.4500
  20   2.0000      -0.544439       -14.8149
  21   2.0000      -0.490177       -13.3384
  22   2.0000      -0.484172       -13.1750
  23   2.0000      -0.460390       -12.5278
  24   2.0000      -0.443587       -12.0706
  25   2.0000      -0.422618       -11.5000
  26   2.0000      -0.413559       -11.2535
  27   2.0000      -0.407338       -11.0842
  28   2.0000      -0.395286       -10.7563
  29   2.0000      -0.391828       -10.6622
  30   2.0000      -0.372161       -10.1270
  31   2.0000      -0.367529       -10.0010
  32   2.0000      -0.351612        -9.5678
  33   2.0000      -0.339329        -9.2336
  34   2.0000      -0.335385        -9.1263
  35   2.0000      -0.311617        -8.4795
  36   2.0000      -0.304234        -8.2786
  37   2.0000      -0.302746        -8.2381
  38   2.0000      -0.294702        -8.0192
  39   2.0000      -0.273103        -7.4315
  40   2.0000      -0.223255        -6.0751
  41   2.0000      -0.192423        -5.2361
  42   0.0000      -0.005083        -0.1383
  43   0.0000       0.006398         0.1741
  44   0.0000       0.008420         0.2291
  45   0.0000       0.009337         0.2541
  46   0.0000       0.015421         0.4196

MULLIKEN ATOMIC CHARGES
-----------------------
   0 C :    0.119467
   1 N :   -1.124103
   2 C :    0.457894
   3 N :    0.208975
   4 C :    0.030183
   5 C :    0.106127
   6 C :    0.121202
   7 C :   -0.014938
   8 C :    0.371879
   9 H :    0.076212
  10 H :   -0.183175
  11 H :    0.014582
  12 H :   -0.113637
  13 H :   -0.059553
  14 H :    0.049109
  15 H :    0.006296
  16 H :   -0.120920
  17 H :    0.029086
  18 H :   -0.102692
  19 C :    0.014946
  20 C :    0.041888
  21 H :   -0.019011
  22 H :   -0.014146
  23 H :    0.028320
  24 H :    0.039795
  25 H :    0.051951
  26 H :   -0.015739
Sum of atomic charges:    0.0000000

LOEWDIN ATOMIC CHARGES
----------------------
   0 C :    0.073234
   1 N :    0.390941
   2 C :   -0.408836
   3 N :    0.300828
   4 C :    0.199820
   5 C :    0.300461
   6 C :    0.273983
   7 C :    0.285640
   8 C :    0.273888
   9 H :   -0.134790
  10 H :   -0.166634
  11 H :   -0.129906
  12 H :   -0.132398
  13 H :   -0.132369
  14 H :   -0.132127
  15 H :   -0.127085
  16 H :   -0.130647
  17 H :   -0.127531
  18 H :   -0.139294
  19 C :    0.185937
  20 C :    0.278978
  21 H :   -0.126354
  22 H :   -0.130602
  23 H :   -0.131132
  24 H :   -0.108405
  25 H :   -0.146445
  26 H :   -0.159153

  Mayer bond orders larger than 0.100000
B(  0-C ,  1-N ) :   0.8949 B(  0-C , 20-C ) :   1.0213 B(  0-C , 25-H ) :   0.9169
B(  0-C , 26-H ) :   0.9892 B(  1-N ,  2-C ) :   0.1241 B(  1-N ,  7-C ) :   0.1202
B(  1-N ,  8-C ) :   0.1105 B(  2-C ,  3-N ) :   0.9373 B(  2-C ,  8-C ) :   0.6731
B(  2-C ,  9-H ) :   0.1024 B(  3-N ,  4-C ) :   0.9984 B(  3-N , 19-C ) :   0.7866
B(  4-C ,  5-C ) :   1.0157 B(  4-C , 17-H ) :   0.9088 B(  4-C , 18-H ) :   0.9995
B(  5-C ,  6-C ) :   1.0427 B(  5-C , 15-H ) :   0.9802 B(  5-C , 16-H ) :   0.9621
B(  6-C ,  7-C ) :   1.0165 B(  6-C , 13-H ) :   0.9662 B(  6-C , 14-H ) :   0.9344
B(  7-C ,  8-C ) :   1.0484 B(  7-C , 11-H ) :   0.9582 B(  7-C , 12-H ) :   1.0045
B(  8-C ,  9-H ) :   0.9521 B(  8-C , 10-H ) :   0.9298 B( 17-H , 18-H ) :  -0.1009
B( 19-C , 20-C ) :   1.0646 B( 19-C , 23-H ) :   0.9831 B( 19-C , 24-H ) :   0.9473
B( 20-C , 21-H ) :   0.9350 B( 20-C , 22-H ) :   1.0109

Dispersion correction           -0.034236986
FINAL SINGLE POINT ENERGY      -462.335542494633

DIPOLE MOMENT
-------------

Method             : SCF
Type of density    : Electron Density
Multiplicity       :   1
Irrep              :   0
Energy             :  -462.3013055088064789 Eh
Relativity type    :
Basis              : AO
                                X                 Y                 Z
Electronic contribution:      3.044126947      -1.619629718      -1.161641407
Nuclear contribution   :     -3.701053963       3.371558610       1.131300425
                        -----------------------------------------
Total Dipole Moment    :     -0.656927016       1.751928892      -0.030340982
                        -----------------------------------------
Magnitude (a.u.)       :      1.871290603
Magnitude (Debye)      :      4.756442713

Rotational constants in cm-1:             0.068815             0.029698             0.022944
Rotational constants in MHz :          2063.025702           890.322329           687.841442

                             ****ORCA TERMINATED NORMALLY****
TOTAL RUN TIME: 0 days 0 hours 11 minutes 59 seconds 795 msec
