                         Program Version 6.0.0  -   RELEASE  -
|  1> !TPSSh opt aug-cc-pVTZ d3 TightSCF SlowConv RIJCOSX defgrid2
|  2>
|  3> %pal
|  4> nprocs 8
|  5> end
|  6>
|  7> %scf
|  8> MaxIter 1500
|  9> end
| 10>
| 11> %maxcore 3500
| 12>
| 13> !CPCM
| 14> %cpcm smd true
| 15> SMDsolvent "MeCN"
| 16> surfacetype gepol_ses
| 17> rsolv 2.19
| 18> end
| 19>
| 20> * xyz 1 2
| 21> C          -0.22428548195010     -1.24213438922305     -0.03849982740281
| 22> C           1.14800811610277     -1.22870080724969      0.00227297677880
| 23> C           1.84566180598227     -0.00004019353139      0.02297012210753
| 24> C           1.14805042698559      1.22864411313713      0.00227054482980
| 25> C          -0.22424154749405      1.24212983950181     -0.03850931873892
| 26> C          -0.94084900168795      0.00001024661649     -0.05989305493678
| 27> N          -2.26985305582395      0.00003075135377     -0.09979281491323
| 28> H          -2.80165535396914      0.86997483968693     -0.11591197867223
| 29> H          -2.80167508667297     -0.86990117124685     -0.11590823438470
| 30> H          -0.77890173993705      2.18488554366972     -0.05504522287995
| 31> H           1.70373713208460      2.16980587419055      0.01885237386387
| 32> H           2.93889913121278     -0.00005967561260      0.05550059305168
| 33> H           1.70365895934134     -2.16988118368011      0.01885253182221
| 34> H          -0.77898600417414     -2.18486378761269     -0.05503389052528
| 35> *
| 36>
| 37>                          ****END OF INPUT****
 Total Charge           Charge          ....    1
 Multiplicity           Mult            ....    2
 Number of Electrons    NEL             ....   49
Dispersion correction           -0.015269482
FINAL SINGLE POINT ENERGY      -287.566885835051
Dispersion correction             ... done (  0.1 sec)
Dispersion correction           -0.015317751
FINAL SINGLE POINT ENERGY      -287.567482307454
Dispersion correction             ... done (  0.1 sec)
Dispersion correction           -0.015322737
FINAL SINGLE POINT ENERGY      -287.567488245980
Dispersion correction             ... done (  0.1 sec)
Dispersion correction           -0.015324988
FINAL SINGLE POINT ENERGY      -287.567490859032
Dispersion correction             ... done (  0.1 sec)
                    ***********************HURRAY********************

CARTESIAN COORDINATES (ANGSTROEM)
---------------------------------
  C     -0.223815   -1.239755   -0.039136
  C      1.145229   -1.224404    0.002300
  C      1.839152   -0.000039    0.023264
  C      1.145272    1.224349    0.002299
  C     -0.223772    1.239748   -0.039138
  C     -0.933079    0.000008   -0.059933
  N     -2.259239    0.000032   -0.098408
  H     -2.785494    0.865194   -0.114950
  H     -2.785525   -0.865112   -0.114937
  H     -0.783046    2.166026   -0.056173
  H      1.697213    2.154303    0.018885
  H      2.920657   -0.000059    0.055328
  H      1.697139   -2.154376    0.018889
  H     -0.783123   -2.166014   -0.056164

 Multiplicity           Mult            ....    2
 Number of Electrons    NEL             ....   49
 Basis Dimension        Dim             ....  483

ORBITAL ENERGIES
----------------
                 SPIN UP ORBITALS
  NO   OCC          E(Eh)            E(eV)
   0   1.0000     -14.344258      -390.3271
   1   1.0000     -10.216929      -278.0168
   2   1.0000     -10.163831      -276.5719
   3   1.0000     -10.159855      -276.4637
   4   1.0000     -10.159853      -276.4637
   5   1.0000     -10.147975      -276.1404
   6   1.0000     -10.147972      -276.1403
   7   1.0000      -0.979827       -26.6625
   8   1.0000      -0.863892       -23.5077
   9   1.0000      -0.770973       -20.9792
  10   1.0000      -0.751255       -20.4427
  11   1.0000      -0.637069       -17.3355
  12   1.0000      -0.632549       -17.2125
  13   1.0000      -0.553929       -15.0732
  14   1.0000      -0.547223       -14.8907
  15   1.0000      -0.504721       -13.7342
  16   1.0000      -0.451632       -12.2895
  17   1.0000      -0.446443       -12.1483
  18   1.0000      -0.439055       -11.9473
  19   1.0000      -0.437669       -11.9096
  20   1.0000      -0.377525       -10.2730
  21   1.0000      -0.361448        -9.8355
  22   1.0000      -0.357387        -9.7250
  23   1.0000      -0.288696        -7.8558
  24   1.0000      -0.251911        -6.8548
  25   0.0000      -0.055487        -1.5099
  26   0.0000      -0.054075        -1.4715
  27   0.0000      -0.007812        -0.2126
  28   0.0000       0.005029         0.1368
  29   0.0000       0.010648         0.2898

                 SPIN DOWN ORBITALS
  NO   OCC          E(Eh)            E(eV)
   0   1.0000     -14.335328      -390.0841
   1   1.0000     -10.216450      -278.0037
   2   1.0000     -10.157872      -276.4097
   3   1.0000     -10.156414      -276.3701
   4   1.0000     -10.156414      -276.3701
   5   1.0000     -10.149643      -276.1858
   6   1.0000     -10.149634      -276.1856
   7   1.0000      -0.966055       -26.2877
   8   1.0000      -0.856216       -23.2988
   9   1.0000      -0.767637       -20.8885
  10   1.0000      -0.738735       -20.1020
  11   1.0000      -0.634248       -17.2588
  12   1.0000      -0.626652       -17.0521
  13   1.0000      -0.551685       -15.0121
  14   1.0000      -0.542993       -14.7756
  15   1.0000      -0.500862       -13.6291
  16   1.0000      -0.448743       -12.2109
  17   1.0000      -0.443874       -12.0784
  18   1.0000      -0.438409       -11.9297
  19   1.0000      -0.409930       -11.1548
  20   1.0000      -0.375696       -10.2232
  21   1.0000      -0.355850        -9.6832
  22   1.0000      -0.330746        -9.0000
  23   1.0000      -0.279182        -7.5969
  24   0.0000      -0.185183        -5.0391
  25   0.0000      -0.043832        -1.1927
  26   0.0000      -0.029737        -0.8092
  27   0.0000      -0.006446        -0.1754
  28   0.0000       0.006483         0.1764

MULLIKEN ATOMIC CHARGES AND SPIN POPULATIONS
--------------------------------------------
   0 C :   -0.475545    0.189795
   1 C :   -0.300717   -0.115227
   2 C :   -0.252598    0.373602
   3 C :   -0.300997   -0.115231
   4 C :   -0.475769    0.189797
   5 C :    0.900374    0.103241
   6 N :   -0.227027    0.364781
   7 H :    0.037195    0.000236
   8 H :    0.037181    0.000234
   9 H :    0.465187   -0.001404
  10 H :    0.323914   -0.001798
  11 H :    0.479253    0.015168
  12 H :    0.324363   -0.001796
  13 H :    0.465188   -0.001400
Sum of atomic charges         :    1.0000000

LOEWDIN ATOMIC CHARGES AND SPIN POPULATIONS
-------------------------------------------
   0 C :    0.286792    0.109547
   1 C :    0.251259    0.039583
   2 C :    0.269440    0.178722
   3 C :    0.251261    0.039582
   4 C :    0.286793    0.109548
   5 C :   -0.160955    0.130313
   6 N :    0.972993    0.256112
   7 H :   -0.197331    0.034843
   8 H :   -0.197331    0.034843
   9 H :   -0.146841    0.019703
  10 H :   -0.158479   -0.007465
  11 H :   -0.152284    0.042432
  12 H :   -0.158478   -0.007465
  13 H :   -0.146841    0.019703

  Mayer bond orders larger than 0.100000
B(  0-C ,  1-C ) :   1.6793 B(  0-C ,  2-C ) :   0.2240 B(  0-C ,  4-C ) :   0.2222
B(  0-C ,  5-C ) :   0.8549 B(  0-C ,  6-N ) :  -0.1219 B(  0-C , 12-H ) :   0.1022
B(  0-C , 13-H ) :   0.3377 B(  1-C ,  2-C ) :   1.2256 B(  1-C ,  3-C ) :  -0.1023
B(  1-C ,  5-C ) :  -0.2293 B(  1-C , 12-H ) :   0.7631 B(  1-C , 13-H ) :   0.1068
B(  2-C ,  3-C ) :   1.2257 B(  2-C ,  4-C ) :   0.2239 B(  2-C , 11-H ) :   0.4898
B(  3-C ,  4-C ) :   1.6792 B(  3-C ,  5-C ) :  -0.2293 B(  3-C ,  9-H ) :   0.1067
B(  3-C , 10-H ) :   0.7638 B(  4-C ,  5-C ) :   0.8553 B(  4-C ,  6-N ) :  -0.1217
B(  4-C ,  9-H ) :   0.3378 B(  4-C , 10-H ) :   0.1022 B(  5-C ,  6-N ) :   0.9525
B(  6-N ,  7-H ) :   1.1129 B(  6-N ,  8-H ) :   1.1129

Dispersion correction           -0.015324525
FINAL SINGLE POINT ENERGY      -287.567491725607

DIPOLE MOMENT
-------------

Method             : SCF
Type of density    : Electron Density
Multiplicity       :   2
Irrep              :   0
Energy             :  -287.5521672003029607 Eh
Relativity type    :
Basis              : AO
                                X                 Y                 Z
Electronic contribution:     -0.916246992       0.000016985      -0.027432826
Nuclear contribution   :     -0.822196526       0.000014388      -0.025717566
                        -----------------------------------------
Total Dipole Moment    :     -1.738443518       0.000031373      -0.053150392
                        -----------------------------------------
Magnitude (a.u.)       :      1.739255826
Magnitude (Debye)      :      4.420836981

Rotational constants in cm-1:             0.180766             0.090276             0.060208
Rotational constants in MHz :          5419.229915          2706.405900          1804.983431

                             ****ORCA TERMINATED NORMALLY****
TOTAL RUN TIME: 0 days 0 hours 16 minutes 17 seconds 107 msec
