                         Program Version 6.0.0  -   RELEASE  -
|  1> !r2SCAN aug-cc-pVTZ d3 TightSCF SlowConv RIJCOSX defgrid2
|  2>
|  3> %pal
|  4> nprocs 4
|  5> end
|  6>
|  7> %scf
|  8> MaxIter 1500
|  9> end
| 10>
| 11> %maxcore 3000
| 12>
| 13> !CPCM
| 14> %cpcm smd true
| 15> SMDsolvent "MeCN"
| 16> surfacetype gepol_ses
| 17> rsolv 2.19
| 18> end
| 19>
| 20> * xyz 0 1
| 21> C           0.94968287453071     -1.27993729727395      0.00000683726847
| 22> C           2.32072584922403     -1.03066468402730     -0.00000570192654
| 23> C           2.79045486785265      0.28126328538775     -0.00000619644263
| 24> C           1.88129493900205      1.34320110702256      0.00000552102250
| 25> C           0.51414900986878      1.09690334373603      0.00001977591165
| 26> C           0.03124775758730     -0.22186358373352      0.00001975571628
| 27> C          -1.40109719375212     -0.51811607942485      0.00002773818787
| 28> N          -2.27722630544222      0.40983670208196      0.00003187543002
| 29> O          -3.54943597920683     -0.07892856387383      0.00003589961153
| 30> H          -4.10699565150034      0.71269395667835      0.00004041054052
| 31> H          -1.72077053189788     -1.57247842719527      0.00002621709873
| 32> H          -0.20517984986564      1.91961492482438      0.00002936627338
| 33> H           2.24665800678188      2.37456842670514      0.00000344087776
| 34> H           3.86637191838654      0.47947397298735     -0.00001641660649
| 35> H           3.02594458116043     -1.86704493909579     -0.00001599324974
| 36> H           0.58187010727067     -2.31112044479903      0.00000487028669
| 37> *
| 38>
| 39>                          ****END OF INPUT****

CARTESIAN COORDINATES (ANGSTROEM)
---------------------------------
  C      0.949683   -1.279937    0.000007
  C      2.320726   -1.030665   -0.000006
  C      2.790455    0.281263   -0.000006
  C      1.881295    1.343201    0.000006
  C      0.514149    1.096903    0.000020
  C      0.031248   -0.221864    0.000020
  C     -1.401097   -0.518116    0.000028
  N     -2.277226    0.409837    0.000032
  O     -3.549436   -0.078929    0.000036
  H     -4.106996    0.712694    0.000040
  H     -1.720771   -1.572478    0.000026
  H     -0.205180    1.919615    0.000029
  H      2.246658    2.374568    0.000003
  H      3.866372    0.479474   -0.000016
  H      3.025945   -1.867045   -0.000016
  H      0.581870   -2.311120    0.000005

 Total Charge           Charge          ....    0
 Multiplicity           Mult            ....    1
 Number of Electrons    NEL             ....   64
 Basis Dimension        Dim             ....  575

ORBITAL ENERGIES
----------------

  NO   OCC          E(Eh)            E(eV)
   0   2.0000     -19.008129      -517.2375
   1   2.0000     -14.218310      -386.8999
   2   2.0000     -10.072558      -274.0882
   3   2.0000     -10.059014      -273.7197
   4   2.0000     -10.045977      -273.3649
   5   2.0000     -10.044366      -273.3211
   6   2.0000     -10.044040      -273.3122
   7   2.0000     -10.043735      -273.3039
   8   2.0000     -10.043575      -273.2996
   9   2.0000      -1.070618       -29.1330
  10   2.0000      -0.849497       -23.1160
  11   2.0000      -0.816159       -22.2088
  12   2.0000      -0.724748       -19.7214
  13   2.0000      -0.716931       -19.5087
  14   2.0000      -0.609407       -16.5828
  15   2.0000      -0.578658       -15.7461
  16   2.0000      -0.539362       -14.6768
  17   2.0000      -0.502894       -13.6844
  18   2.0000      -0.481988       -13.1156
  19   2.0000      -0.440899       -11.9975
  20   2.0000      -0.423259       -11.5175
  21   2.0000      -0.405411       -11.0318
  22   2.0000      -0.401462       -10.9243
  23   2.0000      -0.388376       -10.5682
  24   2.0000      -0.380267       -10.3476
  25   2.0000      -0.354488        -9.6461
  26   2.0000      -0.319441        -8.6924
  27   2.0000      -0.311177        -8.4675
  28   2.0000      -0.278402        -7.5757
  29   2.0000      -0.254262        -6.9188
  30   2.0000      -0.244176        -6.6444
  31   2.0000      -0.214069        -5.8251
  32   0.0000      -0.077170        -2.0999
  33   0.0000      -0.040494        -1.1019
  34   0.0000       0.007098         0.1931
  35   0.0000       0.008338         0.2269
  36   0.0000       0.014474         0.3938

MULLIKEN ATOMIC CHARGES
-----------------------
   0 C :   -1.039748
   1 C :   -0.537770
   2 C :   -0.167787
   3 C :   -0.687632
   4 C :   -0.727180
   5 C :    1.991433
   6 C :   -0.026535
   7 N :   -0.467734
   8 O :   -0.303173
   9 H :    0.173431
  10 H :    0.421060
  11 H :   -0.002411
  12 H :    0.512525
  13 H :    0.408479
  14 H :    0.516429
  15 H :   -0.063387
Sum of atomic charges:    0.0000000

LOEWDIN ATOMIC CHARGES
----------------------
   0 C :    0.194188
   1 C :    0.192189
   2 C :    0.188204
   3 C :    0.191593
   4 C :    0.187699
   5 C :   -0.182131
   6 C :   -0.021391
   7 N :    0.114146
   8 O :    0.673519
   9 H :   -0.498628
  10 H :   -0.175672
  11 H :   -0.186938
  12 H :   -0.170081
  13 H :   -0.170838
  14 H :   -0.169588
  15 H :   -0.166270

  Mayer bond orders larger than 0.100000
B(  0-C ,  1-C ) :   1.0921 B(  0-C ,  2-C ) :  -0.1381 B(  0-C ,  4-C ) :  -0.4645
B(  0-C ,  5-C ) :  -0.1020 B(  0-C ,  6-C ) :   0.1437 B(  0-C , 11-H ) :   0.1453
B(  0-C , 13-H ) :   0.1054 B(  0-C , 14-H ) :  -0.1834 B(  0-C , 15-H ) :   1.7847
B(  1-C ,  2-C ) :   1.1289 B(  1-C ,  3-C ) :   0.1268 B(  1-C ,  5-C ) :   0.1184
B(  1-C , 11-H ) :  -0.1124 B(  1-C , 14-H ) :   0.5300 B(  1-C , 15-H ) :  -0.1612
B(  2-C ,  3-C ) :   1.0786 B(  2-C ,  4-C ) :  -0.1407 B(  2-C ,  5-C ) :  -0.1399
B(  2-C ,  6-C ) :   0.1328 B(  2-C , 13-H ) :   0.7074 B(  3-C ,  4-C ) :   1.0895
B(  3-C ,  5-C ) :   0.1281 B(  3-C , 12-H ) :   0.5179 B(  3-C , 15-H ) :  -0.1138
B(  4-C ,  5-C ) :   0.3416 B(  4-C ,  6-C ) :   0.2526 B(  4-C , 11-H ) :   1.3511
B(  4-C , 12-H ) :  -0.1022 B(  4-C , 15-H ) :   0.1446 B(  5-C ,  7-N ) :  -0.1265
B(  5-C , 11-H ) :  -0.2046 B(  5-C , 14-H ) :   0.1336 B(  5-C , 15-H ) :  -0.3065
B(  6-C ,  7-N ) :   1.0542 B(  6-C , 10-H ) :   0.5921 B(  6-C , 15-H ) :  -0.1322
B(  7-N ,  8-O ) :   0.6583 B(  7-N , 11-H ) :   0.1027 B(  8-O ,  9-H ) :   1.0021
B( 11-H , 15-H ) :   0.1830

Dispersion correction           -0.004682804
FINAL SINGLE POINT ENERGY      -400.818769338758

DIPOLE MOMENT
-------------

Method             : SCF
Type of density    : Electron Density
Multiplicity       :   1
Irrep              :   0
Energy             :  -400.8140865342633106 Eh
Relativity type    :
Basis              : AO
                                X                 Y                 Z
Electronic contribution:     -3.153670404       0.170062731       0.000034034
Nuclear contribution   :      3.386800554      -0.260850522      -0.000035535
                        -----------------------------------------
Total Dipole Moment    :      0.233130150      -0.090787791      -0.000001501
                        -----------------------------------------
Magnitude (a.u.)       :      0.250184112
Magnitude (Debye)      :      0.635917475

Rotational constants in cm-1:             0.173273             0.029980             0.025558
Rotational constants in MHz :          5194.584681           898.778188           766.207349

                             ****ORCA TERMINATED NORMALLY****
TOTAL RUN TIME: 0 days 0 hours 2 minutes 1 seconds 160 msec
