                         Program Version 6.0.0  -   RELEASE  -
|  1> !r2SCANh aug-cc-pVTZ d3 TightSCF SlowConv RIJCOSX defgrid2
|  2>
|  3> %pal
|  4> nprocs 4
|  5> end
|  6>
|  7> %scf
|  8> MaxIter 1500
|  9> end
| 10>
| 11> %maxcore 3000
| 12>
| 13> !CPCM
| 14> %cpcm smd true
| 15> SMDsolvent "MeCN"
| 16> surfacetype gepol_ses
| 17> rsolv 2.19
| 18> end
| 19>
| 20> * xyz 1 2
| 21> C          -1.06386344655545     -0.91329923764825      0.00354757702725
| 22> C           0.22163478430249     -1.40337223094175      0.04858043804036
| 23> C           0.53945025913243     -2.86197889510622      0.10169084984005
| 24> H          -0.37259520711996     -3.47715377611844      0.08589055463224
| 25> H           1.10475563615799     -3.10497153663765      1.01926780026075
| 26> H           1.17109714187519     -3.15621662267989     -0.75541137044371
| 27> C           1.27360747036098     -0.44465743263894      0.04352288846465
| 28> C           1.04730295949006      0.97973504194292     -0.00482697142823
| 29> C           2.21826802319715      1.89495355633420     -0.00501918248716
| 30> H           2.87852806587755      1.67773079367681     -0.86595049735279
| 31> H           1.91752465121824      2.95187818048041     -0.04884973003982
| 32> H           2.83071273968936      1.73802851771994      0.90320153771289
| 33> C          -0.25714882442837      1.42208817632644     -0.04842885905841
| 34> C          -1.33212517936375      0.50020425527138     -0.04514025959234
| 35> C          -2.73438084453214      0.95960010306211     -0.09132088440263
| 36> H          -3.24557910809032      0.52601718911780     -0.97488501067325
| 37> H          -2.82792542810869      2.05448934777564     -0.12005666171949
| 38> H          -3.29093535822372      0.56719702138835      0.78377537035428
| 39> H          -0.47441598823820      2.49274908825876     -0.08618140398361
| 40> H           2.30992878348264     -0.80041103745640      0.07738415126096
| 41> H          -1.91351563012347     -1.60314880212721      0.00441476358802
| 42> *
| 43>
| 44>                          ****END OF INPUT****

CARTESIAN COORDINATES (ANGSTROEM)
---------------------------------
  C     -1.063863   -0.913299    0.003548
  C      0.221635   -1.403372    0.048580
  C      0.539450   -2.861979    0.101691
  H     -0.372595   -3.477154    0.085891
  H      1.104756   -3.104972    1.019268
  H      1.171097   -3.156217   -0.755411
  C      1.273607   -0.444657    0.043523
  C      1.047303    0.979735   -0.004827
  C      2.218268    1.894954   -0.005019
  H      2.878528    1.677731   -0.865950
  H      1.917525    2.951878   -0.048850
  H      2.830713    1.738029    0.903202
  C     -0.257149    1.422088   -0.048429
  C     -1.332125    0.500204   -0.045140
  C     -2.734381    0.959600   -0.091321
  H     -3.245579    0.526017   -0.974885
  H     -2.827925    2.054489   -0.120057
  H     -3.290935    0.567197    0.783775
  H     -0.474416    2.492749   -0.086181
  H      2.309929   -0.800411    0.077384
  H     -1.913516   -1.603149    0.004415

 Total Charge           Charge          ....    1
 Multiplicity           Mult            ....    2
 Number of Electrons    NEL             ....   65
 Basis Dimension        Dim             ....  690

ORBITAL ENERGIES
----------------
                 SPIN UP ORBITALS
  NO   OCC          E(Eh)            E(eV)
   0   1.0000     -10.247096      -278.8376
   1   1.0000     -10.236034      -278.5366
   2   1.0000     -10.227668      -278.3090
   3   1.0000     -10.213554      -277.9249
   4   1.0000     -10.206545      -277.7342
   5   1.0000     -10.193319      -277.3743
   6   1.0000     -10.173434      -276.8332
   7   1.0000     -10.168700      -276.7044
   8   1.0000     -10.164547      -276.5914
   9   1.0000      -0.913197       -24.8493
  10   1.0000      -0.829053       -22.5597
  11   1.0000      -0.820837       -22.3361
  12   1.0000      -0.722829       -19.6692
  13   1.0000      -0.714066       -19.4307
  14   1.0000      -0.710134       -19.3237
  15   1.0000      -0.606608       -16.5067
  16   1.0000      -0.601579       -16.3698
  17   1.0000      -0.522947       -14.2301
  18   1.0000      -0.510788       -13.8992
  19   1.0000      -0.456191       -12.4136
  20   1.0000      -0.455948       -12.4070
  21   1.0000      -0.429984       -11.7005
  22   1.0000      -0.427541       -11.6340
  23   1.0000      -0.425383       -11.5753
  24   1.0000      -0.417980       -11.3738
  25   1.0000      -0.404411       -11.0046
  26   1.0000      -0.403134       -10.9698
  27   1.0000      -0.372633       -10.1399
  28   1.0000      -0.363026        -9.8784
  29   1.0000      -0.361809        -9.8453
  30   1.0000      -0.357838        -9.7373
  31   1.0000      -0.294305        -8.0085
  32   1.0000      -0.279291        -7.5999
  33   0.0000      -0.093016        -2.5311
  34   0.0000      -0.051667        -1.4059
  35   0.0000       0.007163         0.1949
  36   0.0000       0.022655         0.6165
  37   0.0000       0.023009         0.6261

                 SPIN DOWN ORBITALS
  NO   OCC          E(Eh)            E(eV)
   0   1.0000     -10.241360      -278.6816
   1   1.0000     -10.226872      -278.2873
   2   1.0000     -10.226511      -278.2775
   3   1.0000     -10.215334      -277.9734
   4   1.0000     -10.203894      -277.6621
   5   1.0000     -10.193725      -277.3854
   6   1.0000     -10.173360      -276.8312
   7   1.0000     -10.168540      -276.7000
   8   1.0000     -10.164382      -276.5869
   9   1.0000      -0.901938       -24.5430
  10   1.0000      -0.820402       -22.3243
  11   1.0000      -0.813925       -22.1480
  12   1.0000      -0.721686       -19.6381
  13   1.0000      -0.707281       -19.2461
  14   1.0000      -0.699849       -19.0438
  15   1.0000      -0.598799       -16.2941
  16   1.0000      -0.598035       -16.2734
  17   1.0000      -0.519969       -14.1491
  18   1.0000      -0.508424       -13.8349
  19   1.0000      -0.453073       -12.3288
  20   1.0000      -0.438321       -11.9273
  21   1.0000      -0.430015       -11.7013
  22   1.0000      -0.421655       -11.4738
  23   1.0000      -0.417154       -11.3513
  24   1.0000      -0.416110       -11.3229
  25   1.0000      -0.403398       -10.9770
  26   1.0000      -0.402032       -10.9398
  27   1.0000      -0.371295       -10.1034
  28   1.0000      -0.360636        -9.8134
  29   1.0000      -0.355351        -9.6696
  30   1.0000      -0.342649        -9.3240
  31   1.0000      -0.275033        -7.4840
  32   0.0000      -0.213281        -5.8037
  33   0.0000      -0.046634        -1.2690
  34   0.0000      -0.040497        -1.1020
  35   0.0000       0.008545         0.2325
  36   0.0000       0.023309         0.6343

MULLIKEN ATOMIC CHARGES AND SPIN POPULATIONS
--------------------------------------------
   0 C :   -0.874643    0.195451
   1 C :    1.206943   -0.165226
   2 C :   -0.753524    0.009820
   3 H :    0.183710   -0.000062
   4 H :    0.226766   -0.003771
   5 H :    0.221176   -0.003847
   6 C :   -1.430939    0.477246
   7 C :    1.290543    0.058280
   8 C :   -0.718505   -0.022619
   9 H :    0.233070    0.011995
  10 H :    0.170265   -0.003223
  11 H :    0.234154    0.012329
  12 C :   -0.339109   -0.016481
  13 C :    1.481656    0.352371
  14 C :   -0.638400   -0.054371
  15 H :    0.241702    0.037726
  16 H :    0.178014   -0.007251
  17 H :    0.239308    0.036685
  18 H :   -0.214315   -0.007759
  19 H :    0.107540    0.067410
  20 H :   -0.045410    0.025295
Sum of atomic charges         :    1.0000000

LOEWDIN ATOMIC CHARGES AND SPIN POPULATIONS
-------------------------------------------
   0 C :    0.305798    0.112894
   1 C :   -0.067404    0.055392
   2 C :    0.610474   -0.003917
   3 H :   -0.155322    0.000343
   4 H :   -0.141455   -0.000228
   5 H :   -0.142008   -0.000227
   6 C :    0.343369    0.275234
   7 C :   -0.057197    0.108334
   8 C :    0.620097    0.023645
   9 H :   -0.134563    0.006749
  10 H :   -0.150589    0.001353
  11 H :   -0.134315    0.006829
  12 C :    0.297513    0.048052
  13 C :   -0.044793    0.189094
  14 C :    0.634613    0.067289
  15 H :   -0.124449    0.017465
  16 H :   -0.146489    0.002365
  17 H :   -0.124936    0.017164
  18 H :   -0.142917   -0.000796
  19 H :   -0.113490    0.055869
  20 H :   -0.131938    0.017096

  Mayer bond orders larger than 0.100000
B(  0-C ,  1-C ) :   0.7777 B(  0-C ,  2-C ) :  -0.1441 B(  0-C ,  6-C ) :   0.1655
B(  0-C ,  7-C ) :  -0.1988 B(  0-C , 13-C ) :   0.1112 B(  0-C , 14-C ) :   0.1594
B(  0-C , 18-H ) :   0.1228 B(  0-C , 20-H ) :   1.4522 B(  1-C ,  2-C ) :   0.2505
B(  1-C ,  6-C ) :   0.4411 B(  1-C ,  7-C ) :   0.3040 B(  1-C , 13-C ) :   0.4425
B(  1-C , 20-H ) :  -0.1220 B(  2-C ,  3-H ) :   1.0158 B(  2-C ,  4-H ) :   1.0083
B(  2-C ,  5-H ) :   1.0138 B(  2-C ,  6-C ) :   0.2044 B(  2-C , 12-C ) :  -0.1016
B(  6-C ,  7-C ) :   0.3115 B(  6-C ,  8-C ) :   0.1841 B(  6-C , 12-C ) :  -0.1024
B(  6-C , 13-C ) :  -0.5422 B(  6-C , 19-H ) :   1.2368 B(  6-C , 20-H ) :   0.1050
B(  7-C ,  8-C ) :   0.2396 B(  7-C , 12-C ) :   0.5805 B(  7-C , 13-C ) :   0.4933
B(  7-C , 18-H ) :  -0.2408 B(  8-C ,  9-H ) :   0.9943 B(  8-C , 10-H ) :   1.0361
B(  8-C , 11-H ) :   0.9933 B(  8-C , 12-C ) :  -0.1844 B(  8-C , 13-C ) :   0.1051
B( 12-C , 13-C ) :   0.1855 B( 12-C , 18-H ) :   1.7140 B( 13-C , 14-C ) :   0.2735
B( 13-C , 18-H ) :  -0.2547 B( 13-C , 20-H ) :  -0.1408 B( 14-C , 15-H ) :   0.9685
B( 14-C , 16-H ) :   1.0361 B( 14-C , 17-H ) :   0.9705

Dispersion correction           -0.006489735
FINAL SINGLE POINT ENERGY      -349.884277757640

DIPOLE MOMENT
-------------

Method             : SCF
Type of density    : Electron Density
Multiplicity       :   2
Irrep              :   0
Energy             :  -349.8777880225023864 Eh
Relativity type    :
Basis              : AO
                                X                 Y                 Z
Electronic contribution:     -0.240722334       0.334328837      -0.019306740
Nuclear contribution   :      0.172059902      -0.262839703       0.016137258
                        -----------------------------------------
Total Dipole Moment    :     -0.068662432       0.071489133      -0.003169481
                        -----------------------------------------
Magnitude (a.u.)       :      0.099172937
Magnitude (Debye)      :      0.252077573

Rotational constants in cm-1:             0.058615             0.057378             0.029475
Rotational constants in MHz :          1757.241718          1720.152474           883.633658

                             ****ORCA TERMINATED NORMALLY****
TOTAL RUN TIME: 0 days 0 hours 11 minutes 29 seconds 423 msec
