                         Program Version 6.0.0  -   RELEASE  -
|  1> !PBE0 aug-cc-pVTZ d3 TightSCF SlowConv RIJCOSX defgrid2
|  2>
|  3> %pal
|  4> nprocs 4
|  5> end
|  6>
|  7> %scf
|  8> MaxIter 1500
|  9> end
| 10>
| 11> %maxcore 3000
| 12>
| 13> !CPCM
| 14> %cpcm smd true
| 15> SMDsolvent "MeCN"
| 16> surfacetype gepol_ses
| 17> rsolv 2.19
| 18> end
| 19>
| 20> * xyz 0 1
| 21> C           0.48360567195606     -1.21229390689687     -0.00037134428610
| 22> C           1.87690194124081     -1.23618350779417     -0.00001608088298
| 23> C           2.59422075073626     -0.04047481851856      0.00022611932314
| 24> C           1.91690889899697      1.18098236414826      0.00010944657389
| 25> C           0.52720301634613      1.20350626322595     -0.00024479123569
| 26> C          -0.20304994422496      0.00795284786184     -0.00051856197987
| 27> C          -1.69823329325947      0.10073243557531     -0.00093855711764
| 28> O          -2.24783450756777      1.18012430228825      0.00047343643148
| 29> C          -2.49873773674618     -1.18055979411728      0.00001226054872
| 30> H          -3.56874245805795     -0.92684719916367      0.00028072085676
| 31> H          -2.26765286226878     -1.79214055957540      0.88960271021885
| 32> H          -2.26826604600788     -1.79314451916799     -0.88902976580653
| 33> H          -0.03046089965679      2.14367830490160     -0.00034789708130
| 34> H           2.47945545467799      2.11929230948718      0.00030005734770
| 35> H           3.68826884274775     -0.06009102388695      0.00051141148870
| 36> H           2.40583590173159     -2.19363249350041      0.00008658903805
| 37> H          -0.06689973064377     -2.15667190486707     -0.00053355343717
| 38> *
| 39>
| 40>                          ****END OF INPUT****

CARTESIAN COORDINATES (ANGSTROEM)
---------------------------------
  C      0.483606   -1.212294   -0.000371
  C      1.876902   -1.236184   -0.000016
  C      2.594221   -0.040475    0.000226
  C      1.916909    1.180982    0.000109
  C      0.527203    1.203506   -0.000245
  C     -0.203050    0.007953   -0.000519
  C     -1.698233    0.100732   -0.000939
  O     -2.247835    1.180124    0.000473
  C     -2.498738   -1.180560    0.000012
  H     -3.568742   -0.926847    0.000281
  H     -2.267653   -1.792141    0.889603
  H     -2.268266   -1.793145   -0.889030
  H     -0.030461    2.143678   -0.000348
  H      2.479455    2.119292    0.000300
  H      3.688269   -0.060091    0.000511
  H      2.405836   -2.193632    0.000087
  H     -0.066900   -2.156672   -0.000534

 Total Charge           Charge          ....    0
 Multiplicity           Mult            ....    1
 Number of Electrons    NEL             ....   64
 Basis Dimension        Dim             ....  598

ORBITAL ENERGIES
----------------

  NO   OCC          E(Eh)            E(eV)
   0   2.0000     -19.199607      -522.4479
   1   2.0000     -10.317755      -280.7604
   2   2.0000     -10.242810      -278.7210
   3   2.0000     -10.241168      -278.6763
   4   2.0000     -10.239574      -278.6330
   5   2.0000     -10.237316      -278.5715
   6   2.0000     -10.235948      -278.5343
   7   2.0000     -10.235621      -278.5254
   8   2.0000     -10.219264      -278.0803
   9   2.0000      -1.078308       -29.3422
  10   2.0000      -0.891073       -24.2473
  11   2.0000      -0.796755       -21.6808
  12   2.0000      -0.776190       -21.1212
  13   2.0000      -0.747903       -20.3515
  14   2.0000      -0.648275       -17.6405
  15   2.0000      -0.626035       -17.0353
  16   2.0000      -0.568637       -15.4734
  17   2.0000      -0.526535       -14.3277
  18   2.0000      -0.482479       -13.1289
  19   2.0000      -0.475526       -12.9397
  20   2.0000      -0.456128       -12.4119
  21   2.0000      -0.455873       -12.4049
  22   2.0000      -0.436598       -11.8804
  23   2.0000      -0.435417       -11.8483
  24   2.0000      -0.395371       -10.7586
  25   2.0000      -0.394376       -10.7315
  26   2.0000      -0.371638       -10.1128
  27   2.0000      -0.368534       -10.0283
  28   2.0000      -0.354545        -9.6477
  29   2.0000      -0.276795        -7.5320
  30   2.0000      -0.274528        -7.4703
  31   2.0000      -0.271023        -7.3749
  32   0.0000      -0.059425        -1.6170
  33   0.0000      -0.015524        -0.4224
  34   0.0000       0.001124         0.0306
  35   0.0000       0.014198         0.3863
  36   0.0000       0.018810         0.5118

MULLIKEN ATOMIC CHARGES
-----------------------
   0 C :   -0.670984
   1 C :   -0.859711
   2 C :   -0.356586
   3 C :   -0.643683
   4 C :   -1.054073
   5 C :    1.283262
   6 C :    0.828301
   7 O :   -0.879940
   8 C :   -0.625713
   9 H :    0.184521
  10 H :    0.295408
  11 H :    0.295884
  12 H :    0.179421
  13 H :    0.645394
  14 H :    0.562085
  15 H :    0.607132
  16 H :    0.209281
Sum of atomic charges:    0.0000000

LOEWDIN ATOMIC CHARGES
----------------------
   0 C :    0.198813
   1 C :    0.201922
   2 C :    0.193522
   3 C :    0.198354
   4 C :    0.184681
   5 C :   -0.140092
   6 C :   -0.554267
   7 O :    0.488518
   8 C :    0.564739
   9 H :   -0.175097
  10 H :   -0.155376
  11 H :   -0.155490
  12 H :   -0.185368
  13 H :   -0.165367
  14 H :   -0.162497
  15 H :   -0.163971
  16 H :   -0.173023

  Mayer bond orders larger than 0.100000
B(  0-C ,  1-C ) :   1.0853 B(  0-C ,  2-C ) :  -0.1283 B(  0-C ,  4-C ) :  -0.2736
B(  0-C ,  5-C ) :   0.6413 B(  0-C , 12-H ) :   0.1054 B(  0-C , 16-H ) :   1.1773
B(  1-C ,  2-C ) :   1.3586 B(  1-C ,  3-C ) :   0.1387 B(  1-C , 15-H ) :   0.3662
B(  2-C ,  3-C ) :   1.3516 B(  2-C , 14-H ) :   0.4891 B(  3-C ,  4-C ) :   1.3492
B(  3-C , 13-H ) :   0.3334 B(  4-C ,  5-C ) :   0.5155 B(  4-C , 12-H ) :   1.0863
B(  4-C , 13-H ) :  -0.1216 B(  5-C ,  6-C ) :   0.5089 B(  5-C ,  7-O ) :   0.1203
B(  6-C ,  7-O ) :   0.8363 B(  6-C ,  8-C ) :   0.9445 B(  6-C , 12-H ) :  -0.1153
B(  7-O , 12-H ) :   0.1724 B(  8-C ,  9-H ) :   0.9620 B(  8-C , 10-H ) :   0.9081
B(  8-C , 11-H ) :   0.9082 B( 12-H , 16-H ) :   0.1225

Dispersion correction           -0.015141647
FINAL SINGLE POINT ENERGY      -384.603362708688

DIPOLE MOMENT
-------------

Method             : SCF
Type of density    : Electron Density
Multiplicity       :   1
Irrep              :   0
Energy             :  -384.5882210616583166 Eh
Relativity type    :
Basis              : AO
                                X                 Y                 Z
Electronic contribution:      0.727317435       3.007691161      -0.001934373
Nuclear contribution   :      0.288396890      -4.357474412       0.001603683
                        -----------------------------------------
Total Dipole Moment    :      1.015714324      -1.349783251      -0.000330691
                        -----------------------------------------
Magnitude (a.u.)       :      1.689257388
Magnitude (Debye)      :      4.293751051

Rotational constants in cm-1:             0.123087             0.040626             0.030722
Rotational constants in MHz :          3690.044009          1217.936985           921.022210

                             ****ORCA TERMINATED NORMALLY****
TOTAL RUN TIME: 0 days 0 hours 4 minutes 43 seconds 945 msec
