                         Program Version 6.0.0  -   RELEASE  -
|  1> !r2SCAN aug-cc-pVTZ d3 TightSCF SlowConv RIJCOSX defgrid2
|  2>
|  3> %pal
|  4> nprocs 15
|  5> end
|  6>
|  7> %scf
|  8> MaxIter 1500
|  9> end
| 10>
| 11> %maxcore 3500
| 12>
| 13> !CPCM
| 14> %cpcm smd true
| 15> SMDsolvent "WATER"
| 16> surfacetype gepol_ses
| 17> rsolv 1.40
| 18> end
| 19>
| 20> * xyz -1 2
| 21> C          -0.01873170749674      0.04093753406553     -3.52858975972066
| 22> C          -0.08481953761759     -0.05154774136999      0.71463088236912
| 23> C           1.06074238697258      0.22514736046509      1.53440757464188
| 24> C           0.96830356526862      0.17882896728935      2.90786805737149
| 25> C          -0.26470551878929     -0.14423885396115      3.51526371962268
| 26> C          -1.33128436816010     -0.40174847455106      2.63782787275971
| 27> N          -1.27485689979469     -0.36556245628455      1.32561828552698
| 28> H           2.02142786234163      0.47540072062604      1.07674146761929
| 29> H           1.85377788752582      0.39275930361097      3.52001278224486
| 30> H          -0.39061214364026     -0.19370360376422      4.60098661165976
| 31> H          -2.31725327762224     -0.66048458620174      3.06445837201647
| 32> C          -0.03491140317629     -0.01288869194778     -0.72111388392229
| 33> C           1.16270029754736      0.31139406157834     -1.44337296366598
| 34> C           1.16651016564823      0.33657884142632     -2.82048186671520
| 35> C          -1.14232412396102     -0.26425404984996     -2.74235450381628
| 36> N          -1.17775822889852     -0.29650902231833     -1.42933091490151
| 37> H           2.08677406925420      0.54347018773518     -0.90745689096374
| 38> H           2.09048709414386      0.58686162656875     -3.35729468270631
| 39> H          -0.06814499795324      0.04684125814958     -4.62156621654479
| 40> H          -2.09470004459233     -0.50226242026639     -3.24971132087547
| 41> *
| 42>
| 43>                          ****END OF INPUT****

CARTESIAN COORDINATES (ANGSTROEM)
---------------------------------
  C     -0.018732    0.040938   -3.528590
  C     -0.084820   -0.051548    0.714631
  C      1.060742    0.225147    1.534408
  C      0.968304    0.178829    2.907868
  C     -0.264706   -0.144239    3.515264
  C     -1.331284   -0.401748    2.637828
  N     -1.274857   -0.365562    1.325618
  H      2.021428    0.475401    1.076741
  H      1.853778    0.392759    3.520013
  H     -0.390612   -0.193704    4.600987
  H     -2.317253   -0.660485    3.064458
  C     -0.034911   -0.012889   -0.721114
  C      1.162700    0.311394   -1.443373
  C      1.166510    0.336579   -2.820482
  C     -1.142324   -0.264254   -2.742355
  N     -1.177758   -0.296509   -1.429331
  H      2.086774    0.543470   -0.907457
  H      2.090487    0.586862   -3.357295
  H     -0.068145    0.046841   -4.621566
  H     -2.094700   -0.502262   -3.249711

 Total Charge           Charge          ....   -1
 Multiplicity           Mult            ....    2
 Number of Electrons    NEL             ....   83
 Basis Dimension        Dim             ....  736

ORBITAL ENERGIES
----------------
                 SPIN UP ORBITALS
  NO   OCC          E(Eh)            E(eV)
   0   1.0000     -14.129252      -384.4765
   1   1.0000     -14.129217      -384.4755
   2   1.0000     -10.048621      -273.4369
   3   1.0000     -10.048599      -273.4363
   4   1.0000     -10.044833      -273.3338
   5   1.0000     -10.044516      -273.3252
   6   1.0000     -10.028882      -272.8998
   7   1.0000     -10.028861      -272.8992
   8   1.0000     -10.021812      -272.7074
   9   1.0000     -10.021794      -272.7069
  10   1.0000     -10.013859      -272.4910
  11   1.0000     -10.013839      -272.4904
  12   1.0000      -0.890721       -24.2378
  13   1.0000      -0.870555       -23.6890
  14   1.0000      -0.746830       -20.3223
  15   1.0000      -0.740666       -20.1546
  16   1.0000      -0.732948       -19.9445
  17   1.0000      -0.678221       -18.4553
  18   1.0000      -0.603339       -16.4177
  19   1.0000      -0.578913       -15.7530
  20   1.0000      -0.550871       -14.9900
  21   1.0000      -0.541338       -14.7306
  22   1.0000      -0.477535       -12.9944
  23   1.0000      -0.441059       -12.0018
  24   1.0000      -0.436617       -11.8810
  25   1.0000      -0.426862       -11.6155
  26   1.0000      -0.399065       -10.8591
  27   1.0000      -0.381981       -10.3942
  28   1.0000      -0.375571       -10.2198
  29   1.0000      -0.370446       -10.0804
  30   1.0000      -0.344684        -9.3793
  31   1.0000      -0.343505        -9.3473
  32   1.0000      -0.343330        -9.3425
  33   1.0000      -0.310358        -8.4453
  34   1.0000      -0.307740        -8.3740
  35   1.0000      -0.265133        -7.2146
  36   1.0000      -0.253380        -6.8948
  37   1.0000      -0.252316        -6.8659
  38   1.0000      -0.216003        -5.8777
  39   1.0000      -0.201791        -5.4910
  40   1.0000      -0.193460        -5.2643
  41   1.0000      -0.084019        -2.2863
  42   0.0000      -0.037904        -1.0314
  43   0.0000      -0.022338        -0.6078
  44   0.0000       0.003516         0.0957
  45   0.0000       0.006131         0.1668
  46   0.0000       0.016532         0.4499

                 SPIN DOWN ORBITALS
  NO   OCC          E(Eh)            E(eV)
   0   1.0000     -14.125852      -384.3840
   1   1.0000     -14.125817      -384.3830
   2   1.0000     -10.049845      -273.4702
   3   1.0000     -10.049823      -273.4696
   4   1.0000     -10.042238      -273.2632
   5   1.0000     -10.041924      -273.2547
   6   1.0000     -10.028692      -272.8946
   7   1.0000     -10.028673      -272.8941
   8   1.0000     -10.020790      -272.6796
   9   1.0000     -10.020773      -272.6791
  10   1.0000     -10.010164      -272.3904
  11   1.0000     -10.010145      -272.3899
  12   1.0000      -0.885522       -24.0963
  13   1.0000      -0.866184       -23.5701
  14   1.0000      -0.742497       -20.2044
  15   1.0000      -0.736073       -20.0296
  16   1.0000      -0.727205       -19.7882
  17   1.0000      -0.674062       -18.3422
  18   1.0000      -0.594978       -16.1902
  19   1.0000      -0.579032       -15.7563
  20   1.0000      -0.549410       -14.9502
  21   1.0000      -0.538102       -14.6425
  22   1.0000      -0.476527       -12.9669
  23   1.0000      -0.439571       -11.9613
  24   1.0000      -0.435119       -11.8402
  25   1.0000      -0.423339       -11.5196
  26   1.0000      -0.397739       -10.8230
  27   1.0000      -0.380297       -10.3484
  28   1.0000      -0.369340       -10.0502
  29   1.0000      -0.362408        -9.8616
  30   1.0000      -0.343593        -9.3496
  31   1.0000      -0.342135        -9.3100
  32   1.0000      -0.334350        -9.0981
  33   1.0000      -0.309215        -8.4142
  34   1.0000      -0.305744        -8.3197
  35   1.0000      -0.249580        -6.7914
  36   1.0000      -0.243772        -6.6334
  37   1.0000      -0.242163        -6.5896
  38   1.0000      -0.212644        -5.7863
  39   1.0000      -0.190056        -5.1717
  40   1.0000      -0.186199        -5.0667
  41   0.0000      -0.056623        -1.5408
  42   0.0000      -0.036387        -0.9901
  43   0.0000      -0.017651        -0.4803
  44   0.0000       0.005495         0.1495
  45   0.0000       0.018951         0.5157

MULLIKEN ATOMIC CHARGES AND SPIN POPULATIONS
--------------------------------------------
   0 C :   -0.337853    0.256991
   1 C :    1.494651    0.166121
   2 C :   -0.512254    0.081101
   3 C :   -0.863176   -0.052623
   4 C :   -0.336621    0.257012
   5 C :   -0.803884   -0.085418
   6 N :   -0.699794    0.143651
   7 H :   -0.006416    0.011803
   8 H :    0.457756   -0.010110
   9 H :    0.203941   -0.006555
  10 H :    0.565803   -0.004552
  11 C :    1.497511    0.165473
  12 C :   -0.514804    0.081374
  13 C :   -0.862157   -0.052738
  14 C :   -0.803106   -0.085692
  15 N :   -0.700824    0.143788
  16 H :   -0.006137    0.011483
  17 H :    0.457719   -0.010118
  18 H :    0.204010   -0.006449
  19 H :    0.565634   -0.004544
Sum of atomic charges         :   -1.0000000

LOEWDIN ATOMIC CHARGES AND SPIN POPULATIONS
-------------------------------------------
   0 C :    0.148779    0.111501
   1 C :   -0.363437    0.121556
   2 C :    0.165452    0.060288
   3 C :    0.133183    0.050354
   4 C :    0.148735    0.111507
   5 C :   -0.085844    0.017814
   6 N :    0.304461    0.101408
   7 H :   -0.213122    0.009369
   8 H :   -0.181270    0.004300
   9 H :   -0.205234    0.028265
  10 H :   -0.202976   -0.004837
  11 C :   -0.363374    0.121547
  12 C :    0.165432    0.060283
  13 C :    0.133237    0.050314
  14 C :   -0.085907    0.017825
  15 N :    0.304532    0.101402
  16 H :   -0.213168    0.009378
  17 H :   -0.181225    0.004290
  18 H :   -0.205237    0.028268
  19 H :   -0.203016   -0.004833

  Mayer bond orders larger than 0.100000
B(  0-C , 13-C ) :   0.9954 B(  0-C , 14-C ) :   0.6271 B(  0-C , 15-N ) :  -0.1579
B(  0-C , 16-H ) :  -0.1125 B(  0-C , 18-H ) :   1.0662 B(  1-C ,  2-C ) :   0.3987
B(  1-C ,  3-C ) :  -0.2233 B(  1-C ,  5-C ) :  -0.3139 B(  1-C ,  6-N ) :  -0.2971
B(  1-C ,  7-H ) :  -0.1703 B(  1-C , 10-H ) :   0.1385 B(  1-C , 11-C ) :   0.4318
B(  1-C , 13-C ) :   0.1234 B(  1-C , 15-N ) :   0.3570 B(  1-C , 16-H ) :  -0.1084
B(  2-C ,  3-C ) :   1.1614 B(  2-C ,  5-C ) :  -0.2256 B(  2-C ,  7-H ) :   1.5636
B(  2-C , 10-H ) :   0.1033 B(  2-C , 12-C ) :  -0.1198 B(  2-C , 16-H ) :  -0.1342
B(  3-C ,  4-C ) :   0.9950 B(  3-C ,  5-C ) :   0.4641 B(  3-C ,  7-H ) :  -0.2919
B(  3-C ,  8-H ) :   0.6327 B(  3-C ,  9-H ) :  -0.1199 B(  3-C , 11-C ) :   0.1237
B(  4-C ,  5-C ) :   0.6272 B(  4-C ,  6-N ) :  -0.1575 B(  4-C ,  7-H ) :  -0.1127
B(  4-C ,  9-H ) :   1.0663 B(  5-C ,  6-N ) :   1.6490 B(  5-C ,  7-H ) :   0.1105
B(  5-C ,  8-H ) :  -0.1069 B(  5-C , 10-H ) :   0.3536 B(  5-C , 14-C ) :   0.1116
B(  6-N , 10-H ) :  -0.1119 B(  6-N , 11-C ) :   0.3563 B(  6-N , 15-N ) :  -0.3068
B(  7-H ,  9-H ) :   0.1258 B(  7-H , 11-C ) :  -0.1094 B(  7-H , 12-C ) :  -0.1344
B( 11-C , 12-C ) :   0.3976 B( 11-C , 13-C ) :  -0.2235 B( 11-C , 14-C ) :  -0.3136
B( 11-C , 15-N ) :  -0.2997 B( 11-C , 16-H ) :  -0.1709 B( 11-C , 19-H ) :   0.1382
B( 12-C , 13-C ) :   1.1605 B( 12-C , 14-C ) :  -0.2255 B( 12-C , 16-H ) :   1.5640
B( 12-C , 19-H ) :   0.1035 B( 13-C , 14-C ) :   0.4647 B( 13-C , 16-H ) :  -0.2927
B( 13-C , 17-H ) :   0.6331 B( 13-C , 18-H ) :  -0.1199 B( 14-C , 15-N ) :   1.6487
B( 14-C , 16-H ) :   0.1098 B( 14-C , 17-H ) :  -0.1067 B( 14-C , 19-H ) :   0.3535
B( 15-N , 19-H ) :  -0.1113 B( 16-H , 18-H ) :   0.1262

Dispersion correction           -0.007075616
FINAL SINGLE POINT ENERGY      -495.371856411392

DIPOLE MOMENT
-------------

Method             : SCF
Type of density    : Electron Density
Multiplicity       :   2
Irrep              :   0
Energy             :  -495.3647807953305460 Eh
Relativity type    :
Basis              : AO
                                X                 Y                 Z
Electronic contribution:     -1.741919735      -0.448658290      -0.072767300
Nuclear contribution   :      3.614122503       0.929387637       0.150326208
                        -----------------------------------------
Total Dipole Moment    :      1.872202769       0.480729347       0.077558908
                        -----------------------------------------
Magnitude (a.u.)       :      1.934491999
Magnitude (Debye)      :      4.917087895

Rotational constants in cm-1:             0.097712             0.019197             0.016045
Rotational constants in MHz :          2929.325358           575.521768           481.017920

                             ****ORCA TERMINATED NORMALLY****
TOTAL RUN TIME: 0 days 0 hours 4 minutes 10 seconds 113 msec
