                         Program Version 6.0.0  -   RELEASE  -
|  1> !PBE0 aug-cc-pVTZ d3 TightSCF SlowConv RIJCOSX defgrid2
|  2>
|  3> %pal
|  4> nprocs 4
|  5> end
|  6>
|  7> %scf
|  8> MaxIter 1500
|  9> end
| 10>
| 11> %maxcore 3000
| 12>
| 13> !CPCM
| 14> %cpcm smd true
| 15> SMDsolvent "MeCN"
| 16> surfacetype gepol_ses
| 17> rsolv 2.19
| 18> end
| 19>
| 20> * xyz 0 1
| 21> C          -0.22997754219743     -1.20609091856311     -0.00046087004095
| 22> C           1.16128384069195     -1.20031253591911      0.00041394587123
| 23> C           1.87254503831811     -0.00003037040882      0.00072012391754
| 24> C           1.16131377140118      1.20026930808148      0.00041360790641
| 25> C          -0.22994707632405      1.20608173416170     -0.00046177829750
| 26> C          -0.95218511536342      0.00000427823419     -0.00003761551285
| 27> N          -2.33340895991450      0.00002157595282      0.04653779431621
| 28> H          -2.79855452143895      0.84821355690402     -0.25483389378867
| 29> H          -2.79857532928795     -0.84816111010491     -0.25482834496791
| 30> H          -0.77344381556999      2.15676174884881      0.00298430668171
| 31> H           1.69817818740019      2.15419904894576     -0.00079679497611
| 32> H           2.96571339060225     -0.00004426352233      0.00028554339021
| 33> H           1.69812535441562     -2.15425546581862     -0.00079688995407
| 34> H          -0.77349762273302     -2.15675758679187      0.00298456545474
| 35> *
| 36>
| 37>                          ****END OF INPUT****

CARTESIAN COORDINATES (ANGSTROEM)
---------------------------------
  C     -0.229978   -1.206091   -0.000461
  C      1.161284   -1.200313    0.000414
  C      1.872545   -0.000030    0.000720
  C      1.161314    1.200269    0.000414
  C     -0.229947    1.206082   -0.000462
  C     -0.952185    0.000004   -0.000038
  N     -2.333409    0.000022    0.046538
  H     -2.798555    0.848214   -0.254834
  H     -2.798575   -0.848161   -0.254828
  H     -0.773444    2.156762    0.002984
  H      1.698178    2.154199   -0.000797
  H      2.965713   -0.000044    0.000286
  H      1.698125   -2.154255   -0.000797
  H     -0.773498   -2.156758    0.002985

 Total Charge           Charge          ....    0
 Multiplicity           Mult            ....    1
 Number of Electrons    NEL             ....   50
 Basis Dimension        Dim             ....  483

ORBITAL ENERGIES
----------------

  NO   OCC          E(Eh)            E(eV)
   0   2.0000     -14.385546      -391.4506
   1   2.0000     -10.270221      -279.4669
   2   2.0000     -10.228315      -278.3266
   3   2.0000     -10.228293      -278.3260
   4   2.0000     -10.221753      -278.1480
   5   2.0000     -10.221745      -278.1478
   6   2.0000     -10.217689      -278.0375
   7   2.0000      -0.943940       -25.6859
   8   2.0000      -0.861415       -23.4403
   9   2.0000      -0.765604       -20.8331
  10   2.0000      -0.745266       -20.2797
  11   2.0000      -0.627174       -17.0663
  12   2.0000      -0.613747       -16.7009
  13   2.0000      -0.537218       -14.6184
  14   2.0000      -0.517862       -14.0917
  15   2.0000      -0.487218       -13.2579
  16   2.0000      -0.440422       -11.9845
  17   2.0000      -0.437509       -11.9052
  18   2.0000      -0.424582       -11.5535
  19   2.0000      -0.403828       -10.9887
  20   2.0000      -0.365608        -9.9487
  21   2.0000      -0.345502        -9.4016
  22   2.0000      -0.329606        -8.9690
  23   2.0000      -0.267129        -7.2689
  24   2.0000      -0.218450        -5.9443
  25   0.0000      -0.009167        -0.2494
  26   0.0000       0.002062         0.0561
  27   0.0000       0.005472         0.1489
  28   0.0000       0.014873         0.4047
  29   0.0000       0.019080         0.5192

MULLIKEN ATOMIC CHARGES
-----------------------
   0 C :   -0.884947
   1 C :   -0.441484
   2 C :   -0.651354
   3 C :   -0.441539
   4 C :   -0.884647
   5 C :    1.037156
   6 N :   -0.580388
   7 H :    0.068087
   8 H :    0.068432
   9 H :    0.587296
  10 H :    0.473652
  11 H :    0.587944
  12 H :    0.473758
  13 H :    0.588035
Sum of atomic charges:   -0.0000000

LOEWDIN ATOMIC CHARGES
----------------------
   0 C :    0.194726
   1 C :    0.154975
   2 C :    0.156085
   3 C :    0.154974
   4 C :    0.194725
   5 C :   -0.277638
   6 N :    0.852097
   7 H :   -0.284434
   8 H :   -0.284433
   9 H :   -0.167693
  10 H :   -0.171780
  11 H :   -0.182131
  12 H :   -0.171781
  13 H :   -0.167693

  Mayer bond orders larger than 0.100000
B(  0-C ,  1-C ) :   1.3509 B(  0-C ,  2-C ) :   0.2331 B(  0-C ,  4-C ) :   0.3974
B(  0-C ,  5-C ) :   0.8622 B(  0-C , 13-H ) :   0.2473 B(  1-C ,  2-C ) :   1.2650
B(  1-C ,  3-C ) :  -0.1019 B(  1-C ,  5-C ) :  -0.2424 B(  1-C , 12-H ) :   0.6659
B(  2-C ,  3-C ) :   1.2670 B(  2-C ,  4-C ) :   0.2339 B(  2-C , 11-H ) :   0.4158
B(  3-C ,  4-C ) :   1.3507 B(  3-C ,  5-C ) :  -0.2426 B(  3-C , 10-H ) :   0.6653
B(  4-C ,  5-C ) :   0.8614 B(  4-C ,  9-H ) :   0.2478 B(  5-C ,  6-N ) :   0.6039
B(  5-C ,  9-H ) :   0.1081 B(  5-C , 13-H ) :   0.1085 B(  6-N ,  7-H ) :   1.0747
B(  6-N ,  8-H ) :   1.0741

Dispersion correction           -0.011429003
FINAL SINGLE POINT ENERGY      -287.389947309117

DIPOLE MOMENT
-------------

Method             : SCF
Type of density    : Electron Density
Multiplicity       :   1
Irrep              :   0
Energy             :  -287.3785183059794122 Eh
Relativity type    :
Basis              : AO
                                X                 Y                 Z
Electronic contribution:     -0.099662960       0.000002307       0.038395440
Nuclear contribution   :     -0.743352745       0.000007126      -0.484101489
                        -----------------------------------------
Total Dipole Moment    :     -0.843015705       0.000009433      -0.445706049
                        -----------------------------------------
Magnitude (a.u.)       :      0.953587626
Magnitude (Debye)      :      2.423827122

Rotational constants in cm-1:             0.187523             0.086550             0.059285
Rotational constants in MHz :          5621.786837          2594.705838          1777.328239

                             ****ORCA TERMINATED NORMALLY****
TOTAL RUN TIME: 0 days 0 hours 2 minutes 57 seconds 699 msec
