                         Program Version 6.0.0  -   RELEASE  -
|  1> !TPSSh opt aug-cc-pVTZ d3 TightSCF SlowConv RIJCOSX defgrid2
|  2>
|  3> %pal
|  4> nprocs 8
|  5> end
|  6>
|  7> %scf
|  8> MaxIter 1500
|  9> end
| 10>
| 11> %maxcore 3500
| 12>
| 13> !CPCM
| 14> %cpcm smd true
| 15> SMDsolvent "MeCN"
| 16> surfacetype gepol_ses
| 17> rsolv 2.19
| 18> end
| 19>
| 20> * xyz 0 1
| 21>   C          -1.14933226451234     -1.23882509190584     -0.00046672280380
| 22>   C          -2.50857813675911     -0.94988227106401     -0.00054346756040
| 23>   C          -2.93817015440872      0.37868475331297     -0.00006408928605
| 24>   C          -2.00629101009504      1.41668452923491      0.00049673263770
| 25>   C          -0.64374499246001      1.13250357756874      0.00056381244254
| 26>   C          -0.20908515748665     -0.19753416758703      0.00007645085547
| 27>   C           1.21837162790625     -0.59720306751016      0.00007667382631
| 28>   O           1.62341721296480     -1.71314820484524     -0.00012734829677
| 29>   Cl          2.38206247173385      0.76415186429790      0.00056602291059
| 30>   H           0.09169908378046      1.93929798920226      0.00098639048783
| 31>   H          -2.34320651232058      2.45698180479248      0.00087795608335
| 32>   H          -4.00834754942676      0.60618222514384     -0.00012604204670
| 33>   H          -3.23886079813446     -1.76401666244183     -0.00098417146236
| 34>   H          -0.79061102078168     -2.27094327819897     -0.00083749778771
| 35> *
| 36>
| 37>                          ****END OF INPUT****
 Total Charge           Charge          ....    0
 Multiplicity           Mult            ....    1
 Number of Electrons    NEL             ....   72
Dispersion correction           -0.018990634
FINAL SINGLE POINT ENERGY      -805.396643313038
Dispersion correction             ... done (  0.1 sec)
Dispersion correction           -0.019008487
FINAL SINGLE POINT ENERGY      -805.397479388426
Dispersion correction             ... done (  0.1 sec)
Dispersion correction           -0.019011033
FINAL SINGLE POINT ENERGY      -805.397641363498
Dispersion correction             ... done (  0.0 sec)
FINAL SINGLE POINT ENERGY      -805.397534169153
FINAL SINGLE POINT ENERGY      -805.397730886336
Dispersion correction             ... done (  0.1 sec)
Dispersion correction           -0.019001705
FINAL SINGLE POINT ENERGY      -805.397740397744
Dispersion correction             ... done (  0.1 sec)
Dispersion correction           -0.019001009
FINAL SINGLE POINT ENERGY      -805.397742947191
Dispersion correction             ... done (  0.1 sec)
                    ***********************HURRAY********************

CARTESIAN COORDINATES (ANGSTROEM)
---------------------------------
  C     -1.156598   -1.244947   -0.000834
  C     -2.509965   -0.949599   -0.000380
  C     -2.933031    0.379134    0.000306
  C     -2.000339    1.413288    0.000073
  C     -0.642282    1.126937   -0.000533
  C     -0.214903   -0.204168   -0.000592
  C      1.197745   -0.601667    0.000327
  O      1.642329   -1.707695   -0.000553
  Cl     2.390365    0.794690    0.003256
  H      0.080792    1.929746   -0.000917
  H     -2.330901    2.443942    0.001125
  H     -3.991726    0.607202    0.001133
  H     -3.236219   -1.752298   -0.000476
  H     -0.815943   -2.271633   -0.001440

 Multiplicity           Mult            ....    1
 Number of Electrons    NEL             ....   72
 Basis Dimension        Dim             ....  533

ORBITAL ENERGIES
----------------

  NO   OCC          E(Eh)            E(eV)
   0   2.0000    -101.406893     -2759.4218
   1   2.0000     -19.084975      -519.3286
   2   2.0000     -10.263789      -279.2919
   3   2.0000     -10.150889      -276.2197
   4   2.0000     -10.136200      -275.8200
   5   2.0000     -10.136098      -275.8173
   6   2.0000     -10.132844      -275.7287
   7   2.0000     -10.127524      -275.5839
   8   2.0000     -10.127347      -275.5791
   9   2.0000      -9.386002      -255.4061
  10   2.0000      -7.134111      -194.1290
  11   2.0000      -7.126814      -193.9305
  12   2.0000      -7.125664      -193.8992
  13   2.0000      -1.069698       -29.1080
  14   2.0000      -0.858883       -23.3714
  15   2.0000      -0.819350       -22.2957
  16   2.0000      -0.756566       -20.5872
  17   2.0000      -0.743428       -20.2297
  18   2.0000      -0.636881       -17.3304
  19   2.0000      -0.602251       -16.3881
  20   2.0000      -0.552229       -15.0269
  21   2.0000      -0.509248       -13.8574
  22   2.0000      -0.470274       -12.7968
  23   2.0000      -0.460939       -12.5428
  24   2.0000      -0.435039       -11.8380
  25   2.0000      -0.432160       -11.7597
  26   2.0000      -0.426401       -11.6030
  27   2.0000      -0.417212       -11.3529
  28   2.0000      -0.367571       -10.0021
  29   2.0000      -0.353216        -9.6115
  30   2.0000      -0.339071        -9.2266
  31   2.0000      -0.313362        -8.5270
  32   2.0000      -0.311128        -8.4662
  33   2.0000      -0.283482        -7.7139
  34   2.0000      -0.266665        -7.2563
  35   2.0000      -0.261311        -7.1106
  36   0.0000      -0.094561        -2.5731
  37   0.0000      -0.036086        -0.9819
  38   0.0000      -0.012232        -0.3329
  39   0.0000       0.002374         0.0646
  40   0.0000       0.007349         0.2000

MULLIKEN ATOMIC CHARGES
-----------------------
   0 C :   -0.638464
   1 C :   -0.274233
   2 C :   -0.219396
   3 C :   -0.483934
   4 C :   -0.669243
   5 C :    0.992421
   6 C :    0.742087
   7 O :   -0.722991
   8 Cl:   -0.372853
   9 H :    0.388216
  10 H :    0.362643
  11 H :    0.433483
  12 H :    0.393055
  13 H :    0.069209
Sum of atomic charges:    0.0000000

LOEWDIN ATOMIC CHARGES
----------------------
   0 C :    0.198262
   1 C :    0.223055
   2 C :    0.221140
   3 C :    0.220628
   4 C :    0.164128
   5 C :   -0.247255
   6 C :   -1.085509
   7 O :    0.418033
   8 Cl:    0.821928
   9 H :   -0.244436
  10 H :   -0.170733
  11 H :   -0.167033
  12 H :   -0.170378
  13 H :   -0.181829

  Mayer bond orders larger than 0.100000
B(  0-C ,  1-C ) :   1.3709 B(  0-C ,  5-C ) :   0.7134 B(  0-C ,  6-C ) :   0.1100
B(  0-C , 13-H ) :   0.8873 B(  1-C ,  2-C ) :   1.3561 B(  1-C ,  5-C ) :  -0.1087
B(  1-C , 12-H ) :   0.6747 B(  2-C ,  3-C ) :   1.3840 B(  2-C ,  5-C ) :  -0.1187
B(  2-C , 11-H ) :   0.5771 B(  3-C ,  4-C ) :   1.4012 B(  3-C ,  5-C ) :  -0.1698
B(  3-C , 10-H ) :   0.6900 B(  4-C ,  5-C ) :   0.6551 B(  4-C ,  6-C ) :   0.1107
B(  4-C ,  9-H ) :   0.8520 B(  5-C ,  6-C ) :   0.7016 B(  5-C ,  7-O ) :   0.3189
B(  5-C ,  8-Cl) :   0.1401 B(  6-C ,  7-O ) :   0.8360 B(  6-C ,  8-Cl) :   0.6452
B(  7-O ,  8-Cl) :   0.1050 B(  7-O , 13-H ) :   0.1763 B(  8-Cl,  9-H ) :  -0.1832

Dispersion correction           -0.019000509
FINAL SINGLE POINT ENERGY      -805.397743508490

DIPOLE MOMENT
-------------

Method             : SCF
Type of density    : Electron Density
Multiplicity       :   1
Irrep              :   0
Energy             :  -805.3787429993545857 Eh
Relativity type    :
Basis              : AO
                                X                 Y                 Z
Electronic contribution:     10.703452723       0.759660789       0.006377628
Nuclear contribution   :    -12.876154474      -0.214297508      -0.006986110
                        -----------------------------------------
Total Dipole Moment    :     -2.172701751       0.545363281      -0.000608482
                        -----------------------------------------
Magnitude (a.u.)       :      2.240101421
Magnitude (Debye)      :      5.693885312

Rotational constants in cm-1:             0.103604             0.030966             0.023841
Rotational constants in MHz :          3105.971657           928.348908           714.724163

                             ****ORCA TERMINATED NORMALLY****
TOTAL RUN TIME: 0 days 0 hours 25 minutes 24 seconds 993 msec
