                         Program Version 6.0.0  -   RELEASE  -
|  1> !PBE0 aug-cc-pVTZ d3 TightSCF SlowConv RIJCOSX defgrid2
|  2>
|  3> %pal
|  4> nprocs 15
|  5> end
|  6>
|  7> %scf
|  8> MaxIter 1500
|  9> end
| 10>
| 11> %maxcore 3500
| 12>
| 13> !CPCM
| 14> %cpcm smd true
| 15> SMDsolvent "WATER"
| 16> surfacetype gepol_ses
| 17> rsolv 1.40
| 18> end
| 19>
| 20> * xyz -1 2
| 21> C          -0.06058974015319     -0.02786640637996     -0.06636687374245
| 22> C          -0.02915253757207      1.41200889322469      0.08669635331984
| 23> C           0.02798442423532      2.03233434330205      1.32981811902407
| 24> C           0.05891841826264      1.28851377532912      2.57222906271290
| 25> C           0.02788466230184     -0.17442785622153      2.44488354658359
| 26> C          -0.02912762559812     -0.80604792656199      1.17894588306731
| 27> C          -0.05600083532212     -2.21190043304611      1.11490808218194
| 28> C          -0.02778223638882     -2.97912152092029      2.26676120872945
| 29> C           0.02864253401367     -2.35043181295908      3.52692854346035
| 30> C           0.05574276936416     -0.96875665770795      3.60660845784379
| 31> H           0.09961725693663     -0.44137362844551      4.56397519772263
| 32> H           0.05097367878843     -2.95610213708649      4.44040440744309
| 33> H          -0.04909796692647     -4.07320599895043      2.20123731713864
| 34> H          -0.09984497496410     -2.65971392423461      0.11785465933687
| 35> C           0.06118565181994      3.52761243856941      1.44630550499102
| 36> H          -0.83631875455019      3.99924775120952      0.99973118694746
| 37> H           0.10955815705607      3.79661097587730      2.51364550587021
| 38> H           0.93630443757164      3.96465252836867      0.92646488630537
| 39> C          -0.06070223464566      2.21802482702039     -1.17830606330920
| 40> H           0.83706819273596      2.85838996312933     -1.28473705482212
| 41> H          -0.10791860033235      1.52690469530484     -2.03502370536211
| 42> H          -0.93579834377862      2.89621056380490     -1.21654993473529
| 43> O           0.10927738480662      1.83885022543947      3.69657300623271
| 44> O          -0.11082371766120     -0.59470609206575     -1.18250068694010
| 45> *
| 46>
| 47>                          ****END OF INPUT****

CARTESIAN COORDINATES (ANGSTROEM)
---------------------------------
  C     -0.060590   -0.027866   -0.066367
  C     -0.029153    1.412009    0.086696
  C      0.027984    2.032334    1.329818
  C      0.058918    1.288514    2.572229
  C      0.027885   -0.174428    2.444884
  C     -0.029128   -0.806048    1.178946
  C     -0.056001   -2.211900    1.114908
  C     -0.027782   -2.979122    2.266761
  C      0.028643   -2.350432    3.526929
  C      0.055743   -0.968757    3.606608
  H      0.099617   -0.441374    4.563975
  H      0.050974   -2.956102    4.440404
  H     -0.049098   -4.073206    2.201237
  H     -0.099845   -2.659714    0.117855
  C      0.061186    3.527612    1.446306
  H     -0.836319    3.999248    0.999731
  H      0.109558    3.796611    2.513646
  H      0.936304    3.964653    0.926465
  C     -0.060702    2.218025   -1.178306
  H      0.837068    2.858390   -1.284737
  H     -0.107919    1.526905   -2.035024
  H     -0.935798    2.896211   -1.216550
  O      0.109277    1.838850    3.696573
  O     -0.110824   -0.594706   -1.182501

 Total Charge           Charge          ....   -1
 Multiplicity           Mult            ....    2
 Number of Electrons    NEL             ....   99
 Basis Dimension        Dim             ....  874

ORBITAL ENERGIES
----------------
                 SPIN UP ORBITALS
  NO   OCC          E(Eh)            E(eV)
   0   1.0000     -19.167770      -521.5815
   1   1.0000     -19.167717      -521.5801
   2   1.0000     -10.276893      -279.6485
   3   1.0000     -10.276848      -279.6473
   4   1.0000     -10.228499      -278.3316
   5   1.0000     -10.228344      -278.3274
   6   1.0000     -10.227969      -278.3172
   7   1.0000     -10.227764      -278.3116
   8   1.0000     -10.225553      -278.2514
   9   1.0000     -10.225348      -278.2459
  10   1.0000     -10.225324      -278.2452
  11   1.0000     -10.224904      -278.2338
  12   1.0000     -10.206695      -277.7383
  13   1.0000     -10.206669      -277.7376
  14   1.0000      -1.039181       -28.2776
  15   1.0000      -1.036871       -28.2147
  16   1.0000      -0.883177       -24.0325
  17   1.0000      -0.841397       -22.8956
  18   1.0000      -0.779133       -21.2013
  19   1.0000      -0.771597       -20.9962
  20   1.0000      -0.745638       -20.2898
  21   1.0000      -0.690204       -18.7814
  22   1.0000      -0.673567       -18.3287
  23   1.0000      -0.614171       -16.7125
  24   1.0000      -0.602612       -16.3979
  25   1.0000      -0.569005       -15.4834
  26   1.0000      -0.530624       -14.4390
  27   1.0000      -0.501851       -13.6561
  28   1.0000      -0.482923       -13.1410
  29   1.0000      -0.459465       -12.5027
  30   1.0000      -0.452516       -12.3136
  31   1.0000      -0.439397       -11.9566
  32   1.0000      -0.433587       -11.7985
  33   1.0000      -0.432587       -11.7713
  34   1.0000      -0.411948       -11.2097
  35   1.0000      -0.410650       -11.1744
  36   1.0000      -0.395300       -10.7567
  37   1.0000      -0.394083       -10.7235
  38   1.0000      -0.384285       -10.4569
  39   1.0000      -0.383692       -10.4408
  40   1.0000      -0.365510        -9.9460
  41   1.0000      -0.364815        -9.9271
  42   1.0000      -0.348016        -9.4700
  43   1.0000      -0.343536        -9.3481
  44   1.0000      -0.284703        -7.7472
  45   1.0000      -0.268955        -7.3186
  46   1.0000      -0.267829        -7.2880
  47   1.0000      -0.251539        -6.8447
  48   1.0000      -0.250021        -6.8034
  49   1.0000      -0.163462        -4.4480
  50   0.0000      -0.029489        -0.8024
  51   0.0000      -0.011024        -0.3000
  52   0.0000       0.001267         0.0345
  53   0.0000       0.011638         0.3167
  54   0.0000       0.016936         0.4609

                 SPIN DOWN ORBITALS
  NO   OCC          E(Eh)            E(eV)
   0   1.0000     -19.161827      -521.4198
   1   1.0000     -19.161768      -521.4182
   2   1.0000     -10.274778      -279.5909
   3   1.0000     -10.274739      -279.5899
   4   1.0000     -10.228029      -278.3188
   5   1.0000     -10.227973      -278.3173
   6   1.0000     -10.227511      -278.3047
   7   1.0000     -10.227374      -278.3010
   8   1.0000     -10.225251      -278.2432
   9   1.0000     -10.225231      -278.2427
  10   1.0000     -10.224219      -278.2152
  11   1.0000     -10.223552      -278.1970
  12   1.0000     -10.206811      -277.7414
  13   1.0000     -10.206785      -277.7408
  14   1.0000      -1.028348       -27.9828
  15   1.0000      -1.025843       -27.9146
  16   1.0000      -0.880871       -23.9697
  17   1.0000      -0.836873       -22.7725
  18   1.0000      -0.776987       -21.1429
  19   1.0000      -0.769374       -20.9357
  20   1.0000      -0.741544       -20.1784
  21   1.0000      -0.688072       -18.7234
  22   1.0000      -0.666072       -18.1248
  23   1.0000      -0.613293       -16.6886
  24   1.0000      -0.598619       -16.2893
  25   1.0000      -0.565722       -15.3941
  26   1.0000      -0.528427       -14.3792
  27   1.0000      -0.499156       -13.5827
  28   1.0000      -0.479885       -13.0583
  29   1.0000      -0.458432       -12.4746
  30   1.0000      -0.440899       -11.9975
  31   1.0000      -0.434417       -11.8211
  32   1.0000      -0.431460       -11.7406
  33   1.0000      -0.431095       -11.7307
  34   1.0000      -0.403379       -10.9765
  35   1.0000      -0.398506       -10.8439
  36   1.0000      -0.394011       -10.7216
  37   1.0000      -0.392849       -10.6900
  38   1.0000      -0.383174       -10.4267
  39   1.0000      -0.365458        -9.9446
  40   1.0000      -0.363952        -9.9036
  41   1.0000      -0.352354        -9.5880
  42   1.0000      -0.346437        -9.4270
  43   1.0000      -0.342252        -9.3132
  44   1.0000      -0.262653        -7.1471
  45   1.0000      -0.261385        -7.1126
  46   1.0000      -0.260887        -7.0991
  47   1.0000      -0.246511        -6.7079
  48   1.0000      -0.240344        -6.5401
  49   0.0000      -0.083392        -2.2692
  50   0.0000      -0.020671        -0.5625
  51   0.0000       0.002049         0.0558
  52   0.0000       0.002117         0.0576
  53   0.0000       0.011987         0.3262

MULLIKEN ATOMIC CHARGES AND SPIN POPULATIONS
--------------------------------------------
   0 C :    1.338293    0.107010
   1 C :   -0.110699    0.099836
   2 C :   -0.133708    0.099890
   3 C :    1.338991    0.107603
   4 C :    0.801852    0.027614
   5 C :    0.791299    0.027545
   6 C :   -1.220391    0.019200
   7 C :   -0.523466    0.024890
   8 C :   -0.488484    0.024911
   9 C :   -1.207108    0.019107
  10 H :    0.181232   -0.002689
  11 H :    0.703019   -0.001289
  12 H :    0.716109   -0.001273
  13 H :    0.177422   -0.002789
  14 C :   -0.904867    0.001276
  15 H :    0.221466    0.004174
  16 H :    0.187894   -0.001587
  17 H :    0.221141    0.004127
  18 C :   -0.910286    0.001223
  19 H :    0.227348    0.004173
  20 H :    0.185824   -0.001513
  21 H :    0.228575    0.004108
  22 O :   -1.417155    0.217072
  23 O :   -1.404303    0.217381
Sum of atomic charges         :   -1.0000000

LOEWDIN ATOMIC CHARGES AND SPIN POPULATIONS
-------------------------------------------
   0 C :   -0.610681    0.127899
   1 C :   -0.133093    0.084007
   2 C :   -0.133051    0.083899
   3 C :   -0.610798    0.127950
   4 C :   -0.151176    0.046342
   5 C :   -0.151140    0.046341
   6 C :    0.179889    0.013011
   7 C :    0.185007    0.018123
   8 C :    0.185070    0.018104
   9 C :    0.179820    0.013011
  10 H :   -0.195080    0.000946
  11 H :   -0.171045    0.003227
  12 H :   -0.171031    0.003232
  13 H :   -0.194973    0.000940
  14 C :    0.535242    0.012174
  15 H :   -0.152555    0.002460
  16 H :   -0.219735   -0.000982
  17 H :   -0.152995    0.002423
  18 C :    0.535280    0.012210
  19 H :   -0.152686    0.002462
  20 H :   -0.219930   -0.000982
  21 H :   -0.152859    0.002434
  22 O :    0.386115    0.190312
  23 O :    0.386404    0.190457

  Mayer bond orders larger than 0.100000
B(  0-C ,  1-C ) :   1.3156 B(  0-C ,  2-C ) :  -0.4740 B(  0-C ,  3-C ) :   0.9380
B(  0-C ,  4-C ) :  -0.4539 B(  0-C ,  5-C ) :   0.8099 B(  0-C ,  6-C ) :   0.4426
B(  0-C , 18-C ) :  -0.1414 B(  0-C , 23-O ) :  -0.4483 B(  1-C ,  2-C ) :   1.0438
B(  1-C ,  3-C ) :  -0.4618 B(  1-C ,  4-C ) :  -0.1363 B(  1-C ,  5-C ) :   0.6385
B(  1-C , 14-C ) :   0.1747 B(  1-C , 18-C ) :   0.4389 B(  1-C , 19-H ) :  -0.1299
B(  1-C , 21-H ) :  -0.1328 B(  1-C , 23-O ) :   0.3556 B(  2-C ,  3-C ) :   1.3331
B(  2-C ,  4-C ) :   0.6266 B(  2-C ,  9-C ) :   0.1019 B(  2-C , 14-C ) :   0.4106
B(  2-C , 15-H ) :  -0.1343 B(  2-C , 17-H ) :  -0.1458 B(  2-C , 18-C ) :   0.1756
B(  2-C , 22-O ) :   0.3729 B(  3-C ,  4-C ) :   0.7855 B(  3-C ,  5-C ) :  -0.3968
B(  3-C ,  9-C ) :   0.4499 B(  3-C , 14-C ) :  -0.1510 B(  3-C , 22-O ) :  -0.4632
B(  4-C ,  5-C ) :   0.7218 B(  4-C ,  6-C ) :  -0.4394 B(  4-C ,  7-C ) :  -0.1195
B(  4-C ,  8-C ) :  -0.1769 B(  4-C , 22-O ) :   0.4049 B(  5-C ,  7-C ) :  -0.1791
B(  5-C ,  8-C ) :  -0.1114 B(  5-C ,  9-C ) :  -0.4965 B(  5-C , 23-O ) :   0.4252
B(  6-C ,  7-C ) :   1.3976 B(  6-C , 12-H ) :  -0.1441 B(  6-C , 13-H ) :   0.9667
B(  7-C ,  8-C ) :   1.2643 B(  7-C , 12-H ) :   0.1732 B(  8-C ,  9-C ) :   1.3524
B(  8-C , 11-H ) :   0.2033 B(  9-C , 10-H ) :   0.9494 B(  9-C , 11-H ) :  -0.1426
B( 10-H , 22-O ) :   0.2464 B( 13-H , 23-O ) :   0.2471 B( 14-C , 15-H ) :   1.0231
B( 14-C , 16-H ) :   0.9116 B( 14-C , 17-H ) :   1.0262 B( 18-C , 19-H ) :   1.0120
B( 18-C , 20-H ) :   0.9272 B( 18-C , 21-H ) :   1.0109

Dispersion correction           -0.026402128
FINAL SINGLE POINT ENERGY      -613.428746300883

DIPOLE MOMENT
-------------

Method             : SCF
Type of density    : Electron Density
Multiplicity       :   2
Irrep              :   0
Energy             :  -613.4023441724322083 Eh
Relativity type    :
Basis              : AO
                                X                 Y                 Z
Electronic contribution:     -0.006307202      -6.797291693       3.388654478
Nuclear contribution   :      0.007077470       6.336292283      -3.161748014
                        -----------------------------------------
Total Dipole Moment    :      0.000770268      -0.460999410       0.226906464
                        -----------------------------------------
Magnitude (a.u.)       :      0.513816692
Magnitude (Debye)      :      1.306018240

Rotational constants in cm-1:             0.036449             0.021992             0.013787
Rotational constants in MHz :          1092.703549           659.301071           413.332938

                             ****ORCA TERMINATED NORMALLY****
TOTAL RUN TIME: 0 days 0 hours 7 minutes 22 seconds 706 msec
