                         Program Version 6.0.0  -   RELEASE  -
|  1> !PBE0 opt def2-SV(p) d3 TightSCF SlowConv RIJCOSX defgrid2
|  2>
|  3> %pal
|  4> nprocs 8
|  5> end
|  6>
|  7> %scf
|  8> MaxIter 1500
|  9> end
| 10>
| 11> %maxcore 3500
| 12>
| 13> !CPCM
| 14> %cpcm smd true
| 15> SMDsolvent "MeCN"
| 16> surfacetype gepol_ses
| 17> rsolv 2.19
| 18> end
| 19>
| 20> * xyz 1 2
| 21> C          -0.22428548195010     -1.24213438922305     -0.03849982740281
| 22> C           1.14800811610277     -1.22870080724969      0.00227297677880
| 23> C           1.84566180598227     -0.00004019353139      0.02297012210753
| 24> C           1.14805042698559      1.22864411313713      0.00227054482980
| 25> C          -0.22424154749405      1.24212983950181     -0.03850931873892
| 26> C          -0.94084900168795      0.00001024661649     -0.05989305493678
| 27> N          -2.26985305582395      0.00003075135377     -0.09979281491323
| 28> H          -2.80165535396914      0.86997483968693     -0.11591197867223
| 29> H          -2.80167508667297     -0.86990117124685     -0.11590823438470
| 30> H          -0.77890173993705      2.18488554366972     -0.05504522287995
| 31> H           1.70373713208460      2.16980587419055      0.01885237386387
| 32> H           2.93889913121278     -0.00005967561260      0.05550059305168
| 33> H           1.70365895934134     -2.16988118368011      0.01885253182221
| 34> H          -0.77898600417414     -2.18486378761269     -0.05503389052528
| 35> *
| 36>
| 37>                          ****END OF INPUT****
 Total Charge           Charge          ....    1
 Multiplicity           Mult            ....    2
 Number of Electrons    NEL             ....   49
Dispersion correction           -0.011428278
FINAL SINGLE POINT ENERGY      -286.872370665102
Dispersion correction             ... done (  0.1 sec)
Dispersion correction           -0.011438481
FINAL SINGLE POINT ENERGY      -286.872439470508
Dispersion correction             ... done (  0.1 sec)
Dispersion correction           -0.011440053
FINAL SINGLE POINT ENERGY      -286.872444733657
Dispersion correction             ... done (  0.1 sec)
Dispersion correction           -0.011440347
FINAL SINGLE POINT ENERGY      -286.872448324976
Dispersion correction             ... done (  0.1 sec)
                    ***********************HURRAY********************

CARTESIAN COORDINATES (ANGSTROEM)
---------------------------------
  C     -0.225442   -1.241221   -0.039066
  C      1.147953   -1.226256    0.002363
  C      1.844132   -0.000040    0.023378
  C      1.147995    1.226202    0.002357
  C     -0.225400    1.241216   -0.039065
  C     -0.940266    0.000010   -0.059948
  N     -2.263087    0.000032   -0.098474
  H     -2.793890    0.872209   -0.115309
  H     -2.793919   -0.872129   -0.115307
  H     -0.787384    2.178435   -0.056311
  H      1.703842    2.166799    0.018965
  H      2.936724   -0.000064    0.055870
  H      1.703767   -2.166874    0.018977
  H     -0.787457   -2.178420   -0.056306

 Multiplicity           Mult            ....    2
 Number of Electrons    NEL             ....   49
 Basis Dimension        Dim             ....  112

ORBITAL ENERGIES
----------------
                 SPIN UP ORBITALS
  NO   OCC          E(Eh)            E(eV)
   0   1.0000     -14.485879      -394.1808
   1   1.0000     -10.343333      -281.4564
   2   1.0000     -10.285869      -279.8927
   3   1.0000     -10.282571      -279.8030
   4   1.0000     -10.282562      -279.8027
   5   1.0000     -10.269895      -279.4581
   6   1.0000     -10.269888      -279.4578
   7   1.0000      -1.024661       -27.8824
   8   1.0000      -0.906175       -24.6583
   9   1.0000      -0.808729       -22.0066
  10   1.0000      -0.789114       -21.4729
  11   1.0000      -0.674821       -18.3628
  12   1.0000      -0.670527       -18.2460
  13   1.0000      -0.592507       -16.1229
  14   1.0000      -0.584729       -15.9113
  15   1.0000      -0.537856       -14.6358
  16   1.0000      -0.491224       -13.3669
  17   1.0000      -0.478501       -13.0207
  18   1.0000      -0.475566       -12.9408
  19   1.0000      -0.472703       -12.8629
  20   1.0000      -0.410500       -11.1703
  21   1.0000      -0.394397       -10.7321
  22   1.0000      -0.389364       -10.5951
  23   1.0000      -0.314717        -8.5639
  24   1.0000      -0.278324        -7.5736
  25   0.0000      -0.039123        -1.0646
  26   0.0000      -0.037724        -1.0265
  27   0.0000       0.063959         1.7404
  28   0.0000       0.076758         2.0887
  29   0.0000       0.091057         2.4778

                 SPIN DOWN ORBITALS
  NO   OCC          E(Eh)            E(eV)
   0   1.0000     -14.476449      -393.9242
   1   1.0000     -10.343299      -281.4555
   2   1.0000     -10.279366      -279.7158
   3   1.0000     -10.278633      -279.6958
   4   1.0000     -10.278620      -279.6955
   5   1.0000     -10.272074      -279.5173
   6   1.0000     -10.272070      -279.5172
   7   1.0000      -1.009182       -27.4612
   8   1.0000      -0.897291       -24.4165
   9   1.0000      -0.804891       -21.9022
  10   1.0000      -0.774303       -21.0698
  11   1.0000      -0.671338       -18.2680
  12   1.0000      -0.663347       -18.0506
  13   1.0000      -0.589679       -16.0460
  14   1.0000      -0.579025       -15.7561
  15   1.0000      -0.532721       -14.4961
  16   1.0000      -0.487528       -13.2663
  17   1.0000      -0.476001       -12.9527
  18   1.0000      -0.471839       -12.8394
  19   1.0000      -0.442993       -12.0545
  20   1.0000      -0.408089       -11.1047
  21   1.0000      -0.387633       -10.5480
  22   1.0000      -0.356979        -9.7139
  23   1.0000      -0.304663        -8.2903
  24   0.0000      -0.172092        -4.6829
  25   0.0000      -0.025388        -0.6908
  26   0.0000      -0.007737        -0.2105
  27   0.0000       0.066942         1.8216
  28   0.0000       0.079187         2.1548

MULLIKEN ATOMIC CHARGES AND SPIN POPULATIONS
--------------------------------------------
   0 C :   -0.065682    0.271567
   1 C :   -0.107129   -0.177714
   2 C :   -0.028231    0.457588
   3 C :   -0.107129   -0.177716
   4 C :   -0.065672    0.271566
   5 C :    0.112658    0.009270
   6 N :   -0.258835    0.417130
   7 H :    0.349920   -0.017331
   8 H :    0.349924   -0.017331
   9 H :    0.162074   -0.013482
  10 H :    0.163296    0.006268
  11 H :    0.169436   -0.022599
  12 H :    0.163297    0.006268
  13 H :    0.162074   -0.013482
Sum of atomic charges         :    1.0000000

LOEWDIN ATOMIC CHARGES AND SPIN POPULATIONS
-------------------------------------------
   0 C :   -0.081381    0.218593
   1 C :   -0.098736   -0.097160
   2 C :   -0.033056    0.358174
   3 C :   -0.098734   -0.097161
   4 C :   -0.081379    0.218592
   5 C :    0.051676    0.047673
   6 N :   -0.098091    0.392504
   7 H :    0.300382   -0.010964
   8 H :    0.300384   -0.010964
   9 H :    0.171146   -0.007126
  10 H :    0.165225    0.003038
  11 H :    0.166191   -0.011111
  12 H :    0.165226    0.003038
  13 H :    0.171147   -0.007126

  Mayer bond orders larger than 0.100000
B(  0-C ,  1-C ) :   1.4964 B(  0-C ,  5-C ) :   1.1622 B(  0-C , 13-H ) :   0.9529
B(  1-C ,  2-C ) :   1.2721 B(  1-C , 12-H ) :   0.9547 B(  2-C ,  3-C ) :   1.2721
B(  2-C , 11-H ) :   0.9530 B(  3-C ,  4-C ) :   1.4964 B(  3-C , 10-H ) :   0.9547
B(  4-C ,  5-C ) :   1.1622 B(  4-C ,  9-H ) :   0.9529 B(  5-C ,  6-N ) :   1.5201
B(  6-N ,  7-H ) :   0.8245 B(  6-N ,  8-H ) :   0.8245

Dispersion correction           -0.011440201
FINAL SINGLE POINT ENERGY      -286.872447389836

DIPOLE MOMENT
-------------

Method             : SCF
Type of density    : Electron Density
Multiplicity       :   2
Irrep              :   0
Energy             :  -286.8610071883364299 Eh
Relativity type    :
Basis              : AO
                                X                 Y                 Z
Electronic contribution:     -0.987425541       0.000022447      -0.029079850
Nuclear contribution   :     -0.815052640       0.000005768      -0.026219108
                        -----------------------------------------
Total Dipole Moment    :     -1.802478181       0.000028215      -0.055298958
                        -----------------------------------------
Magnitude (a.u.)       :      1.803326252
Magnitude (Debye)      :      4.583691060

Rotational constants in cm-1:             0.179920             0.089775             0.059891
Rotational constants in MHz :          5393.862047          2691.374828          1795.483121

                             ****ORCA TERMINATED NORMALLY****
TOTAL RUN TIME: 0 days 0 hours 5 minutes 14 seconds 755 msec
