                         Program Version 6.0.0  -   RELEASE  -
|  1> !PBE0 def2-SV(p) Opt Freq d3 TightSCF SlowConv RIJCOSX defgrid2
|  2>
|  3> %pal
|  4> nprocs 4
|  5> end
|  6>
|  7> %scf
|  8> MaxIter 1500
|  9> end
| 10>
| 11> %maxcore 3000
| 12>
| 13>
| 14>
| 15> * xyz 0 1
| 16> C     0.4266858   -1.1430843   -0.1972553
| 17> N     1.2277860    0.0001417    0.2139514
| 18> H     1.3078802    0.0000682    1.2273709
| 19> C     0.4264323    1.1432524   -0.1970888
| 20> C    -1.0492257    0.7695542    0.0712157
| 21> C    -1.0489885   -0.7698331    0.0714474
| 22> H    -1.3683594   -1.1579695    1.0391369
| 23> H    -1.7053953   -1.1817604   -0.6924235
| 24> H    -1.3691308    1.1578976    1.0386407
| 25> H    -1.7054612    1.1810088   -0.6930588
| 26> H     0.5857877    1.2861804   -1.2703290
| 27> H     0.7397873    2.0472909    0.3240985
| 28> H     0.5858645   -1.2856625   -1.2705692
| 29> H     0.7403797   -2.0471823    0.3236236
| 30> *
| 31>
| 32>                          ****END OF INPUT****
 Total Charge           Charge          ....    0
 Multiplicity           Mult            ....    1
 Number of Electrons    NEL             ....   40
Dispersion correction           -0.009000707
FINAL SINGLE POINT ENERGY      -212.160993093626
Dispersion correction             ... done (  0.1 sec)
Dispersion correction           -0.008963793
FINAL SINGLE POINT ENERGY      -212.162031899118
Dispersion correction             ... done (  0.1 sec)
Dispersion correction           -0.008957796
FINAL SINGLE POINT ENERGY      -212.162103675029
Dispersion correction             ... done (  0.1 sec)
Dispersion correction           -0.008954074
FINAL SINGLE POINT ENERGY      -212.162131533432
Dispersion correction             ... done (  0.1 sec)
                    ***********************HURRAY********************

CARTESIAN COORDINATES (ANGSTROEM)
---------------------------------
  C      0.429038   -1.143703   -0.193751
  N      1.230905   -0.000181    0.212412
  H      1.326617   -0.000851    1.228856
  C      0.429188    1.143988   -0.192353
  C     -1.049610    0.772616    0.064928
  C     -1.049063   -0.772947    0.066835
  H     -1.380356   -1.163904    1.044200
  H     -1.724582   -1.200250   -0.692924
  H     -1.384870    1.165936    1.039948
  H     -1.722612    1.197226   -0.698557
  H      0.590416    1.314761   -1.273237
  H      0.754736    2.057908    0.330834
  H      0.588637   -1.311961   -1.275296
  H      0.755599   -2.058737    0.326866

 Multiplicity           Mult            ....    1
 Number of Electrons    NEL             ....   40
 Basis Dimension        Dim             ....   88

ORBITAL ENERGIES
----------------

  NO   OCC          E(Eh)            E(eV)
   0   2.0000     -14.365216      -390.8974
   1   2.0000     -10.243471      -278.7390
   2   2.0000     -10.243464      -278.7388
   3   2.0000     -10.221780      -278.1488
   4   2.0000     -10.221726      -278.1473
   5   2.0000      -0.938487       -25.5375
   6   2.0000      -0.768744       -20.9186
   7   2.0000      -0.730608       -19.8809
   8   2.0000      -0.610749       -16.6193
   9   2.0000      -0.584484       -15.9046
  10   2.0000      -0.519666       -14.1408
  11   2.0000      -0.480701       -13.0805
  12   2.0000      -0.443463       -12.0672
  13   2.0000      -0.439174       -11.9505
  14   2.0000      -0.383346       -10.4314
  15   2.0000      -0.364529        -9.9193
  16   2.0000      -0.352687        -9.5971
  17   2.0000      -0.351961        -9.5774
  18   2.0000      -0.327437        -8.9100
  19   2.0000      -0.235823        -6.4171
  20   0.0000       0.055199         1.5021
  21   0.0000       0.081018         2.2046
  22   0.0000       0.112597         3.0639
  23   0.0000       0.116100         3.1592
  24   0.0000       0.131647         3.5823

MULLIKEN ATOMIC CHARGES
-----------------------
   0 C :   -0.112406
   1 N :   -0.413316
   2 H :    0.217371
   3 C :   -0.112173
   4 C :   -0.246610
   5 C :   -0.246608
   6 H :    0.111010
   7 H :    0.115992
   8 H :    0.111081
   9 H :    0.115961
  10 H :    0.111209
  11 H :    0.118590
  12 H :    0.111248
  13 H :    0.118649
Sum of atomic charges:    0.0000000

LOEWDIN ATOMIC CHARGES
----------------------
   0 C :   -0.173223
   1 N :   -0.284246
   2 H :    0.210880
   3 C :   -0.173216
   4 C :   -0.257072
   5 C :   -0.257028
   6 H :    0.117831
   7 H :    0.121230
   8 H :    0.117884
   9 H :    0.121228
  10 H :    0.112838
  11 H :    0.115034
  12 H :    0.112828
  13 H :    0.115033

  Mayer bond orders larger than 0.100000
B(  0-C ,  1-N ) :   1.0695 B(  0-C ,  5-C ) :   1.0861 B(  0-C , 12-H ) :   0.9293
B(  0-C , 13-H ) :   0.9439 B(  1-N ,  2-H ) :   0.8833 B(  1-N ,  3-C ) :   1.0699
B(  3-C ,  4-C ) :   1.0859 B(  3-C , 10-H ) :   0.9293 B(  3-C , 11-H ) :   0.9439
B(  4-C ,  5-C ) :   1.1209 B(  4-C ,  8-H ) :   0.9322 B(  4-C ,  9-H ) :   0.9304
B(  5-C ,  6-H ) :   0.9322 B(  5-C ,  7-H ) :   0.9304

Dispersion correction           -0.008953843
FINAL SINGLE POINT ENERGY      -212.162132654985

DIPOLE MOMENT
-------------

Method             : SCF
Type of density    : Electron Density
Multiplicity       :   1
Irrep              :   0
Energy             :  -212.1531788119852138 Eh
Relativity type    :
Basis              : AO
                                X                 Y                 Z
Electronic contribution:      1.672929013      -0.000728845       0.258342848
Nuclear contribution   :     -2.069088816       0.000471850       0.035748568
                        -----------------------------------------
Total Dipole Moment    :     -0.396159804      -0.000256995       0.294091416
                        -----------------------------------------
Magnitude (a.u.)       :      0.493388708
Magnitude (Debye)      :      1.254094431

VIBRATIONAL FREQUENCIES
-----------------------

Scaling factor for frequencies =  1.000000000  (already applied!)

     0:       0.00 cm**-1
     1:       0.00 cm**-1
     2:       0.00 cm**-1
     3:       0.00 cm**-1
     4:       0.00 cm**-1
     5:       0.00 cm**-1
     6:      43.98 cm**-1
     7:     296.23 cm**-1
     8:     626.58 cm**-1
     9:     644.51 cm**-1
    10:     803.38 cm**-1
    11:     847.11 cm**-1
    12:     860.65 cm**-1
    13:     916.11 cm**-1
    14:     941.51 cm**-1
    15:     973.29 cm**-1
    16:    1000.25 cm**-1
    17:    1063.98 cm**-1
    18:    1067.58 cm**-1
    19:    1163.63 cm**-1
    20:    1221.25 cm**-1
    21:    1222.30 cm**-1
    22:    1256.98 cm**-1
    23:    1291.42 cm**-1
    24:    1312.10 cm**-1
    25:    1349.92 cm**-1
    26:    1350.33 cm**-1
    27:    1383.05 cm**-1
    28:    1467.97 cm**-1
    29:    1477.49 cm**-1
    30:    1485.21 cm**-1
    31:    1488.18 cm**-1
    32:    1502.47 cm**-1
    33:    3039.60 cm**-1
    34:    3042.14 cm**-1
    35:    3057.61 cm**-1
    36:    3069.48 cm**-1
    37:    3108.38 cm**-1
    38:    3119.21 cm**-1
    39:    3124.60 cm**-1
    40:    3131.17 cm**-1
    41:    3484.80 cm**-1

IR SPECTRUM
-----------

 Mode   freq       eps      Int      T**2         TX        TY        TZ
       cm**-1   L/(mol*cm) km/mol    a.u.
----------------------------------------------------------------------------
  6:     43.98   0.000024    0.12  0.000168  ( 0.000097 -0.012947  0.000258)
  7:    296.23   0.001672    8.45  0.001761  ( 0.022410  0.000020  0.035477)
  8:    626.58   0.000247    1.25  0.000123  ( 0.010776  0.000289  0.002652)
  9:    644.51   0.000257    1.30  0.000125  ( 0.000345 -0.011154  0.000120)
 10:    803.38   0.001783    9.01  0.000693  (-0.018121 -0.000071 -0.019087)
 11:    847.11   0.025969  131.24  0.009567  ( 0.094103 -0.000075  0.026670)
 12:    860.65   0.000074    0.38  0.000027  ( 0.001182  0.005051  0.000246)
 13:    916.11   0.001450    7.33  0.000494  ( 0.022133  0.000006 -0.002007)
 14:    941.51   0.000000    0.00  0.000000  ( 0.000087 -0.000336  0.000017)
 15:    973.29   0.006103   30.84  0.001957  ( 0.042466 -0.000003  0.012385)
 16:   1000.25   0.000217    1.10  0.000068  (-0.008196 -0.000048  0.000811)
 17:   1063.98   0.000152    0.77  0.000044  (-0.000030 -0.006668  0.000015)
 18:   1067.58   0.000251    1.27  0.000073  (-0.008270  0.000058  0.002199)
 19:   1163.63   0.004615   23.32  0.001238  ( 0.000002 -0.035180  0.000009)
 20:   1221.25   0.001508    7.62  0.000385  (-0.019503  0.000550  0.002172)
 21:   1222.30   0.000076    0.38  0.000019  (-0.002172 -0.003821  0.000231)
 22:   1256.98   0.000885    4.47  0.000220  ( 0.000039  0.014820  0.000019)
 23:   1291.42   0.000028    0.14  0.000007  (-0.002588 -0.000148  0.000343)
 24:   1312.10   0.000187    0.95  0.000045  ( 0.000013  0.006671  0.000016)
 25:   1349.92   0.000180    0.91  0.000042  ( 0.006315 -0.000898 -0.000974)
 26:   1350.33   0.000082    0.41  0.000019  (-0.001489 -0.004086  0.000244)
 27:   1383.05   0.001198    6.05  0.000270  (-0.015093 -0.000006 -0.006517)
 28:   1467.97   0.000270    1.36  0.000057  (-0.000019  0.007569 -0.000076)
 29:   1477.49   0.002254   11.39  0.000476  (-0.000018 -0.021817 -0.000014)
 30:   1485.21   0.001383    6.99  0.000291  (-0.012526 -0.000050  0.011561)
 31:   1488.18   0.000161    0.82  0.000034  ( 0.000074 -0.005814 -0.000107)
 32:   1502.47   0.000437    2.21  0.000091  (-0.009493  0.000035 -0.000827)
 33:   3039.60   0.006638   33.55  0.000682  (-0.000310  0.026094  0.000724)
 34:   3042.14   0.009784   49.45  0.001004  ( 0.014472  0.000654 -0.028175)
 35:   3057.61   0.004277   21.61  0.000436  (-0.000228 -0.020889  0.000224)
 36:   3069.48   0.006131   30.98  0.000623  (-0.024371  0.000281  0.005416)
 37:   3108.38   0.002507   12.67  0.000252  (-0.000144 -0.015863 -0.000075)
 38:   3119.21   0.000002    0.01  0.000000  ( 0.000096  0.000017  0.000421)
 39:   3124.60   0.003953   19.98  0.000395  ( 0.000122 -0.019867  0.000223)
 40:   3131.17   0.011393   57.58  0.001135  (-0.008809 -0.000142 -0.032525)
 41:   3484.80   0.000007    0.03  0.000001  ( 0.000548 -0.000004  0.000536)

--------------------------
THERMOCHEMISTRY AT 298.15K
--------------------------

Temperature         ...   298.15 K
Pressure            ...     1.00 atm
Total Mass          ...    71.12 AMU
Quasi RRHO          ...     True
Cut-Off Frequency   ...     1.00 cm^-1

Throughout the following assumptions are being made:
  (1) The electronic state is orbitally nondegenerate
  (2) There are no thermally accessible electronically excited states
  (3) Hindered rotations indicated by low frequency modes are not
      treated as such but are treated as vibrations and this may
      cause some error
  (4) All equations used are the standard statistical mechanics
      equations for an ideal gas
  (5) All vibrations are strictly harmonic

freq.      43.98  E(vib)   ...       0.53
freq.     296.23  E(vib)   ...       0.27
freq.     626.58  E(vib)   ...       0.09
freq.     644.51  E(vib)   ...       0.09
freq.     803.38  E(vib)   ...       0.05
freq.     847.11  E(vib)   ...       0.04
freq.     860.65  E(vib)   ...       0.04
freq.     916.11  E(vib)   ...       0.03
freq.     941.51  E(vib)   ...       0.03
freq.     973.29  E(vib)   ...       0.03
freq.    1000.25  E(vib)   ...       0.02
freq.    1063.98  E(vib)   ...       0.02
freq.    1067.58  E(vib)   ...       0.02
freq.    1163.63  E(vib)   ...       0.01
freq.    1221.25  E(vib)   ...       0.01
freq.    1222.30  E(vib)   ...       0.01
freq.    1256.98  E(vib)   ...       0.01
freq.    1291.42  E(vib)   ...       0.01
freq.    1312.10  E(vib)   ...       0.01
freq.    1349.92  E(vib)   ...       0.01
freq.    1350.33  E(vib)   ...       0.01
freq.    1383.05  E(vib)   ...       0.01
freq.    1467.97  E(vib)   ...       0.00
freq.    1477.49  E(vib)   ...       0.00
freq.    1485.21  E(vib)   ...       0.00
freq.    1488.18  E(vib)   ...       0.00
freq.    1502.47  E(vib)   ...       0.00
freq.    3039.60  E(vib)   ...       0.00
freq.    3042.14  E(vib)   ...       0.00
freq.    3057.61  E(vib)   ...       0.00
freq.    3069.48  E(vib)   ...       0.00
freq.    3108.38  E(vib)   ...       0.00
freq.    3119.21  E(vib)   ...       0.00
freq.    3124.60  E(vib)   ...       0.00
freq.    3131.17  E(vib)   ...       0.00
freq.    3484.80  E(vib)   ...       0.00

------------
INNER ENERGY
------------

The inner energy is: U= E(el) + E(ZPE) + E(vib) + E(rot) + E(trans)
    E(el)   - is the total energy from the electronic structure calculation
              = E(kin-el) + E(nuc-el) + E(el-el) + E(nuc-nuc)
    E(ZPE)  - the the zero temperature vibrational energy from the frequency calculation
    E(vib)  - the the finite temperature correction to E(ZPE) due to population
              of excited vibrational states
    E(rot)  - is the rotational thermal energy
    E(trans)- is the translational thermal energy

Summary of contributions to the inner energy U:
Electronic energy                ...   -212.16213265 Eh
Zero point energy                ...      0.13038971 Eh      81.82 kcal/mol
Thermal vibrational correction   ...      0.00213119 Eh       1.34 kcal/mol
Thermal rotational correction    ...      0.00141627 Eh       0.89 kcal/mol
Thermal translational correction ...      0.00141627 Eh       0.89 kcal/mol
-----------------------------------------------------------------------
Total thermal energy                   -212.02677921 Eh

Summary of corrections to the electronic energy:
(perhaps to be used in another calculation)
Total thermal correction                  0.00496373 Eh       3.11 kcal/mol
Non-thermal (ZPE) correction              0.13038971 Eh      81.82 kcal/mol
-----------------------------------------------------------------------
Total correction                          0.13535345 Eh      84.94 kcal/mol

--------
ENTHALPY
--------

The enthalpy is H = U + kB*T
                kB is Boltzmann's constant
Total thermal energy              ...   -212.02677921 Eh
Thermal Enthalpy correction       ...      0.00094421 Eh       0.59 kcal/mol
-----------------------------------------------------------------------
Total Enthalpy                    ...   -212.02583500 Eh

Note: Only C1 symmetry has been detected, increase convergence thresholds
      if your molecule has a higher symmetry. Symmetry factor of 1.0 is
      used for the rotational entropy correction.

Note: Rotational entropy computed according to Herzberg
Infrared and Raman Spectra, Chapter V,1, Van Nostrand Reinhold, 1945
Point Group:  C1, Symmetry Number:   1
Rotational constants in cm-1:     0.230180     0.223654     0.130688

Vibrational entropy computed according to the QRRHO of S. Grimme
Chem.Eur.J. 2012 18 9955 using a reference frequency of 100.0 cm-1

-------
ENTROPY
-------

The entropy contributions are T*S = T*(S(el)+S(vib)+S(rot)+S(trans))
     S(el)   - electronic entropy
     S(vib)  - vibrational entropy
     S(rot)  - rotational entropy
     S(trans)- translational entropy
The entropies will be listed as multiplied by the temperature to get
units of energy

Electronic entropy                ...      0.00000000 Eh      0.00 kcal/mol
Vibrational entropy               ...      0.00352300 Eh      2.21 kcal/mol
Rotational entropy                ...      0.01187197 Eh      7.45 kcal/mol
Translational entropy             ...      0.01838863 Eh     11.54 kcal/mol
-----------------------------------------------------------------------
Final entropy term                ...      0.03378360 Eh     21.20 kcal/mol

In case the symmetry of your molecule has not been determined correctly
or in case you have a reason to use a different symmetry number we print
out the resulting rotational entropy values for sn=1,12:

 non-linear molecules -----------------------------------
|  sn= 1 | S(rot)=       0.01187197 Eh      7.45 kcal/mol|
|  sn= 2 | S(rot)=       0.01121751 Eh      7.04 kcal/mol|
|  sn= 3 | S(rot)=       0.01083468 Eh      6.80 kcal/mol|
|  sn= 4 | S(rot)=       0.01056305 Eh      6.63 kcal/mol|
|  sn= 5 | S(rot)=       0.01035237 Eh      6.50 kcal/mol|
|  sn= 6 | S(rot)=       0.01018022 Eh      6.39 kcal/mol|
|  sn= 7 | S(rot)=       0.01003468 Eh      6.30 kcal/mol|
|  sn= 8 | S(rot)=       0.00990860 Eh      6.22 kcal/mol|
|  sn= 9 | S(rot)=       0.00979739 Eh      6.15 kcal/mol|
|  sn=10 | S(rot)=       0.00969791 Eh      6.09 kcal/mol|
|  sn=11 | S(rot)=       0.00960792 Eh      6.03 kcal/mol|
|  sn=12 | S(rot)=       0.00952576 Eh      5.98 kcal/mol|
 linear molecules ---------------------------------------
|  Dinfh | S(rot)=       0.00724716 Eh      4.55 kcal/mol|
|  Cinfv | S(rot)=       0.00790161 Eh      4.96 kcal/mol|
 --------------------------------------------------------

-------------------
GIBBS FREE ENERGY
-------------------

The Gibbs free energy is G = H - T*S

                             ****ORCA TERMINATED NORMALLY****
TOTAL RUN TIME: 0 days 0 hours 4 minutes 52 seconds 832 msec
