                         Program Version 6.0.0  -   RELEASE  -
|  1> !PBE0 aug-cc-pVTZ d3 TightSCF SlowConv RIJCOSX defgrid2
|  2>
|  3> %pal
|  4> nprocs 4
|  5> end
|  6>
|  7> %scf
|  8> MaxIter 1500
|  9> end
| 10>
| 11> %maxcore 3000
| 12>
| 13> !CPCM
| 14> %cpcm smd true
| 15> SMDsolvent "MeCN"
| 16> surfacetype gepol_ses
| 17> rsolv 2.19
| 18> end
| 19>
| 20> * xyz -1 2
| 21> C          -0.46059128201799      1.20494017119812      0.00001211596921
| 22> C           0.92271322931352      1.21537673965483      0.00007247103149
| 23> C           1.63885056458078      0.00584757553838      0.00005340465348
| 24> C           0.94016898670995     -1.22082416695804     -0.00001729460884
| 25> C          -0.43745517805739     -1.22871797254679     -0.00008369129513
| 26> C          -1.21082253995963     -0.01928165729328     -0.00007938241516
| 27> C          -2.64176417107169     -0.09933130049804     -0.00014945388498
| 28> O          -3.27680801972250     -1.18193238288940     -0.00022292736286
| 29> C          -3.42795564044194      1.21049531549301     -0.00017211433464
| 30> H          -3.21403956731584      1.83831096883377      0.88847865430575
| 31> H          -3.21389493669869      1.83838205326155     -0.88873743958169
| 32> H          -4.50069805080380      0.95600695488766     -0.00026718717856
| 33> H          -0.99549954367814     -2.16941515727402     -0.00014058350972
| 34> H           1.50562929532190     -2.15884116459823     -0.00002292839518
| 35> Cl          3.39541668285857      0.02068681811563      0.00014426998260
| 36> H           1.47138203008123      2.16312523531408      0.00014024216876
| 37> H          -0.98755245909833      2.16458456976078      0.00003664445548
| 38> *
| 39>
| 40>                          ****END OF INPUT****

CARTESIAN COORDINATES (ANGSTROEM)
---------------------------------
  C     -0.460591    1.204940    0.000012
  C      0.922713    1.215377    0.000072
  C      1.638851    0.005848    0.000053
  C      0.940169   -1.220824   -0.000017
  C     -0.437455   -1.228718   -0.000084
  C     -1.210823   -0.019282   -0.000079
  C     -2.641764   -0.099331   -0.000149
  O     -3.276808   -1.181932   -0.000223
  C     -3.427956    1.210495   -0.000172
  H     -3.214040    1.838311    0.888479
  H     -3.213895    1.838382   -0.888737
  H     -4.500698    0.956007   -0.000267
  H     -0.995500   -2.169415   -0.000141
  H      1.505629   -2.158841   -0.000023
  Cl     3.395417    0.020687    0.000144
  H      1.471382    2.163125    0.000140
  H     -0.987552    2.164585    0.000037

 Total Charge           Charge          ....   -1
 Multiplicity           Mult            ....    2
 Number of Electrons    NEL             ....   81
 Basis Dimension        Dim             ....  625

ORBITAL ENERGIES
----------------
                 SPIN UP ORBITALS
  NO   OCC          E(Eh)            E(eV)
   0   1.0000    -101.727001     -2768.1324
   1   1.0000     -19.133090      -520.6379
   2   1.0000     -10.259141      -279.1654
   3   1.0000     -10.245580      -278.7964
   4   1.0000     -10.217653      -278.0365
   5   1.0000     -10.217584      -278.0346
   6   1.0000     -10.211912      -277.8802
   7   1.0000     -10.206776      -277.7405
   8   1.0000     -10.199881      -277.5529
   9   1.0000     -10.195812      -277.4422
  10   1.0000      -9.528488      -259.2833
  11   1.0000      -7.263194      -197.6416
  12   1.0000      -7.255838      -197.4414
  13   1.0000      -7.255575      -197.4342
  14   1.0000      -0.999377       -27.1944
  15   1.0000      -0.892342       -24.2819
  16   1.0000      -0.837187       -22.7810
  17   1.0000      -0.757977       -20.6256
  18   1.0000      -0.750789       -20.4300
  19   1.0000      -0.707728       -19.2583
  20   1.0000      -0.618828       -16.8392
  21   1.0000      -0.603376       -16.4187
  22   1.0000      -0.542534       -14.7631
  23   1.0000      -0.490663       -13.3516
  24   1.0000      -0.460721       -12.5369
  25   1.0000      -0.444935       -12.1073
  26   1.0000      -0.430834       -11.7236
  27   1.0000      -0.422784       -11.5045
  28   1.0000      -0.416203       -11.3255
  29   1.0000      -0.393948       -10.7199
  30   1.0000      -0.388388       -10.5686
  31   1.0000      -0.377389       -10.2693
  32   1.0000      -0.353519        -9.6197
  33   1.0000      -0.348638        -9.4869
  34   1.0000      -0.331872        -9.0307
  35   1.0000      -0.322488        -8.7753
  36   1.0000      -0.311350        -8.4723
  37   1.0000      -0.263805        -7.1785
  38   1.0000      -0.244101        -6.6423
  39   1.0000      -0.224263        -6.1025
  40   1.0000      -0.106450        -2.8966
  41   0.0000       0.001730         0.0471
  42   0.0000       0.002382         0.0648
  43   0.0000       0.013138         0.3575
  44   0.0000       0.017991         0.4895
  45   0.0000       0.025768         0.7012

                 SPIN DOWN ORBITALS
  NO   OCC          E(Eh)            E(eV)
   0   1.0000    -101.726913     -2768.1300
   1   1.0000     -19.127386      -520.4826
   2   1.0000     -10.253874      -279.0221
   3   1.0000     -10.241842      -278.6947
   4   1.0000     -10.219000      -278.0731
   5   1.0000     -10.218874      -278.0697
   6   1.0000     -10.209555      -277.8161
   7   1.0000     -10.204338      -277.6742
   8   1.0000     -10.198519      -277.5158
   9   1.0000     -10.196160      -277.4516
  10   1.0000      -9.528398      -259.2809
  11   1.0000      -7.263388      -197.6468
  12   1.0000      -7.255527      -197.4329
  13   1.0000      -7.255278      -197.4262
  14   1.0000      -0.988355       -26.8945
  15   1.0000      -0.888016       -24.1641
  16   1.0000      -0.833887       -22.6912
  17   1.0000      -0.753955       -20.5162
  18   1.0000      -0.745099       -20.2752
  19   1.0000      -0.705465       -19.1967
  20   1.0000      -0.609032       -16.5726
  21   1.0000      -0.601112       -16.3571
  22   1.0000      -0.538737       -14.6598
  23   1.0000      -0.486127       -13.2282
  24   1.0000      -0.458546       -12.4777
  25   1.0000      -0.441042       -12.0014
  26   1.0000      -0.429601       -11.6900
  27   1.0000      -0.415606       -11.3092
  28   1.0000      -0.410364       -11.1666
  29   1.0000      -0.384058       -10.4507
  30   1.0000      -0.383097       -10.4246
  31   1.0000      -0.376272       -10.2389
  32   1.0000      -0.351106        -9.5541
  33   1.0000      -0.334953        -9.1145
  34   1.0000      -0.330793        -9.0013
  35   1.0000      -0.310778        -8.4567
  36   1.0000      -0.303063        -8.2468
  37   1.0000      -0.253609        -6.9010
  38   1.0000      -0.221517        -6.0278
  39   1.0000      -0.219298        -5.9674
  40   0.0000      -0.022172        -0.6033
  41   0.0000       0.003815         0.1038
  42   0.0000       0.006687         0.1820
  43   0.0000       0.014610         0.3976
  44   0.0000       0.020266         0.5515

MULLIKEN ATOMIC CHARGES AND SPIN POPULATIONS
--------------------------------------------
   0 C :   -0.570359    0.198215
   1 C :   -0.968377   -0.070103
   2 C :    0.375767    0.282425
   3 C :   -0.822373   -0.070279
   4 C :   -0.977313    0.185725
   5 C :    1.454184    0.102769
   6 C :    0.428303    0.186260
   7 O :   -1.044952    0.216097
   8 C :   -0.703626   -0.016361
   9 H :    0.263739    0.009022
  10 H :    0.264707    0.009003
  11 H :    0.163920    0.000066
  12 H :    0.301728   -0.024582
  13 H :    0.533155   -0.002323
  14 Cl:   -0.458856    0.016887
  15 H :    0.503693    0.001026
  16 H :    0.256657   -0.023847
Sum of atomic charges         :   -1.0000000

LOEWDIN ATOMIC CHARGES AND SPIN POPULATIONS
-------------------------------------------
   0 C :    0.140720    0.089364
   1 C :    0.047248    0.030268
   2 C :   -0.818116    0.146802
   3 C :    0.047029    0.029014
   4 C :    0.126512    0.088420
   5 C :   -0.210798    0.122621
   6 C :   -0.676386    0.172381
   7 O :    0.346068    0.193280
   8 C :    0.495936    0.032014
   9 H :   -0.175332    0.008040
  10 H :   -0.175367    0.008039
  11 H :   -0.200505   -0.000710
  12 H :   -0.211212    0.019687
  13 H :   -0.204365   -0.004317
  14 Cl:    0.871740    0.049523
  15 H :   -0.203268   -0.003820
  16 H :   -0.199903    0.019393

  Mayer bond orders larger than 0.100000
B(  0-C ,  1-C ) :   1.3738 B(  0-C ,  3-C ) :  -0.1181 B(  0-C ,  4-C ) :  -0.3821
B(  0-C ,  5-C ) :   0.3139 B(  0-C ,  6-C ) :   0.1228 B(  0-C , 16-H ) :   1.0464
B(  1-C ,  2-C ) :   1.2967 B(  1-C ,  3-C ) :   0.1144 B(  1-C , 14-Cl) :   0.1026
B(  1-C , 15-H ) :   0.5315 B(  2-C ,  3-C ) :   1.3008 B(  2-C , 14-Cl) :   0.4482
B(  3-C ,  4-C ) :   1.6033 B(  3-C , 13-H ) :   0.5257 B(  3-C , 14-Cl) :   0.1171
B(  4-C ,  5-C ) :   0.2477 B(  4-C ,  6-C ) :   0.2927 B(  4-C , 12-H ) :   0.8527
B(  5-C ,  6-C ) :   0.5013 B(  5-C ,  7-O ) :   0.1814 B(  6-C ,  7-O ) :   0.7004
B(  6-C ,  8-C ) :   0.9785 B(  7-O , 12-H ) :   0.1103 B(  8-C ,  9-H ) :   0.9265
B(  8-C , 10-H ) :   0.9259 B(  8-C , 11-H ) :   0.9784

Dispersion correction           -0.016991767
FINAL SINGLE POINT ENERGY      -844.165225616398

DIPOLE MOMENT
-------------

Method             : SCF
Type of density    : Electron Density
Multiplicity       :   2
Irrep              :   0
Energy             :  -844.1482338498781246 Eh
Relativity type    :
Basis              : AO
                                X                 Y                 Z
Electronic contribution:     16.024170096      -2.874023836       0.001242736
Nuclear contribution   :    -13.986086072       4.323351945      -0.000564645
                        -----------------------------------------
Total Dipole Moment    :      2.038084023       1.449328109       0.000678091
                        -----------------------------------------
Magnitude (a.u.)       :      2.500867632
Magnitude (Debye)      :      6.356700346

Rotational constants in cm-1:             0.120838             0.018120             0.015805
Rotational constants in MHz :          3622.634829           543.238146           473.808861

                             ****ORCA TERMINATED NORMALLY****
TOTAL RUN TIME: 0 days 0 hours 6 minutes 59 seconds 369 msec
