                         Program Version 6.0.0  -   RELEASE  -
|  1> !PBE0 aug-cc-pVTZ d3 TightSCF SlowConv RIJCOSX defgrid2
|  2>
|  3> %pal
|  4> nprocs 4
|  5> end
|  6>
|  7> %scf
|  8> MaxIter 1500
|  9> end
| 10>
| 11> %maxcore 3000
| 12>
| 13> !CPCM
| 14> %cpcm smd true
| 15> SMDsolvent "MeCN"
| 16> surfacetype gepol_ses
| 17> rsolv 2.19
| 18> end
| 19>
| 20> * xyz 0 1
| 21> C           0.86930262577353     -1.20261880029345      0.00017105333715
| 22> C           1.23795362702926      0.14976029336823      0.00011888618076
| 23> C           0.20861669065532      1.10178711313028      0.00004997159606
| 24> C          -1.14266539481067      0.75277814049696     -0.00001496332606
| 25> C          -1.49510132454858     -0.61091836423424      0.00001993066330
| 26> C          -0.47134803669840     -1.56560486246111      0.00011663608289
| 27> H          -0.73825756953350     -2.62759517616832      0.00016986000597
| 28> C          -2.93561352812274     -1.03199819846802     -0.00003268925957
| 29> H          -3.03042597379354     -2.12984128685189      0.00005376751285
| 30> H          -3.47239583982485     -0.64683793793607     -0.88649052066934
| 31> H          -3.47250072897996     -0.64668878799144      0.88629702354134
| 32> C          -2.20261220725801      1.81656948866912     -0.00009254079027
| 33> H          -2.85825633400454      1.73802365829102      0.88648022833246
| 34> H          -2.85834169985167      1.73782693594634     -0.88658224699833
| 35> H          -1.75673523006564      2.82424393630291     -0.00022124376864
| 36> H           0.47747434540426      2.16407970597621      0.00002545328680
| 37> C           2.63224685704945      0.60848489545892      0.00012709034736
| 38> C           3.73948848691454     -0.14591897511127     -0.00036178438147
| 39> H           3.70645882304827     -1.24152951701146     -0.00086807767724
| 40> H           4.73244049250843      0.31559854639130     -0.00029313441000
| 41> H           2.75218557093434      1.69979268676539      0.00055539249904
| 42> H           1.63531784817470     -1.98284589426942      0.00029190789491
| 43> *
| 44>
| 45>                          ****END OF INPUT****

CARTESIAN COORDINATES (ANGSTROEM)
---------------------------------
  C      0.869303   -1.202619    0.000171
  C      1.237954    0.149760    0.000119
  C      0.208617    1.101787    0.000050
  C     -1.142665    0.752778   -0.000015
  C     -1.495101   -0.610918    0.000020
  C     -0.471348   -1.565605    0.000117
  H     -0.738258   -2.627595    0.000170
  C     -2.935614   -1.031998   -0.000033
  H     -3.030426   -2.129841    0.000054
  H     -3.472396   -0.646838   -0.886491
  H     -3.472501   -0.646689    0.886297
  C     -2.202612    1.816569   -0.000093
  H     -2.858256    1.738024    0.886480
  H     -2.858342    1.737827   -0.886582
  H     -1.756735    2.824244   -0.000221
  H      0.477474    2.164080    0.000025
  C      2.632247    0.608485    0.000127
  C      3.739488   -0.145919   -0.000362
  H      3.706459   -1.241530   -0.000868
  H      4.732440    0.315599   -0.000293
  H      2.752186    1.699793    0.000555
  H      1.635318   -1.982846    0.000292

 Total Charge           Charge          ....    0
 Multiplicity           Mult            ....    1
 Number of Electrons    NEL             ....   72
 Basis Dimension        Dim             ....  736

ORBITAL ENERGIES
----------------

  NO   OCC          E(Eh)            E(eV)
   0   2.0000     -10.238243      -278.5967
   1   2.0000     -10.237697      -278.5819
   2   2.0000     -10.237071      -278.5649
   3   2.0000     -10.234198      -278.4867
   4   2.0000     -10.227139      -278.2946
   5   2.0000     -10.226318      -278.2722
   6   2.0000     -10.226278      -278.2712
   7   2.0000     -10.221057      -278.1291
   8   2.0000     -10.215885      -277.9884
   9   2.0000     -10.215731      -277.9842
  10   2.0000      -0.891808       -24.2673
  11   2.0000      -0.826420       -22.4880
  12   2.0000      -0.787336       -21.4245
  13   2.0000      -0.768550       -20.9133
  14   2.0000      -0.715786       -19.4775
  15   2.0000      -0.687529       -18.7086
  16   2.0000      -0.619714       -16.8633
  17   2.0000      -0.613864       -16.7041
  18   2.0000      -0.555943       -15.1280
  19   2.0000      -0.511121       -13.9083
  20   2.0000      -0.493732       -13.4351
  21   2.0000      -0.460783       -12.5385
  22   2.0000      -0.443744       -12.0749
  23   2.0000      -0.440385       -11.9835
  24   2.0000      -0.425156       -11.5691
  25   2.0000      -0.417376       -11.3574
  26   2.0000      -0.402798       -10.9607
  27   2.0000      -0.389566       -10.6006
  28   2.0000      -0.388601       -10.5744
  29   2.0000      -0.380131       -10.3439
  30   2.0000      -0.367782       -10.0079
  31   2.0000      -0.345345        -9.3973
  32   2.0000      -0.338764        -9.2182
  33   2.0000      -0.308263        -8.3883
  34   2.0000      -0.260823        -7.0974
  35   2.0000      -0.233005        -6.3404
  36   0.0000      -0.040051        -1.0898
  37   0.0000      -0.007726        -0.2102
  38   0.0000       0.001937         0.0527
  39   0.0000       0.011005         0.2995
  40   0.0000       0.014977         0.4076

MULLIKEN ATOMIC CHARGES
-----------------------
   0 C :   -0.502444
   1 C :    1.638187
   2 C :   -1.088090
   3 C :    0.418181
   4 C :    0.582124
   5 C :   -1.280891
   6 H :    0.286777
   7 C :   -0.773965
   8 H :    0.148472
   9 H :    0.257312
  10 H :    0.257308
  11 C :   -0.773198
  12 H :    0.260078
  13 H :    0.259526
  14 H :    0.141510
  15 H :   -0.029290
  16 C :   -0.041664
  17 C :   -1.014702
  18 H :    0.333866
  19 H :    0.269354
  20 H :    0.253685
  21 H :    0.397863
Sum of atomic charges:   -0.0000000

LOEWDIN ATOMIC CHARGES
----------------------
   0 C :    0.201432
   1 C :   -0.158773
   2 C :    0.217224
   3 C :   -0.112012
   4 C :   -0.116840
   5 C :    0.212782
   6 H :   -0.163958
   7 C :    0.568633
   8 H :   -0.163999
   9 H :   -0.151740
  10 H :   -0.151724
  11 C :    0.570204
  12 H :   -0.151514
  13 H :   -0.151521
  14 H :   -0.163614
  15 H :   -0.163690
  16 C :    0.155088
  17 C :    0.514504
  18 H :   -0.216800
  19 H :   -0.211237
  20 H :   -0.185090
  21 H :   -0.177352

  Mayer bond orders larger than 0.100000
B(  0-C ,  1-C ) :   0.4897 B(  0-C ,  2-C ) :  -0.7572 B(  0-C ,  3-C ) :  -0.1281
B(  0-C ,  5-C ) :   1.0367 B(  0-C , 11-C ) :   0.1070 B(  0-C , 16-C ) :   0.2550
B(  0-C , 21-H ) :   1.0561 B(  1-C ,  3-C ) :   0.3184 B(  1-C ,  4-C ) :  -0.2970
B(  1-C ,  7-C ) :   0.1173 B(  1-C , 15-H ) :  -0.1978 B(  1-C , 16-C ) :   0.1655
B(  1-C , 17-C ) :  -0.1704 B(  2-C ,  3-C ) :   0.8132 B(  2-C ,  4-C ) :  -0.2678
B(  2-C ,  5-C ) :   0.2096 B(  2-C , 11-C ) :  -0.2585 B(  2-C , 15-H ) :   1.8335
B(  2-C , 20-H ) :  -0.1395 B(  3-C ,  4-C ) :   1.4098 B(  3-C ,  5-C ) :   0.2316
B(  3-C ,  7-C ) :   0.1667 B(  3-C , 11-C ) :   0.1995 B(  3-C , 20-H ) :   0.1185
B(  3-C , 21-H ) :  -0.1633 B(  4-C ,  5-C ) :   0.8396 B(  4-C ,  6-H ) :   0.1643
B(  4-C ,  7-C ) :   0.4380 B(  4-C , 11-C ) :   0.3949 B(  4-C , 16-C ) :   0.1280
B(  5-C ,  6-H ) :   0.8064 B(  5-C ,  7-C ) :  -0.2157 B(  5-C , 17-C ) :  -0.1066
B(  5-C , 21-H ) :  -0.1130 B(  7-C ,  8-H ) :   1.0024 B(  7-C ,  9-H ) :   0.9607
B(  7-C , 10-H ) :   0.9622 B( 11-C , 12-H ) :   0.9546 B( 11-C , 13-H ) :   0.9538
B( 11-C , 14-H ) :   1.0069 B( 15-H , 16-C ) :  -0.1516 B( 16-C , 17-C ) :   1.1683
B( 16-C , 20-H ) :   0.9211 B( 17-C , 18-H ) :   0.9719 B( 17-C , 19-H ) :   0.8933
B( 17-C , 20-H ) :  -0.1426

Dispersion correction           -0.020182978
FINAL SINGLE POINT ENERGY      -387.966630530754

DIPOLE MOMENT
-------------

Method             : SCF
Type of density    : Electron Density
Multiplicity       :   1
Irrep              :   0
Energy             :  -387.9464475526335150 Eh
Relativity type    :
Basis              : AO
                                X                 Y                 Z
Electronic contribution:      4.016184405      -1.066021826       0.000625235
Nuclear contribution   :     -4.612312787       1.157001157      -0.000599620
                        -----------------------------------------
Total Dipole Moment    :     -0.596128382       0.090979330       0.000025615
                        -----------------------------------------
Magnitude (a.u.)       :      0.603030917
Magnitude (Debye)      :      1.532782779

Rotational constants in cm-1:             0.097441             0.028572             0.022278
Rotational constants in MHz :          2921.210321           856.555703           667.890460

                             ****ORCA TERMINATED NORMALLY****
TOTAL RUN TIME: 0 days 0 hours 6 minutes 46 seconds 201 msec
