                         Program Version 6.0.0  -   RELEASE  -
|  1> !B3LYP aug-cc-pVTZ d3 TightSCF SlowConv RIJCOSX defgrid2
|  2>
|  3> %pal
|  4> nprocs 4
|  5> end
|  6>
|  7> %scf
|  8> MaxIter 1500
|  9> end
| 10>
| 11> %maxcore 3000
| 12>
| 13> !CPCM
| 14> %cpcm smd true
| 15> SMDsolvent "MeCN"
| 16> surfacetype gepol_ses
| 17> rsolv 2.19
| 18> end
| 19>
| 20> * xyz 0 1
| 21> C           0.94968287453071     -1.27993729727395      0.00000683726847
| 22> C           2.32072584922403     -1.03066468402730     -0.00000570192654
| 23> C           2.79045486785265      0.28126328538775     -0.00000619644263
| 24> C           1.88129493900205      1.34320110702256      0.00000552102250
| 25> C           0.51414900986878      1.09690334373603      0.00001977591165
| 26> C           0.03124775758730     -0.22186358373352      0.00001975571628
| 27> C          -1.40109719375212     -0.51811607942485      0.00002773818787
| 28> N          -2.27722630544222      0.40983670208196      0.00003187543002
| 29> O          -3.54943597920683     -0.07892856387383      0.00003589961153
| 30> H          -4.10699565150034      0.71269395667835      0.00004041054052
| 31> H          -1.72077053189788     -1.57247842719527      0.00002621709873
| 32> H          -0.20517984986564      1.91961492482438      0.00002936627338
| 33> H           2.24665800678188      2.37456842670514      0.00000344087776
| 34> H           3.86637191838654      0.47947397298735     -0.00001641660649
| 35> H           3.02594458116043     -1.86704493909579     -0.00001599324974
| 36> H           0.58187010727067     -2.31112044479903      0.00000487028669
| 37> *
| 38>
| 39>                          ****END OF INPUT****

CARTESIAN COORDINATES (ANGSTROEM)
---------------------------------
  C      0.949683   -1.279937    0.000007
  C      2.320726   -1.030665   -0.000006
  C      2.790455    0.281263   -0.000006
  C      1.881295    1.343201    0.000006
  C      0.514149    1.096903    0.000020
  C      0.031248   -0.221864    0.000020
  C     -1.401097   -0.518116    0.000028
  N     -2.277226    0.409837    0.000032
  O     -3.549436   -0.078929    0.000036
  H     -4.106996    0.712694    0.000040
  H     -1.720771   -1.572478    0.000026
  H     -0.205180    1.919615    0.000029
  H      2.246658    2.374568    0.000003
  H      3.866372    0.479474   -0.000016
  H      3.025945   -1.867045   -0.000016
  H      0.581870   -2.311120    0.000005

 Total Charge           Charge          ....    0
 Multiplicity           Mult            ....    1
 Number of Electrons    NEL             ....   64
 Basis Dimension        Dim             ....  575

ORBITAL ENERGIES
----------------

  NO   OCC          E(Eh)            E(eV)
   0   2.0000     -19.178636      -521.8772
   1   2.0000     -14.372134      -391.0856
   2   2.0000     -10.211194      -277.8607
   3   2.0000     -10.193130      -277.3692
   4   2.0000     -10.181561      -277.0544
   5   2.0000     -10.179740      -277.0048
   6   2.0000     -10.179433      -276.9964
   7   2.0000     -10.178890      -276.9817
   8   2.0000     -10.178685      -276.9761
   9   2.0000      -1.105295       -30.0766
  10   2.0000      -0.882867       -24.0240
  11   2.0000      -0.848957       -23.1013
  12   2.0000      -0.756120       -20.5751
  13   2.0000      -0.748037       -20.3551
  14   2.0000      -0.640299       -17.4234
  15   2.0000      -0.609575       -16.5874
  16   2.0000      -0.570049       -15.5118
  17   2.0000      -0.535603       -14.5745
  18   2.0000      -0.513735       -13.9795
  19   2.0000      -0.474021       -12.8988
  20   2.0000      -0.454516       -12.3680
  21   2.0000      -0.437612       -11.9080
  22   2.0000      -0.432667       -11.7735
  23   2.0000      -0.420254       -11.4357
  24   2.0000      -0.412536       -11.2257
  25   2.0000      -0.379172       -10.3178
  26   2.0000      -0.351869        -9.5749
  27   2.0000      -0.343375        -9.3437
  28   2.0000      -0.301860        -8.2140
  29   2.0000      -0.287990        -7.8366
  30   2.0000      -0.261295        -7.1102
  31   2.0000      -0.234141        -6.3713
  32   0.0000      -0.053320        -1.4509
  33   0.0000      -0.017138        -0.4664
  34   0.0000      -0.002967        -0.0807
  35   0.0000       0.003399         0.0925
  36   0.0000       0.012673         0.3448

MULLIKEN ATOMIC CHARGES
-----------------------
   0 C :   -1.002501
   1 C :   -0.559257
   2 C :   -0.207828
   3 C :   -0.709888
   4 C :   -0.660608
   5 C :    1.855761
   6 C :   -0.071824
   7 N :   -0.444216
   8 O :   -0.324414
   9 H :    0.174595
  10 H :    0.441122
  11 H :    0.029270
  12 H :    0.550943
  13 H :    0.379983
  14 H :    0.577259
  15 H :   -0.028399
Sum of atomic charges:   -0.0000000

LOEWDIN ATOMIC CHARGES
----------------------
   0 C :    0.192782
   1 C :    0.189807
   2 C :    0.186096
   3 C :    0.189268
   4 C :    0.186108
   5 C :   -0.179411
   6 C :   -0.021098
   7 N :    0.113953
   8 O :    0.667066
   9 H :   -0.503339
  10 H :   -0.171240
  11 H :   -0.184258
  12 H :   -0.167558
  13 H :   -0.167990
  14 H :   -0.167110
  15 H :   -0.163076

  Mayer bond orders larger than 0.100000
B(  0-C ,  1-C ) :   1.1769 B(  0-C ,  2-C ) :  -0.1694 B(  0-C ,  4-C ) :  -0.4719
B(  0-C ,  6-C ) :   0.1550 B(  0-C , 11-H ) :   0.1336 B(  0-C , 13-H ) :   0.1098
B(  0-C , 14-H ) :  -0.2099 B(  0-C , 15-H ) :   1.7684 B(  1-C ,  2-C ) :   1.2377
B(  1-C ,  3-C ) :   0.1703 B(  1-C , 14-H ) :   0.4578 B(  1-C , 15-H ) :  -0.1372
B(  2-C ,  3-C ) :   1.1674 B(  2-C ,  4-C ) :  -0.1875 B(  2-C ,  5-C ) :  -0.1111
B(  2-C ,  6-C ) :   0.1423 B(  2-C , 13-H ) :   0.7781 B(  3-C ,  4-C ) :   1.1564
B(  3-C ,  5-C ) :   0.1371 B(  3-C , 12-H ) :   0.4714 B(  3-C , 15-H ) :  -0.1042
B(  4-C ,  5-C ) :   0.4735 B(  4-C ,  6-C ) :   0.3049 B(  4-C , 11-H ) :   1.3728
B(  4-C , 12-H ) :  -0.1001 B(  4-C , 15-H ) :   0.1310 B(  5-C ,  7-N ) :  -0.1536
B(  5-C , 11-H ) :  -0.2104 B(  5-C , 12-H ) :   0.1033 B(  5-C , 14-H ) :   0.1513
B(  5-C , 15-H ) :  -0.2797 B(  6-C ,  7-N ) :   1.1343 B(  6-C , 10-H ) :   0.6018
B(  6-C , 15-H ) :  -0.1185 B(  7-N ,  8-O ) :   0.6473 B(  8-O ,  9-H ) :   0.9899
B( 11-H , 15-H ) :   0.1878

Dispersion correction           -0.027352121
FINAL SINGLE POINT ENERGY      -400.832478241816

DIPOLE MOMENT
-------------

Method             : SCF
Type of density    : Electron Density
Multiplicity       :   1
Irrep              :   0
Energy             :  -400.8051261206526874 Eh
Relativity type    :
Basis              : AO
                                X                 Y                 Z
Electronic contribution:     -3.055804784       0.151904768       0.000061194
Nuclear contribution   :      3.386800554      -0.260850522      -0.000035535
                        -----------------------------------------
Total Dipole Moment    :      0.330995769      -0.108945754       0.000025659
                        -----------------------------------------
Magnitude (a.u.)       :      0.348464313
Magnitude (Debye)      :      0.885725893

Rotational constants in cm-1:             0.173273             0.029980             0.025558
Rotational constants in MHz :          5194.584681           898.778188           766.207349

                             ****ORCA TERMINATED NORMALLY****
TOTAL RUN TIME: 0 days 0 hours 3 minutes 44 seconds 811 msec
