                         Program Version 6.0.0  -   RELEASE  -
|  1> !r2SCANh aug-cc-pVTZ d3 TightSCF SlowConv RIJCOSX defgrid2
|  2>
|  3> %pal
|  4> nprocs 4
|  5> end
|  6>
|  7> %scf
|  8> MaxIter 1500
|  9> end
| 10>
| 11> %maxcore 3000
| 12>
| 13> !CPCM
| 14> %cpcm smd true
| 15> SMDsolvent "MeCN"
| 16> surfacetype gepol_ses
| 17> rsolv 2.19
| 18> end
| 19>
| 20> * xyz 1 2
| 21> C           0.46714487133843     -1.31596872615065      0.00043307960453
| 22> C           1.40171557217885     -0.23770807732832      0.00025638478659
| 23> C           0.88407949479514      1.09158487284969      0.00004092926418
| 24> C          -0.46712830128476      1.31604469822195      0.00000295911120
| 25> C          -1.40170089628676      0.23778263147851      0.00017108805360
| 26> C          -0.88406255954178     -1.09151075505496      0.00038804805116
| 27> H          -1.56465680467619     -1.94551717434521      0.00051308611121
| 28> C          -2.79688855585044      0.54394549069400      0.00010405022453
| 29> C          -3.82430179119378     -0.36186733524039      0.00028564609405
| 30> C          -5.25538349314657     -0.00243324194906      0.00029381155554
| 31> H          -5.75917453342121     -0.44813816832529     -0.87970790560214
| 32> H          -5.42346358891650      1.08552343691300     -0.00039098136190
| 33> H          -5.75876746290359     -0.44688449439862      0.88117967002482
| 34> H          -3.59373242007271     -1.43478557196118      0.00051686705574
| 35> H          -3.05807707707141      1.60899060395392     -0.00011509029154
| 36> H          -0.84761071039142      2.34119359797197     -0.00016682822425
| 37> H           1.56466696644477      1.94559472915825     -0.00010365132895
| 38> C           2.79689693733142     -0.54387663280000      0.00029128970272
| 39> C           3.82431604801398      0.36192101310663      0.00012996933116
| 40> C           5.25539100174106      0.00246938598978      0.00017091184030
| 41> H           5.75904846017879      0.44783593741242      0.88042381529925
| 42> H           5.75892633220905      0.44725096613417     -0.88045536326881
| 43> H           5.42345877365595     -1.08548600733987      0.00050393935968
| 44> H           3.59376340127937      1.43483964875828     -0.00005091579321
| 45> H           3.05807564363531     -1.60891817616373      0.00047196102492
| 46> H           0.84762319195501     -2.34111455158529      0.00059172937562
| 47> *
| 48>
| 49>                          ****END OF INPUT****

CARTESIAN COORDINATES (ANGSTROEM)
---------------------------------
  C      0.467145   -1.315969    0.000433
  C      1.401716   -0.237708    0.000256
  C      0.884079    1.091585    0.000041
  C     -0.467128    1.316045    0.000003
  C     -1.401701    0.237783    0.000171
  C     -0.884063   -1.091511    0.000388
  H     -1.564657   -1.945517    0.000513
  C     -2.796889    0.543945    0.000104
  C     -3.824302   -0.361867    0.000286
  C     -5.255383   -0.002433    0.000294
  H     -5.759175   -0.448138   -0.879708
  H     -5.423464    1.085523   -0.000391
  H     -5.758767   -0.446884    0.881180
  H     -3.593732   -1.434786    0.000517
  H     -3.058077    1.608991   -0.000115
  H     -0.847611    2.341194   -0.000167
  H      1.564667    1.945595   -0.000104
  C      2.796897   -0.543877    0.000291
  C      3.824316    0.361921    0.000130
  C      5.255391    0.002469    0.000171
  H      5.759048    0.447836    0.880424
  H      5.758926    0.447251   -0.880455
  H      5.423459   -1.085486    0.000504
  H      3.593763    1.434840   -0.000051
  H      3.058076   -1.608918    0.000472
  H      0.847623   -2.341115    0.000592

 Total Charge           Charge          ....    1
 Multiplicity           Mult            ....    2
 Number of Electrons    NEL             ....   85
 Basis Dimension        Dim             ....  874

ORBITAL ENERGIES
----------------
                 SPIN UP ORBITALS
  NO   OCC          E(Eh)            E(eV)
   0   1.0000     -10.220506      -278.1141
   1   1.0000     -10.220490      -278.1137
   2   1.0000     -10.212347      -277.8921
   3   1.0000     -10.212341      -277.8919
   4   1.0000     -10.194609      -277.4094
   5   1.0000     -10.194592      -277.4090
   6   1.0000     -10.193017      -277.3661
   7   1.0000     -10.193014      -277.3660
   8   1.0000     -10.192641      -277.3559
   9   1.0000     -10.192622      -277.3553
  10   1.0000     -10.163621      -276.5662
  11   1.0000     -10.163620      -276.5662
  12   1.0000      -0.902224       -24.5508
  13   1.0000      -0.852277       -23.1916
  14   1.0000      -0.822132       -22.3714
  15   1.0000      -0.785049       -21.3623
  16   1.0000      -0.778641       -21.1879
  17   1.0000      -0.725769       -19.7492
  18   1.0000      -0.681917       -18.5559
  19   1.0000      -0.645407       -17.5624
  20   1.0000      -0.619362       -16.8537
  21   1.0000      -0.581274       -15.8173
  22   1.0000      -0.563760       -15.3407
  23   1.0000      -0.527996       -14.3675
  24   1.0000      -0.498071       -13.5532
  25   1.0000      -0.486891       -13.2490
  26   1.0000      -0.455427       -12.3928
  27   1.0000      -0.436360       -11.8740
  28   1.0000      -0.434936       -11.8352
  29   1.0000      -0.426721       -11.6117
  30   1.0000      -0.420960       -11.4549
  31   1.0000      -0.418854       -11.3976
  32   1.0000      -0.410450       -11.1689
  33   1.0000      -0.407246       -11.0817
  34   1.0000      -0.382954       -10.4207
  35   1.0000      -0.370975       -10.0947
  36   1.0000      -0.364422        -9.9164
  37   1.0000      -0.359311        -9.7774
  38   1.0000      -0.350239        -9.5305
  39   1.0000      -0.342339        -9.3155
  40   1.0000      -0.288213        -7.8427
  41   1.0000      -0.286319        -7.7911
  42   1.0000      -0.239646        -6.5211
  43   0.0000      -0.112131        -3.0512
  44   0.0000      -0.050043        -1.3617
  45   0.0000      -0.036484        -0.9928
  46   0.0000       0.007952         0.2164
  47   0.0000       0.016921         0.4604

                 SPIN DOWN ORBITALS
  NO   OCC          E(Eh)            E(eV)
   0   1.0000     -10.217401      -278.0296
   1   1.0000     -10.217387      -278.0292
   2   1.0000     -10.206398      -277.7302
   3   1.0000     -10.206392      -277.7301
   4   1.0000     -10.194108      -277.3958
   5   1.0000     -10.194092      -277.3954
   6   1.0000     -10.193855      -277.3889
   7   1.0000     -10.193851      -277.3888
   8   1.0000     -10.192518      -277.3525
   9   1.0000     -10.192500      -277.3520
  10   1.0000     -10.163852      -276.5725
  11   1.0000     -10.163851      -276.5725
  12   1.0000      -0.896610       -24.3980
  13   1.0000      -0.844503       -22.9801
  14   1.0000      -0.812480       -22.1087
  15   1.0000      -0.780509       -21.2387
  16   1.0000      -0.772844       -21.0301
  17   1.0000      -0.726084       -19.7577
  18   1.0000      -0.677566       -18.4375
  19   1.0000      -0.641259       -17.4495
  20   1.0000      -0.614352       -16.7174
  21   1.0000      -0.576627       -15.6908
  22   1.0000      -0.559595       -15.2273
  23   1.0000      -0.526440       -14.3251
  24   1.0000      -0.496735       -13.5169
  25   1.0000      -0.485091       -13.2000
  26   1.0000      -0.452777       -12.3207
  27   1.0000      -0.436197       -11.8695
  28   1.0000      -0.433952       -11.8084
  29   1.0000      -0.417238       -11.3536
  30   1.0000      -0.413658       -11.2562
  31   1.0000      -0.409868       -11.1531
  32   1.0000      -0.409213       -11.1353
  33   1.0000      -0.396032       -10.7766
  34   1.0000      -0.381132       -10.3711
  35   1.0000      -0.370148       -10.0722
  36   1.0000      -0.363706        -9.8970
  37   1.0000      -0.358236        -9.7481
  38   1.0000      -0.340708        -9.2711
  39   1.0000      -0.334322        -9.0974
  40   1.0000      -0.283895        -7.7252
  41   1.0000      -0.267945        -7.2912
  42   0.0000      -0.186414        -5.0726
  43   0.0000      -0.081966        -2.2304
  44   0.0000      -0.041471        -1.1285
  45   0.0000      -0.017774        -0.4837
  46   0.0000       0.008559         0.2329

MULLIKEN ATOMIC CHARGES AND SPIN POPULATIONS
--------------------------------------------
   0 C :   -1.168800   -0.022005
   1 C :    2.276079    0.226146
   2 C :   -0.650645   -0.001880
   3 C :   -1.166624   -0.021846
   4 C :    2.267289    0.226277
   5 C :   -0.640289   -0.002067
   6 H :   -0.053229   -0.009166
   7 C :    0.157190   -0.053787
   8 C :   -0.171424    0.313227
   9 C :   -0.855248   -0.040177
  10 H :    0.191104    0.030149
  11 H :    0.260529   -0.006238
  12 H :    0.191089    0.030150
  13 H :    0.262469    0.023836
  14 H :    0.038207    0.004063
  15 H :    0.021674    0.005599
  16 H :   -0.050428   -0.009110
  17 C :    0.149350   -0.053713
  18 C :   -0.166513    0.313156
  19 C :   -0.866028   -0.040132
  20 H :    0.189820    0.030148
  21 H :    0.188901    0.030159
  22 H :    0.266342   -0.006241
  23 H :    0.276975    0.023738
  24 H :    0.026654    0.004130
  25 H :    0.025558    0.005583
Sum of atomic charges         :    1.0000000

LOEWDIN ATOMIC CHARGES AND SPIN POPULATIONS
-------------------------------------------
   0 C :    0.263413    0.032028
   1 C :   -0.090265    0.092203
   2 C :    0.266420    0.038904
   3 C :    0.263415    0.032028
   4 C :   -0.090272    0.092203
   5 C :    0.266424    0.038904
   6 H :   -0.163614    0.002251
   7 C :    0.264871    0.054949
   8 C :    0.274446    0.170328
   9 C :    0.599133    0.054734
  10 H :   -0.145224    0.012053
  11 H :   -0.159171    0.000885
  12 H :   -0.145159    0.012070
  13 H :   -0.157334    0.030960
  14 H :   -0.160690   -0.002502
  15 H :   -0.146820    0.001138
  16 H :   -0.163614    0.002251
  17 C :    0.264866    0.054949
  18 C :    0.274449    0.170326
  19 C :    0.599126    0.054734
  20 H :   -0.145218    0.012058
  21 H :   -0.145169    0.012065
  22 H :   -0.159163    0.000885
  23 H :   -0.157330    0.030960
  24 H :   -0.160698   -0.002501
  25 H :   -0.146823    0.001137

  Mayer bond orders larger than 0.100000
B(  0-C ,  1-C ) :  -0.3484 B(  0-C ,  2-C ) :  -0.5982 B(  0-C ,  3-C ) :   0.2304
B(  0-C ,  5-C ) :   1.2064 B(  0-C ,  8-C ) :  -0.1205 B(  0-C , 25-H ) :   1.5474
B(  1-C ,  4-C ) :  -0.2406 B(  1-C ,  7-C ) :   0.3771 B(  1-C , 16-H ) :  -0.3093
B(  1-C , 17-C ) :   0.3379 B(  1-C , 18-C ) :  -0.1048 B(  1-C , 23-H ) :  -0.1274
B(  1-C , 25-H ) :  -0.3015 B(  2-C ,  3-C ) :   1.2019 B(  2-C ,  5-C ) :  -0.4182
B(  2-C ,  6-H ) :  -0.2789 B(  2-C ,  7-C ) :  -0.1023 B(  2-C ,  8-C ) :   0.1008
B(  2-C , 15-H ) :  -0.1788 B(  2-C , 16-H ) :   1.7301 B(  2-C , 17-C ) :   0.1913
B(  2-C , 25-H ) :   0.1102 B(  3-C ,  4-C ) :  -0.3415 B(  3-C ,  5-C ) :  -0.5947
B(  3-C , 15-H ) :   1.5522 B(  3-C , 18-C ) :  -0.1392 B(  4-C ,  6-H ) :  -0.3126
B(  4-C ,  7-C ) :   0.3583 B(  4-C ,  8-C ) :  -0.1008 B(  4-C , 13-H ) :  -0.1266
B(  4-C , 15-H ) :  -0.3030 B(  4-C , 17-C ) :   0.3511 B(  5-C ,  6-H ) :   1.7308
B(  5-C ,  7-C ) :   0.1909 B(  5-C , 15-H ) :   0.1160 B(  5-C , 16-H ) :  -0.2876
B(  5-C , 17-C ) :  -0.1142 B(  5-C , 18-C ) :   0.1064 B(  5-C , 25-H ) :  -0.1759
B(  6-H ,  7-C ) :  -0.1124 B(  6-H , 15-H ) :   0.1620 B(  7-C ,  8-C ) :   0.6112
B(  7-C , 14-H ) :   1.2092 B(  8-C ,  9-C ) :   0.6096 B(  8-C , 13-H ) :   1.2004
B(  8-C , 14-H ) :  -0.1633 B(  9-C , 10-H ) :   1.0408 B(  9-C , 11-H ) :   0.9378
B(  9-C , 12-H ) :   1.0394 B(  9-C , 13-H ) :  -0.2020 B( 16-H , 17-C ) :  -0.1119
B( 16-H , 25-H ) :   0.1574 B( 17-C , 18-C ) :   0.6272 B( 17-C , 24-H ) :   1.2206
B( 18-C , 19-C ) :   0.6170 B( 18-C , 23-H ) :   1.1820 B( 18-C , 24-H ) :  -0.1657
B( 19-C , 20-H ) :   1.0424 B( 19-C , 21-H ) :   1.0441 B( 19-C , 22-H ) :   0.9300
B( 19-C , 23-H ) :  -0.2131

Dispersion correction           -0.008537754
FINAL SINGLE POINT ENERGY      -465.370166112837

DIPOLE MOMENT
-------------

Method             : SCF
Type of density    : Electron Density
Multiplicity       :   2
Irrep              :   0
Energy             :  -465.3616283591218803 Eh
Relativity type    :
Basis              : AO
                                X                 Y                 Z
Electronic contribution:     -0.000000436       0.000050095      -0.000107704
Nuclear contribution   :     -0.000009580      -0.000053351       0.000182982
                        -----------------------------------------
Total Dipole Moment    :     -0.000010016      -0.000003257       0.000075278
                        -----------------------------------------
Magnitude (a.u.)       :      0.000076011
Magnitude (Debye)      :      0.000193205

Rotational constants in cm-1:             0.145084             0.011081             0.010334
Rotational constants in MHz :          4349.508816           332.191507           309.803376

                             ****ORCA TERMINATED NORMALLY****
TOTAL RUN TIME: 0 days 0 hours 16 minutes 59 seconds 321 msec
