                         Program Version 6.0.0  -   RELEASE  -
|  1> !PBE0 opt aug-cc-pVTZ d3 TightSCF SlowConv RIJCOSX defgrid2
|  2>
|  3> %pal
|  4> nprocs 8
|  5> end
|  6>
|  7> %scf
|  8> MaxIter 1500
|  9> end
| 10>
| 11> %maxcore 3500
| 12>
| 13> !CPCM
| 14> %cpcm smd true
| 15> SMDsolvent "MeCN"
| 16> surfacetype gepol_ses
| 17> rsolv 2.19
| 18> end
| 19>
| 20> * xyz 0 1
| 21>   C           1.35417777117907     -0.65406995240560      0.79948726944426
| 22>   C           2.60438513280883     -1.25994276894922      0.84954003747904
| 23>   C           3.68344790380097     -0.71999641049965      0.15497211057626
| 24>   C           3.50660738351577      0.43947194664888     -0.59401215387855
| 25>   C           2.26060390365759      1.05304135560245     -0.65888291426072
| 26>   C           1.19171004686849      0.49898658044043      0.03645013929688
| 27>   O          -0.00001641304932      1.19288277645614      0.00010190817305
| 28>   C          -1.19171118388442      0.49900233774687     -0.03638058606476
| 29>   C          -2.26073143386919      1.05309671680890      0.65874573635241
| 30>   C          -3.50672129933369      0.43951119140539      0.59370893351233
| 31>   C          -3.68343750339537     -0.72003192620985     -0.15518626198969
| 32>   C          -2.60425130219278     -1.26007972735717     -0.84947443996517
| 33>   C          -1.35407111022235     -0.65417339438681     -0.79927336088568
| 34>   H          -0.51726340198580     -1.06965515696509     -1.34679672259882
| 35>   H          -2.73380230233493     -2.15751438471684     -1.44311666275030
| 36>   H          -4.65433657701428     -1.19810235944476     -0.20028196634197
| 37>   H          -4.34007086552899      0.87022201246994      1.13631011439279
| 38>   H          -2.10719151371809      1.95492125572489      1.23885613902283
| 39>   H           2.10696960257248      1.95483629764118     -1.23902045617933
| 40>   H           4.33987477531195      0.87015227662086     -1.13676761059202
| 41>   H           4.65436181626334     -1.19805192085525      0.19996962143919
| 42>   H           2.73406310958975     -2.15728853568205      1.44329395480944
| 43>   H           0.51745176096101     -1.06946241009361      1.34721687100852
| 44> *
| 45>
| 46>                          ****END OF INPUT****
 Total Charge           Charge          ....    0
 Multiplicity           Mult            ....    1
 Number of Electrons    NEL             ....   90
Dispersion correction           -0.023623805
FINAL SINGLE POINT ENERGY      -538.100582988961
Dispersion correction             ... done (  0.0 sec)
Dispersion correction           -0.023689467
FINAL SINGLE POINT ENERGY      -538.100803141943
Dispersion correction             ... done (  0.1 sec)
Dispersion correction           -0.023691708
FINAL SINGLE POINT ENERGY      -538.100819567083
Dispersion correction             ... done (  0.1 sec)
Dispersion correction           -0.023700862
FINAL SINGLE POINT ENERGY      -538.100821569928
Dispersion correction             ... done (  0.0 sec)
                    ***********************HURRAY********************

CARTESIAN COORDINATES (ANGSTROEM)
---------------------------------
  C      1.345540   -0.632370    0.816241
  C      2.587886   -1.246014    0.866370
  C      3.663189   -0.725924    0.158168
  C      3.489369    0.420739   -0.604495
  C      2.250090    1.040374   -0.668752
  C      1.183743    0.508269    0.040647
  O     -0.000004    1.198535    0.000256
  C     -1.183720    0.508283   -0.040361
  C     -2.250306    1.040501    0.668606
  C     -3.489539    0.420806    0.604129
  C     -3.663147   -0.725951   -0.158437
  C     -2.587678   -1.246055   -0.866348
  C     -1.345360   -0.632406   -0.815897
  H     -0.509804   -1.034358   -1.374682
  H     -2.714452   -2.136037   -1.471049
  H     -4.630469   -1.210579   -0.203562
  H     -4.321601    0.836718    1.159347
  H     -2.099999    1.933699    1.262176
  H      2.099583    1.933443   -1.262462
  H      4.321266    0.836620   -1.159978
  H      4.630564   -1.210468    0.203153
  H      2.714829   -2.135960    1.471089
  H      0.510068   -1.034107    1.375301

 Multiplicity           Mult            ....    1
 Number of Electrons    NEL             ....   90
 Basis Dimension        Dim             ....  828

ORBITAL ENERGIES
----------------

  NO   OCC          E(Eh)            E(eV)
   0   2.0000     -19.256732      -524.0023
   1   2.0000     -10.293574      -280.1024
   2   2.0000     -10.293550      -280.1017
   3   2.0000     -10.232179      -278.4317
   4   2.0000     -10.232177      -278.4317
   5   2.0000     -10.231892      -278.4239
   6   2.0000     -10.231891      -278.4239
   7   2.0000     -10.230099      -278.3752
   8   2.0000     -10.230062      -278.3741
   9   2.0000     -10.228613      -278.3347
  10   2.0000     -10.228605      -278.3345
  11   2.0000     -10.225357      -278.2461
  12   2.0000     -10.225345      -278.2458
  13   2.0000      -1.121307       -30.5123
  14   2.0000      -0.896182       -24.3864
  15   2.0000      -0.881482       -23.9863
  16   2.0000      -0.794347       -21.6153
  17   2.0000      -0.779388       -21.2082
  18   2.0000      -0.775356       -21.0985
  19   2.0000      -0.751483       -20.4489
  20   2.0000      -0.660739       -17.9796
  21   2.0000      -0.640992       -17.4423
  22   2.0000      -0.629130       -17.1195
  23   2.0000      -0.601445       -16.3661
  24   2.0000      -0.567881       -15.4528
  25   2.0000      -0.528272       -14.3750
  26   2.0000      -0.503330       -13.6963
  27   2.0000      -0.498071       -13.5532
  28   2.0000      -0.490774       -13.3546
  29   2.0000      -0.458874       -12.4866
  30   2.0000      -0.455104       -12.3840
  31   2.0000      -0.439346       -11.9552
  32   2.0000      -0.438416       -11.9299
  33   2.0000      -0.425299       -11.5730
  34   2.0000      -0.416644       -11.3375
  35   2.0000      -0.387782       -10.5521
  36   2.0000      -0.378117       -10.2891
  37   2.0000      -0.372185       -10.1277
  38   2.0000      -0.371022       -10.0960
  39   2.0000      -0.351487        -9.5644
  40   2.0000      -0.344675        -9.3791
  41   2.0000      -0.278688        -7.5835
  42   2.0000      -0.271675        -7.3927
  43   2.0000      -0.269778        -7.3410
  44   2.0000      -0.237790        -6.4706
  45   0.0000      -0.022035        -0.5996
  46   0.0000      -0.014389        -0.3915
  47   0.0000      -0.005132        -0.1397
  48   0.0000       0.001414         0.0385
  49   0.0000       0.003937         0.1071

MULLIKEN ATOMIC CHARGES
-----------------------
   0 C :   -0.571942
   1 C :   -0.700246
   2 C :   -0.660321
   3 C :   -0.491211
   4 C :   -1.270236
   5 C :    1.266901
   6 O :   -0.816355
   7 C :    1.267477
   8 C :   -1.267476
   9 C :   -0.492299
  10 C :   -0.655281
  11 C :   -0.704902
  12 C :   -0.572891
  13 H :    0.656833
  14 H :    0.499987
  15 H :    0.590985
  16 H :    0.519908
  17 H :    0.564675
  18 H :    0.565834
  19 H :    0.522338
  20 H :    0.586370
  21 H :    0.501596
  22 H :    0.660257
Sum of atomic charges:    0.0000000

LOEWDIN ATOMIC CHARGES
----------------------
   0 C :    0.197778
   1 C :    0.188006
   2 C :    0.182826
   3 C :    0.181203
   4 C :    0.202669
   5 C :   -0.407680
   6 O :    0.628412
   7 C :   -0.407624
   8 C :    0.202697
   9 C :    0.181202
  10 C :    0.182824
  11 C :    0.188013
  12 C :    0.197693
  13 H :   -0.167152
  14 H :   -0.171117
  15 H :   -0.178183
  16 H :   -0.172561
  17 H :   -0.170050
  18 H :   -0.170048
  19 H :   -0.172568
  20 H :   -0.178182
  21 H :   -0.171132
  22 H :   -0.167024

  Mayer bond orders larger than 0.100000
B(  0-C ,  1-C ) :   1.2847 B(  0-C ,  4-C ) :   0.3203 B(  0-C ,  5-C ) :   1.0093
B(  0-C ,  7-C ) :  -0.1099 B(  0-C , 12-C ) :   0.2821 B(  0-C , 22-H ) :   0.2495
B(  1-C ,  2-C ) :   1.3850 B(  1-C ,  4-C ) :  -0.1114 B(  1-C ,  5-C ) :  -0.3232
B(  1-C , 21-H ) :   0.6432 B(  2-C ,  3-C ) :   1.4230 B(  2-C ,  4-C ) :   0.4101
B(  2-C , 20-H ) :   0.4360 B(  3-C ,  4-C ) :   1.4250 B(  3-C ,  5-C ) :  -0.3715
B(  3-C , 19-H ) :   0.6021 B(  4-C ,  5-C ) :   0.3549 B(  4-C ,  6-O ) :   0.2041
B(  4-C , 18-H ) :   0.2192 B(  5-C ,  6-O ) :   0.5646 B(  5-C , 12-C ) :  -0.1101
B(  6-O ,  7-C ) :   0.5644 B(  6-O ,  8-C ) :   0.2002 B(  7-C ,  8-C ) :   0.3546
B(  7-C ,  9-C ) :  -0.3758 B(  7-C , 11-C ) :  -0.3217 B(  7-C , 12-C ) :   1.0088
B(  8-C ,  9-C ) :   1.4298 B(  8-C , 10-C ) :   0.4038 B(  8-C , 11-C ) :  -0.1105
B(  8-C , 12-C ) :   0.3192 B(  8-C , 17-H ) :   0.2223 B(  9-C , 10-C ) :   1.4146
B(  9-C , 16-H ) :   0.6035 B( 10-C , 11-C ) :   1.3898 B( 10-C , 15-H ) :   0.4304
B( 11-C , 12-C ) :   1.2874 B( 11-C , 14-H ) :   0.6461 B( 12-C , 13-H ) :   0.2532

Dispersion correction           -0.023696119
FINAL SINGLE POINT ENERGY      -538.100819596888

DIPOLE MOMENT
-------------

Method             : SCF
Type of density    : Electron Density
Multiplicity       :   1
Irrep              :   0
Energy             :  -538.0771234779996348 Eh
Relativity type    :
Basis              : AO
                                X                 Y                 Z
Electronic contribution:     -0.000319218       2.505212217       0.001706137
Nuclear contribution   :     -0.000054758      -3.041575932      -0.000726358
                        -----------------------------------------
Total Dipole Moment    :     -0.000373977      -0.536363716       0.000979779
                        -----------------------------------------
Magnitude (a.u.)       :      0.536364741
Magnitude (Debye)      :      1.363330825

Rotational constants in cm-1:             0.080043             0.014684             0.013796
Rotational constants in MHz :          2399.628976           440.226635           413.596019

                             ****ORCA TERMINATED NORMALLY****
TOTAL RUN TIME: 0 days 0 hours 32 minutes 12 seconds 755 msec
