                         Program Version 6.0.0  -   RELEASE  -
|  1> !r2SCANh aug-cc-pVTZ d3 TightSCF SlowConv RIJCOSX defgrid2
|  2>
|  3> %pal
|  4> nprocs 15
|  5> end
|  6>
|  7> %scf
|  8> MaxIter 1500
|  9> end
| 10>
| 11> %maxcore 3500
| 12>
| 13> !CPCM
| 14> %cpcm smd true
| 15> SMDsolvent "WATER"
| 16> surfacetype gepol_ses
| 17> rsolv 1.40
| 18> end
| 19>
| 20> * xyz 0 1
| 21> C          -0.04022979995253      0.10934243063256     -0.04781414840262
| 22> C          -1.20598933737927     -0.38579508968121      0.72535064655671
| 23> C           1.16762735129884      0.48320931067021      0.71660533841080
| 24> H          -2.08977721092752     -0.65804131143695      0.14047110955844
| 25> H           2.00933821779047      0.84338404791193      0.11644510533465
| 26> C          -1.15729609336593     -0.48547962221092      2.06219653568719
| 27> C           1.23994061348118      0.39162604465106      2.05974182181754
| 28> H          -1.99856910405152     -0.84630774685815      2.66159543961282
| 29> C           0.05550809013202     -0.10787998980524      2.82546584658989
| 30> O           0.08824138271929     -0.20066312730217      4.03611457894647
| 31> O          -0.08237810438593      0.20201294968745     -1.25889477385297
| 32> C           2.43938990003151      0.75910371183851      2.86443148480113
| 33> H           2.18564348705276      1.54409943819251      3.59804132816950
| 34> H           2.78911766568061     -0.10695868663051      3.45298570242047
| 35> H           3.25938092587604      1.11528426934092      2.22204567334997
| 36> *
| 37>
| 38>                          ****END OF INPUT****

CARTESIAN COORDINATES (ANGSTROEM)
---------------------------------
  C     -0.040230    0.109342   -0.047814
  C     -1.205989   -0.385795    0.725351
  C      1.167627    0.483209    0.716605
  H     -2.089777   -0.658041    0.140471
  H      2.009338    0.843384    0.116445
  C     -1.157296   -0.485480    2.062197
  C      1.239941    0.391626    2.059742
  H     -1.998569   -0.846308    2.661595
  C      0.055508   -0.107880    2.825466
  O      0.088241   -0.200663    4.036115
  O     -0.082378    0.202013   -1.258895
  C      2.439390    0.759104    2.864431
  H      2.185643    1.544099    3.598041
  H      2.789118   -0.106959    3.452986
  H      3.259381    1.115284    2.222046

 Total Charge           Charge          ....    0
 Multiplicity           Mult            ....    1
 Number of Electrons    NEL             ....   64
 Basis Dimension        Dim             ....  552

ORBITAL ENERGIES
----------------

  NO   OCC          E(Eh)            E(eV)
   0   2.0000     -19.135656      -520.7077
   1   2.0000     -19.132711      -520.6275
   2   2.0000     -10.267698      -279.3983
   3   2.0000     -10.266068      -279.3539
   4   2.0000     -10.201356      -277.5930
   5   2.0000     -10.190801      -277.3058
   6   2.0000     -10.189996      -277.2839
   7   2.0000     -10.181670      -277.0573
   8   2.0000     -10.156632      -276.3760
   9   2.0000      -1.076261       -29.2866
  10   2.0000      -1.072804       -29.1925
  11   2.0000      -0.857498       -23.3337
  12   2.0000      -0.797647       -21.7051
  13   2.0000      -0.720226       -19.5983
  14   2.0000      -0.683148       -18.5894
  15   2.0000      -0.615062       -16.7367
  16   2.0000      -0.579792       -15.7770
  17   2.0000      -0.510618       -13.8946
  18   2.0000      -0.495839       -13.4925
  19   2.0000      -0.471714       -12.8360
  20   2.0000      -0.447310       -12.1719
  21   2.0000      -0.434164       -11.8142
  22   2.0000      -0.425079       -11.5670
  23   2.0000      -0.416423       -11.3315
  24   2.0000      -0.410701       -11.1757
  25   2.0000      -0.392850       -10.6900
  26   2.0000      -0.385769       -10.4973
  27   2.0000      -0.369906       -10.0657
  28   2.0000      -0.303089        -8.2475
  29   2.0000      -0.277676        -7.5559
  30   2.0000      -0.276869        -7.5340
  31   2.0000      -0.263223        -7.1627
  32   0.0000      -0.144678        -3.9369
  33   0.0000      -0.032423        -0.8823
  34   0.0000      -0.006079        -0.1654
  35   0.0000       0.012800         0.3483
  36   0.0000       0.025526         0.6946

MULLIKEN ATOMIC CHARGES
-----------------------
   0 C :    1.201287
   1 C :   -0.525564
   2 C :   -0.790201
   3 H :    0.437990
   4 H :    0.209561
   5 C :   -0.540187
   6 C :    0.946670
   7 H :    0.471318
   8 C :    0.777389
   9 O :   -1.040389
  10 O :   -1.016005
  11 C :   -0.760529
  12 H :    0.225545
  13 H :    0.225542
  14 H :    0.177575
Sum of atomic charges:    0.0000000

LOEWDIN ATOMIC CHARGES
----------------------
   0 C :   -0.580129
   1 C :    0.227173
   2 C :    0.237296
   3 H :   -0.165301
   4 H :   -0.164795
   5 C :    0.231069
   6 C :   -0.114769
   7 H :   -0.165776
   8 C :   -0.548077
   9 O :    0.484246
  10 O :    0.451378
  11 C :    0.573181
  12 H :   -0.153734
  13 H :   -0.153691
  14 H :   -0.158072

  Mayer bond orders larger than 0.100000
B(  0-C ,  1-C ) :   0.8116 B(  0-C ,  2-C ) :   0.7655 B(  0-C , 10-O ) :   0.6337
B(  1-C ,  2-C ) :   0.3040 B(  1-C ,  3-H ) :   0.5423 B(  1-C ,  5-C ) :   1.7074
B(  1-C ,  6-C ) :  -0.1351 B(  1-C , 10-O ) :   0.1218 B(  2-C ,  4-H ) :   0.8412
B(  2-C ,  5-C ) :  -0.2031 B(  2-C ,  6-C ) :   1.1732 B(  5-C ,  6-C ) :   0.2265
B(  5-C ,  7-H ) :   0.4693 B(  5-C ,  8-C ) :   0.9556 B(  5-C ,  9-O ) :   0.1209
B(  6-C ,  8-C ) :   0.9095 B(  6-C , 10-O ) :   0.1291 B(  6-C , 11-C ) :   0.4262
B(  8-C ,  9-O ) :   0.6752 B(  8-C , 11-C ) :   0.2001 B( 11-C , 12-H ) :   0.9534
B( 11-C , 13-H ) :   0.9537 B( 11-C , 14-H ) :   1.0355

Dispersion correction           -0.004662040
FINAL SINGLE POINT ENERGY      -420.689729273693

DIPOLE MOMENT
-------------

Method             : SCF
Type of density    : Electron Density
Multiplicity       :   1
Irrep              :   0
Energy             :  -420.6850672336194634 Eh
Relativity type    :
Basis              : AO
                                X                 Y                 Z
Electronic contribution:     -3.846207007      -1.206739742      -2.240192196
Nuclear contribution   :      4.092101562       1.259935150       2.614157328
                        -----------------------------------------
Total Dipole Moment    :      0.245894555       0.053195408       0.373965131
                        -----------------------------------------
Magnitude (a.u.)       :      0.450714769
Magnitude (Debye)      :      1.145625899

Rotational constants in cm-1:             0.099449             0.047883             0.032517
Rotational constants in MHz :          2981.414348          1435.498503           974.822832

                             ****ORCA TERMINATED NORMALLY****
TOTAL RUN TIME: 0 days 0 hours 2 minutes 41 seconds 554 msec
