                         Program Version 6.0.0  -   RELEASE  -
|  1> !PBE0 def2-SV(p) Opt Freq d3 TightSCF SlowConv RIJCOSX defgrid2
|  2>
|  3> %pal
|  4> nprocs 8
|  5> end
|  6>
|  7> %scf
|  8> MaxIter 1500
|  9> end
| 10>
| 11> %maxcore 3000
| 12>
| 13>
| 14>
| 15> * xyz 0 1
| 16> C    -1.1554116   -1.2366371   -0.0005164
| 17> C    -2.5040530   -0.9441133   -0.0006621
| 18> C    -2.9272921    0.3777353   -0.0001167
| 19> C    -1.9975818    1.4076040    0.0005962
| 20> C    -0.6446683    1.1268452    0.0007106
| 21> C    -0.2103249   -0.2009910    0.0001466
| 22> C     1.1893540   -0.5933280    0.0002308
| 23> O     1.6420268   -1.6988832    0.0005603
| 24> Cl    2.3522794    0.7628237   -0.0004083
| 25> H     0.0785934    1.9259463    0.0012658
| 26> H    -2.3289731    2.4343511    0.0010450
| 27> H    -3.9823353    0.6048902   -0.0002305
| 28> H    -3.2263286   -1.7455340   -0.0011977
| 29> H    -0.8059621   -2.2577752   -0.0009289
| 30> *
| 31>
| 32>                          ****END OF INPUT****
 Total Charge           Charge          ....    0
 Multiplicity           Mult            ....    1
 Number of Electrons    NEL             ....   72
Dispersion correction           -0.014249070
FINAL SINGLE POINT ENERGY      -804.247802023947
Dispersion correction             ... done (  0.1 sec)
Dispersion correction           -0.014185504
FINAL SINGLE POINT ENERGY      -804.249565943008
Dispersion correction             ... done (  0.1 sec)
Dispersion correction           -0.014178629
FINAL SINGLE POINT ENERGY      -804.249721288369
Dispersion correction             ... done (  0.1 sec)
FINAL SINGLE POINT ENERGY      -804.249744595647
Dispersion correction             ... done (  0.1 sec)
Dispersion correction           -0.014181934
FINAL SINGLE POINT ENERGY      -804.249736083273
Dispersion correction             ... done (  0.1 sec)
Dispersion correction           -0.014182109
FINAL SINGLE POINT ENERGY      -804.249747277340
Dispersion correction             ... done (  0.1 sec)
                    ***********************HURRAY********************

CARTESIAN COORDINATES (ANGSTROEM)
---------------------------------
  C     -1.149332   -1.238825   -0.000467
  C     -2.508578   -0.949882   -0.000543
  C     -2.938170    0.378685   -0.000064
  C     -2.006291    1.416685    0.000497
  C     -0.643745    1.132504    0.000564
  C     -0.209085   -0.197534    0.000076
  C      1.218372   -0.597203    0.000077
  O      1.623417   -1.713148   -0.000127
  Cl     2.382062    0.764152    0.000566
  H      0.091699    1.939298    0.000986
  H     -2.343207    2.456982    0.000878
  H     -4.008348    0.606182   -0.000126
  H     -3.238861   -1.764017   -0.000984
  H     -0.790611   -2.270943   -0.000837

 Multiplicity           Mult            ....    1
 Number of Electrons    NEL             ....   72
 Basis Dimension        Dim             ....  140

ORBITAL ENERGIES
----------------

  NO   OCC          E(Eh)            E(eV)
   0   2.0000    -101.682475     -2766.9208
   1   2.0000     -19.237088      -523.4678
   2   2.0000     -10.381240      -282.4879
   3   2.0000     -10.274823      -279.5921
   4   2.0000     -10.265047      -279.3261
   5   2.0000     -10.264770      -279.3186
   6   2.0000     -10.263633      -279.2876
   7   2.0000     -10.260036      -279.1898
   8   2.0000     -10.259866      -279.1851
   9   2.0000      -9.534674      -259.4517
  10   2.0000      -7.275115      -197.9659
  11   2.0000      -7.267188      -197.7503
  12   2.0000      -7.266028      -197.7187
  13   2.0000      -1.110450       -30.2169
  14   2.0000      -0.906398       -24.6643
  15   2.0000      -0.870868       -23.6975
  16   2.0000      -0.799605       -21.7583
  17   2.0000      -0.787211       -21.4211
  18   2.0000      -0.674946       -18.3662
  19   2.0000      -0.644706       -17.5433
  20   2.0000      -0.591790       -16.1034
  21   2.0000      -0.548641       -14.9293
  22   2.0000      -0.511815       -13.9272
  23   2.0000      -0.496021       -13.4974
  24   2.0000      -0.475105       -12.9283
  25   2.0000      -0.468911       -12.7597
  26   2.0000      -0.466929       -12.7058
  27   2.0000      -0.459936       -12.5155
  28   2.0000      -0.403334       -10.9753
  29   2.0000      -0.396575       -10.7914
  30   2.0000      -0.380106       -10.3432
  31   2.0000      -0.335848        -9.1389
  32   2.0000      -0.335295        -9.1239
  33   2.0000      -0.308562        -8.3964
  34   2.0000      -0.294770        -8.0211
  35   2.0000      -0.291464        -7.9311
  36   0.0000      -0.075623        -2.0578
  37   0.0000      -0.025561        -0.6956
  38   0.0000       0.029576         0.8048
  39   0.0000       0.048780         1.3274
  40   0.0000       0.068338         1.8596

MULLIKEN ATOMIC CHARGES
-----------------------
   0 C :   -0.105534
   1 C :   -0.090833
   2 C :   -0.074514
   3 C :   -0.089644
   4 C :   -0.092237
   5 C :   -0.019970
   6 C :    0.182392
   7 O :   -0.141059
   8 Cl:   -0.139182
   9 H :    0.115652
  10 H :    0.109189
  11 H :    0.112110
  12 H :    0.111341
  13 H :    0.122288
Sum of atomic charges:   -0.0000000

LOEWDIN ATOMIC CHARGES
----------------------
   0 C :   -0.083319
   1 C :   -0.123742
   2 C :   -0.100127
   3 C :   -0.124267
   4 C :   -0.099033
   5 C :   -0.106457
   6 C :   -0.010838
   7 O :   -0.103946
   8 Cl:    0.062933
   9 H :    0.134657
  10 H :    0.136170
  11 H :    0.136052
  12 H :    0.136669
  13 H :    0.145248

  Mayer bond orders larger than 0.100000
B(  0-C ,  1-C ) :   1.3988 B(  0-C ,  5-C ) :   1.3770 B(  0-C , 13-H ) :   0.9554
B(  1-C ,  2-C ) :   1.3767 B(  1-C , 12-H ) :   0.9632 B(  2-C ,  3-C ) :   1.3917
B(  2-C , 11-H ) :   0.9611 B(  3-C ,  4-C ) :   1.4011 B(  3-C , 10-H ) :   0.9618
B(  4-C ,  5-C ) :   1.3757 B(  4-C ,  9-H ) :   0.9372 B(  5-C ,  6-C ) :   0.9476
B(  6-C ,  7-O ) :   2.1755 B(  6-C ,  8-Cl) :   1.0108 B(  7-O ,  8-Cl) :   0.1177

Dispersion correction           -0.014182083
FINAL SINGLE POINT ENERGY      -804.249747557649

DIPOLE MOMENT
-------------

Method             : SCF
Type of density    : Electron Density
Multiplicity       :   1
Irrep              :   0
Energy             :  -804.2355654745111906 Eh
Relativity type    :
Basis              : AO
                                X                 Y                 Z
Electronic contribution:     11.498167542       0.628411058       0.001268684
Nuclear contribution   :    -12.853217840      -0.143073741      -0.001309271
                        -----------------------------------------
Total Dipole Moment    :     -1.355050298       0.485337318      -0.000040586
                        -----------------------------------------
Magnitude (a.u.)       :      1.439344859
Magnitude (Debye)      :      3.658523884

VIBRATIONAL FREQUENCIES
-----------------------

Scaling factor for frequencies =  1.000000000  (already applied!)

     0:       0.00 cm**-1
     1:       0.00 cm**-1
     2:       0.00 cm**-1
     3:       0.00 cm**-1
     4:       0.00 cm**-1
     5:       0.00 cm**-1
     6:      48.21 cm**-1
     7:     154.26 cm**-1
     8:     194.19 cm**-1
     9:     326.23 cm**-1
    10:     416.69 cm**-1
    11:     430.58 cm**-1
    12:     438.69 cm**-1
    13:     518.95 cm**-1
    14:     627.30 cm**-1
    15:     672.56 cm**-1
    16:     697.35 cm**-1
    17:     713.89 cm**-1
    18:     807.10 cm**-1
    19:     870.55 cm**-1
    20:     913.52 cm**-1
    21:     973.54 cm**-1
    22:    1013.81 cm**-1
    23:    1021.90 cm**-1
    24:    1037.30 cm**-1
    25:    1061.52 cm**-1
    26:    1113.28 cm**-1
    27:    1175.95 cm**-1
    28:    1188.69 cm**-1
    29:    1251.42 cm**-1
    30:    1332.23 cm**-1
    31:    1414.74 cm**-1
    32:    1496.34 cm**-1
    33:    1536.14 cm**-1
    34:    1670.91 cm**-1
    35:    1689.65 cm**-1
    36:    1906.86 cm**-1
    37:    3202.10 cm**-1
    38:    3213.94 cm**-1
    39:    3222.72 cm**-1
    40:    3233.47 cm**-1
    41:    3241.93 cm**-1

IR SPECTRUM
-----------

 Mode   freq       eps      Int      T**2         TX        TY        TZ
       cm**-1   L/(mol*cm) km/mol    a.u.
----------------------------------------------------------------------------
  6:     48.21   0.000056    0.28  0.000364  (-0.000003 -0.000010  0.019079)
  7:    154.26   0.000046    0.23  0.000093  ( 0.000008 -0.000008 -0.009649)
  8:    194.19   0.000186    0.94  0.000298  (-0.014903 -0.008737 -0.000007)
  9:    326.23   0.001794    9.07  0.001716  (-0.034351 -0.023160 -0.000012)
 10:    416.69   0.000001    0.00  0.000000  ( 0.000013  0.000007  0.000628)
 11:    430.58   0.001193    6.03  0.000865  ( 0.011139  0.027219  0.000005)
 12:    438.69   0.000007    0.04  0.000005  ( 0.000028  0.000059  0.002301)
 13:    518.95   0.000676    3.42  0.000406  ( 0.007896  0.018551 -0.000002)
 14:    627.30   0.000257    1.30  0.000128  ( 0.010405  0.004402  0.000004)
 15:    672.56   0.005055   25.55  0.002346  (-0.000031 -0.000010  0.048432)
 16:    697.35   0.014083   71.17  0.006302  ( 0.072208  0.032984  0.000009)
 17:    713.89   0.009387   47.44  0.004104  (-0.000012 -0.000004 -0.064059)
 18:    807.10   0.002057   10.40  0.000796  (-0.000003  0.000006  0.028205)
 19:    870.55   0.000011    0.05  0.000004  ( 0.000001 -0.000001  0.001953)
 20:    913.52   0.042946  217.03  0.014671  (-0.109359 -0.052070 -0.000025)
 21:    973.54   0.000216    1.09  0.000069  (-0.000009 -0.000029 -0.008313)
 22:   1013.81   0.000010    0.05  0.000003  (-0.000001  0.000004 -0.001763)
 23:   1021.90   0.000202    1.02  0.000062  ( 0.004036  0.006736  0.000001)
 24:   1037.30   0.000000    0.00  0.000000  ( 0.000003  0.000011 -0.000048)
 25:   1061.52   0.000486    2.46  0.000143  (-0.010055  0.006472  0.000001)
 26:   1113.28   0.001045    5.28  0.000293  ( 0.005365 -0.016249 -0.000006)
 27:   1175.95   0.000045    0.23  0.000012  (-0.000928  0.003334  0.000002)
 28:   1188.69   0.006615   33.43  0.001737  (-0.041596 -0.002532 -0.000004)
 29:   1251.42   0.039049  197.34  0.009738  (-0.096914 -0.018584 -0.000013)
 30:   1332.23   0.000654    3.30  0.000153  (-0.006471 -0.010547 -0.000005)
 31:   1414.74   0.000977    4.94  0.000216  (-0.003829  0.014175  0.000006)
 32:   1496.34   0.004245   21.45  0.000885  (-0.017240 -0.024252 -0.000011)
 33:   1536.14   0.000170    0.86  0.000035  (-0.001609 -0.005654 -0.000002)
 34:   1670.91   0.001513    7.65  0.000283  (-0.015445  0.006637  0.000000)
 35:   1689.65   0.004366   22.06  0.000806  ( 0.027485 -0.007138  0.000001)
 36:   1906.86   0.060157  304.01  0.009845  ( 0.033184 -0.093507 -0.000020)
 37:   3202.10   0.000047    0.24  0.000005  ( 0.001929 -0.000914 -0.000000)
 38:   3213.94   0.001151    5.82  0.000112  ( 0.002393  0.010297  0.000005)
 39:   3222.72   0.001100    5.56  0.000107  (-0.009637  0.003693  0.000000)
 40:   3233.47   0.000692    3.50  0.000067  ( 0.008021  0.001573  0.000002)
 41:   3241.93   0.000188    0.95  0.000018  (-0.003998  0.001454  0.000000)

--------------------------
THERMOCHEMISTRY AT 298.15K
--------------------------

Temperature         ...   298.15 K
Pressure            ...     1.00 atm
Total Mass          ...   140.57 AMU
Quasi RRHO          ...     True
Cut-Off Frequency   ...     1.00 cm^-1

Throughout the following assumptions are being made:
  (1) The electronic state is orbitally nondegenerate
  (2) There are no thermally accessible electronically excited states
  (3) Hindered rotations indicated by low frequency modes are not
      treated as such but are treated as vibrations and this may
      cause some error
  (4) All equations used are the standard statistical mechanics
      equations for an ideal gas
  (5) All vibrations are strictly harmonic

freq.      48.21  E(vib)   ...       0.53
freq.     154.26  E(vib)   ...       0.40
freq.     194.19  E(vib)   ...       0.36
freq.     326.23  E(vib)   ...       0.24
freq.     416.69  E(vib)   ...       0.18
freq.     430.58  E(vib)   ...       0.18
freq.     438.69  E(vib)   ...       0.17
freq.     518.95  E(vib)   ...       0.13
freq.     627.30  E(vib)   ...       0.09
freq.     672.56  E(vib)   ...       0.08
freq.     697.35  E(vib)   ...       0.07
freq.     713.89  E(vib)   ...       0.07
freq.     807.10  E(vib)   ...       0.05
freq.     870.55  E(vib)   ...       0.04
freq.     913.52  E(vib)   ...       0.03
freq.     973.54  E(vib)   ...       0.03
freq.    1013.81  E(vib)   ...       0.02
freq.    1021.90  E(vib)   ...       0.02
freq.    1037.30  E(vib)   ...       0.02
freq.    1061.52  E(vib)   ...       0.02
freq.    1113.28  E(vib)   ...       0.01
freq.    1175.95  E(vib)   ...       0.01
freq.    1188.69  E(vib)   ...       0.01
freq.    1251.42  E(vib)   ...       0.01
freq.    1332.23  E(vib)   ...       0.01
freq.    1414.74  E(vib)   ...       0.00
freq.    1496.34  E(vib)   ...       0.00
freq.    1536.14  E(vib)   ...       0.00
freq.    1670.91  E(vib)   ...       0.00
freq.    1689.65  E(vib)   ...       0.00
freq.    1906.86  E(vib)   ...       0.00
freq.    3202.10  E(vib)   ...       0.00
freq.    3213.94  E(vib)   ...       0.00
freq.    3222.72  E(vib)   ...       0.00
freq.    3233.47  E(vib)   ...       0.00
freq.    3241.93  E(vib)   ...       0.00

------------
INNER ENERGY
------------

The inner energy is: U= E(el) + E(ZPE) + E(vib) + E(rot) + E(trans)
    E(el)   - is the total energy from the electronic structure calculation
              = E(kin-el) + E(nuc-el) + E(el-el) + E(nuc-nuc)
    E(ZPE)  - the the zero temperature vibrational energy from the frequency calculation
    E(vib)  - the the finite temperature correction to E(ZPE) due to population
              of excited vibrational states
    E(rot)  - is the rotational thermal energy
    E(trans)- is the translational thermal energy

Summary of contributions to the inner energy U:
Electronic energy                ...   -804.24974756 Eh
Zero point energy                ...      0.10212692 Eh      64.09 kcal/mol
Thermal vibrational correction   ...      0.00444528 Eh       2.79 kcal/mol
Thermal rotational correction    ...      0.00141627 Eh       0.89 kcal/mol
Thermal translational correction ...      0.00141627 Eh       0.89 kcal/mol
-----------------------------------------------------------------------
Total thermal energy                   -804.14034281 Eh

Summary of corrections to the electronic energy:
(perhaps to be used in another calculation)
Total thermal correction                  0.00727783 Eh       4.57 kcal/mol
Non-thermal (ZPE) correction              0.10212692 Eh      64.09 kcal/mol
-----------------------------------------------------------------------
Total correction                          0.10940474 Eh      68.65 kcal/mol

--------
ENTHALPY
--------

The enthalpy is H = U + kB*T
                kB is Boltzmann's constant
Total thermal energy              ...   -804.14034281 Eh
Thermal Enthalpy correction       ...      0.00094421 Eh       0.59 kcal/mol
-----------------------------------------------------------------------
Total Enthalpy                    ...   -804.13939861 Eh

Note: Only C1 symmetry has been detected, increase convergence thresholds
      if your molecule has a higher symmetry. Symmetry factor of 1.0 is
      used for the rotational entropy correction.

Note: Rotational entropy computed according to Herzberg
Infrared and Raman Spectra, Chapter V,1, Van Nostrand Reinhold, 1945
Point Group:  C1, Symmetry Number:   1
Rotational constants in cm-1:     0.104386     0.031040     0.023926

Vibrational entropy computed according to the QRRHO of S. Grimme
Chem.Eur.J. 2012 18 9955 using a reference frequency of 100.0 cm-1

-------
ENTROPY
-------

The entropy contributions are T*S = T*(S(el)+S(vib)+S(rot)+S(trans))
     S(el)   - electronic entropy
     S(vib)  - vibrational entropy
     S(rot)  - rotational entropy
     S(trans)- translational entropy
The entropies will be listed as multiplied by the temperature to get
units of energy

Electronic entropy                ...      0.00000000 Eh      0.00 kcal/mol
Vibrational entropy               ...      0.00733691 Eh      4.60 kcal/mol
Rotational entropy                ...      0.01397911 Eh      8.77 kcal/mol
Translational entropy             ...      0.01935352 Eh     12.14 kcal/mol
-----------------------------------------------------------------------
Final entropy term                ...      0.04066955 Eh     25.52 kcal/mol

In case the symmetry of your molecule has not been determined correctly
or in case you have a reason to use a different symmetry number we print
out the resulting rotational entropy values for sn=1,12:

 non-linear molecules -----------------------------------
|  sn= 1 | S(rot)=       0.01397911 Eh      8.77 kcal/mol|
|  sn= 2 | S(rot)=       0.01332465 Eh      8.36 kcal/mol|
|  sn= 3 | S(rot)=       0.01294182 Eh      8.12 kcal/mol|
|  sn= 4 | S(rot)=       0.01267020 Eh      7.95 kcal/mol|
|  sn= 5 | S(rot)=       0.01245951 Eh      7.82 kcal/mol|
|  sn= 6 | S(rot)=       0.01228736 Eh      7.71 kcal/mol|
|  sn= 7 | S(rot)=       0.01214182 Eh      7.62 kcal/mol|
|  sn= 8 | S(rot)=       0.01201574 Eh      7.54 kcal/mol|
|  sn= 9 | S(rot)=       0.01190453 Eh      7.47 kcal/mol|
|  sn=10 | S(rot)=       0.01180505 Eh      7.41 kcal/mol|
|  sn=11 | S(rot)=       0.01171506 Eh      7.35 kcal/mol|
|  sn=12 | S(rot)=       0.01163291 Eh      7.30 kcal/mol|
 linear molecules ---------------------------------------
|  Dinfh | S(rot)=       0.00885024 Eh      5.55 kcal/mol|
|  Cinfv | S(rot)=       0.00950470 Eh      5.96 kcal/mol|
 --------------------------------------------------------

-------------------
GIBBS FREE ENERGY
-------------------

The Gibbs free energy is G = H - T*S

                             ****ORCA TERMINATED NORMALLY****
TOTAL RUN TIME: 0 days 0 hours 5 minutes 34 seconds 227 msec
