                         Program Version 6.0.0  -   RELEASE  -
|  1> !r2SCANh freq aug-cc-pVTZ d3 TightSCF SlowConv RIJCOSX defgrid2
|  2>
|  3> %pal
|  4> nprocs 12
|  5> end
|  6>
|  7> %scf
|  8> MaxIter 1500
|  9> end
| 10>
| 11> %maxcore 5000
| 12>
| 13> !CPCM
| 14> %cpcm smd true
| 15> SMDsolvent "MeCN"
| 16> surfacetype gepol_ses
| 17> rsolv 2.19
| 18> end
| 19>
| 20> * xyz 1 2
| 21> C           0.95164958967988     -1.31150297558243      0.00184398351542
| 22> C           2.29327203653700     -1.04921641120696     -0.00220603510454
| 23> C           2.73910527749889      0.28260405931562     -0.00255520753019
| 24> C           1.83541808138120      1.35629058436890      0.00095672762271
| 25> C           0.49149186042363      1.11225129416892      0.00379225445691
| 26> C           0.02435767296929     -0.23556192038251      0.00399166826309
| 27> C          -1.34711231613208     -0.54628753130197      0.00377429611836
| 28> N          -2.22595449257847      0.43385497822919     -0.00091659139849
| 29> O          -3.46484963832218     -0.05158937116870     -0.00663814563993
| 30> H          -4.04459374795282      0.73229564204963     -0.00750044569008
| 31> H          -1.68110945941370     -1.57911742418297      0.00588388991185
| 32> H          -0.22331338143423      1.92059254825520      0.00647899851142
| 33> H           2.20781238705530      2.36965209607364      0.00077999745458
| 34> H           3.80108063960485      0.48382241901144     -0.00561644691234
| 35> H           3.01164579101613     -1.85505647733979     -0.00497775782141
| 36> H           0.57879259966730     -2.32565551030719      0.00309941424265
| 37> *
| 38>
| 39>                          ****END OF INPUT****

CARTESIAN COORDINATES (ANGSTROEM)
---------------------------------
  C      0.951650   -1.311503    0.001844
  C      2.293272   -1.049216   -0.002206
  C      2.739105    0.282604   -0.002555
  C      1.835418    1.356291    0.000957
  C      0.491492    1.112251    0.003792
  C      0.024358   -0.235562    0.003992
  C     -1.347112   -0.546288    0.003774
  N     -2.225954    0.433855   -0.000917
  O     -3.464850   -0.051589   -0.006638
  H     -4.044594    0.732296   -0.007500
  H     -1.681109   -1.579117    0.005884
  H     -0.223313    1.920593    0.006479
  H      2.207812    2.369652    0.000780
  H      3.801081    0.483822   -0.005616
  H      3.011646   -1.855056   -0.004978
  H      0.578793   -2.325656    0.003099

 Total Charge           Charge          ....    1
 Multiplicity           Mult            ....    2
 Number of Electrons    NEL             ....   63
 Basis Dimension        Dim             ....  575

ORBITAL ENERGIES
----------------
                 SPIN UP ORBITALS
  NO   OCC          E(Eh)            E(eV)
   0   1.0000     -19.245554      -523.6981
   1   1.0000     -14.435382      -392.8067
   2   1.0000     -10.251055      -278.9454
   3   1.0000     -10.237095      -278.5655
   4   1.0000     -10.220965      -278.1266
   5   1.0000     -10.210509      -277.8421
   6   1.0000     -10.209143      -277.8049
   7   1.0000     -10.196895      -277.4716
   8   1.0000     -10.194356      -277.4025
   9   1.0000      -1.191489       -32.4221
  10   1.0000      -0.940407       -25.5898
  11   1.0000      -0.897557       -24.4238
  12   1.0000      -0.805928       -21.9304
  13   1.0000      -0.793596       -21.5948
  14   1.0000      -0.693080       -18.8597
  15   1.0000      -0.647537       -17.6204
  16   1.0000      -0.612750       -16.6738
  17   1.0000      -0.579880       -15.7793
  18   1.0000      -0.551506       -15.0072
  19   1.0000      -0.516746       -14.0614
  20   1.0000      -0.503148       -13.6914
  21   1.0000      -0.489201       -13.3118
  22   1.0000      -0.468318       -12.7436
  23   1.0000      -0.450998       -12.2723
  24   1.0000      -0.444028       -12.0826
  25   1.0000      -0.424018       -11.5381
  26   1.0000      -0.380062       -10.3420
  27   1.0000      -0.368211       -10.0195
  28   1.0000      -0.350810        -9.5460
  29   1.0000      -0.331012        -9.0073
  30   1.0000      -0.297017        -8.0822
  31   1.0000      -0.284641        -7.7455
  32   0.0000      -0.128333        -3.4921
  33   0.0000      -0.056958        -1.5499
  34   0.0000      -0.022188        -0.6038
  35   0.0000       0.005670         0.1543
  36   0.0000       0.013794         0.3754

                 SPIN DOWN ORBITALS
  NO   OCC          E(Eh)            E(eV)
   0   1.0000     -19.237992      -523.4924
   1   1.0000     -14.426673      -392.5697
   2   1.0000     -10.251984      -278.9707
   3   1.0000     -10.233987      -278.4809
   4   1.0000     -10.215750      -277.9847
   5   1.0000     -10.208333      -277.7829
   6   1.0000     -10.207821      -277.7689
   7   1.0000     -10.197688      -277.4932
   8   1.0000     -10.195713      -277.4394
   9   1.0000      -1.177854       -32.0510
  10   1.0000      -0.929439       -25.2913
  11   1.0000      -0.887443       -24.1486
  12   1.0000      -0.796036       -21.6612
  13   1.0000      -0.789401       -21.4807
  14   1.0000      -0.687059       -18.6958
  15   1.0000      -0.644885       -17.5482
  16   1.0000      -0.608084       -16.5468
  17   1.0000      -0.574514       -15.6333
  18   1.0000      -0.549241       -14.9456
  19   1.0000      -0.513048       -13.9607
  20   1.0000      -0.486658       -13.2426
  21   1.0000      -0.465864       -12.6768
  22   1.0000      -0.463705       -12.6181
  23   1.0000      -0.450823       -12.2675
  24   1.0000      -0.441897       -12.0246
  25   1.0000      -0.402457       -10.9514
  26   1.0000      -0.379425       -10.3247
  27   1.0000      -0.366353        -9.9690
  28   1.0000      -0.324225        -8.8226
  29   1.0000      -0.323117        -8.7925
  30   1.0000      -0.293142        -7.9768
  31   0.0000      -0.217724        -5.9246
  32   0.0000      -0.095354        -2.5947
  33   0.0000      -0.048080        -1.3083
  34   0.0000      -0.001241        -0.0338
  35   0.0000       0.006531         0.1777

MULLIKEN ATOMIC CHARGES AND SPIN POPULATIONS
--------------------------------------------
   0 C :   -0.771220    0.057181
   1 C :   -0.550570   -0.055806
   2 C :   -0.086851    0.283132
   3 C :   -0.738955   -0.107437
   4 C :   -0.603632    0.124345
   5 C :    1.832286    0.219995
   6 C :    0.158738   -0.079751
   7 N :   -0.399854    0.324994
   8 O :   -0.184781    0.218942
   9 H :    0.215270   -0.012800
  10 H :    0.465596   -0.005986
  11 H :    0.071442    0.012088
  12 H :    0.563176   -0.007956
  13 H :    0.458620    0.020627
  14 H :    0.549123   -0.002208
  15 H :    0.021611    0.010640
Sum of atomic charges         :    1.0000000

LOEWDIN ATOMIC CHARGES AND SPIN POPULATIONS
-------------------------------------------
   0 C :    0.273949    0.059027
   1 C :    0.276429    0.035904
   2 C :    0.291688    0.142963
   3 C :    0.271749    0.026007
   4 C :    0.266809    0.076203
   5 C :   -0.103616    0.113781
   6 C :    0.089816    0.047761
   7 N :    0.217709    0.246512
   8 O :    0.754673    0.202399
   9 H :   -0.423693    0.012184
  10 H :   -0.148634   -0.007206
  11 H :   -0.171029    0.011070
  12 H :   -0.155145   -0.006157
  13 H :   -0.141206    0.033800
  14 H :   -0.153381   -0.002540
  15 H :   -0.146117    0.008289

  Mayer bond orders larger than 0.100000
B(  0-C ,  1-C ) :   1.2766 B(  0-C ,  2-C ) :  -0.1115 B(  0-C ,  4-C ) :  -0.4513
B(  0-C , 11-H ) :   0.1312 B(  0-C , 14-H ) :  -0.1819 B(  0-C , 15-H ) :   1.6644
B(  1-C ,  2-C ) :   1.0874 B(  1-C ,  3-C ) :   0.1340 B(  1-C ,  6-C ) :   0.1131
B(  1-C , 11-H ) :  -0.1074 B(  1-C , 14-H ) :   0.4766 B(  1-C , 15-H ) :  -0.1228
B(  2-C ,  3-C ) :   1.0436 B(  2-C ,  4-C ) :  -0.1441 B(  2-C ,  5-C ) :  -0.2194
B(  2-C ,  6-C ) :   0.1569 B(  2-C , 13-H ) :   0.6548 B(  3-C ,  4-C ) :   1.2992
B(  3-C , 12-H ) :   0.4457 B(  3-C , 15-H ) :  -0.1003 B(  4-C ,  5-C ) :   0.2324
B(  4-C ,  6-C ) :   0.1676 B(  4-C , 11-H ) :   1.3003 B(  4-C , 15-H ) :   0.1421
B(  5-C ,  6-C ) :   0.3096 B(  5-C ,  8-O ) :   0.1165 B(  5-C , 11-H ) :  -0.1323
B(  5-C , 14-H ) :   0.1087 B(  5-C , 15-H ) :  -0.1733 B(  6-C ,  7-N ) :   0.7430
B(  6-C , 10-H ) :   0.5397 B(  6-C , 11-H ) :  -0.1218 B(  6-C , 12-H ) :   0.1180
B(  6-C , 15-H ) :  -0.1757 B(  7-N ,  8-O ) :   0.8527 B(  7-N , 10-H ) :  -0.1085
B(  7-N , 11-H ) :   0.1024 B(  8-O ,  9-H ) :   0.9860 B( 11-H , 15-H ) :   0.1612

Dispersion correction           -0.004908576
FINAL SINGLE POINT ENERGY      -400.572015892309

DIPOLE MOMENT
-------------

Method             : SCF
Type of density    : Electron Density
Multiplicity       :   2
Irrep              :   0
Energy             :  -400.5671073163943561 Eh
Relativity type    :
Basis              : AO
                                X                 Y                 Z
Electronic contribution:     -3.261913763       0.143349808       0.002119277
Nuclear contribution   :      3.306677536      -0.252199040      -0.001534799
                        -----------------------------------------
Total Dipole Moment    :      0.044763772      -0.108849232       0.000584478
                        -----------------------------------------
Magnitude (a.u.)       :      0.117695762
Magnitude (Debye)      :      0.299158852

VIBRATIONAL FREQUENCIES
-----------------------

Scaling factor for frequencies =  1.000000000  (already applied!)

     0:       0.00 cm**-1
     1:       0.00 cm**-1
     2:       0.00 cm**-1
     3:       0.00 cm**-1
     4:       0.00 cm**-1
     5:       0.00 cm**-1
     6:      73.25 cm**-1
     7:     156.46 cm**-1
     8:     172.88 cm**-1
     9:     241.98 cm**-1
    10:     370.99 cm**-1
    11:     390.58 cm**-1
    12:     427.46 cm**-1
    13:     449.41 cm**-1
    14:     567.78 cm**-1
    15:     587.23 cm**-1
    16:     624.49 cm**-1
    17:     652.33 cm**-1
    18:     793.55 cm**-1
    19:     817.61 cm**-1
    20:     883.87 cm**-1
    21:     960.97 cm**-1
    22:     987.33 cm**-1
    23:    1011.17 cm**-1
    24:    1014.95 cm**-1
    25:    1021.39 cm**-1
    26:    1029.14 cm**-1
    27:    1109.76 cm**-1
    28:    1131.24 cm**-1
    29:    1165.79 cm**-1
    30:    1193.77 cm**-1
    31:    1257.99 cm**-1
    32:    1283.85 cm**-1
    33:    1349.83 cm**-1
    34:    1415.43 cm**-1
    35:    1451.10 cm**-1
    36:    1470.58 cm**-1
    37:    1520.23 cm**-1
    38:    1528.62 cm**-1
    39:    1549.56 cm**-1
    40:    1664.22 cm**-1
    41:    3169.33 cm**-1
    42:    3216.56 cm**-1
    43:    3220.93 cm**-1
    44:    3229.75 cm**-1
    45:    3237.53 cm**-1
    46:    3243.07 cm**-1
    47:    3593.13 cm**-1

IR SPECTRUM
-----------

 Mode   freq       eps      Int      T**2         TX        TY        TZ
       cm**-1   L/(mol*cm) km/mol    a.u.
----------------------------------------------------------------------------
  6:     73.25   0.000147    0.74  0.000626  (-0.002337 -0.000188 -0.024909)
  7:    156.46   0.000183    0.93  0.000365  (-0.008589  0.016953  0.001994)
  8:    172.88   0.000092    0.46  0.000166  (-0.001431  0.002148 -0.012611)
  9:    241.98   0.000096    0.49  0.000124  (-0.003236 -0.000552  0.010656)
 10:    370.99   0.000041    0.20  0.000034  (-0.000885 -0.000648  0.005737)
 11:    390.58   0.001456    7.36  0.001163  ( 0.032679  0.009719 -0.000872)
 12:    427.46   0.000305    1.54  0.000223  ( 0.001846  0.000492 -0.014800)
 13:    449.41   0.000903    4.56  0.000627  (-0.022995 -0.009501  0.002779)
 14:    567.78   0.048250  243.84  0.026519  ( 0.004884  0.001095 -0.162770)
 15:    587.23   0.000690    3.49  0.000367  ( 0.010043  0.016302  0.000021)
 16:    624.49   0.002363   11.94  0.001181  (-0.002390  0.000257 -0.034278)
 17:    652.33   0.023290  117.70  0.011141  ( 0.104782  0.012574  0.002041)
 18:    793.55   0.011864   59.96  0.004666  ( 0.000482 -0.000302  0.068303)
 19:    817.61   0.000023    0.12  0.000009  ( 0.000049  0.000250  0.002969)
 20:    883.87   0.000415    2.10  0.000147  ( 0.000461  0.012097  0.000090)
 21:    960.97   0.000323    1.63  0.000105  (-0.002127  0.000195  0.010011)
 22:    987.33   0.002250   11.37  0.000711  (-0.001197 -0.000502  0.026638)
 23:   1011.17   0.008250   41.69  0.002546  ( 0.050240  0.004661  0.000414)
 24:   1014.95   0.000085    0.43  0.000026  (-0.002467 -0.000745  0.004427)
 25:   1021.39   0.003934   19.88  0.001202  ( 0.034640  0.001432  0.000022)
 26:   1029.14   0.000304    1.54  0.000092  ( 0.000922 -0.000113  0.009554)
 27:   1109.76   0.045539  230.13  0.012805  ( 0.106453 -0.038383  0.000226)
 28:   1131.24   0.116702  589.76  0.032193  (-0.179134 -0.010209 -0.000570)
 29:   1165.79   0.008053   40.70  0.002156  (-0.041540  0.020738 -0.000099)
 30:   1193.77   0.008474   42.83  0.002215  (-0.046784 -0.005149 -0.000120)
 31:   1257.99   0.057289  289.52  0.014212  (-0.112738 -0.038750 -0.000294)
 32:   1283.85   0.076820  388.22  0.018673  ( 0.136518  0.005921  0.000569)
 33:   1349.83   0.005732   28.97  0.001325  ( 0.031504  0.018237  0.000252)
 34:   1415.43   0.003935   19.89  0.000868  (-0.000004  0.029455  0.000002)
 35:   1451.10   0.015684   79.26  0.003373  ( 0.017943 -0.055235  0.000070)
 36:   1470.58   0.000749    3.79  0.000159  ( 0.009148 -0.008659 -0.000608)
 37:   1520.23   0.049751  251.42  0.010213  (-0.100797  0.007251  0.000316)
 38:   1528.62   0.045201  228.43  0.009228  ( 0.095569  0.009711  0.000189)
 39:   1549.56   0.003577   18.08  0.000720  (-0.002472 -0.026727  0.000004)
 40:   1664.22   0.057073  288.42  0.010702  ( 0.102616  0.013109 -0.000040)
 41:   3169.33   0.000455    2.30  0.000045  ( 0.006684 -0.000383  0.000090)
 42:   3216.56   0.000087    0.44  0.000008  ( 0.002906  0.000170 -0.000104)
 43:   3220.93   0.000336    1.70  0.000033  (-0.005612  0.001031 -0.000064)
 44:   3229.75   0.000573    2.90  0.000055  ( 0.004266  0.006097  0.000106)
 45:   3237.53   0.000904    4.57  0.000087  ( 0.009288 -0.000950 -0.000045)
 46:   3243.07   0.001681    8.49  0.000162  (-0.012652  0.001286 -0.000059)
 47:   3593.13   0.281931  1424.76  0.024486  ( 0.149501 -0.046207  0.000253)

--------------------------
THERMOCHEMISTRY AT 298.15K
--------------------------

Temperature         ...   298.15 K
Pressure            ...     1.00 atm
Total Mass          ...   121.14 AMU
Quasi RRHO          ...     True
Cut-Off Frequency   ...     1.00 cm^-1

Throughout the following assumptions are being made:
  (1) The electronic state is orbitally nondegenerate
      but the spin degeneracy is treated
  (2) There are no thermally accessible electronically excited states
  (3) Hindered rotations indicated by low frequency modes are not
      treated as such but are treated as vibrations and this may
      cause some error
  (4) All equations used are the standard statistical mechanics
      equations for an ideal gas
  (5) All vibrations are strictly harmonic

freq.      73.25  E(vib)   ...       0.49
freq.     156.46  E(vib)   ...       0.40
freq.     172.88  E(vib)   ...       0.38
freq.     241.98  E(vib)   ...       0.31
freq.     370.99  E(vib)   ...       0.21
freq.     390.58  E(vib)   ...       0.20
freq.     427.46  E(vib)   ...       0.18
freq.     449.41  E(vib)   ...       0.17
freq.     567.78  E(vib)   ...       0.11
freq.     587.23  E(vib)   ...       0.10
freq.     624.49  E(vib)   ...       0.09
freq.     652.33  E(vib)   ...       0.08
freq.     793.55  E(vib)   ...       0.05
freq.     817.61  E(vib)   ...       0.05
freq.     883.87  E(vib)   ...       0.04
freq.     960.97  E(vib)   ...       0.03
freq.     987.33  E(vib)   ...       0.02
freq.    1011.17  E(vib)   ...       0.02
freq.    1014.95  E(vib)   ...       0.02
freq.    1021.39  E(vib)   ...       0.02
freq.    1029.14  E(vib)   ...       0.02
freq.    1109.76  E(vib)   ...       0.02
freq.    1131.24  E(vib)   ...       0.01
freq.    1165.79  E(vib)   ...       0.01
freq.    1193.77  E(vib)   ...       0.01
freq.    1257.99  E(vib)   ...       0.01
freq.    1283.85  E(vib)   ...       0.01
freq.    1349.83  E(vib)   ...       0.01
freq.    1415.43  E(vib)   ...       0.00
freq.    1451.10  E(vib)   ...       0.00
freq.    1470.58  E(vib)   ...       0.00
freq.    1520.23  E(vib)   ...       0.00
freq.    1528.62  E(vib)   ...       0.00
freq.    1549.56  E(vib)   ...       0.00
freq.    1664.22  E(vib)   ...       0.00
freq.    3169.33  E(vib)   ...       0.00
freq.    3216.56  E(vib)   ...       0.00
freq.    3220.93  E(vib)   ...       0.00
freq.    3229.75  E(vib)   ...       0.00
freq.    3237.53  E(vib)   ...       0.00
freq.    3243.07  E(vib)   ...       0.00
freq.    3593.13  E(vib)   ...       0.00

------------
INNER ENERGY
------------

The inner energy is: U= E(el) + E(ZPE) + E(vib) + E(rot) + E(trans)
    E(el)   - is the total energy from the electronic structure calculation
              = E(kin-el) + E(nuc-el) + E(el-el) + E(nuc-nuc)
    E(ZPE)  - the the zero temperature vibrational energy from the frequency calculation
    E(vib)  - the the finite temperature correction to E(ZPE) due to population
              of excited vibrational states
    E(rot)  - is the rotational thermal energy
    E(trans)- is the translational thermal energy

Summary of contributions to the inner energy U:
Electronic energy                ...   -400.57201589 Eh
Zero point energy                ...      0.12583931 Eh      78.97 kcal/mol
Thermal vibrational correction   ...      0.00493334 Eh       3.10 kcal/mol
Thermal rotational correction    ...      0.00141627 Eh       0.89 kcal/mol
Thermal translational correction ...      0.00141627 Eh       0.89 kcal/mol
-----------------------------------------------------------------------
Total thermal energy                   -400.43841070 Eh

Summary of corrections to the electronic energy:
(perhaps to be used in another calculation)
Total thermal correction                  0.00776589 Eh       4.87 kcal/mol
Non-thermal (ZPE) correction              0.12583931 Eh      78.97 kcal/mol
-----------------------------------------------------------------------
Total correction                          0.13360519 Eh      83.84 kcal/mol

--------
ENTHALPY
--------

The enthalpy is H = U + kB*T
                kB is Boltzmann's constant
Total thermal energy              ...   -400.43841070 Eh
Thermal Enthalpy correction       ...      0.00094421 Eh       0.59 kcal/mol
-----------------------------------------------------------------------
Total Enthalpy                    ...   -400.43746649 Eh

Note: Only C1 symmetry has been detected, increase convergence thresholds
      if your molecule has a higher symmetry. Symmetry factor of 1.0 is
      used for the rotational entropy correction.

Note: Rotational entropy computed according to Herzberg
Infrared and Raman Spectra, Chapter V,1, Van Nostrand Reinhold, 1945
Point Group:  C1, Symmetry Number:   1
Rotational constants in cm-1:     0.168050     0.031268     0.026363

Vibrational entropy computed according to the QRRHO of S. Grimme
Chem.Eur.J. 2012 18 9955 using a reference frequency of 100.0 cm-1

-------
ENTROPY
-------

The entropy contributions are T*S = T*(S(el)+S(vib)+S(rot)+S(trans))
     S(el)   - electronic entropy
     S(vib)  - vibrational entropy
     S(rot)  - rotational entropy
     S(trans)- translational entropy
The entropies will be listed as multiplied by the temperature to get
units of energy

Electronic entropy                ...      0.00065446 Eh      0.41 kcal/mol
Vibrational entropy               ...      0.00812747 Eh      5.10 kcal/mol
Rotational entropy                ...      0.01370509 Eh      8.60 kcal/mol
Translational entropy             ...      0.01914284 Eh     12.01 kcal/mol
-----------------------------------------------------------------------
Final entropy term                ...      0.04162985 Eh     26.12 kcal/mol

In case the symmetry of your molecule has not been determined correctly
or in case you have a reason to use a different symmetry number we print
out the resulting rotational entropy values for sn=1,12:

 non-linear molecules -----------------------------------
|  sn= 1 | S(rot)=       0.01370509 Eh      8.60 kcal/mol|
|  sn= 2 | S(rot)=       0.01305063 Eh      8.19 kcal/mol|
|  sn= 3 | S(rot)=       0.01266780 Eh      7.95 kcal/mol|
|  sn= 4 | S(rot)=       0.01239617 Eh      7.78 kcal/mol|
|  sn= 5 | S(rot)=       0.01218549 Eh      7.65 kcal/mol|
|  sn= 6 | S(rot)=       0.01201334 Eh      7.54 kcal/mol|
|  sn= 7 | S(rot)=       0.01186779 Eh      7.45 kcal/mol|
|  sn= 8 | S(rot)=       0.01174172 Eh      7.37 kcal/mol|
|  sn= 9 | S(rot)=       0.01163051 Eh      7.30 kcal/mol|
|  sn=10 | S(rot)=       0.01153103 Eh      7.24 kcal/mol|
|  sn=11 | S(rot)=       0.01144104 Eh      7.18 kcal/mol|
|  sn=12 | S(rot)=       0.01135888 Eh      7.13 kcal/mol|
 linear molecules ---------------------------------------
|  Dinfh | S(rot)=       0.00875867 Eh      5.50 kcal/mol|
|  Cinfv | S(rot)=       0.00941312 Eh      5.91 kcal/mol|
 --------------------------------------------------------

                             ****ORCA TERMINATED NORMALLY****
TOTAL RUN TIME: 0 days 0 hours 49 minutes 56 seconds 522 msec
