                         Program Version 6.0.0  -   RELEASE  -
|  1> !B3LYP aug-cc-pVTZ d3 TightSCF SlowConv RIJCOSX defgrid2
|  2>
|  3> %pal
|  4> nprocs 4
|  5> end
|  6>
|  7> %scf
|  8> MaxIter 1500
|  9> end
| 10>
| 11> %maxcore 3000
| 12>
| 13> !CPCM
| 14> %cpcm smd true
| 15> SMDsolvent "MeCN"
| 16> surfacetype gepol_ses
| 17> rsolv 2.19
| 18> end
| 19>
| 20> * xyz -1 2
| 21> C          -1.37883091856119     -1.21517375011549     -0.00008867448001
| 22> C           0.00729805129085     -1.22295651486138     -0.00028940061097
| 23> C           0.72993387220770     -0.00000590382604     -0.00030312643494
| 24> C           0.00732184530524      1.22296016475999     -0.00010449796565
| 25> C          -1.37880870032056      1.21520147102756      0.00009142728977
| 26> C          -2.06946528458053      0.00001961491822      0.00010470343428
| 27> F          -3.42567015063122      0.00002957691106      0.00031309610633
| 28> H          -1.94941667505959      2.14990360317295      0.00023681861010
| 29> H           0.58443906920603      2.14816924945391     -0.00012002348132
| 30> N           2.11808314940451     -0.00002527989961     -0.00036226373716
| 31> O           2.72387695234489     -1.10771207139848      0.00040597823570
| 32> O           2.72391644246942      1.10763885175707      0.00056138155342
| 33> H           0.58439912932837     -2.14817284604861     -0.00044313878677
| 34> H          -1.94945738240393     -2.14986566585114     -0.00007967973278
| 35> *
| 36>
| 37>                          ****END OF INPUT****

CARTESIAN COORDINATES (ANGSTROEM)
---------------------------------
  C     -1.378831   -1.215174   -0.000089
  C      0.007298   -1.222957   -0.000289
  C      0.729934   -0.000006   -0.000303
  C      0.007322    1.222960   -0.000104
  C     -1.378809    1.215201    0.000091
  C     -2.069465    0.000020    0.000105
  F     -3.425670    0.000030    0.000313
  H     -1.949417    2.149904    0.000237
  H      0.584439    2.148169   -0.000120
  N      2.118083   -0.000025   -0.000362
  O      2.723877   -1.107712    0.000406
  O      2.723916    1.107639    0.000561
  H      0.584399   -2.148173   -0.000443
  H     -1.949457   -2.149866   -0.000080

 Total Charge           Charge          ....   -1
 Multiplicity           Mult            ....    2
 Number of Electrons    NEL             ....   73
 Basis Dimension        Dim             ....  552

ORBITAL ENERGIES
----------------
                 SPIN UP ORBITALS
  NO   OCC          E(Eh)            E(eV)
   0   1.0000     -24.690879      -671.8730
   1   1.0000     -19.077927      -519.1368
   2   1.0000     -19.077926      -519.1368
   3   1.0000     -14.444465      -393.0539
   4   1.0000     -10.243656      -278.7441
   5   1.0000     -10.193839      -277.3885
   6   1.0000     -10.173132      -276.8250
   7   1.0000     -10.173131      -276.8250
   8   1.0000     -10.169057      -276.7141
   9   1.0000     -10.169043      -276.7137
  10   1.0000      -1.220972       -33.2243
  11   1.0000      -1.131364       -30.7860
  12   1.0000      -0.960635       -26.1402
  13   1.0000      -0.853951       -23.2372
  14   1.0000      -0.773282       -21.0421
  15   1.0000      -0.744437       -20.2572
  16   1.0000      -0.669225       -18.2105
  17   1.0000      -0.609629       -16.5888
  18   1.0000      -0.569149       -15.4873
  19   1.0000      -0.535046       -14.5593
  20   1.0000      -0.494779       -13.4636
  21   1.0000      -0.486790       -13.2462
  22   1.0000      -0.474571       -12.9137
  23   1.0000      -0.466564       -12.6959
  24   1.0000      -0.440250       -11.9798
  25   1.0000      -0.432961       -11.7815
  26   1.0000      -0.416017       -11.3204
  27   1.0000      -0.399864       -10.8809
  28   1.0000      -0.391199       -10.6451
  29   1.0000      -0.352518        -9.5925
  30   1.0000      -0.329541        -8.9673
  31   1.0000      -0.270345        -7.3564
  32   1.0000      -0.256787        -6.9875
  33   1.0000      -0.255965        -6.9652
  34   1.0000      -0.245318        -6.6754
  35   1.0000      -0.228857        -6.2275
  36   1.0000      -0.119688        -3.2569
  37   0.0000      -0.011534        -0.3139
  38   0.0000       0.001940         0.0528
  39   0.0000       0.017135         0.4663
  40   0.0000       0.017201         0.4681
  41   0.0000       0.020690         0.5630

                 SPIN DOWN ORBITALS
  NO   OCC          E(Eh)            E(eV)
   0   1.0000     -24.690223      -671.8551
   1   1.0000     -19.072537      -518.9901
   2   1.0000     -19.072534      -518.9900
   3   1.0000     -14.436283      -392.8312
   4   1.0000     -10.240629      -278.6617
   5   1.0000     -10.194269      -277.4002
   6   1.0000     -10.174218      -276.8545
   7   1.0000     -10.174215      -276.8545
   8   1.0000     -10.166992      -276.6579
   9   1.0000     -10.166983      -276.6577
  10   1.0000      -1.219405       -33.1817
  11   1.0000      -1.118471       -30.4352
  12   1.0000      -0.950150       -25.8549
  13   1.0000      -0.851191       -23.1621
  14   1.0000      -0.766676       -20.8623
  15   1.0000      -0.742565       -20.2062
  16   1.0000      -0.659257       -17.9393
  17   1.0000      -0.607863       -16.5408
  18   1.0000      -0.565417       -15.3858
  19   1.0000      -0.533612       -14.5203
  20   1.0000      -0.487062       -13.2536
  21   1.0000      -0.484987       -13.1972
  22   1.0000      -0.461994       -12.5715
  23   1.0000      -0.437699       -11.9104
  24   1.0000      -0.433657       -11.8004
  25   1.0000      -0.432047       -11.7566
  26   1.0000      -0.415563       -11.3080
  27   1.0000      -0.397762       -10.8236
  28   1.0000      -0.389978       -10.6118
  29   1.0000      -0.344189        -9.3659
  30   1.0000      -0.328734        -8.9453
  31   1.0000      -0.254343        -6.9210
  32   1.0000      -0.251927        -6.8553
  33   1.0000      -0.232478        -6.3260
  34   1.0000      -0.228340        -6.2134
  35   1.0000      -0.223670        -6.0864
  36   0.0000      -0.040435        -1.1003
  37   0.0000      -0.006830        -0.1859
  38   0.0000       0.001938         0.0527
  39   0.0000       0.016983         0.4621
  40   0.0000       0.017341         0.4719

MULLIKEN ATOMIC CHARGES AND SPIN POPULATIONS
--------------------------------------------
   0 C :   -0.604374   -0.069822
   1 C :   -0.460728    0.165806
   2 C :    0.276611   -0.042804
   3 C :   -0.461455    0.165812
   4 C :   -0.605793   -0.069820
   5 C :    0.702678    0.165263
   6 F :   -0.504828    0.010194
   7 H :    0.328614    0.002146
   8 H :    0.570321   -0.005417
   9 N :    0.680570    0.229995
  10 O :   -0.909731    0.225968
  11 O :   -0.909610    0.225966
  12 H :    0.569366   -0.005435
  13 H :    0.328360    0.002147
Sum of atomic charges         :   -1.0000000

LOEWDIN ATOMIC CHARGES AND SPIN POPULATIONS
-------------------------------------------
   0 C :    0.150440    0.011204
   1 C :    0.155514    0.063784
   2 C :   -0.329459    0.051671
   3 C :    0.155517    0.063784
   4 C :    0.150438    0.011204
   5 C :   -0.560263    0.082594
   6 F :    0.496916    0.026567
   7 H :   -0.177009   -0.005334
   8 H :   -0.218540    0.016278
   9 N :   -0.872108    0.254251
  10 O :    0.222054    0.206526
  11 O :    0.222055    0.206527
  12 H :   -0.218547    0.016278
  13 H :   -0.177008   -0.005334

  Mayer bond orders larger than 0.100000
B(  0-C ,  1-C ) :   1.3202 B(  0-C ,  2-C ) :  -0.3071 B(  0-C ,  4-C ) :   0.1293
B(  0-C ,  5-C ) :   1.2861 B(  0-C ,  6-F ) :   0.1941 B(  0-C , 10-O ) :  -0.1026
B(  0-C , 13-H ) :   0.7395 B(  1-C ,  2-C ) :   0.9419 B(  1-C ,  3-C ) :   0.2041
B(  1-C ,  9-N ) :  -0.2357 B(  1-C , 12-H ) :   0.3212 B(  2-C ,  3-C ) :   0.9423
B(  2-C ,  4-C ) :  -0.3070 B(  2-C ,  9-N ) :   1.2873 B(  2-C , 10-O ) :   0.3516
B(  2-C , 11-O ) :   0.3503 B(  3-C ,  4-C ) :   1.3207 B(  3-C ,  8-H ) :   0.3185
B(  3-C ,  9-N ) :  -0.2361 B(  4-C ,  5-C ) :   1.2849 B(  4-C ,  6-F ) :   0.1941
B(  4-C ,  7-H ) :   0.7396 B(  4-C , 11-O ) :  -0.1028 B(  6-F ,  7-H ) :   0.1432
B(  6-F , 13-H ) :   0.1434 B(  9-N , 10-O ) :   0.7150 B(  9-N , 11-O ) :   0.7158
B( 10-O , 11-O ) :   0.1003

Dispersion correction           -0.025186162
FINAL SINGLE POINT ENERGY      -536.073931735155

DIPOLE MOMENT
-------------

Method             : SCF
Type of density    : Electron Density
Multiplicity       :   2
Irrep              :   0
Energy             :  -536.0487455733497200 Eh
Relativity type    :
Basis              : AO
                                X                 Y                 Z
Electronic contribution:     -4.549296053       0.000043223      -0.001209462
Nuclear contribution   :      0.705808692       0.000011450      -0.000838371
                        -----------------------------------------
Total Dipole Moment    :     -3.843487362       0.000054673      -0.002047833
                        -----------------------------------------
Magnitude (a.u.)       :      3.843487907
Magnitude (Debye)      :      9.769369876

Rotational constants in cm-1:             0.130395             0.026545             0.022055
Rotational constants in MHz :          3909.135354           795.801666           661.198337

                             ****ORCA TERMINATED NORMALLY****
TOTAL RUN TIME: 0 days 0 hours 5 minutes 15 seconds 376 msec
