                         Program Version 6.0.0  -   RELEASE  -
|  1> !r2SCAN aug-cc-pVTZ d3 TightSCF SlowConv RIJCOSX defgrid2
|  2>
|  3> %pal
|  4> nprocs 4
|  5> end
|  6>
|  7> %scf
|  8> MaxIter 1500
|  9> end
| 10>
| 11> %maxcore 3000
| 12>
| 13> !CPCM
| 14> %cpcm smd true
| 15> SMDsolvent "MeCN"
| 16> surfacetype gepol_ses
| 17> rsolv 2.19
| 18> end
| 19>
| 20> * xyz 1 2
| 21> C           2.42348472290459     -0.91745853608407      0.59245240880380
| 22> C           1.25995896348321     -0.39202749196625     -0.02333100512405
| 23> C           1.34845533499414      0.85031226217091     -0.70354304574749
| 24> C           2.54901795106357      1.53889253592779     -0.75588972072195
| 25> C           3.68078809059867      1.01347219167219     -0.12249703890860
| 26> C           3.61293527426724     -0.21317645517309      0.55511971135216
| 27> H           4.49963825852970     -0.61051765955941      1.05572901180402
| 28> H           4.62917087127076      1.55697433746367     -0.16496199627931
| 29> H           2.61592640542583      2.48137948500377     -1.30532606762871
| 30> H           0.47393529747941      1.23580556067586     -1.23411925330570
| 31> C          -0.00001731418985     -1.11439032518152     -0.00002747562644
| 32> C          -0.00002568960524     -2.50679262514812     -0.00005487800504
| 33> H          -0.93480054732863     -3.07584961343870     -0.00342574946663
| 34> H           0.93474533226452     -3.07585703929259      0.00329162420143
| 35> C          -1.25998231282226     -0.39200541574857      0.02329276572865
| 36> C          -2.42352655120021     -0.91741544935804     -0.59247757528391
| 37> C          -3.61296415978219     -0.21311035984979     -0.55512705740855
| 38> C          -3.68079177573927      1.01353038434026      0.12250956134291
| 39> C          -2.54900448879428      1.53892565378929      0.75589582496725
| 40> C          -1.34845157706727      0.85032505299238      0.70352498564033
| 41> H          -0.47391984231340      1.23578710201298      1.23410367351677
| 42> H          -2.61589448475022      2.48140107327864      1.30534730547376
| 43> H          -4.62916722704471      1.55704319189423      0.16499523284128
| 44> H          -4.49967994828211     -0.61043350047146     -1.05572841225155
| 45> H          -2.37320187697182     -1.85878167189054     -1.14547741375033
| 46> H           2.37313869360983     -1.85882668805983      1.14544868383589
| 47> *
| 48>
| 49>                          ****END OF INPUT****

CARTESIAN COORDINATES (ANGSTROEM)
---------------------------------
  C      2.423485   -0.917459    0.592452
  C      1.259959   -0.392027   -0.023331
  C      1.348455    0.850312   -0.703543
  C      2.549018    1.538893   -0.755890
  C      3.680788    1.013472   -0.122497
  C      3.612935   -0.213176    0.555120
  H      4.499638   -0.610518    1.055729
  H      4.629171    1.556974   -0.164962
  H      2.615926    2.481379   -1.305326
  H      0.473935    1.235806   -1.234119
  C     -0.000017   -1.114390   -0.000027
  C     -0.000026   -2.506793   -0.000055
  H     -0.934801   -3.075850   -0.003426
  H      0.934745   -3.075857    0.003292
  C     -1.259982   -0.392005    0.023293
  C     -2.423527   -0.917415   -0.592478
  C     -3.612964   -0.213110   -0.555127
  C     -3.680792    1.013530    0.122510
  C     -2.549004    1.538926    0.755896
  C     -1.348452    0.850325    0.703525
  H     -0.473920    1.235787    1.234104
  H     -2.615894    2.481401    1.305347
  H     -4.629167    1.557043    0.164995
  H     -4.499680   -0.610434   -1.055728
  H     -2.373202   -1.858782   -1.145477
  H      2.373139   -1.858827    1.145449

 Total Charge           Charge          ....    1
 Multiplicity           Mult            ....    2
 Number of Electrons    NEL             ....   95
 Basis Dimension        Dim             ....  920

ORBITAL ENERGIES
----------------
                 SPIN UP ORBITALS
  NO   OCC          E(Eh)            E(eV)
   0   1.0000     -10.116105      -275.2732
   1   1.0000     -10.103771      -274.9376
   2   1.0000     -10.093587      -274.6605
   3   1.0000     -10.093576      -274.6602
   4   1.0000     -10.074937      -274.1530
   5   1.0000     -10.074931      -274.1528
   6   1.0000     -10.074563      -274.1428
   7   1.0000     -10.074513      -274.1414
   8   1.0000     -10.072726      -274.0928
   9   1.0000     -10.072722      -274.0927
  10   1.0000     -10.063792      -273.8497
  11   1.0000     -10.063788      -273.8496
  12   1.0000     -10.063077      -273.8302
  13   1.0000     -10.063060      -273.8298
  14   1.0000      -0.874466       -23.7954
  15   1.0000      -0.849136       -23.1062
  16   1.0000      -0.810815       -22.0634
  17   1.0000      -0.746033       -20.3006
  18   1.0000      -0.745116       -20.2756
  19   1.0000      -0.737588       -20.0708
  20   1.0000      -0.722366       -19.6566
  21   1.0000      -0.639454       -17.4004
  22   1.0000      -0.606052       -16.4915
  23   1.0000      -0.595558       -16.2060
  24   1.0000      -0.589969       -16.0539
  25   1.0000      -0.547900       -14.9091
  26   1.0000      -0.516852       -14.0642
  27   1.0000      -0.495279       -13.4772
  28   1.0000      -0.461764       -12.5652
  29   1.0000      -0.461374       -12.5546
  30   1.0000      -0.443787       -12.0760
  31   1.0000      -0.433143       -11.7864
  32   1.0000      -0.432311       -11.7638
  33   1.0000      -0.412710       -11.2304
  34   1.0000      -0.412127       -11.2145
  35   1.0000      -0.410738       -11.1767
  36   1.0000      -0.382867       -10.4184
  37   1.0000      -0.379038       -10.3141
  38   1.0000      -0.374368       -10.1871
  39   1.0000      -0.348400        -9.4805
  40   1.0000      -0.338189        -9.2026
  41   1.0000      -0.335544        -9.1306
  42   1.0000      -0.328551        -8.9403
  43   1.0000      -0.322155        -8.7663
  44   1.0000      -0.271606        -7.3908
  45   1.0000      -0.268101        -7.2954
  46   1.0000      -0.262518        -7.1435
  47   1.0000      -0.252627        -6.8743
  48   0.0000      -0.123586        -3.3629
  49   0.0000      -0.075820        -2.0632
  50   0.0000      -0.065163        -1.7732
  51   0.0000      -0.051924        -1.4129
  52   0.0000      -0.012369        -0.3366

                 SPIN DOWN ORBITALS
  NO   OCC          E(Eh)            E(eV)
   0   1.0000     -10.116902      -275.2949
   1   1.0000     -10.093942      -274.6701
   2   1.0000     -10.092251      -274.6241
   3   1.0000     -10.092240      -274.6238
   4   1.0000     -10.073493      -274.1137
   5   1.0000     -10.073443      -274.1123
   6   1.0000     -10.072739      -274.0932
   7   1.0000     -10.072734      -274.0930
   8   1.0000     -10.071896      -274.0702
   9   1.0000     -10.071893      -274.0701
  10   1.0000     -10.064221      -273.8614
  11   1.0000     -10.064216      -273.8612
  12   1.0000     -10.063662      -273.8462
  13   1.0000     -10.063645      -273.8457
  14   1.0000      -0.870566       -23.6893
  15   1.0000      -0.846153       -23.0250
  16   1.0000      -0.805004       -21.9053
  17   1.0000      -0.743710       -20.2374
  18   1.0000      -0.742242       -20.1974
  19   1.0000      -0.734769       -19.9941
  20   1.0000      -0.708121       -19.2689
  21   1.0000      -0.631784       -17.1917
  22   1.0000      -0.603891       -16.4327
  23   1.0000      -0.592001       -16.1092
  24   1.0000      -0.588315       -16.0089
  25   1.0000      -0.544880       -14.8269
  26   1.0000      -0.516408       -14.0522
  27   1.0000      -0.493109       -13.4182
  28   1.0000      -0.460397       -12.5280
  29   1.0000      -0.459504       -12.5037
  30   1.0000      -0.442151       -12.0315
  31   1.0000      -0.430580       -11.7167
  32   1.0000      -0.430433       -11.7127
  33   1.0000      -0.411855       -11.2071
  34   1.0000      -0.410579       -11.1724
  35   1.0000      -0.409500       -11.1431
  36   1.0000      -0.379895       -10.3375
  37   1.0000      -0.372402       -10.1336
  38   1.0000      -0.367264        -9.9938
  39   1.0000      -0.347996        -9.4695
  40   1.0000      -0.337774        -9.1913
  41   1.0000      -0.330636        -8.9971
  42   1.0000      -0.327498        -8.9117
  43   1.0000      -0.308039        -8.3822
  44   1.0000      -0.266639        -7.2556
  45   1.0000      -0.260500        -7.0886
  46   1.0000      -0.257912        -7.0181
  47   0.0000      -0.212380        -5.7791
  48   0.0000      -0.090675        -2.4674
  49   0.0000      -0.066577        -1.8116
  50   0.0000      -0.060851        -1.6558
  51   0.0000      -0.047416        -1.2902

MULLIKEN ATOMIC CHARGES AND SPIN POPULATIONS
--------------------------------------------
   0 C :   -1.064176    0.034908
   1 C :    2.491486    0.144926
   2 C :   -0.601124    0.059996
   3 C :   -0.967138   -0.046619
   4 C :   -0.096507    0.138392
   5 C :   -0.772545   -0.036531
   6 H :    0.480269   -0.000265
   7 H :    0.517347    0.004758
   8 H :    0.467095   -0.000443
   9 H :    0.083204    0.001279
  10 C :    0.701667   -0.129474
  11 C :   -1.051312    0.454030
  12 H :    0.245183    0.035281
  13 H :    0.245017    0.035286
  14 C :    2.492579    0.144860
  15 C :   -1.064231    0.034964
  16 C :   -0.772456   -0.036585
  17 C :   -0.096554    0.138411
  18 C :   -0.966927   -0.046617
  19 C :   -0.602433    0.060051
  20 H :    0.082853    0.001287
  21 H :    0.467083   -0.000442
  22 H :    0.517348    0.004762
  23 H :    0.480261   -0.000279
  24 H :   -0.107991    0.002040
  25 H :   -0.107998    0.002025
Sum of atomic charges         :    1.0000000

LOEWDIN ATOMIC CHARGES AND SPIN POPULATIONS
-------------------------------------------
   0 C :    0.248763    0.032992
   1 C :   -0.099449    0.055346
   2 C :    0.239070    0.039279
   3 C :    0.244596    0.012635
   4 C :    0.242027    0.062737
   5 C :    0.242210    0.015174
   6 H :   -0.154623   -0.001800
   7 H :   -0.149924    0.014961
   8 H :   -0.154145   -0.002591
   9 H :   -0.151409    0.006524
  10 C :   -0.066440    0.095493
  11 C :    0.682378    0.298806
  12 H :   -0.157502    0.061953
  13 H :   -0.157517    0.061955
  14 C :   -0.099412    0.055342
  15 C :    0.248798    0.033001
  16 C :    0.242225    0.015167
  17 C :    0.242045    0.062742
  18 C :    0.244621    0.012638
  19 C :    0.239013    0.039281
  20 H :   -0.151517    0.006526
  21 H :   -0.154139   -0.002591
  22 H :   -0.149920    0.014963
  23 H :   -0.154620   -0.001803
  24 H :   -0.157562    0.005636
  25 H :   -0.157566    0.005634

  Mayer bond orders larger than 0.100000
B(  0-C ,  1-C ) :  -0.2574 B(  0-C ,  2-C ) :  -0.7943 B(  0-C ,  4-C ) :  -0.1500
B(  0-C ,  5-C ) :   1.3240 B(  0-C ,  6-H ) :  -0.1234 B(  0-C , 10-C ) :   0.3977
B(  0-C , 25-H ) :   1.7772 B(  1-C ,  2-C ) :   0.3430 B(  1-C ,  4-C ) :  -0.2210
B(  1-C , 10-C ) :  -0.2156 B(  1-C , 11-C ) :  -0.3568 B(  1-C , 14-C ) :  -0.2706
B(  1-C , 25-H ) :  -0.1457 B(  2-C ,  3-C ) :   1.2875 B(  2-C ,  9-H ) :   1.3967
B(  2-C , 10-C ) :   0.3441 B(  2-C , 11-C ) :   0.1139 B(  2-C , 19-C ) :   0.1578
B(  3-C ,  4-C ) :   1.1791 B(  3-C ,  5-C ) :   0.3202 B(  3-C ,  8-H ) :   0.4654
B(  3-C , 25-H ) :  -0.1120 B(  4-C ,  5-C ) :   1.0540 B(  4-C ,  7-H ) :   0.5285
B(  4-C , 10-C ) :   0.2058 B(  5-C ,  6-H ) :   0.4935 B(  5-C ,  9-H ) :  -0.1343
B(  5-C , 10-C ) :   0.1018 B(  9-H , 25-H ) :   0.1567 B( 10-C , 11-C ) :   0.6017
B( 10-C , 14-C ) :  -0.2157 B( 10-C , 15-C ) :   0.3975 B( 10-C , 16-C ) :   0.1018
B( 10-C , 17-C ) :   0.2057 B( 10-C , 19-C ) :   0.3446 B( 10-C , 24-H ) :  -0.1979
B( 10-C , 25-H ) :  -0.1979 B( 11-C , 12-H ) :   0.9500 B( 11-C , 13-H ) :   0.9502
B( 11-C , 14-C ) :  -0.3568 B( 11-C , 19-C ) :   0.1139 B( 14-C , 15-C ) :  -0.2574
B( 14-C , 17-C ) :  -0.2209 B( 14-C , 19-C ) :   0.3424 B( 14-C , 24-H ) :  -0.1457
B( 15-C , 16-C ) :   1.3239 B( 15-C , 17-C ) :  -0.1500 B( 15-C , 19-C ) :  -0.7946
B( 15-C , 23-H ) :  -0.1234 B( 15-C , 24-H ) :   1.7773 B( 16-C , 17-C ) :   1.0540
B( 16-C , 18-C ) :   0.3202 B( 16-C , 20-H ) :  -0.1344 B( 16-C , 23-H ) :   0.4935
B( 17-C , 18-C ) :   1.1792 B( 17-C , 22-H ) :   0.5285 B( 18-C , 19-C ) :   1.2874
B( 18-C , 21-H ) :   0.4655 B( 18-C , 24-H ) :  -0.1120 B( 19-C , 20-H ) :   1.3975
B( 20-H , 24-H ) :   0.1568

Dispersion correction           -0.010389633
FINAL SINGLE POINT ENERGY      -540.383082688772

DIPOLE MOMENT
-------------

Method             : SCF
Type of density    : Electron Density
Multiplicity       :   2
Irrep              :   0
Energy             :  -540.3726930556589423 Eh
Relativity type    :
Basis              : AO
                                X                 Y                 Z
Electronic contribution:     -0.000910542      -0.245745126      -0.000817079
Nuclear contribution   :     -0.000002786      -0.578596445       0.000006465
                        -----------------------------------------
Total Dipole Moment    :     -0.000913328      -0.824341571      -0.000810614
                        -----------------------------------------
Magnitude (a.u.)       :      0.824342476
Magnitude (Debye)      :      2.095312056

Rotational constants in cm-1:             0.053565             0.014254             0.012120
Rotational constants in MHz :          1605.831188           427.320428           363.336984

                             ****ORCA TERMINATED NORMALLY****
TOTAL RUN TIME: 0 days 0 hours 9 minutes 51 seconds 984 msec
