                         Program Version 6.0.0  -   RELEASE  -
|  1> !PBE0 def2-SV(p) Opt Freq d3 TightSCF SlowConv RIJCOSX defgrid2
|  2>
|  3> %pal
|  4> nprocs 4
|  5> end
|  6>
|  7> %scf
|  8> MaxIter 1500
|  9> end
| 10>
| 11> %maxcore 3000
| 12>
| 13>
| 14>
| 15> * xyz 0 1
| 16> C    -0.8844933   -0.4515577   -0.0108556
| 17> C    -2.1466617    0.1253267    0.0439145
| 18> C    -2.2893586    1.5036424    0.0479884
| 19> C    -1.1739948    2.3185366   -0.0069444
| 20> C     0.0855488    1.7499638   -0.0621959
| 21> C     0.2640816    0.3697103   -0.0598043
| 22> C     1.5788891   -0.2557297   -0.1249882
| 23> C     2.7489008    0.3310550    0.1167481
| 24> C     4.0649434   -0.3648389    0.0307876
| 25> H     3.9389580   -1.4051783   -0.2584540
| 26> H     4.7044939    0.1307364   -0.6999087
| 27> H     4.5757989   -0.3240151    0.9929473
| 28> H     2.7986973    1.3725386    0.4049076
| 29> H     1.5628251   -1.3077652   -0.3768768
| 30> H     0.9522959    2.3898537   -0.1214522
| 31> H    -1.2838294    3.3926740   -0.0109022
| 32> H    -3.2790380    1.9338790    0.0907320
| 33> H    -3.0312103   -0.4904730    0.0843048
| 34> O    -0.6647023   -1.7996801   -0.0120349
| 35> C    -1.7702208   -2.6719198    0.0263101
| 36> H    -2.4203058   -2.5362112   -0.8441122
| 37> H    -2.3542604   -2.5403658    0.9428574
| 38> H    -1.3488359   -3.6759700    0.0087271
| 39> *
| 40>
| 41>                          ****END OF INPUT****
 Total Charge           Charge          ....    0
 Multiplicity           Mult            ....    1
 Number of Electrons    NEL             ....   80
Dispersion correction           -0.020367966
FINAL SINGLE POINT ENERGY      -462.597970203170
Dispersion correction             ... done (  0.1 sec)
Dispersion correction           -0.020297686
FINAL SINGLE POINT ENERGY      -462.600544162693
Dispersion correction             ... done (  0.1 sec)
Dispersion correction           -0.020284883
FINAL SINGLE POINT ENERGY      -462.600657405122
Dispersion correction             ... done (  0.1 sec)
FINAL SINGLE POINT ENERGY      -462.600694718122
Dispersion correction             ... done (  0.1 sec)
Dispersion correction           -0.020284575
FINAL SINGLE POINT ENERGY      -462.600697929499
Dispersion correction             ... done (  0.0 sec)
Dispersion correction           -0.020285549
FINAL SINGLE POINT ENERGY      -462.600698502890
Dispersion correction             ... done (  0.0 sec)
                    ***********************HURRAY********************

CARTESIAN COORDINATES (ANGSTROEM)
---------------------------------
  C     -0.892244   -0.454957   -0.011455
  C     -2.165941    0.118337    0.046682
  C     -2.309807    1.505524    0.052665
  C     -1.187303    2.326426   -0.005786
  C      0.078487    1.749806   -0.068958
  C      0.262747    0.362322   -0.065675
  C      1.583977   -0.269921   -0.124695
  C      2.763632    0.321071    0.123046
  C      4.087993   -0.360529    0.032911
  H      3.980568   -1.418405   -0.260572
  H      4.745051    0.134797   -0.707307
  H      4.625300   -0.324421    0.999590
  H      2.785030    1.377127    0.425694
  H      1.578496   -1.334196   -0.383986
  H      0.957577    2.396366   -0.140385
  H     -1.295197    3.414487   -0.013111
  H     -3.312774    1.940236    0.097535
  H     -3.056327   -0.511141    0.090870
  O     -0.676746   -1.788940   -0.013788
  C     -1.769508   -2.658567    0.024449
  H     -2.433117   -2.524151   -0.851598
  H     -2.364664   -2.528575    0.948826
  H     -1.356709   -3.678484    0.006746

 Multiplicity           Mult            ....    1
 Number of Electrons    NEL             ....   80
 Basis Dimension        Dim             ....  178

ORBITAL ENERGIES
----------------

  NO   OCC          E(Eh)            E(eV)
   0   2.0000     -19.245222      -523.6891
   1   2.0000     -10.294589      -280.1300
   2   2.0000     -10.284421      -279.8533
   3   2.0000     -10.238117      -278.5933
   4   2.0000     -10.234155      -278.4855
   5   2.0000     -10.231548      -278.4146
   6   2.0000     -10.231392      -278.4103
   7   2.0000     -10.230022      -278.3730
   8   2.0000     -10.226231      -278.2699
   9   2.0000     -10.223928      -278.2072
  10   2.0000     -10.222280      -278.1624
  11   2.0000      -1.096511       -29.8376
  12   2.0000      -0.873735       -23.7755
  13   2.0000      -0.812506       -22.1094
  14   2.0000      -0.775602       -21.1052
  15   2.0000      -0.760176       -20.6854
  16   2.0000      -0.715583       -19.4720
  17   2.0000      -0.686900       -18.6915
  18   2.0000      -0.626998       -17.0615
  19   2.0000      -0.601792       -16.3756
  20   2.0000      -0.561116       -15.2688
  21   2.0000      -0.548326       -14.9207
  22   2.0000      -0.507777       -13.8173
  23   2.0000      -0.494967       -13.4687
  24   2.0000      -0.491404       -13.3718
  25   2.0000      -0.461049       -12.5458
  26   2.0000      -0.451772       -12.2933
  27   2.0000      -0.436016       -11.8646
  28   2.0000      -0.422580       -11.4990
  29   2.0000      -0.418692       -11.3932
  30   2.0000      -0.397852       -10.8261
  31   2.0000      -0.395249       -10.7553
  32   2.0000      -0.377476       -10.2716
  33   2.0000      -0.374080       -10.1792
  34   2.0000      -0.350609        -9.5405
  35   2.0000      -0.337431        -9.1820
  36   2.0000      -0.332645        -9.0517
  37   2.0000      -0.301037        -8.1916
  38   2.0000      -0.246808        -6.7160
  39   2.0000      -0.216866        -5.9012
  40   0.0000      -0.025677        -0.6987
  41   0.0000       0.014142         0.3848
  42   0.0000       0.063734         1.7343
  43   0.0000       0.072856         1.9825
  44   0.0000       0.084476         2.2987

MULLIKEN ATOMIC CHARGES
-----------------------
   0 C :    0.234904
   1 C :   -0.226450
   2 C :   -0.084630
   3 C :   -0.083335
   4 C :   -0.161351
   5 C :    0.017418
   6 C :   -0.099863
   7 C :   -0.169743
   8 C :   -0.312484
   9 H :    0.130622
  10 H :    0.136209
  11 H :    0.135572
  12 H :    0.108338
  13 H :    0.101135
  14 H :    0.087792
  15 H :    0.088631
  16 H :    0.093531
  17 H :    0.083645
  18 O :   -0.331832
  19 C :   -0.157474
  20 H :    0.130555
  21 H :    0.130919
  22 H :    0.147890
Sum of atomic charges:   -0.0000000

LOEWDIN ATOMIC CHARGES
----------------------
   0 C :    0.050521
   1 C :   -0.182790
   2 C :   -0.121469
   3 C :   -0.150324
   4 C :   -0.107714
   5 C :   -0.063849
   6 C :   -0.136812
   7 C :   -0.139642
   8 C :   -0.338080
   9 H :    0.126467
  10 H :    0.130075
  11 H :    0.129924
  12 H :    0.120169
  13 H :    0.130865
  14 H :    0.128145
  15 H :    0.127562
  16 H :    0.128268
  17 H :    0.131357
  18 O :   -0.107321
  19 C :   -0.201939
  20 H :    0.110874
  21 H :    0.111147
  22 H :    0.124567

  Mayer bond orders larger than 0.100000
B(  0-C ,  1-C ) :   1.3313 B(  0-C ,  5-C ) :   1.3315 B(  0-C , 18-O ) :   1.1301
B(  1-C ,  2-C ) :   1.3631 B(  1-C , 17-H ) :   0.9586 B(  2-C ,  3-C ) :   1.3865
B(  2-C , 16-H ) :   0.9627 B(  3-C ,  4-C ) :   1.3823 B(  3-C , 15-H ) :   0.9652
B(  4-C ,  5-C ) :   1.4073 B(  4-C , 14-H ) :   0.9509 B(  5-C ,  6-C ) :   1.1002
B(  6-C ,  7-C ) :   1.8883 B(  6-C , 13-H ) :   0.9235 B(  7-C ,  8-C ) :   1.0880
B(  7-C , 12-H ) :   0.9180 B(  8-C ,  9-H ) :   0.9532 B(  8-C , 10-H ) :   0.9381
B(  8-C , 11-H ) :   0.9379 B( 18-O , 19-C ) :   0.9611 B( 19-C , 20-H ) :   0.9405
B( 19-C , 21-H ) :   0.9406 B( 19-C , 22-H ) :   0.9563

Dispersion correction           -0.020285902
FINAL SINGLE POINT ENERGY      -462.600698722958

DIPOLE MOMENT
-------------

Method             : SCF
Type of density    : Electron Density
Multiplicity       :   1
Irrep              :   0
Energy             :  -462.5804128205558072 Eh
Relativity type    :
Basis              : AO
                                X                 Y                 Z
Electronic contribution:     -4.906942232       2.554231126      -0.171988624
Nuclear contribution   :      4.581656227      -2.893948868       0.196564691
                        -----------------------------------------
Total Dipole Moment    :     -0.325286005      -0.339717742       0.024576067
                        -----------------------------------------
Magnitude (a.u.)       :      0.470981011
Magnitude (Debye)      :      1.197138591

VIBRATIONAL FREQUENCIES
-----------------------

Scaling factor for frequencies =  1.000000000  (already applied!)

     0:       0.00 cm**-1
     1:       0.00 cm**-1
     2:       0.00 cm**-1
     3:       0.00 cm**-1
     4:       0.00 cm**-1
     5:       0.00 cm**-1
     6:      48.60 cm**-1
     7:      95.22 cm**-1
     8:     111.73 cm**-1
     9:     123.84 cm**-1
    10:     193.27 cm**-1
    11:     211.62 cm**-1
    12:     257.63 cm**-1
    13:     276.17 cm**-1
    14:     331.12 cm**-1
    15:     350.47 cm**-1
    16:     369.50 cm**-1
    17:     485.67 cm**-1
    18:     510.90 cm**-1
    19:     567.58 cm**-1
    20:     593.00 cm**-1
    21:     625.84 cm**-1
    22:     749.36 cm**-1
    23:     771.77 cm**-1
    24:     808.08 cm**-1
    25:     836.16 cm**-1
    26:     850.03 cm**-1
    27:     886.03 cm**-1
    28:     957.14 cm**-1
    29:     967.90 cm**-1
    30:     997.91 cm**-1
    31:    1013.51 cm**-1
    32:    1063.98 cm**-1
    33:    1085.93 cm**-1
    34:    1102.87 cm**-1
    35:    1137.89 cm**-1
    36:    1158.31 cm**-1
    37:    1177.47 cm**-1
    38:    1185.30 cm**-1
    39:    1213.95 cm**-1
    40:    1233.72 cm**-1
    41:    1318.09 cm**-1
    42:    1325.04 cm**-1
    43:    1327.66 cm**-1
    44:    1341.96 cm**-1
    45:    1404.86 cm**-1
    46:    1414.27 cm**-1
    47:    1461.43 cm**-1
    48:    1472.55 cm**-1
    49:    1477.35 cm**-1
    50:    1481.47 cm**-1
    51:    1497.33 cm**-1
    52:    1515.16 cm**-1
    53:    1555.77 cm**-1
    54:    1668.15 cm**-1
    55:    1692.63 cm**-1
    56:    1758.20 cm**-1
    57:    3010.23 cm**-1
    58:    3018.66 cm**-1
    59:    3089.11 cm**-1
    60:    3089.33 cm**-1
    61:    3130.22 cm**-1
    62:    3156.26 cm**-1
    63:    3161.84 cm**-1
    64:    3191.11 cm**-1
    65:    3196.72 cm**-1
    66:    3207.03 cm**-1
    67:    3220.47 cm**-1
    68:    3233.74 cm**-1

IR SPECTRUM
-----------

 Mode   freq       eps      Int      T**2         TX        TY        TZ
       cm**-1   L/(mol*cm) km/mol    a.u.
----------------------------------------------------------------------------
  6:     48.60   0.000117    0.59  0.000751  ( 0.005246 -0.006610  0.026074)
  7:     95.22   0.000794    4.01  0.002603  (-0.001937  0.001428 -0.050959)
  8:    111.73   0.000344    1.74  0.000961  ( 0.001866 -0.000418  0.030940)
  9:    123.84   0.000115    0.58  0.000290  (-0.004617 -0.016332 -0.001281)
 10:    193.27   0.000139    0.70  0.000224  (-0.001485  0.000203 -0.014905)
 11:    211.62   0.000041    0.21  0.000061  ( 0.003149 -0.000458 -0.007102)
 12:    257.63   0.000299    1.51  0.000362  (-0.010837  0.015622 -0.000331)
 13:    276.17   0.000024    0.12  0.000027  ( 0.002750 -0.000790 -0.004375)
 14:    331.12   0.000099    0.50  0.000094  ( 0.008145 -0.003506  0.003880)
 15:    350.47   0.000307    1.55  0.000273  (-0.016304  0.001857  0.001988)
 16:    369.50   0.000257    1.30  0.000217  (-0.001568 -0.014582  0.001363)
 17:    485.67   0.000359    1.81  0.000231  (-0.000625  0.002654  0.014939)
 18:    510.90   0.000381    1.93  0.000233  (-0.015125  0.001790 -0.000857)
 19:    567.58   0.000092    0.46  0.000050  ( 0.002510 -0.001080 -0.006549)
 20:    593.00   0.000765    3.87  0.000403  ( 0.001368 -0.019909 -0.002067)
 21:    625.84   0.000855    4.32  0.000427  (-0.019930  0.004918  0.002273)
 22:    749.36   0.003637   18.38  0.001515  (-0.002827  0.004359 -0.038570)
 23:    771.77   0.008940   45.18  0.003615  ( 0.005135  0.002648  0.059846)
 24:    808.08   0.001309    6.62  0.000506  ( 0.000845 -0.022466 -0.000344)
 25:    836.16   0.000252    1.27  0.000094  ( 0.007329  0.005639 -0.002906)
 26:    850.03   0.000565    2.85  0.000207  (-0.006996 -0.012582 -0.000049)
 27:    886.03   0.000506    2.56  0.000178  (-0.002923 -0.000087  0.013030)
 28:    957.14   0.000543    2.74  0.000177  (-0.010787 -0.002386 -0.007404)
 29:    967.90   0.004208   21.27  0.001357  (-0.035979 -0.007890  0.000224)
 30:    997.91   0.000383    1.93  0.000120  (-0.002958  0.001673 -0.010400)
 31:   1013.51   0.005563   28.11  0.001713  (-0.002156  0.011025 -0.039834)
 32:   1063.98   0.000046    0.23  0.000013  ( 0.003053  0.000064 -0.002029)
 33:   1085.93   0.001114    5.63  0.000320  (-0.016068  0.007804  0.001002)
 34:   1102.87   0.001810    9.15  0.000512  (-0.013220 -0.018283 -0.001795)
 35:   1137.89   0.002110   10.66  0.000579  (-0.019894 -0.013400  0.001789)
 36:   1158.31   0.007634   38.58  0.002057  ( 0.031649  0.032447 -0.001504)
 37:   1177.47   0.001615    8.16  0.000428  (-0.015839 -0.013306  0.000190)
 38:   1185.30   0.000124    0.63  0.000033  ( 0.000366 -0.000622  0.005674)
 39:   1213.95   0.000998    5.04  0.000257  ( 0.014988  0.005500 -0.001302)
 40:   1233.72   0.000024    0.12  0.000006  (-0.002186  0.000358 -0.001118)
 41:   1318.09   0.004131   20.87  0.000978  ( 0.014557  0.027676  0.000260)
 42:   1325.04   0.007896   39.90  0.001860  ( 0.007446  0.042475  0.000387)
 43:   1327.66   0.007626   38.54  0.001792  (-0.024383 -0.034609 -0.000305)
 44:   1341.96   0.028758  145.33  0.006688  (-0.022161 -0.078714  0.000758)
 45:   1404.86   0.001262    6.38  0.000280  ( 0.016387  0.002069 -0.002735)
 46:   1414.27   0.003625   18.32  0.000800  (-0.024321 -0.014432 -0.000259)
 47:   1461.43   0.001918    9.69  0.000409  ( 0.000792  0.005295 -0.019514)
 48:   1472.55   0.006955   35.15  0.001474  (-0.018870 -0.033070 -0.004913)
 49:   1477.35   0.000890    4.50  0.000188  ( 0.004065 -0.012656  0.003366)
 50:   1481.47   0.001737    8.78  0.000366  (-0.000677 -0.001249 -0.019077)
 51:   1497.33   0.008446   42.68  0.001760  ( 0.007658  0.041250 -0.000387)
 52:   1515.16   0.006696   33.84  0.001379  (-0.010945 -0.035485  0.000411)
 53:   1555.77   0.020627  104.24  0.004137  ( 0.005616  0.064076 -0.000483)
 54:   1668.15   0.002024   10.23  0.000379  ( 0.013288  0.014199 -0.000711)
 55:   1692.63   0.008251   41.70  0.001521  ( 0.008028  0.038163  0.000497)
 56:   1758.20   0.002091   10.57  0.000371  ( 0.014102 -0.013110 -0.000692)
 57:   3010.23   0.013399   67.71  0.001389  ( 0.027420  0.025240 -0.000285)
 58:   3018.66   0.007683   38.83  0.000794  ( 0.027511 -0.006114  0.000206)
 59:   3089.11   0.004636   23.43  0.000468  (-0.000676 -0.000503 -0.021624)
 60:   3089.33   0.004097   20.70  0.000414  (-0.000233 -0.004353  0.019870)
 61:   3130.22   0.001045    5.28  0.000104  ( 0.004048  0.008847  0.003082)
 62:   3156.26   0.003343   16.89  0.000331  (-0.001428  0.017430  0.004966)
 63:   3161.84   0.003042   15.37  0.000300  (-0.004034  0.016849  0.000303)
 64:   3191.11   0.002394   12.10  0.000234  (-0.011838  0.009435  0.002233)
 65:   3196.72   0.000034    0.17  0.000003  ( 0.001392  0.001177  0.000142)
 66:   3207.03   0.001551    7.84  0.000151  ( 0.012061 -0.002239 -0.000689)
 67:   3220.47   0.003204   16.19  0.000310  (-0.000305  0.017617 -0.000193)
 68:   3233.74   0.001333    6.74  0.000129  (-0.010830 -0.003355  0.000254)

--------------------------
THERMOCHEMISTRY AT 298.15K
--------------------------

Temperature         ...   298.15 K
Pressure            ...     1.00 atm
Total Mass          ...   148.21 AMU
Quasi RRHO          ...     True
Cut-Off Frequency   ...     1.00 cm^-1

Throughout the following assumptions are being made:
  (1) The electronic state is orbitally nondegenerate
  (2) There are no thermally accessible electronically excited states
  (3) Hindered rotations indicated by low frequency modes are not
      treated as such but are treated as vibrations and this may
      cause some error
  (4) All equations used are the standard statistical mechanics
      equations for an ideal gas
  (5) All vibrations are strictly harmonic

freq.      48.60  E(vib)   ...       0.53
freq.      95.22  E(vib)   ...       0.47
freq.     111.73  E(vib)   ...       0.45
freq.     123.84  E(vib)   ...       0.43
freq.     193.27  E(vib)   ...       0.36
freq.     211.62  E(vib)   ...       0.34
freq.     257.63  E(vib)   ...       0.30
freq.     276.17  E(vib)   ...       0.28
freq.     331.12  E(vib)   ...       0.24
freq.     350.47  E(vib)   ...       0.23
freq.     369.50  E(vib)   ...       0.21
freq.     485.67  E(vib)   ...       0.15
freq.     510.90  E(vib)   ...       0.14
freq.     567.58  E(vib)   ...       0.11
freq.     593.00  E(vib)   ...       0.10
freq.     625.84  E(vib)   ...       0.09
freq.     749.36  E(vib)   ...       0.06
freq.     771.77  E(vib)   ...       0.05
freq.     808.08  E(vib)   ...       0.05
freq.     836.16  E(vib)   ...       0.04
freq.     850.03  E(vib)   ...       0.04
freq.     886.03  E(vib)   ...       0.04
freq.     957.14  E(vib)   ...       0.03
freq.     967.90  E(vib)   ...       0.03
freq.     997.91  E(vib)   ...       0.02
freq.    1013.51  E(vib)   ...       0.02
freq.    1063.98  E(vib)   ...       0.02
freq.    1085.93  E(vib)   ...       0.02
freq.    1102.87  E(vib)   ...       0.02
freq.    1137.89  E(vib)   ...       0.01
freq.    1158.31  E(vib)   ...       0.01
freq.    1177.47  E(vib)   ...       0.01
freq.    1185.30  E(vib)   ...       0.01
freq.    1213.95  E(vib)   ...       0.01
freq.    1233.72  E(vib)   ...       0.01
freq.    1318.09  E(vib)   ...       0.01
freq.    1325.04  E(vib)   ...       0.01
freq.    1327.66  E(vib)   ...       0.01
freq.    1341.96  E(vib)   ...       0.01
freq.    1404.86  E(vib)   ...       0.00
freq.    1414.27  E(vib)   ...       0.00
freq.    1461.43  E(vib)   ...       0.00
freq.    1472.55  E(vib)   ...       0.00
freq.    1477.35  E(vib)   ...       0.00
freq.    1481.47  E(vib)   ...       0.00
freq.    1497.33  E(vib)   ...       0.00
freq.    1515.16  E(vib)   ...       0.00
freq.    1555.77  E(vib)   ...       0.00
freq.    1668.15  E(vib)   ...       0.00
freq.    1692.63  E(vib)   ...       0.00
freq.    1758.20  E(vib)   ...       0.00
freq.    3010.23  E(vib)   ...       0.00
freq.    3018.66  E(vib)   ...       0.00
freq.    3089.11  E(vib)   ...       0.00
freq.    3089.33  E(vib)   ...       0.00
freq.    3130.22  E(vib)   ...       0.00
freq.    3156.26  E(vib)   ...       0.00
freq.    3161.84  E(vib)   ...       0.00
freq.    3191.11  E(vib)   ...       0.00
freq.    3196.72  E(vib)   ...       0.00
freq.    3207.03  E(vib)   ...       0.00
freq.    3220.47  E(vib)   ...       0.00
freq.    3233.74  E(vib)   ...       0.00

------------
INNER ENERGY
------------

The inner energy is: U= E(el) + E(ZPE) + E(vib) + E(rot) + E(trans)
    E(el)   - is the total energy from the electronic structure calculation
              = E(kin-el) + E(nuc-el) + E(el-el) + E(nuc-nuc)
    E(ZPE)  - the the zero temperature vibrational energy from the frequency calculation
    E(vib)  - the the finite temperature correction to E(ZPE) due to population
              of excited vibrational states
    E(rot)  - is the rotational thermal energy
    E(trans)- is the translational thermal energy

Summary of contributions to the inner energy U:
Electronic energy                ...   -462.60069872 Eh
Zero point energy                ...      0.19538958 Eh     122.61 kcal/mol
Thermal vibrational correction   ...      0.00793764 Eh       4.98 kcal/mol
Thermal rotational correction    ...      0.00141627 Eh       0.89 kcal/mol
Thermal translational correction ...      0.00141627 Eh       0.89 kcal/mol
-----------------------------------------------------------------------
Total thermal energy                   -462.39453896 Eh

Summary of corrections to the electronic energy:
(perhaps to be used in another calculation)
Total thermal correction                  0.01077018 Eh       6.76 kcal/mol
Non-thermal (ZPE) correction              0.19538958 Eh     122.61 kcal/mol
-----------------------------------------------------------------------
Total correction                          0.20615976 Eh     129.37 kcal/mol

--------
ENTHALPY
--------

The enthalpy is H = U + kB*T
                kB is Boltzmann's constant
Total thermal energy              ...   -462.39453896 Eh
Thermal Enthalpy correction       ...      0.00094421 Eh       0.59 kcal/mol
-----------------------------------------------------------------------
Total Enthalpy                    ...   -462.39359475 Eh

Note: Only C1 symmetry has been detected, increase convergence thresholds
      if your molecule has a higher symmetry. Symmetry factor of 1.0 is
      used for the rotational entropy correction.

Note: Rotational entropy computed according to Herzberg
Infrared and Raman Spectra, Chapter V,1, Van Nostrand Reinhold, 1945
Point Group:  C1, Symmetry Number:   1
Rotational constants in cm-1:     0.050912     0.026902     0.017755

Vibrational entropy computed according to the QRRHO of S. Grimme
Chem.Eur.J. 2012 18 9955 using a reference frequency of 100.0 cm-1

-------
ENTROPY
-------

The entropy contributions are T*S = T*(S(el)+S(vib)+S(rot)+S(trans))
     S(el)   - electronic entropy
     S(vib)  - vibrational entropy
     S(rot)  - rotational entropy
     S(trans)- translational entropy
The entropies will be listed as multiplied by the temperature to get
units of energy

Electronic entropy                ...      0.00000000 Eh      0.00 kcal/mol
Vibrational entropy               ...      0.01367342 Eh      8.58 kcal/mol
Rotational entropy                ...      0.01452643 Eh      9.12 kcal/mol
Translational entropy             ...      0.01942844 Eh     12.19 kcal/mol
-----------------------------------------------------------------------
Final entropy term                ...      0.04762829 Eh     29.89 kcal/mol

In case the symmetry of your molecule has not been determined correctly
or in case you have a reason to use a different symmetry number we print

                             ****ORCA TERMINATED NORMALLY****
TOTAL RUN TIME: 0 days 0 hours 9 minutes 49 seconds 428 msec
