                         Program Version 6.0.0  -   RELEASE  -
|  1> !r2SCANh opt aug-cc-pVTZ d3 TightSCF SlowConv RIJCOSX defgrid2
|  2>
|  3> %pal
|  4> nprocs 8
|  5> end
|  6>
|  7> %scf
|  8> MaxIter 1500
|  9> end
| 10>
| 11> %maxcore 3500
| 12>
| 13> !CPCM
| 14> %cpcm smd true
| 15> SMDsolvent "MeCN"
| 16> surfacetype gepol_ses
| 17> rsolv 2.19
| 18> end
| 19>
| 20> * xyz 0 1
| 21> C          -1.20884186796781     -0.02278058914418      0.00003742233159
| 22> C          -1.20709913160620      1.38045218788773      0.00016703364523
| 23> C           0.00003556987027      2.07238258705511      0.00002257197541
| 24> C           1.20714414585697      1.38040506278913     -0.00023783478174
| 25> C           1.20883517896309     -0.02282737272555     -0.00031075934043
| 26> C          -0.00001674938231     -0.72722788932514     -0.00021243594479
| 27> H          -0.00003875372447     -1.81890955720448     -0.00030359455707
| 28> C           2.45039282749013     -0.73822162648839     -0.00031862016213
| 29> N           3.45665781045797     -1.31294485312421      0.00119491286029
| 30> H           2.15765649045058      1.91893621365633     -0.00034701835738
| 31> H           0.00005970442079      3.16546819660540      0.00011390445176
| 32> H          -2.15759482922730      1.91901494079977      0.00036663554396
| 33> C          -2.45042247590246     -0.73813543850926      0.00010406543100
| 34> N          -3.45670371969924     -1.31283236227226     -0.00021618309569
| 35> *
| 36>
| 37>                          ****END OF INPUT****
 Total Charge           Charge          ....    0
 Multiplicity           Mult            ....    1
 Number of Electrons    NEL             ....   66
Dispersion correction           -0.005034682
FINAL SINGLE POINT ENERGY      -416.636373539168
Dispersion correction             ... done (  0.1 sec)
Dispersion correction           -0.005052789
FINAL SINGLE POINT ENERGY      -416.637518750118
Dispersion correction             ... done (  0.1 sec)
Dispersion correction           -0.005055749
FINAL SINGLE POINT ENERGY      -416.637543184065
Dispersion correction             ... done (  0.1 sec)
Dispersion correction           -0.005056134
FINAL SINGLE POINT ENERGY      -416.637547405997
Dispersion correction             ... done (  0.1 sec)
                    ***********************HURRAY********************

CARTESIAN COORDINATES (ANGSTROEM)
---------------------------------
  C     -1.196003   -0.020062    0.000112
  C     -1.200723    1.377064    0.000438
  C      0.000034    2.065192    0.000022
  C      1.200766    1.377021   -0.000500
  C      1.195999   -0.020104   -0.000360
  C     -0.000015   -0.730846   -0.000199
  H     -0.000033   -1.810069   -0.000280
  C      2.428847   -0.729689   -0.000150
  N      3.429362   -1.300963    0.001337
  H      2.139878    1.910278   -0.000639
  H      0.000055    3.145048    0.000104
  H     -2.139815    1.910354    0.000652
  C     -2.428876   -0.729604   -0.000028
  N     -3.429413   -1.300842   -0.000448

 Multiplicity           Mult            ....    1
 Number of Electrons    NEL             ....   66
 Basis Dimension        Dim             ....  552

ORBITAL ENERGIES
----------------

  NO   OCC          E(Eh)            E(eV)
   0   2.0000     -14.317764      -389.6062
   1   2.0000     -14.317763      -389.6061
   2   2.0000     -10.221215      -278.1334
   3   2.0000     -10.221202      -278.1331
   4   2.0000     -10.214757      -277.9577
   5   2.0000     -10.214751      -277.9575
   6   2.0000     -10.203985      -277.6646
   7   2.0000     -10.196011      -277.4476
   8   2.0000     -10.195990      -277.4470
   9   2.0000     -10.184090      -277.1232
  10   2.0000      -0.935494       -25.4561
  11   2.0000      -0.930002       -25.3066
  12   2.0000      -0.898153       -24.4400
  13   2.0000      -0.810162       -22.0456
  14   2.0000      -0.791734       -21.5442
  15   2.0000      -0.669548       -18.2193
  16   2.0000      -0.664779       -18.0896
  17   2.0000      -0.594606       -16.1801
  18   2.0000      -0.507862       -13.8196
  19   2.0000      -0.501920       -13.6579
  20   2.0000      -0.490247       -13.3403
  21   2.0000      -0.446527       -12.1506
  22   2.0000      -0.426591       -11.6081
  23   2.0000      -0.392867       -10.6905
  24   2.0000      -0.388664       -10.5761
  25   2.0000      -0.386633       -10.5208
  26   2.0000      -0.377040       -10.2598
  27   2.0000      -0.371767       -10.1163
  28   2.0000      -0.349551        -9.5118
  29   2.0000      -0.346549        -9.4301
  30   2.0000      -0.346527        -9.4295
  31   2.0000      -0.282040        -7.6747
  32   2.0000      -0.277367        -7.5475
  33   0.0000      -0.087032        -2.3683
  34   0.0000      -0.071369        -1.9421
  35   0.0000      -0.003472        -0.0945
  36   0.0000       0.006545         0.1781
  37   0.0000       0.012161         0.3309

MULLIKEN ATOMIC CHARGES
-----------------------
   0 C :    1.495105
   1 C :   -0.779313
   2 C :   -0.525800
   3 C :   -0.778896
   4 C :    1.496217
   5 C :   -0.950780
   6 H :   -0.023150
   7 C :    0.476417
   8 N :   -0.852815
   9 H :    0.123707
  10 H :    0.571920
  11 H :    0.123598
  12 C :    0.476916
  13 N :   -0.853124
Sum of atomic charges:    0.0000000

LOEWDIN ATOMIC CHARGES
----------------------
   0 C :   -0.183543
   1 C :    0.237649
   2 C :    0.248633
   3 C :    0.237647
   4 C :   -0.183544
   5 C :    0.226576
   6 H :   -0.147534
   7 C :   -0.237096
   8 N :    0.251595
   9 H :   -0.152603
  10 H :   -0.159672
  11 H :   -0.152605
  12 C :   -0.237097
  13 N :    0.251595

  Mayer bond orders larger than 0.100000
B(  0-C ,  1-C ) :   0.1935 B(  0-C ,  2-C ) :   0.1265 B(  0-C ,  4-C ) :   0.3644
B(  0-C ,  5-C ) :   0.3403 B(  0-C ,  6-H ) :  -0.1837 B(  0-C , 11-H ) :  -0.1574
B(  0-C , 12-C ) :   0.6148 B(  1-C ,  2-C ) :   1.1451 B(  1-C ,  3-C ) :  -0.1999
B(  1-C ,  5-C ) :  -0.2108 B(  1-C , 11-H ) :   1.2416 B(  1-C , 12-C ) :   0.3230
B(  1-C , 13-N ) :   0.1305 B(  2-C ,  3-C ) :   1.1460 B(  2-C ,  4-C ) :   0.1268
B(  2-C , 10-H ) :   0.5001 B(  3-C ,  4-C ) :   0.1927 B(  3-C ,  5-C ) :  -0.2114
B(  3-C ,  7-C ) :   0.3233 B(  3-C ,  8-N ) :   0.1298 B(  3-C ,  9-H ) :   1.2417
B(  4-C ,  5-C ) :   0.3396 B(  4-C ,  6-H ) :  -0.1835 B(  4-C ,  7-C ) :   0.6144
B(  4-C ,  9-H ) :  -0.1577 B(  5-C ,  6-H ) :   1.3882 B(  5-C ,  8-N ) :   0.1035
B(  5-C , 13-N ) :   0.1027 B(  7-C ,  8-N ) :   1.7146 B(  7-C , 12-C ) :   0.2404
B( 12-C , 13-N ) :   1.7138

Dispersion correction           -0.005056067
FINAL SINGLE POINT ENERGY      -416.637548304626

DIPOLE MOMENT
-------------

Method             : SCF
Type of density    : Electron Density
Multiplicity       :   1
Irrep              :   0
Energy             :  -416.6324922380475186 Eh
Relativity type    :
Basis              : AO
                                X                 Y                 Z
Electronic contribution:     -0.000038759      -2.405902683      -0.000585227
Nuclear contribution   :      0.000088161       4.826965064      -0.000273775
                        -----------------------------------------
Total Dipole Moment    :      0.000049403       2.421062381      -0.000859002
                        -----------------------------------------
Magnitude (a.u.)       :      2.421062534
Magnitude (Debye)      :      6.153851906

Rotational constants in cm-1:             0.091602             0.030683             0.022984
Rotational constants in MHz :          2746.146991           919.865104           689.055280

                             ****ORCA TERMINATED NORMALLY****
TOTAL RUN TIME: 0 days 0 hours 16 minutes 0 seconds 999 msec
