                         Program Version 6.0.0  -   RELEASE  -
|  1> !PBE0 def2-SV(p) Opt Freq d3 TightSCF SlowConv RIJCOSX defgrid2
|  2>
|  3> %pal
|  4> nprocs 4
|  5> end
|  6>
|  7> %scf
|  8> MaxIter 1500
|  9> end
| 10>
| 11> %maxcore 3000
| 12>
| 13>
| 14>
| 15> * xyz 1 2
| 16> C    -1.2787745    1.1929184   -0.0077065
| 17> C    -2.6112769    1.3098326   -0.3328449
| 18> C    -3.4368767    0.1893677   -0.3624909
| 19> C    -2.9071699   -1.0617349   -0.0605933
| 20> C    -1.5753408   -1.1992902    0.2575077
| 21> C    -0.7221164   -0.0723765    0.2849601
| 22> N     0.5973069   -0.2175187    0.6165718
| 23> C     1.3608522   -1.3746978    0.2562821
| 24> H     1.9876000   -1.6872075    1.0960671
| 25> H     0.7336613   -2.1984154   -0.0776734
| 26> C     2.3055379   -0.9612175   -0.9198823
| 27> H     1.6875570   -0.6940283   -1.7870332
| 28> H     2.9690479   -1.7897037   -1.1666593
| 29> O     3.1114581    0.1012369   -0.5213396
| 30> C     2.3798245    1.2348477   -0.1703363
| 31> H     3.0970376    1.9952239    0.1376155
| 32> H     1.7761324    1.5954559   -1.0132780
| 33> C     1.4349854    0.8721783    1.0169107
| 34> H     0.8584294    1.7368465    1.3385516
| 35> H     2.0720827    0.5372800    1.8417253
| 36> H    -1.2066681   -2.1688391    0.5509844
| 37> H    -3.5465449   -1.9303601   -0.0591190
| 38> H    -4.4814561    0.2917974   -0.6087926
| 39> H    -3.0143659    2.2801697   -0.5766363
| 40> H    -0.6612969    2.0754697   -0.0346095
| 41> *
| 42>
| 43>                          ****END OF INPUT****
 Total Charge           Charge          ....    1
 Multiplicity           Mult            ....    2
 Number of Electrons    NEL             ....   87
Dispersion correction           -0.024791972
FINAL SINGLE POINT ENERGY      -517.607073010020
Dispersion correction             ... done (  0.1 sec)
Dispersion correction           -0.024689614
FINAL SINGLE POINT ENERGY      -517.609617116112
Dispersion correction             ... done (  0.1 sec)
Dispersion correction           -0.024626477
FINAL SINGLE POINT ENERGY      -517.610097788696
Dispersion correction             ... done (  0.1 sec)
FINAL SINGLE POINT ENERGY      -517.610406574674
FINAL SINGLE POINT ENERGY      -517.610484182584
FINAL SINGLE POINT ENERGY      -517.610524445640
FINAL SINGLE POINT ENERGY      -517.610542412502
Dispersion correction             ... done (  0.1 sec)
Dispersion correction           -0.024449247
FINAL SINGLE POINT ENERGY      -517.610548696145
Dispersion correction             ... done (  0.1 sec)
Dispersion correction           -0.024443250
FINAL SINGLE POINT ENERGY      -517.610550409796
Dispersion correction             ... done (  0.1 sec)
                    ***********************HURRAY********************

CARTESIAN COORDINATES (ANGSTROEM)
---------------------------------
  C     -1.375702    1.242488    0.149645
  C     -2.723286    1.339332   -0.129725
  C     -3.503321    0.184560   -0.296622
  C     -2.908504   -1.080610   -0.179146
  C     -1.560092   -1.199468    0.088192
  C     -0.749298   -0.035963    0.255492
  N      0.581692   -0.147555    0.519235
  C      1.359070   -1.353900    0.286659
  H      1.885100   -1.616007    1.220010
  H      0.722986   -2.192100   -0.016317
  C      2.394565   -1.058873   -0.817777
  H      1.859491   -0.866331   -1.770451
  H      3.041028   -1.940513   -0.944786
  O      3.201821    0.014502   -0.462634
  C      2.476369    1.182153   -0.252607
  H      3.183646    1.969312    0.049430
  H      1.952403    1.505573   -1.175609
  C      1.445644    0.967165    0.868945
  H      0.871036    1.876771    1.071060
  H      1.982091    0.687823    1.791966
  H     -1.139141   -2.197055    0.213523
  H     -3.515693   -1.983146   -0.286454
  H     -4.572088    0.270778   -0.510463
  H     -3.181434    2.327150   -0.225342
  H     -0.798757    2.161149    0.251959

 Multiplicity           Mult            ....    2
 Number of Electrons    NEL             ....   87
 Basis Dimension        Dim             ....  194

ORBITAL ENERGIES
----------------
                 SPIN UP ORBITALS
  NO   OCC          E(Eh)            E(eV)
   0   1.0000     -19.376463      -527.2604
   1   1.0000     -14.663554      -399.0156
   2   1.0000     -10.477766      -285.1145
   3   1.0000     -10.441595      -284.1303
   4   1.0000     -10.440896      -284.1112
   5   1.0000     -10.437871      -284.0289
   6   1.0000     -10.437529      -284.0196
   7   1.0000     -10.420975      -283.5691
   8   1.0000     -10.420877      -283.5665
   9   1.0000     -10.415334      -283.4156
  10   1.0000     -10.405411      -283.1456
  11   1.0000     -10.404868      -283.1308
  12   1.0000      -1.242411       -33.8077
  13   1.0000      -1.191710       -32.4281
  14   1.0000      -1.051095       -28.6017
  15   1.0000      -0.975110       -26.5341
  16   1.0000      -0.962255       -26.1843
  17   1.0000      -0.941269       -25.6132
  18   1.0000      -0.883874       -24.0514
  19   1.0000      -0.860804       -23.4237
  20   1.0000      -0.808874       -22.0106
  21   1.0000      -0.790232       -21.5033
  22   1.0000      -0.758189       -20.6314
  23   1.0000      -0.739814       -20.1313
  24   1.0000      -0.687118       -18.6974
  25   1.0000      -0.684594       -18.6287
  26   1.0000      -0.665619       -18.1124
  27   1.0000      -0.663972       -18.0676
  28   1.0000      -0.655280       -17.8311
  29   1.0000      -0.632138       -17.2013
  30   1.0000      -0.626053       -17.0358
  31   1.0000      -0.617498       -16.8030
  32   1.0000      -0.610561       -16.6142
  33   1.0000      -0.580615       -15.7993
  34   1.0000      -0.572400       -15.5758
  35   1.0000      -0.555802       -15.1241
  36   1.0000      -0.545988       -14.8571
  37   1.0000      -0.539649       -14.6846
  38   1.0000      -0.524140       -14.2626
  39   1.0000      -0.517845       -14.0913
  40   1.0000      -0.480181       -13.0664
  41   1.0000      -0.447480       -12.1765
  42   1.0000      -0.441939       -12.0258
  43   1.0000      -0.404248       -11.0002
  44   0.0000      -0.176420        -4.8006
  45   0.0000      -0.175058        -4.7636
  46   0.0000      -0.084518        -2.2998
  47   0.0000      -0.061462        -1.6725
  48   0.0000      -0.057684        -1.5697

                 SPIN DOWN ORBITALS
  NO   OCC          E(Eh)            E(eV)
   0   1.0000     -19.375400      -527.2314
   1   1.0000     -14.652326      -398.7101
   2   1.0000     -10.478811      -285.1429
   3   1.0000     -10.441832      -284.1367
   4   1.0000     -10.441175      -284.1188
   5   1.0000     -10.437069      -284.0071
   6   1.0000     -10.436814      -284.0001
   7   1.0000     -10.417557      -283.4761
   8   1.0000     -10.417542      -283.4757
   9   1.0000     -10.410256      -283.2775
  10   1.0000     -10.407254      -283.1958
  11   1.0000     -10.406782      -283.1829
  12   1.0000      -1.238808       -33.7097
  13   1.0000      -1.175994       -32.0004
  14   1.0000      -1.044978       -28.4353
  15   1.0000      -0.972218       -26.4554
  16   1.0000      -0.957663       -26.0593
  17   1.0000      -0.938349       -25.5338
  18   1.0000      -0.873410       -23.7667
  19   1.0000      -0.859106       -23.3775
  20   1.0000      -0.803442       -21.8628
  21   1.0000      -0.787194       -21.4206
  22   1.0000      -0.753947       -20.5159
  23   1.0000      -0.735134       -20.0040
  24   1.0000      -0.683025       -18.5861
  25   1.0000      -0.677882       -18.4461
  26   1.0000      -0.663373       -18.0513
  27   1.0000      -0.656386       -17.8612
  28   1.0000      -0.649539       -17.6748
  29   1.0000      -0.627616       -17.0783
  30   1.0000      -0.622333       -16.9345
  31   1.0000      -0.616330       -16.7712
  32   1.0000      -0.604228       -16.4419
  33   1.0000      -0.577652       -15.7187
  34   1.0000      -0.560486       -15.2516
  35   1.0000      -0.552978       -15.0473
  36   1.0000      -0.543907       -14.8005
  37   1.0000      -0.537368       -14.6225
  38   1.0000      -0.520295       -14.1579
  39   1.0000      -0.496390       -13.5074
  40   1.0000      -0.470739       -12.8095
  41   1.0000      -0.438773       -11.9396
  42   1.0000      -0.429237       -11.6801
  43   0.0000      -0.310563        -8.4508
  44   0.0000      -0.166787        -4.5385
  45   0.0000      -0.153108        -4.1663
  46   0.0000      -0.082704        -2.2505
  47   0.0000      -0.059622        -1.6224

MULLIKEN ATOMIC CHARGES AND SPIN POPULATIONS
--------------------------------------------
   0 C :   -0.129601    0.233589
   1 C :   -0.081997   -0.148379
   2 C :   -0.031290    0.357443
   3 C :   -0.084222   -0.153552
   4 C :   -0.131973    0.239239
   5 C :    0.216643   -0.061756
   6 N :   -0.251091    0.457089
   7 C :   -0.150378   -0.020725
   8 H :    0.187973    0.021245
   9 H :    0.191633    0.000611
  10 C :   -0.012437    0.029330
  11 H :    0.138854    0.001266
  12 H :    0.182747    0.004437
  13 O :   -0.343136    0.033831
  14 C :   -0.005600    0.026723
  15 H :    0.182998    0.003286
  16 H :    0.136489    0.002140
  17 C :   -0.158844   -0.023638
  18 H :    0.194498    0.002020
  19 H :    0.189567    0.025047
  20 H :    0.144953   -0.011671
  21 H :    0.156783    0.005827
  22 H :    0.163613   -0.017447
  23 H :    0.156551    0.005571
  24 H :    0.137267   -0.011525
Sum of atomic charges         :    1.0000000

LOEWDIN ATOMIC CHARGES AND SPIN POPULATIONS
-------------------------------------------
   0 C :   -0.103125    0.183136
   1 C :   -0.088206   -0.082927
   2 C :   -0.042553    0.278029
   3 C :   -0.089518   -0.086503
   4 C :   -0.100182    0.187170
   5 C :    0.031199   -0.013119
   6 N :    0.096615    0.415687
   7 C :   -0.159182    0.001182
   8 H :    0.158305    0.016239
   9 H :    0.150461    0.000682
  10 C :   -0.104385    0.029155
  11 H :    0.123609    0.000576
  12 H :    0.152280    0.003063
  13 O :   -0.139375    0.032932
  14 C :   -0.104926    0.026640
  15 H :    0.151777    0.002242
  16 H :    0.122529    0.001232
  17 C :   -0.160730   -0.000706
  18 H :    0.150667    0.001121
  19 H :    0.160829    0.018966
  20 H :    0.155067   -0.005960
  21 H :    0.161558    0.002889
  22 H :    0.162747   -0.008669
  23 H :    0.161429    0.002746
  24 H :    0.153109   -0.005805

  Mayer bond orders larger than 0.100000
B(  0-C ,  1-C ) :   1.4948 B(  0-C ,  5-C ) :   1.2171 B(  0-C , 24-H ) :   0.9412
B(  1-C ,  2-C ) :   1.3143 B(  1-C , 23-H ) :   0.9496 B(  2-C ,  3-C ) :   1.3165
B(  2-C , 22-H ) :   0.9529 B(  3-C ,  4-C ) :   1.4961 B(  3-C , 21-H ) :   0.9496
B(  4-C ,  5-C ) :   1.2163 B(  4-C , 20-H ) :   0.9401 B(  5-C ,  6-N ) :   1.2183
B(  6-N ,  7-C ) :   0.9538 B(  6-N , 17-C ) :   0.9538 B(  7-C ,  8-H ) :   0.8940
B(  7-C ,  9-H ) :   0.9005 B(  7-C , 10-C ) :   1.0642 B( 10-C , 11-H ) :   0.9074
B( 10-C , 12-H ) :   0.9202 B( 10-C , 13-O ) :   1.0057 B( 13-O , 14-C ) :   0.9984
B( 14-C , 15-H ) :   0.9221 B( 14-C , 16-H ) :   0.9055 B( 14-C , 17-C ) :   1.0708
B( 17-C , 18-H ) :   0.8996 B( 17-C , 19-H ) :   0.8916

Dispersion correction           -0.024439138
FINAL SINGLE POINT ENERGY      -517.610550860759

DIPOLE MOMENT
-------------

Method             : SCF
Type of density    : Electron Density
Multiplicity       :   2
Irrep              :   0
Energy             :  -517.5861117228977264 Eh
Relativity type    :
Basis              : AO
                                X                 Y                 Z
Electronic contribution:     -2.932635235      -0.012453351       0.472589777
Nuclear contribution   :      2.207733299      -0.028342032      -0.256093747
                        -----------------------------------------
Total Dipole Moment    :     -0.724901935      -0.040795383       0.216496030
                        -----------------------------------------
Magnitude (a.u.)       :      0.757639499
Magnitude (Debye)      :      1.925766563

VIBRATIONAL FREQUENCIES
-----------------------

Scaling factor for frequencies =  1.000000000  (already applied!)

     0:       0.00 cm**-1
     1:       0.00 cm**-1
     2:       0.00 cm**-1
     3:       0.00 cm**-1
     4:       0.00 cm**-1
     5:       0.00 cm**-1
     6:      40.93 cm**-1
     7:      47.78 cm**-1
     8:     150.18 cm**-1
     9:     187.97 cm**-1
    10:     294.57 cm**-1
    11:     326.27 cm**-1
    12:     382.50 cm**-1
    13:     395.98 cm**-1
    14:     438.55 cm**-1
    15:     467.96 cm**-1
    16:     503.00 cm**-1
    17:     523.50 cm**-1
    18:     532.83 cm**-1
    19:     605.94 cm**-1
    20:     648.93 cm**-1
    21:     663.57 cm**-1
    22:     741.10 cm**-1
    23:     797.68 cm**-1
    24:     804.87 cm**-1
    25:     856.58 cm**-1
    26:     886.52 cm**-1
    27:     920.17 cm**-1
    28:     939.72 cm**-1
    29:     974.43 cm**-1
    30:     991.45 cm**-1
    31:    1002.28 cm**-1
    32:    1006.44 cm**-1
    33:    1033.69 cm**-1
    34:    1051.98 cm**-1
    35:    1076.13 cm**-1
    36:    1080.39 cm**-1
    37:    1126.03 cm**-1
    38:    1130.97 cm**-1
    39:    1157.58 cm**-1
    40:    1182.85 cm**-1
    41:    1217.11 cm**-1
    42:    1232.43 cm**-1
    43:    1260.19 cm**-1
    44:    1260.65 cm**-1
    45:    1299.37 cm**-1
    46:    1326.84 cm**-1
    47:    1332.64 cm**-1
    48:    1348.91 cm**-1
    49:    1353.79 cm**-1
    50:    1379.27 cm**-1
    51:    1406.25 cm**-1
    52:    1422.89 cm**-1
    53:    1453.01 cm**-1
    54:    1461.65 cm**-1
    55:    1477.09 cm**-1
    56:    1487.78 cm**-1
    57:    1498.05 cm**-1
    58:    1503.51 cm**-1
    59:    1525.56 cm**-1
    60:    1599.65 cm**-1
    61:    1651.15 cm**-1
    62:    3016.88 cm**-1
    63:    3019.56 cm**-1
    64:    3084.84 cm**-1
    65:    3093.16 cm**-1
    66:    3157.71 cm**-1
    67:    3158.66 cm**-1
    68:    3214.01 cm**-1
    69:    3215.30 cm**-1
    70:    3223.89 cm**-1
    71:    3231.45 cm**-1
    72:    3240.24 cm**-1
    73:    3255.88 cm**-1
    74:    3258.91 cm**-1

IR SPECTRUM
-----------

 Mode   freq       eps      Int      T**2         TX        TY        TZ
       cm**-1   L/(mol*cm) km/mol    a.u.
----------------------------------------------------------------------------
  6:     40.93   0.000026    0.13  0.000200  ( 0.002134 -0.006784 -0.012204)
  7:     47.78   0.000373    1.89  0.002439  ( 0.044221 -0.011713  0.018602)
  8:    150.18   0.000276    1.39  0.000573  (-0.007744  0.017249 -0.014683)
  9:    187.97   0.000401    2.03  0.000666  ( 0.008535  0.013187  0.020469)
 10:    294.57   0.000059    0.30  0.000062  ( 0.004132 -0.006125 -0.002757)
 11:    326.27   0.001888    9.54  0.001806  ( 0.005103  0.012506 -0.040293)
 12:    382.50   0.001038    5.24  0.000847  ( 0.015078  0.005183 -0.024340)
 13:    395.98   0.000153    0.77  0.000120  (-0.009370  0.000391  0.005703)
 14:    438.55   0.000288    1.46  0.000205  (-0.011003  0.008540  0.003329)
 15:    467.96   0.000250    1.26  0.000167  (-0.004053 -0.007054 -0.010029)
 16:    503.00   0.000325    1.64  0.000202  ( 0.008919  0.008837  0.006628)
 17:    523.50   0.001867    9.44  0.001113  ( 0.033038  0.002361 -0.004012)
 18:    532.83   0.001757    8.88  0.001029  (-0.025427  0.001111  0.019530)
 19:    605.94   0.000131    0.66  0.000067  (-0.000613  0.008074  0.001339)
 20:    648.93   0.005541   28.00  0.002665  (-0.030582 -0.004570  0.041333)
 21:    663.57   0.004362   22.05  0.002052  (-0.011536 -0.004439 -0.043574)
 22:    741.10   0.001944    9.83  0.000819  (-0.028587  0.000330 -0.001193)
 23:    797.68   0.008202   41.45  0.003209  (-0.019606 -0.001786  0.053113)
 24:    804.87   0.000744    3.76  0.000289  (-0.014196  0.000916  0.009283)
 25:    856.58   0.000037    0.19  0.000013  (-0.000935 -0.000400 -0.003521)
 26:    886.52   0.000066    0.33  0.000023  ( 0.004212 -0.000087  0.002332)
 27:    920.17   0.000093    0.47  0.000032  (-0.002737  0.003901  0.002971)
 28:    939.72   0.000284    1.43  0.000094  (-0.000703  0.002035  0.009465)
 29:    974.43   0.007846   39.65  0.002513  (-0.049871  0.000925  0.004976)
 30:    991.45   0.015243   77.03  0.004798  ( 0.068124  0.001770 -0.012398)
 31:   1002.28   0.017185   86.84  0.005351  ( 0.069507  0.003419 -0.022531)
 32:   1006.44   0.000188    0.95  0.000058  (-0.006808 -0.001069  0.003303)
 33:   1033.69   0.000117    0.59  0.000035  (-0.000655 -0.000171 -0.005907)
 34:   1051.98   0.000370    1.87  0.000110  (-0.009489  0.001073 -0.004299)
 35:   1076.13   0.005557   28.08  0.001611  ( 0.034740 -0.005717  0.019285)
 36:   1080.39   0.000780    3.94  0.000225  ( 0.001626  0.014718  0.002438)
 37:   1126.03   0.001369    6.92  0.000379  (-0.017152 -0.005484  0.007428)
 38:   1130.97   0.000079    0.40  0.000022  ( 0.004043 -0.000973  0.002141)
 39:   1157.58   0.007943   40.14  0.002141  ( 0.003107  0.045223  0.009309)
 40:   1182.85   0.000066    0.33  0.000017  ( 0.001009 -0.003887 -0.001090)
 41:   1217.11   0.005931   29.97  0.001521  ( 0.038189 -0.007851  0.000743)
 42:   1232.43   0.001669    8.43  0.000423  ( 0.003173  0.019890  0.004112)
 43:   1260.19   0.005747   29.04  0.001423  (-0.035142  0.010262 -0.009096)
 44:   1260.65   0.002791   14.10  0.000691  ( 0.013430  0.019356  0.011653)
 45:   1299.37   0.012032   60.80  0.002890  ( 0.008417  0.051909  0.011147)
 46:   1326.84   0.014498   73.27  0.003410  ( 0.057468 -0.005141 -0.008996)
 47:   1332.64   0.000683    3.45  0.000160  (-0.001613  0.012171  0.003043)
 48:   1348.91   0.002197   11.10  0.000508  ( 0.019245  0.003142 -0.011311)
 49:   1353.79   0.006239   31.53  0.001438  ( 0.033949 -0.001822 -0.016801)
 50:   1379.27   0.000229    1.16  0.000052  ( 0.006805 -0.002357 -0.000045)
 51:   1406.25   0.024721  124.93  0.005486  ( 0.073818 -0.002297  0.005608)
 52:   1422.89   0.000673    3.40  0.000148  (-0.000426 -0.012144 -0.000016)
 53:   1453.01   0.003775   19.08  0.000811  (-0.028068 -0.004282 -0.002130)
 54:   1461.65   0.001443    7.29  0.000308  ( 0.003641 -0.017167  0.000224)
 55:   1477.09   0.000155    0.78  0.000033  ( 0.001808 -0.004811 -0.002499)
 56:   1487.78   0.005700   28.81  0.001196  ( 0.021005 -0.000063 -0.027467)
 57:   1498.05   0.001413    7.14  0.000294  ( 0.005800  0.004926 -0.015379)
 58:   1503.51   0.002778   14.04  0.000577  (-0.002227 -0.023906  0.000464)
 59:   1525.56   0.000143    0.72  0.000029  (-0.003314 -0.002117  0.003702)
 60:   1599.65   0.000948    4.79  0.000185  (-0.000157  0.013596  0.000287)
 61:   1651.15   0.024945  126.06  0.004715  ( 0.068137 -0.004257  0.007336)
 62:   3016.88   0.002563   12.95  0.000265  ( 0.001763  0.014704 -0.006769)
 63:   3019.56   0.005613   28.37  0.000580  (-0.004524  0.000611  0.023649)
 64:   3084.84   0.000114    0.57  0.000012  (-0.002994  0.001594 -0.000020)
 65:   3093.16   0.000398    2.01  0.000040  ( 0.005976 -0.000577  0.002036)
 66:   3157.71   0.000267    1.35  0.000026  (-0.000574 -0.005091  0.000399)
 67:   3158.66   0.000186    0.94  0.000018  (-0.000448 -0.001364 -0.004042)
 68:   3214.01   0.000081    0.41  0.000008  (-0.002077  0.000790 -0.001722)
 69:   3215.30   0.000258    1.31  0.000025  ( 0.001497  0.004719  0.000750)
 70:   3223.89   0.000009    0.05  0.000001  ( 0.000884 -0.000002  0.000300)
 71:   3231.45   0.000183    0.92  0.000018  (-0.000466 -0.004165 -0.000335)
 72:   3240.24   0.000167    0.84  0.000016  (-0.003921  0.000488 -0.000694)
 73:   3255.88   0.000170    0.86  0.000016  ( 0.001537  0.003725 -0.000290)
 74:   3258.91   0.000146    0.74  0.000014  ( 0.001101 -0.003075  0.001808)

--------------------------
THERMOCHEMISTRY AT 298.15K
--------------------------

Temperature         ...   298.15 K
Pressure            ...     1.00 atm
Total Mass          ...   163.22 AMU
Quasi RRHO          ...     True
Cut-Off Frequency   ...     1.00 cm^-1

Throughout the following assumptions are being made:
  (1) The electronic state is orbitally nondegenerate
      but the spin degeneracy is treated
  (2) There are no thermally accessible electronically excited states
  (3) Hindered rotations indicated by low frequency modes are not
      treated as such but are treated as vibrations and this may
      cause some error
  (4) All equations used are the standard statistical mechanics
      equations for an ideal gas
  (5) All vibrations are strictly harmonic

freq.      40.93  E(vib)   ...       0.54
freq.      47.78  E(vib)   ...       0.53
freq.     150.18  E(vib)   ...       0.40
freq.     187.97  E(vib)   ...       0.36
freq.     294.57  E(vib)   ...       0.27
freq.     326.27  E(vib)   ...       0.24
freq.     382.50  E(vib)   ...       0.21
freq.     395.98  E(vib)   ...       0.20
freq.     438.55  E(vib)   ...       0.17
freq.     467.96  E(vib)   ...       0.16
freq.     503.00  E(vib)   ...       0.14
freq.     523.50  E(vib)   ...       0.13
freq.     532.83  E(vib)   ...       0.13
freq.     605.94  E(vib)   ...       0.10
freq.     648.93  E(vib)   ...       0.08
freq.     663.57  E(vib)   ...       0.08
freq.     741.10  E(vib)   ...       0.06
freq.     797.68  E(vib)   ...       0.05
freq.     804.87  E(vib)   ...       0.05
freq.     856.58  E(vib)   ...       0.04
freq.     886.52  E(vib)   ...       0.04
freq.     920.17  E(vib)   ...       0.03
freq.     939.72  E(vib)   ...       0.03
freq.     974.43  E(vib)   ...       0.03
freq.     991.45  E(vib)   ...       0.02
freq.    1002.28  E(vib)   ...       0.02
freq.    1006.44  E(vib)   ...       0.02
freq.    1033.69  E(vib)   ...       0.02
freq.    1051.98  E(vib)   ...       0.02
freq.    1076.13  E(vib)   ...       0.02
freq.    1080.39  E(vib)   ...       0.02
freq.    1126.03  E(vib)   ...       0.01
freq.    1130.97  E(vib)   ...       0.01
freq.    1157.58  E(vib)   ...       0.01
freq.    1182.85  E(vib)   ...       0.01
freq.    1217.11  E(vib)   ...       0.01
freq.    1232.43  E(vib)   ...       0.01
freq.    1260.19  E(vib)   ...       0.01
freq.    1260.65  E(vib)   ...       0.01
freq.    1299.37  E(vib)   ...       0.01
freq.    1326.84  E(vib)   ...       0.01
freq.    1332.64  E(vib)   ...       0.01
freq.    1348.91  E(vib)   ...       0.01
freq.    1353.79  E(vib)   ...       0.01
freq.    1379.27  E(vib)   ...       0.01
freq.    1406.25  E(vib)   ...       0.00
freq.    1422.89  E(vib)   ...       0.00
freq.    1453.01  E(vib)   ...       0.00
freq.    1461.65  E(vib)   ...       0.00
freq.    1477.09  E(vib)   ...       0.00
freq.    1487.78  E(vib)   ...       0.00
freq.    1498.05  E(vib)   ...       0.00
freq.    1503.51  E(vib)   ...       0.00
freq.    1525.56  E(vib)   ...       0.00
freq.    1599.65  E(vib)   ...       0.00
freq.    1651.15  E(vib)   ...       0.00
freq.    3016.88  E(vib)   ...       0.00
freq.    3019.56  E(vib)   ...       0.00
freq.    3084.84  E(vib)   ...       0.00
freq.    3093.16  E(vib)   ...       0.00
freq.    3157.71  E(vib)   ...       0.00
freq.    3158.66  E(vib)   ...       0.00
freq.    3214.01  E(vib)   ...       0.00
freq.    3215.30  E(vib)   ...       0.00
freq.    3223.89  E(vib)   ...       0.00
freq.    3231.45  E(vib)   ...       0.00
freq.    3240.24  E(vib)   ...       0.00
freq.    3255.88  E(vib)   ...       0.00
freq.    3258.91  E(vib)   ...       0.00

------------
INNER ENERGY
------------

The inner energy is: U= E(el) + E(ZPE) + E(vib) + E(rot) + E(trans)
    E(el)   - is the total energy from the electronic structure calculation
              = E(kin-el) + E(nuc-el) + E(el-el) + E(nuc-nuc)
    E(ZPE)  - the the zero temperature vibrational energy from the frequency calculation
    E(vib)  - the the finite temperature correction to E(ZPE) due to population
              of excited vibrational states
    E(rot)  - is the rotational thermal energy
    E(trans)- is the translational thermal energy

Summary of contributions to the inner energy U:
Electronic energy                ...   -517.61055086 Eh
Zero point energy                ...      0.21788300 Eh     136.72 kcal/mol
Thermal vibrational correction   ...      0.00693555 Eh       4.35 kcal/mol
Thermal rotational correction    ...      0.00141627 Eh       0.89 kcal/mol
Thermal translational correction ...      0.00141627 Eh       0.89 kcal/mol
-----------------------------------------------------------------------
Total thermal energy                   -517.38289977 Eh

Summary of corrections to the electronic energy:
(perhaps to be used in another calculation)
Total thermal correction                  0.00976809 Eh       6.13 kcal/mol
Non-thermal (ZPE) correction              0.21788300 Eh     136.72 kcal/mol
-----------------------------------------------------------------------
Total correction                          0.22765109 Eh     142.85 kcal/mol

--------
ENTHALPY
--------

The enthalpy is H = U + kB*T
                kB is Boltzmann's constant
Total thermal energy              ...   -517.38289977 Eh
Thermal Enthalpy correction       ...      0.00094421 Eh       0.59 kcal/mol
-----------------------------------------------------------------------
Total Enthalpy                    ...   -517.38195556 Eh

Note: Only C1 symmetry has been detected, increase convergence thresholds
      if your molecule has a higher symmetry. Symmetry factor of 1.0 is
      used for the rotational entropy correction.

Note: Rotational entropy computed according to Herzberg
Infrared and Raman Spectra, Chapter V,1, Van Nostrand Reinhold, 1945
Point Group:  C1, Symmetry Number:   1
Rotational constants in cm-1:     0.077620     0.019238     0.016602

Vibrational entropy computed according to the QRRHO of S. Grimme
Chem.Eur.J. 2012 18 9955 using a reference frequency of 100.0 cm-1

-------
ENTROPY
-------

The entropy contributions are T*S = T*(S(el)+S(vib)+S(rot)+S(trans))
     S(el)   - electronic entropy
     S(vib)  - vibrational entropy
     S(rot)  - rotational entropy
     S(trans)- translational entropy
The entropies will be listed as multiplied by the temperature to get
units of energy

Electronic entropy                ...      0.00065446 Eh      0.41 kcal/mol
Vibrational entropy               ...      0.01148573 Eh      7.21 kcal/mol

                             ****ORCA TERMINATED NORMALLY****
TOTAL RUN TIME: 0 days 0 hours 20 minutes 17 seconds 555 msec
