                         Program Version 6.0.0  -   RELEASE  -
|  1> !PBE0 freq aug-cc-pVTZ d3 TightSCF SlowConv RIJCOSX defgrid2
|  2>
|  3> %pal
|  4> nprocs 12
|  5> end
|  6>
|  7> %scf
|  8> MaxIter 1500
|  9> end
| 10>
| 11> %maxcore 5000
| 12>
| 13> !CPCM
| 14> %cpcm smd true
| 15> SMDsolvent "MeCN"
| 16> surfacetype gepol_ses
| 17> rsolv 2.19
| 18> end
| 19>
| 20> * xyz 1 2
| 21> C           0.86792821916493     -1.42164200801305     -0.00079271184932
| 22> C           2.09230129846287     -0.72181303187779      0.00054588506988
| 23> C           2.16533433637312      0.67875956877784     -0.00019020518462
| 24> C           1.02604495024516      1.44429591041406     -0.00112769923528
| 25> C          -0.22066724983368      0.76964820418379     -0.00145779094333
| 26> C          -0.24203849482019     -0.64370269093123     -0.00228441977934
| 27> O          -1.54743606554764     -1.08303827314357     -0.00244446930381
| 28> C          -2.30214321812613      0.00014748360974     -0.00008403586404
| 29> C          -1.54799116518266      1.17804332366886      0.00027163727839
| 30> H          -1.95187027107963      2.17778170465068      0.00292004998074
| 31> H          -3.37147047000033     -0.14984477743457      0.00234503298508
| 32> H           1.06407807985525      2.52517296304682     -0.00166185087399
| 33> H           3.13722347699561      1.15264669313453      0.00059802179644
| 34> H           3.01004135347746     -1.29562961357689      0.00320363065148
| 35> H           0.82972672001586     -2.50186485650921      0.00022952527172
| 36> *
| 37>
| 38>                          ****END OF INPUT****

CARTESIAN COORDINATES (ANGSTROEM)
---------------------------------
  C      0.867928   -1.421642   -0.000793
  C      2.092301   -0.721813    0.000546
  C      2.165334    0.678760   -0.000190
  C      1.026045    1.444296   -0.001128
  C     -0.220667    0.769648   -0.001458
  C     -0.242038   -0.643703   -0.002284
  O     -1.547436   -1.083038   -0.002444
  C     -2.302143    0.000147   -0.000084
  C     -1.547991    1.178043    0.000272
  H     -1.951870    2.177782    0.002920
  H     -3.371470   -0.149845    0.002345
  H      1.064078    2.525173   -0.001662
  H      3.137223    1.152647    0.000598
  H      3.010041   -1.295630    0.003204
  H      0.829727   -2.501865    0.000230

 Total Charge           Charge          ....    1
 Multiplicity           Mult            ....    2
 Number of Electrons    NEL             ....   61
 Basis Dimension        Dim             ....  552

ORBITAL ENERGIES
----------------
                 SPIN UP ORBITALS
  NO   OCC          E(Eh)            E(eV)
   0   1.0000     -19.338519      -526.2279
   1   1.0000     -10.364431      -282.0305
   2   1.0000     -10.337157      -281.2883
   3   1.0000     -10.294241      -280.1205
   4   1.0000     -10.292081      -280.0618
   5   1.0000     -10.290656      -280.0230
   6   1.0000     -10.283737      -279.8347
   7   1.0000     -10.278170      -279.6832
   8   1.0000     -10.260065      -279.1906
   9   1.0000      -1.214938       -33.0601
  10   1.0000      -0.940142       -25.5826
  11   1.0000      -0.884689       -24.0736
  12   1.0000      -0.828675       -22.5494
  13   1.0000      -0.802911       -21.8483
  14   1.0000      -0.706082       -19.2135
  15   1.0000      -0.669515       -18.2184
  16   1.0000      -0.653760       -17.7897
  17   1.0000      -0.585277       -15.9262
  18   1.0000      -0.560314       -15.2469
  19   1.0000      -0.544101       -14.8057
  20   1.0000      -0.535244       -14.5647
  21   1.0000      -0.495498       -13.4832
  22   1.0000      -0.484413       -13.1815
  23   1.0000      -0.470637       -12.8067
  24   1.0000      -0.446040       -12.1374
  25   1.0000      -0.425064       -11.5666
  26   1.0000      -0.414686       -11.2842
  27   1.0000      -0.395844       -10.7715
  28   1.0000      -0.368589       -10.0298
  29   1.0000      -0.306985        -8.3535
  30   1.0000      -0.289266        -7.8713
  31   0.0000      -0.082586        -2.2473
  32   0.0000      -0.033329        -0.9069
  33   0.0000      -0.005176        -0.1409
  34   0.0000      -0.000162        -0.0044
  35   0.0000       0.011315         0.3079

                 SPIN DOWN ORBITALS
  NO   OCC          E(Eh)            E(eV)
   0   1.0000     -19.337880      -526.2105
   1   1.0000     -10.358828      -281.8780
   2   1.0000     -10.335496      -281.2432
   3   1.0000     -10.292097      -280.0622
   4   1.0000     -10.291420      -280.0438
   5   1.0000     -10.285758      -279.8897
   6   1.0000     -10.280315      -279.7416
   7   1.0000     -10.278600      -279.6949
   8   1.0000     -10.261868      -279.2396
   9   1.0000      -1.211221       -32.9590
  10   1.0000      -0.934744       -25.4357
  11   1.0000      -0.875917       -23.8349
  12   1.0000      -0.825431       -22.4611
  13   1.0000      -0.789152       -21.4739
  14   1.0000      -0.701644       -19.0927
  15   1.0000      -0.663660       -18.0591
  16   1.0000      -0.648851       -17.6561
  17   1.0000      -0.582577       -15.8527
  18   1.0000      -0.556119       -15.1328
  19   1.0000      -0.532811       -14.4985
  20   1.0000      -0.527414       -14.3517
  21   1.0000      -0.494039       -13.4435
  22   1.0000      -0.481589       -13.1047
  23   1.0000      -0.468562       -12.7502
  24   1.0000      -0.442988       -12.0543
  25   1.0000      -0.413013       -11.2387
  26   1.0000      -0.407638       -11.0924
  27   1.0000      -0.394324       -10.7301
  28   1.0000      -0.339701        -9.2437
  29   1.0000      -0.301234        -8.1970
  30   0.0000      -0.198198        -5.3932
  31   0.0000      -0.050569        -1.3761
  32   0.0000      -0.020574        -0.5598
  33   0.0000       0.000828         0.0225
  34   0.0000       0.012339         0.3357

MULLIKEN ATOMIC CHARGES AND SPIN POPULATIONS
--------------------------------------------
   0 C :   -0.926861   -0.004927
   1 C :   -0.230252    0.280848
   2 C :   -0.644967   -0.094965
   3 C :   -0.583170    0.200259
   4 C :    0.942286    0.042068
   5 C :    0.363316    0.083024
   6 O :   -0.462837    0.005901
   7 C :   -0.357767    0.303423
   8 C :   -0.612177    0.195649
   9 H :    0.524456   -0.006712
  10 H :    0.672376    0.006866
  11 H :    0.287821   -0.013348
  12 H :    0.780811   -0.002090
  13 H :    0.483973   -0.001362
  14 H :    0.762992    0.005367
Sum of atomic charges         :    1.0000000

LOEWDIN ATOMIC CHARGES AND SPIN POPULATIONS
-------------------------------------------
   0 C :    0.302256    0.049082
   1 C :    0.278340    0.151248
   2 C :    0.255245    0.025238
   3 C :    0.298594    0.106077
   4 C :   -0.107801    0.080267
   5 C :   -0.329939    0.058402
   6 O :    0.677457    0.059194
   7 C :    0.102322    0.217452
   8 C :    0.343307    0.146486
   9 H :   -0.125295    0.019960
  10 H :   -0.122655    0.038048
  11 H :   -0.135660    0.022050
  12 H :   -0.157478   -0.009182
  13 H :   -0.140808    0.035509
  14 H :   -0.137884    0.000170

  Mayer bond orders larger than 0.100000
B(  0-C ,  1-C ) :   1.3146 B(  0-C ,  2-C ) :   0.3337 B(  0-C ,  4-C ) :   0.1887
B(  0-C ,  5-C ) :   1.2582 B(  0-C ,  6-O ) :   0.1206 B(  0-C , 13-H ) :   0.1386
B(  1-C ,  2-C ) :   1.3138 B(  1-C ,  3-C ) :  -0.3036 B(  1-C ,  5-C ) :  -0.6020
B(  1-C ,  8-C ) :   0.1262 B(  1-C , 12-H ) :   0.1605 B(  1-C , 13-H ) :   0.6212
B(  1-C , 14-H ) :   0.1494 B(  2-C ,  3-C ) :   1.3180 B(  2-C ,  5-C ) :   0.1745
B(  2-C ,  8-C ) :   0.1774 B(  3-C ,  4-C ) :   0.7690 B(  3-C ,  5-C ) :  -0.6097
B(  3-C ,  9-H ) :   0.1134 B(  3-C , 11-H ) :   1.1570 B(  3-C , 12-H ) :  -0.1257
B(  3-C , 14-H ) :   0.1130 B(  4-C ,  5-C ) :   1.2067 B(  4-C ,  7-C ) :  -0.3518
B(  4-C ,  8-C ) :   0.8143 B(  4-C , 13-H ) :  -0.1336 B(  5-C ,  6-O ) :   0.5074
B(  5-C ,  8-C ) :   0.2574 B(  5-C , 11-H ) :   0.1281 B(  5-C , 13-H ) :   0.1360
B(  6-O ,  7-C ) :   1.4279 B(  7-C ,  8-C ) :   1.1081 B(  7-C , 10-H ) :   0.4739
B(  8-C ,  9-H ) :   0.5957 B(  8-C , 11-H ) :  -0.1100

Dispersion correction           -0.013712895
FINAL SINGLE POINT ENERGY      -383.167796759644

DIPOLE MOMENT
-------------

Method             : SCF
Type of density    : Electron Density
Multiplicity       :   2
Irrep              :   0
Energy             :  -383.1540838648428462 Eh
Relativity type    :
Basis              : AO
                                X                 Y                 Z
Electronic contribution:     -2.999104336      -1.154403521      -0.007721738
Nuclear contribution   :      2.523599272       1.773554375       0.011564623
                        -----------------------------------------
Total Dipole Moment    :     -0.475505064       0.619150855       0.003842884
                        -----------------------------------------
Magnitude (a.u.)       :      0.780684068
Magnitude (Debye)      :      1.984341204

VIBRATIONAL FREQUENCIES
-----------------------

Scaling factor for frequencies =  1.000000000  (already applied!)

     0:       0.00 cm**-1
     1:       0.00 cm**-1
     2:       0.00 cm**-1
     3:       0.00 cm**-1
     4:       0.00 cm**-1
     5:       0.00 cm**-1
     6:     181.52 cm**-1
     7:     229.11 cm**-1
     8:     387.40 cm**-1
     9:     400.72 cm**-1
    10:     487.22 cm**-1
    11:     516.97 cm**-1
    12:     539.89 cm**-1
    13:     611.83 cm**-1
    14:     725.44 cm**-1
    15:     773.27 cm**-1
    16:     776.31 cm**-1
    17:     817.82 cm**-1
    18:     866.53 cm**-1
    19:     882.77 cm**-1
    20:     888.12 cm**-1
    21:     926.66 cm**-1
    22:     975.53 cm**-1
    23:    1010.88 cm**-1
    24:    1011.49 cm**-1
    25:    1051.27 cm**-1
    26:    1111.85 cm**-1
    27:    1133.96 cm**-1
    28:    1155.55 cm**-1
    29:    1196.09 cm**-1
    30:    1265.23 cm**-1
    31:    1285.82 cm**-1
    32:    1380.69 cm**-1
    33:    1400.00 cm**-1
    34:    1457.63 cm**-1
    35:    1465.02 cm**-1
    36:    1515.33 cm**-1
    37:    1612.16 cm**-1
    38:    1686.55 cm**-1
    39:    3216.36 cm**-1
    40:    3225.39 cm**-1
    41:    3235.60 cm**-1
    42:    3240.32 cm**-1
    43:    3269.23 cm**-1
    44:    3282.36 cm**-1

IR SPECTRUM
-----------

 Mode   freq       eps      Int      T**2         TX        TY        TZ
       cm**-1   L/(mol*cm) km/mol    a.u.
----------------------------------------------------------------------------
  6:    181.52   0.003698   18.69  0.006358  (-0.000067 -0.000043  0.079738)
  7:    229.11   0.000010    0.05  0.000013  ( 0.000613  0.000242 -0.003548)
  8:    387.40   0.003196   16.15  0.002575  ( 0.000665 -0.000109 -0.050736)
  9:    400.72   0.004012   20.27  0.003124  ( 0.046789  0.030578  0.000075)
 10:    487.22   0.001497    7.56  0.000959  (-0.000461  0.000422 -0.030958)
 11:    516.97   0.000596    3.01  0.000360  ( 0.007695  0.017337  0.000164)
 12:    539.89   0.000135    0.68  0.000078  (-0.000612  0.000022 -0.008803)
 13:    611.83   0.001194    6.04  0.000609  ( 0.024384 -0.003818 -0.000255)
 14:    725.44   0.008846   44.70  0.003805  ( 0.000011 -0.000127  0.061687)
 15:    773.27   0.001928    9.74  0.000778  ( 0.000143 -0.000603 -0.027884)
 16:    776.31   0.000702    3.55  0.000282  ( 0.006983 -0.015209  0.001495)
 17:    817.82   0.020599  104.10  0.007860  (-0.000340  0.000317  0.088658)
 18:    866.53   0.004571   23.10  0.001646  ( 0.012248  0.038679 -0.000419)
 19:    882.77   0.000326    1.65  0.000115  ( 0.000661  0.000293 -0.010714)
 20:    888.12   0.007001   35.38  0.002460  ( 0.049266  0.005716  0.000289)
 21:    926.66   0.000205    1.04  0.000069  ( 0.000320  0.000280  0.008302)
 22:    975.53   0.001517    7.67  0.000485  (-0.000190  0.000111  0.022027)
 23:   1010.88   0.002172   10.97  0.000670  ( 0.020686 -0.015570 -0.000134)
 24:   1011.49   0.000209    1.06  0.000065  (-0.000649  0.000833  0.007965)
 25:   1051.27   0.000485    2.45  0.000144  ( 0.008274  0.008689  0.000013)
 26:   1111.85   0.001885    9.53  0.000529  (-0.003908 -0.022666  0.000139)
 27:   1133.96   0.010889   55.03  0.002997  (-0.048551  0.025289 -0.000030)
 28:   1155.55   0.012449   62.91  0.003362  (-0.057410 -0.008121  0.000008)
 29:   1196.09   0.018652   94.26  0.004866  ( 0.051907  0.046605 -0.000016)
 30:   1265.23   0.021927  110.81  0.005408  ( 0.071595 -0.016798 -0.000086)
 31:   1285.82   0.004434   22.41  0.001076  ( 0.032804 -0.000361  0.000056)
 32:   1380.69   0.020300  102.59  0.004588  ( 0.040672 -0.054167 -0.000074)
 33:   1400.00   0.015577   78.72  0.003472  ( 0.030598  0.050358 -0.000024)
 34:   1457.63   0.003047   15.40  0.000652  (-0.024639 -0.006724  0.000108)
 35:   1465.02   0.076661  387.41  0.016330  ( 0.126839  0.015537  0.000098)
 36:   1515.33   0.023836  120.46  0.004909  (-0.053410  0.045344 -0.000027)
 37:   1612.16   0.000726    3.67  0.000141  ( 0.010335 -0.005811  0.000017)
 38:   1686.55   0.037313  188.56  0.006904  (-0.074167  0.037461 -0.000083)
 39:   3216.36   0.000333    1.68  0.000032  ( 0.001121 -0.005573 -0.000066)
 40:   3225.39   0.000214    1.08  0.000021  (-0.004091  0.001983  0.000065)
 41:   3235.60   0.000338    1.71  0.000033  ( 0.004201 -0.003866 -0.000009)
 42:   3240.32   0.000582    2.94  0.000056  (-0.002213 -0.007153  0.000070)
 43:   3269.23   0.004110   20.77  0.000392  ( 0.012923  0.015010 -0.000004)
 44:   3282.36   0.001778    8.99  0.000169  (-0.009190  0.009196  0.000180)

--------------------------
THERMOCHEMISTRY AT 298.15K
--------------------------

Temperature         ...   298.15 K
Pressure            ...     1.00 atm
Total Mass          ...   118.13 AMU
Quasi RRHO          ...     True
Cut-Off Frequency   ...     1.00 cm^-1

Throughout the following assumptions are being made:
  (1) The electronic state is orbitally nondegenerate
      but the spin degeneracy is treated
  (2) There are no thermally accessible electronically excited states
  (3) Hindered rotations indicated by low frequency modes are not
      treated as such but are treated as vibrations and this may
      cause some error
  (4) All equations used are the standard statistical mechanics
      equations for an ideal gas
  (5) All vibrations are strictly harmonic

freq.     181.52  E(vib)   ...       0.37
freq.     229.11  E(vib)   ...       0.32
freq.     387.40  E(vib)   ...       0.20
freq.     400.72  E(vib)   ...       0.19
freq.     487.22  E(vib)   ...       0.15
freq.     516.97  E(vib)   ...       0.13
freq.     539.89  E(vib)   ...       0.12
freq.     611.83  E(vib)   ...       0.10
freq.     725.44  E(vib)   ...       0.06
freq.     773.27  E(vib)   ...       0.05
freq.     776.31  E(vib)   ...       0.05
freq.     817.82  E(vib)   ...       0.05
freq.     866.53  E(vib)   ...       0.04
freq.     882.77  E(vib)   ...       0.04
freq.     888.12  E(vib)   ...       0.04
freq.     926.66  E(vib)   ...       0.03
freq.     975.53  E(vib)   ...       0.03
freq.    1010.88  E(vib)   ...       0.02
freq.    1011.49  E(vib)   ...       0.02
freq.    1051.27  E(vib)   ...       0.02
freq.    1111.85  E(vib)   ...       0.01
freq.    1133.96  E(vib)   ...       0.01
freq.    1155.55  E(vib)   ...       0.01
freq.    1196.09  E(vib)   ...       0.01
freq.    1265.23  E(vib)   ...       0.01
freq.    1285.82  E(vib)   ...       0.01
freq.    1380.69  E(vib)   ...       0.01
freq.    1400.00  E(vib)   ...       0.00
freq.    1457.63  E(vib)   ...       0.00
freq.    1465.02  E(vib)   ...       0.00
freq.    1515.33  E(vib)   ...       0.00
freq.    1612.16  E(vib)   ...       0.00
freq.    1686.55  E(vib)   ...       0.00
freq.    3216.36  E(vib)   ...       0.00
freq.    3225.39  E(vib)   ...       0.00
freq.    3235.60  E(vib)   ...       0.00
freq.    3240.32  E(vib)   ...       0.00
freq.    3269.23  E(vib)   ...       0.00
freq.    3282.36  E(vib)   ...       0.00

------------
INNER ENERGY
------------

The inner energy is: U= E(el) + E(ZPE) + E(vib) + E(rot) + E(trans)
    E(el)   - is the total energy from the electronic structure calculation
              = E(kin-el) + E(nuc-el) + E(el-el) + E(nuc-nuc)
    E(ZPE)  - the the zero temperature vibrational energy from the frequency calculation
    E(vib)  - the the finite temperature correction to E(ZPE) due to population
              of excited vibrational states
    E(rot)  - is the rotational thermal energy
    E(trans)- is the translational thermal energy

Summary of contributions to the inner energy U:
Electronic energy                ...   -383.16779676 Eh
Zero point energy                ...      0.11663282 Eh      73.19 kcal/mol
Thermal vibrational correction   ...      0.00339082 Eh       2.13 kcal/mol
Thermal rotational correction    ...      0.00141627 Eh       0.89 kcal/mol
Thermal translational correction ...      0.00141627 Eh       0.89 kcal/mol
-----------------------------------------------------------------------
Total thermal energy                   -383.04494058 Eh

Summary of corrections to the electronic energy:
(perhaps to be used in another calculation)
Total thermal correction                  0.00622337 Eh       3.91 kcal/mol
Non-thermal (ZPE) correction              0.11663282 Eh      73.19 kcal/mol
-----------------------------------------------------------------------
Total correction                          0.12285618 Eh      77.09 kcal/mol

--------
ENTHALPY
--------

The enthalpy is H = U + kB*T
                kB is Boltzmann's constant
Total thermal energy              ...   -383.04494058 Eh
Thermal Enthalpy correction       ...      0.00094421 Eh       0.59 kcal/mol
-----------------------------------------------------------------------
Total Enthalpy                    ...   -383.04399637 Eh

Note: Only C1 symmetry has been detected, increase convergence thresholds
      if your molecule has a higher symmetry. Symmetry factor of 1.0 is
      used for the rotational entropy correction.

Note: Rotational entropy computed according to Herzberg
Infrared and Raman Spectra, Chapter V,1, Van Nostrand Reinhold, 1945
Point Group:  C1, Symmetry Number:   1
Rotational constants in cm-1:     0.130542     0.056399     0.039384

Vibrational entropy computed according to the QRRHO of S. Grimme
Chem.Eur.J. 2012 18 9955 using a reference frequency of 100.0 cm-1

-------
ENTROPY
-------

The entropy contributions are T*S = T*(S(el)+S(vib)+S(rot)+S(trans))
     S(el)   - electronic entropy
     S(vib)  - vibrational entropy
     S(rot)  - rotational entropy
     S(trans)- translational entropy
The entropies will be listed as multiplied by the temperature to get
units of energy

Electronic entropy                ...      0.00065446 Eh      0.41 kcal/mol
Vibrational entropy               ...      0.00508574 Eh      3.19 kcal/mol
Rotational entropy                ...      0.01335634 Eh      8.38 kcal/mol
Translational entropy             ...      0.01910727 Eh     11.99 kcal/mol
-----------------------------------------------------------------------
Final entropy term                ...      0.03820381 Eh     23.97 kcal/mol

In case the symmetry of your molecule has not been determined correctly
or in case you have a reason to use a different symmetry number we print
out the resulting rotational entropy values for sn=1,12:

 non-linear molecules -----------------------------------
|  sn= 1 | S(rot)=       0.01335634 Eh      8.38 kcal/mol|
|  sn= 2 | S(rot)=       0.01270189 Eh      7.97 kcal/mol|
|  sn= 3 | S(rot)=       0.01231905 Eh      7.73 kcal/mol|
|  sn= 4 | S(rot)=       0.01204743 Eh      7.56 kcal/mol|
|  sn= 5 | S(rot)=       0.01183674 Eh      7.43 kcal/mol|
|  sn= 6 | S(rot)=       0.01166460 Eh      7.32 kcal/mol|
|  sn= 7 | S(rot)=       0.01151905 Eh      7.23 kcal/mol|
|  sn= 8 | S(rot)=       0.01139297 Eh      7.15 kcal/mol|
|  sn= 9 | S(rot)=       0.01128176 Eh      7.08 kcal/mol|
|  sn=10 | S(rot)=       0.01118229 Eh      7.02 kcal/mol|
|  sn=11 | S(rot)=       0.01109230 Eh      6.96 kcal/mol|
|  sn=12 | S(rot)=       0.01101014 Eh      6.91 kcal/mol|
 linear molecules ---------------------------------------
|  Dinfh | S(rot)=       0.00837966 Eh      5.26 kcal/mol|
|  Cinfv | S(rot)=       0.00903412 Eh      5.67 kcal/mol|
 --------------------------------------------------------

-------------------
GIBBS FREE ENERGY

                             ****ORCA TERMINATED NORMALLY****
TOTAL RUN TIME: 0 days 0 hours 38 minutes 37 seconds 52 msec
