                         Program Version 6.0.0  -   RELEASE  -
|  1> !PBE0 def2-SV(p) Opt Freq d3 TightSCF SlowConv RIJCOSX defgrid2
|  2>
|  3> %pal
|  4> nprocs 4
|  5> end
|  6>
|  7> %scf
|  8> MaxIter 1500
|  9> end
| 10>
| 11> %maxcore 3000
| 12>
| 13>
| 14>
| 15> * xyz 1 2
| 16> C     4.0810299    1.2139773    0.0004481
| 17> C     4.7723044    0.0001644    0.0000296
| 18> C     4.0812441   -1.2137710   -0.0004339
| 19> C     2.7067289   -1.2258045   -0.0004549
| 20> C     1.9972150   -0.0000846   -0.0000480
| 21> C     2.7065141    1.2257626    0.0003860
| 22> H     2.1566886    2.1539320    0.0007119
| 23> C     0.6123673   -0.0001698   -0.0000538
| 24> C    -0.6123672   -0.0001779   -0.0000450
| 25> C    -1.9972145   -0.0000867   -0.0000088
| 26> C    -2.7067383   -1.2258006    0.0004442
| 27> C    -4.0812533   -1.2137554    0.0005153
| 28> C    -4.7723038    0.0001857    0.0000900
| 29> C    -4.0810196    1.2139931   -0.0003854
| 30> C    -2.7065037    1.2257665   -0.0004156
| 31> H    -2.1566694    2.1539309   -0.0007910
| 32> H    -4.6300418    2.1426819   -0.0007351
| 33> H    -5.8515760    0.0002907    0.0001264
| 34> H    -4.6304598   -2.1423351    0.0009035
| 35> H    -2.1570868   -2.1540736    0.0007748
| 36> H     2.1570685   -2.1540723   -0.0008207
| 37> H     4.6304425   -2.1423556   -0.0007796
| 38> H     5.8515765    0.0002607    0.0000615
| 39> H     4.6300600    2.1426614    0.0008259
| 40> *
| 41>
| 42>                          ****END OF INPUT****
 Total Charge           Charge          ....    1
 Multiplicity           Mult            ....    2
 Number of Electrons    NEL             ....   93
Dispersion correction           -0.024238293
FINAL SINGLE POINT ENERGY      -538.152912591603
Dispersion correction             ... done (  0.1 sec)
Dispersion correction           -0.024111927
FINAL SINGLE POINT ENERGY      -538.155286265098
Dispersion correction             ... done (  0.1 sec)
Dispersion correction           -0.024100907
FINAL SINGLE POINT ENERGY      -538.155311483278
Dispersion correction             ... done (  0.1 sec)
                    ***********************HURRAY********************

CARTESIAN COORDINATES (ANGSTROEM)
---------------------------------
  C      4.103055    1.223143    0.000275
  C      4.794220    0.000104    0.000015
  C      4.103168   -1.222999   -0.000278
  C      2.722910   -1.233221   -0.000307
  C      2.008899   -0.000027   -0.000030
  C      2.722797    1.233233    0.000257
  H      2.166043    2.173178    0.000458
  C      0.619014   -0.000074   -0.000036
  C     -0.619019   -0.000077   -0.000028
  C     -2.008902   -0.000017    0.000004
  C     -2.722914   -1.233206    0.000313
  C     -4.103171   -1.222982    0.000343
  C     -4.794220    0.000125    0.000075
  C     -4.103048    1.223161   -0.000229
  C     -2.722792    1.233247   -0.000273
  H     -2.166034    2.173190   -0.000502
  H     -4.659090    2.164152   -0.000433
  H     -5.888290    0.000180    0.000101
  H     -4.659307   -2.163917    0.000579
  H     -2.166250   -2.173205    0.000521
  H      2.166245   -2.173220   -0.000529
  H      4.659300   -2.163933   -0.000486
  H      5.888292    0.000154    0.000039
  H      4.659100    2.164131    0.000496

 Multiplicity           Mult            ....    2
 Number of Electrons    NEL             ....   93
 Basis Dimension        Dim             ....  216

ORBITAL ENERGIES
----------------
                 SPIN UP ORBITALS
  NO   OCC          E(Eh)            E(eV)
   0   1.0000     -10.435674      -283.9691
   1   1.0000     -10.435605      -283.9672
   2   1.0000     -10.435296      -283.9588
   3   1.0000     -10.433579      -283.9121
   4   1.0000     -10.407402      -283.1998
   5   1.0000     -10.407401      -283.1998
   6   1.0000     -10.407063      -283.1906
   7   1.0000     -10.407056      -283.1904
   8   1.0000     -10.407034      -283.1898
   9   1.0000     -10.407028      -283.1896
  10   1.0000     -10.390365      -282.7362
  11   1.0000     -10.390364      -282.7362
  12   1.0000     -10.390355      -282.7359
  13   1.0000     -10.390355      -282.7359
  14   1.0000      -1.051162       -28.6036
  15   1.0000      -1.045128       -28.4394
  16   1.0000      -0.985147       -26.8072
  17   1.0000      -0.949882       -25.8476
  18   1.0000      -0.925738       -25.1906
  19   1.0000      -0.925515       -25.1845
  20   1.0000      -0.903050       -24.5733
  21   1.0000      -0.818410       -22.2701
  22   1.0000      -0.789089       -21.4722
  23   1.0000      -0.780308       -21.2333
  24   1.0000      -0.778344       -21.1798
  25   1.0000      -0.719161       -19.5694
  26   1.0000      -0.705523       -19.1983
  27   1.0000      -0.655620       -17.8403
  28   1.0000      -0.646513       -17.5925
  29   1.0000      -0.639643       -17.4056
  30   1.0000      -0.633541       -17.2395
  31   1.0000      -0.601418       -16.3654
  32   1.0000      -0.598559       -16.2876
  33   1.0000      -0.594517       -16.1776
  34   1.0000      -0.594203       -16.1691
  35   1.0000      -0.577670       -15.7192
  36   1.0000      -0.554794       -15.0967
  37   1.0000      -0.528402       -14.3786
  38   1.0000      -0.525845       -14.3090
  39   1.0000      -0.521132       -14.1807
  40   1.0000      -0.514941       -14.0123
  41   1.0000      -0.507118       -13.7994
  42   1.0000      -0.459477       -12.5030
  43   1.0000      -0.450938       -12.2707
  44   1.0000      -0.429097       -11.6763
  45   1.0000      -0.428979       -11.6731
  46   1.0000      -0.395813       -10.7706
  47   0.0000      -0.226685        -6.1684
  48   0.0000      -0.158939        -4.3249
  49   0.0000      -0.157717        -4.2917
  50   0.0000      -0.157456        -4.2846
  51   0.0000      -0.127284        -3.4636

                 SPIN DOWN ORBITALS
  NO   OCC          E(Eh)            E(eV)
   0   1.0000     -10.434947      -283.9493
   1   1.0000     -10.434732      -283.9435
   2   1.0000     -10.432708      -283.8884
   3   1.0000     -10.430894      -283.8391
   4   1.0000     -10.405264      -283.1416
   5   1.0000     -10.405257      -283.1414
   6   1.0000     -10.405235      -283.1408
   7   1.0000     -10.405229      -283.1407
   8   1.0000     -10.403895      -283.1044
   9   1.0000     -10.403894      -283.1043
  10   1.0000     -10.391410      -282.7646
  11   1.0000     -10.391408      -282.7646
  12   1.0000     -10.391402      -282.7644
  13   1.0000     -10.391401      -282.7644
  14   1.0000      -1.046185       -28.4681
  15   1.0000      -1.040888       -28.3240
  16   1.0000      -0.977076       -26.5876
  17   1.0000      -0.945428       -25.7264
  18   1.0000      -0.924154       -25.1475
  19   1.0000      -0.923949       -25.1419
  20   1.0000      -0.891467       -24.2580
  21   1.0000      -0.813988       -22.1497
  22   1.0000      -0.785017       -21.3614
  23   1.0000      -0.778083       -21.1727
  24   1.0000      -0.776073       -21.1180
  25   1.0000      -0.717815       -19.5327
  26   1.0000      -0.704413       -19.1680
  27   1.0000      -0.652980       -17.7685
  28   1.0000      -0.644340       -17.5334
  29   1.0000      -0.638041       -17.3620
  30   1.0000      -0.631996       -17.1975
  31   1.0000      -0.599876       -16.3235
  32   1.0000      -0.596922       -16.2431
  33   1.0000      -0.594130       -16.1671
  34   1.0000      -0.593842       -16.1593
  35   1.0000      -0.560617       -15.2552
  36   1.0000      -0.541982       -14.7481
  37   1.0000      -0.527205       -14.3460
  38   1.0000      -0.524831       -14.2814
  39   1.0000      -0.519856       -14.1460
  40   1.0000      -0.513925       -13.9846
  41   1.0000      -0.483881       -13.1671
  42   1.0000      -0.455320       -12.3899
  43   1.0000      -0.429038       -11.6747
  44   1.0000      -0.424762       -11.5584
  45   1.0000      -0.424732       -11.5575
  46   0.0000      -0.326005        -8.8711
  47   0.0000      -0.206609        -5.6221
  48   0.0000      -0.150602        -4.0981
  49   0.0000      -0.150513        -4.0957
  50   0.0000      -0.141750        -3.8572

MULLIKEN ATOMIC CHARGES AND SPIN POPULATIONS
--------------------------------------------
   0 C :   -0.078909   -0.085099
   1 C :   -0.042112    0.246322
   2 C :   -0.078908   -0.085097
   3 C :   -0.040611    0.121832
   4 C :   -0.049217    0.056234
   5 C :   -0.040612    0.121835
   6 H :    0.142198   -0.006218
   7 C :    0.073587    0.142718
   8 C :    0.073585    0.142716
   9 C :   -0.049211    0.056234
  10 C :   -0.040608    0.121830
  11 C :   -0.078911   -0.085095
  12 C :   -0.042110    0.246322
  13 C :   -0.078908   -0.085098
  14 C :   -0.040612    0.121835
  15 H :    0.142197   -0.006218
  16 H :    0.154804    0.002856
  17 H :    0.162773   -0.012020
  18 H :    0.154804    0.002856
  19 H :    0.142200   -0.006218
  20 H :    0.142200   -0.006218
  21 H :    0.154803    0.002856
  22 H :    0.162774   -0.012020
  23 H :    0.154803    0.002856
Sum of atomic charges         :    1.0000000

LOEWDIN ATOMIC CHARGES AND SPIN POPULATIONS
-------------------------------------------
   0 C :   -0.100892   -0.045706
   1 C :   -0.027654    0.193755
   2 C :   -0.100891   -0.045705
   3 C :   -0.049936    0.101854
   4 C :   -0.032589    0.053849
   5 C :   -0.049937    0.101856
   6 H :    0.158106   -0.003337
   7 C :    0.065382    0.149947
   8 C :    0.065384    0.149946
   9 C :   -0.032589    0.053849
  10 C :   -0.049936    0.101852
  11 C :   -0.100891   -0.045704
  12 C :   -0.027654    0.193755
  13 C :   -0.100893   -0.045706
  14 C :   -0.049936    0.101856
  15 H :    0.158106   -0.003337
  16 H :    0.159614    0.001376
  17 H :    0.161075   -0.005928
  18 H :    0.159614    0.001376
  19 H :    0.158107   -0.003337
  20 H :    0.158107   -0.003337
  21 H :    0.159614    0.001376
  22 H :    0.161074   -0.005928
  23 H :    0.159614    0.001376

  Mayer bond orders larger than 0.100000
B(  0-C ,  1-C ) :   1.3226 B(  0-C ,  5-C ) :   1.4564 B(  0-C , 23-H ) :   0.9536
B(  1-C ,  2-C ) :   1.3226 B(  1-C , 22-H ) :   0.9507 B(  2-C ,  3-C ) :   1.4564
B(  2-C , 21-H ) :   0.9536 B(  3-C ,  4-C ) :   1.2205 B(  3-C , 20-H ) :   0.9596
B(  4-C ,  5-C ) :   1.2205 B(  4-C ,  7-C ) :   1.2249 B(  5-C ,  6-H ) :   0.9596
B(  7-C ,  8-C ) :   2.2989 B(  8-C ,  9-C ) :   1.2249 B(  9-C , 10-C ) :   1.2205
B(  9-C , 14-C ) :   1.2205 B( 10-C , 11-C ) :   1.4564 B( 10-C , 19-H ) :   0.9596
B( 11-C , 12-C ) :   1.3226 B( 11-C , 18-H ) :   0.9536 B( 12-C , 13-C ) :   1.3226
B( 12-C , 17-H ) :   0.9507 B( 13-C , 14-C ) :   1.4564 B( 13-C , 16-H ) :   0.9536
B( 14-C , 15-H ) :   0.9596

Dispersion correction           -0.024100136
FINAL SINGLE POINT ENERGY      -538.155313795376

DIPOLE MOMENT
-------------

Method             : SCF
Type of density    : Electron Density
Multiplicity       :   2
Irrep              :   0
Energy             :  -538.1312136597094877 Eh
Relativity type    :
Basis              : AO
                                X                 Y                 Z
Electronic contribution:     -0.000014327      -0.000330121      -0.000129848
Nuclear contribution   :      0.000010392       0.000370111       0.000152227
                        -----------------------------------------
Total Dipole Moment    :     -0.000003935       0.000039990       0.000022378
                        -----------------------------------------
Magnitude (a.u.)       :      0.000045994
Magnitude (Debye)      :      0.000116907

VIBRATIONAL FREQUENCIES
-----------------------

Scaling factor for frequencies =  1.000000000  (already applied!)

     0:       0.00 cm**-1
     1:       0.00 cm**-1
     2:       0.00 cm**-1
     3:       0.00 cm**-1
     4:       0.00 cm**-1
     5:       0.00 cm**-1
     6:      46.02 cm**-1
     7:      49.17 cm**-1
     8:      54.07 cm**-1
     9:     127.82 cm**-1
    10:     146.88 cm**-1
    11:     264.99 cm**-1
    12:     268.02 cm**-1
    13:     384.17 cm**-1
    14:     397.06 cm**-1
    15:     402.21 cm**-1
    16:     474.72 cm**-1
    17:     496.54 cm**-1
    18:     539.51 cm**-1
    19:     564.14 cm**-1
    20:     588.20 cm**-1
    21:     609.76 cm**-1
    22:     620.40 cm**-1
    23:     674.80 cm**-1
    24:     674.95 cm**-1
    25:     717.40 cm**-1
    26:     801.52 cm**-1
    27:     803.59 cm**-1
    28:     845.93 cm**-1
    29:     847.58 cm**-1
    30:     857.19 cm**-1
    31:     976.68 cm**-1
    32:     977.14 cm**-1
    33:    1005.62 cm**-1
    34:    1009.73 cm**-1
    35:    1017.88 cm**-1
    36:    1018.07 cm**-1
    37:    1042.74 cm**-1
    38:    1042.86 cm**-1
    39:    1044.72 cm**-1
    40:    1044.74 cm**-1
    41:    1116.70 cm**-1
    42:    1118.02 cm**-1
    43:    1174.91 cm**-1
    44:    1181.64 cm**-1
    45:    1181.74 cm**-1
    46:    1194.40 cm**-1
    47:    1212.78 cm**-1
    48:    1324.70 cm**-1
    49:    1328.42 cm**-1
    50:    1414.66 cm**-1
    51:    1416.61 cm**-1
    52:    1417.41 cm**-1
    53:    1487.05 cm**-1
    54:    1489.00 cm**-1
    55:    1504.58 cm**-1
    56:    1557.10 cm**-1
    57:    1594.43 cm**-1
    58:    1595.42 cm**-1
    59:    1657.56 cm**-1
    60:    1678.53 cm**-1
    61:    2256.09 cm**-1
    62:    3218.98 cm**-1
    63:    3219.04 cm**-1
    64:    3227.34 cm**-1
    65:    3227.38 cm**-1
    66:    3232.07 cm**-1
    67:    3232.12 cm**-1
    68:    3239.96 cm**-1
    69:    3240.03 cm**-1
    70:    3242.79 cm**-1
    71:    3242.89 cm**-1

IR SPECTRUM
-----------

 Mode   freq       eps      Int      T**2         TX        TY        TZ
       cm**-1   L/(mol*cm) km/mol    a.u.
----------------------------------------------------------------------------
  6:     46.02   0.000079    0.40  0.000533  ( 0.000001 -0.023086  0.000052)
  7:     49.17   0.000244    1.23  0.001546  (-0.000001  0.000033  0.039317)
  8:     54.07   0.000000    0.00  0.000000  (-0.000005 -0.000005 -0.000054)
  9:    127.82   0.000000    0.00  0.000000  ( 0.000004 -0.000001  0.000008)
 10:    146.88   0.000000    0.00  0.000000  ( 0.000002 -0.000002  0.000005)
 11:    264.99   0.000000    0.00  0.000000  (-0.000000  0.000000  0.000006)
 12:    268.02   0.000013    0.07  0.000015  (-0.000000 -0.000003 -0.003903)
 13:    384.17   0.000000    0.00  0.000000  (-0.000002 -0.000004  0.000004)
 14:    397.06   0.000000    0.00  0.000000  (-0.000003  0.000004 -0.000001)
 15:    402.21   0.000000    0.00  0.000000  ( 0.000002  0.000004  0.000002)
 16:    474.72   0.000170    0.86  0.000112  ( 0.000004  0.010584  0.000000)
 17:    496.54   0.000692    3.50  0.000435  ( 0.000005  0.000001 -0.020854)
 18:    539.51   0.010771   54.43  0.006230  ( 0.078932 -0.000001  0.000002)
 19:    564.14   0.000000    0.00  0.000000  ( 0.000002 -0.000001 -0.000008)
 20:    588.20   0.000000    0.00  0.000000  (-0.000003  0.000001  0.000013)
 21:    609.76   0.000335    1.69  0.000171  (-0.000003 -0.013093  0.000001)
 22:    620.40   0.000000    0.00  0.000000  ( 0.000001  0.000003 -0.000004)
 23:    674.80   0.015922   80.47  0.007363  (-0.000003  0.000003 -0.085810)
 24:    674.95   0.000098    0.50  0.000046  ( 0.000001  0.000013 -0.006747)
 25:    717.40   0.000000    0.00  0.000000  ( 0.000007 -0.000000  0.000004)
 26:    801.52   0.012523   63.29  0.004876  (-0.000003 -0.000001  0.069826)
 27:    803.59   0.000000    0.00  0.000000  (-0.000001 -0.000016  0.000206)
 28:    845.93   0.000000    0.00  0.000000  ( 0.000008  0.000005 -0.000000)
 29:    847.58   0.000000    0.00  0.000000  ( 0.000033  0.000004 -0.000006)
 30:    857.19   0.016761   84.70  0.006102  ( 0.078114 -0.000000  0.000002)
 31:    976.68   0.000000    0.00  0.000000  (-0.000007 -0.000001 -0.000057)
 32:    977.14   0.000697    3.52  0.000222  (-0.000010  0.000004 -0.014916)
 33:   1005.62   0.017397   87.92  0.005399  ( 0.073476 -0.000000 -0.000000)
 34:   1009.73   0.000000    0.00  0.000000  ( 0.000075 -0.000000 -0.000000)
 35:   1017.88   0.000000    0.00  0.000000  (-0.000044 -0.000004 -0.000004)
 36:   1018.07   0.000000    0.00  0.000000  ( 0.000021 -0.000004  0.000000)
 37:   1042.74   0.003670   18.55  0.001098  (-0.033143  0.000000  0.000001)
 38:   1042.86   0.000001    0.00  0.000000  (-0.000475 -0.000000  0.000004)
 39:   1044.72   0.000192    0.97  0.000057  (-0.000007  0.000002  0.007580)
 40:   1044.74   0.000003    0.02  0.000001  ( 0.000019  0.000001  0.000956)
 41:   1116.70   0.000000    0.00  0.000000  ( 0.000005  0.000060 -0.000006)
 42:   1118.02   0.002886   14.58  0.000805  (-0.000001 -0.028380  0.000000)
 43:   1174.91   0.000000    0.00  0.000000  (-0.000007  0.000002  0.000001)
 44:   1181.64   0.000004    0.02  0.000001  ( 0.000007 -0.001016  0.000004)
 45:   1181.74   0.000886    4.48  0.000234  (-0.000000  0.015300  0.000000)
 46:   1194.40   0.029425  148.70  0.007688  (-0.087681 -0.000000  0.000001)
 47:   1212.78   0.000000    0.00  0.000000  (-0.000013  0.000000 -0.000001)
 48:   1324.70   0.000000    0.00  0.000000  (-0.000005  0.000000 -0.000002)
 49:   1328.42   0.000233    1.18  0.000055  ( 0.000001 -0.007400  0.000000)
 50:   1414.66   0.000000    0.00  0.000000  (-0.000019  0.000024  0.000005)
 51:   1416.61   0.002479   12.53  0.000546  ( 0.000077 -0.023369  0.000000)
 52:   1417.41   0.040217  203.24  0.008854  ( 0.094097  0.000018 -0.000001)
 53:   1487.05   0.000000    0.00  0.000000  ( 0.000002 -0.000083 -0.000014)
 54:   1489.00   0.014436   72.96  0.003026  (-0.000001 -0.055005 -0.000000)
 55:   1504.58   0.000000    0.00  0.000000  ( 0.000001  0.000007 -0.000001)
 56:   1557.10   0.011173   56.46  0.002239  (-0.047321 -0.000001  0.000001)
 57:   1594.43   0.000000    0.00  0.000000  ( 0.000003  0.000004 -0.000001)
 58:   1595.42   0.000403    2.04  0.000079  ( 0.000008  0.008876 -0.000000)
 59:   1657.56   0.258590  1306.81  0.048684  (-0.220645  0.000001  0.000002)
 60:   1678.53   0.000000    0.00  0.000000  (-0.000020  0.000002  0.000001)
 61:   2256.09   0.000000    0.00  0.000000  (-0.000003 -0.000000  0.000000)
 62:   3218.98   0.000003    0.01  0.000000  ( 0.000518  0.000001 -0.000000)
 63:   3219.04   0.000000    0.00  0.000000  (-0.000027 -0.000000 -0.000000)
 64:   3227.34   0.000000    0.00  0.000000  ( 0.000003  0.000028 -0.000000)
 65:   3227.38   0.000005    0.02  0.000000  (-0.000003  0.000678 -0.000000)
 66:   3232.07   0.000705    3.56  0.000068  (-0.008250 -0.000003 -0.000000)
 67:   3232.12   0.000000    0.00  0.000000  ( 0.000114  0.000004  0.000000)
 68:   3239.96   0.000000    0.00  0.000000  ( 0.000001  0.000183 -0.000002)
 69:   3240.03   0.000680    3.44  0.000066  (-0.000006  0.008096  0.000000)
 70:   3242.79   0.000269    1.36  0.000026  ( 0.005092  0.000005  0.000000)
 71:   3242.89   0.000001    0.00  0.000000  (-0.000252  0.000003  0.000000)

--------------------------
THERMOCHEMISTRY AT 298.15K
--------------------------

Temperature         ...   298.15 K
Pressure            ...     1.00 atm
Total Mass          ...   178.23 AMU
Quasi RRHO          ...     True
Cut-Off Frequency   ...     1.00 cm^-1

Throughout the following assumptions are being made:
  (1) The electronic state is orbitally nondegenerate
      but the spin degeneracy is treated
  (2) There are no thermally accessible electronically excited states
  (3) Hindered rotations indicated by low frequency modes are not
      treated as such but are treated as vibrations and this may
      cause some error
  (4) All equations used are the standard statistical mechanics
      equations for an ideal gas
  (5) All vibrations are strictly harmonic

freq.      46.02  E(vib)   ...       0.53
freq.      49.17  E(vib)   ...       0.52
freq.      54.07  E(vib)   ...       0.52
freq.     127.82  E(vib)   ...       0.43
freq.     146.88  E(vib)   ...       0.41
freq.     264.99  E(vib)   ...       0.29
freq.     268.02  E(vib)   ...       0.29
freq.     384.17  E(vib)   ...       0.20
freq.     397.06  E(vib)   ...       0.20
freq.     402.21  E(vib)   ...       0.19
freq.     474.72  E(vib)   ...       0.15
freq.     496.54  E(vib)   ...       0.14
freq.     539.51  E(vib)   ...       0.12
freq.     564.14  E(vib)   ...       0.11
freq.     588.20  E(vib)   ...       0.10
freq.     609.76  E(vib)   ...       0.10
freq.     620.40  E(vib)   ...       0.09
freq.     674.80  E(vib)   ...       0.08
freq.     674.95  E(vib)   ...       0.08
freq.     717.40  E(vib)   ...       0.07
freq.     801.52  E(vib)   ...       0.05
freq.     803.59  E(vib)   ...       0.05
freq.     845.93  E(vib)   ...       0.04
freq.     847.58  E(vib)   ...       0.04
freq.     857.19  E(vib)   ...       0.04
freq.     976.68  E(vib)   ...       0.03
freq.     977.14  E(vib)   ...       0.03
freq.    1005.62  E(vib)   ...       0.02
freq.    1009.73  E(vib)   ...       0.02
freq.    1017.88  E(vib)   ...       0.02
freq.    1018.07  E(vib)   ...       0.02
freq.    1042.74  E(vib)   ...       0.02
freq.    1042.86  E(vib)   ...       0.02
freq.    1044.72  E(vib)   ...       0.02
freq.    1044.74  E(vib)   ...       0.02
freq.    1116.70  E(vib)   ...       0.01
freq.    1118.02  E(vib)   ...       0.01
freq.    1174.91  E(vib)   ...       0.01
freq.    1181.64  E(vib)   ...       0.01
freq.    1181.74  E(vib)   ...       0.01
freq.    1194.40  E(vib)   ...       0.01
freq.    1212.78  E(vib)   ...       0.01
freq.    1324.70  E(vib)   ...       0.01
freq.    1328.42  E(vib)   ...       0.01
freq.    1414.66  E(vib)   ...       0.00
freq.    1416.61  E(vib)   ...       0.00
freq.    1417.41  E(vib)   ...       0.00
freq.    1487.05  E(vib)   ...       0.00
freq.    1489.00  E(vib)   ...       0.00
freq.    1504.58  E(vib)   ...       0.00
freq.    1557.10  E(vib)   ...       0.00
freq.    1594.43  E(vib)   ...       0.00
freq.    1595.42  E(vib)   ...       0.00
freq.    1657.56  E(vib)   ...       0.00
freq.    1678.53  E(vib)   ...       0.00
freq.    2256.09  E(vib)   ...       0.00
freq.    3218.98  E(vib)   ...       0.00
freq.    3219.04  E(vib)   ...       0.00
freq.    3227.34  E(vib)   ...       0.00
freq.    3227.38  E(vib)   ...       0.00
freq.    3232.07  E(vib)   ...       0.00
freq.    3232.12  E(vib)   ...       0.00
freq.    3239.96  E(vib)   ...       0.00
freq.    3240.03  E(vib)   ...       0.00
freq.    3242.79  E(vib)   ...       0.00
freq.    3242.89  E(vib)   ...       0.00

------------
INNER ENERGY
------------

The inner energy is: U= E(el) + E(ZPE) + E(vib) + E(rot) + E(trans)
    E(el)   - is the total energy from the electronic structure calculation
              = E(kin-el) + E(nuc-el) + E(el-el) + E(nuc-nuc)
    E(ZPE)  - the the zero temperature vibrational energy from the frequency calculation
    E(vib)  - the the finite temperature correction to E(ZPE) due to population
              of excited vibrational states
    E(rot)  - is the rotational thermal energy
    E(trans)- is the translational thermal energy

Summary of contributions to the inner energy U:
Electronic energy                ...   -538.15531380 Eh
Zero point energy                ...      0.19287235 Eh     121.03 kcal/mol
Thermal vibrational correction   ...      0.00828174 Eh       5.20 kcal/mol
Thermal rotational correction    ...      0.00141627 Eh       0.89 kcal/mol
Thermal translational correction ...      0.00141627 Eh       0.89 kcal/mol
-----------------------------------------------------------------------
Total thermal energy                   -537.95132716 Eh

Summary of corrections to the electronic energy:
(perhaps to be used in another calculation)
Total thermal correction                  0.01111428 Eh       6.97 kcal/mol
Non-thermal (ZPE) correction              0.19287235 Eh     121.03 kcal/mol
-----------------------------------------------------------------------
Total correction                          0.20398663 Eh     128.00 kcal/mol

--------
ENTHALPY
--------

The enthalpy is H = U + kB*T
                kB is Boltzmann's constant
Total thermal energy              ...   -537.95132716 Eh
Thermal Enthalpy correction       ...      0.00094421 Eh       0.59 kcal/mol
-----------------------------------------------------------------------
Total Enthalpy                    ...   -537.95038295 Eh

Note: Only C1 symmetry has been detected, increase convergence thresholds
      if your molecule has a higher symmetry. Symmetry factor of 1.0 is
      used for the rotational entropy correction.

Note: Rotational entropy computed according to Herzberg
Infrared and Raman Spectra, Chapter V,1, Van Nostrand Reinhold, 1945
Point Group:  C1, Symmetry Number:   1
Rotational constants in cm-1:     0.092188     0.008430     0.007724

Vibrational entropy computed according to the QRRHO of S. Grimme
Chem.Eur.J. 2012 18 9955 using a reference frequency of 100.0 cm-1

-------
ENTROPY
-------

The entropy contributions are T*S = T*(S(el)+S(vib)+S(rot)+S(trans))
     S(el)   - electronic entropy
     S(vib)  - vibrational entropy
     S(rot)  - rotational entropy
     S(trans)- translational entropy
The entropies will be listed as multiplied by the temperature to get
units of energy

Electronic entropy                ...      0.00065446 Eh      0.41 kcal/mol
Vibrational entropy               ...      0.01410695 Eh      8.85 kcal/mol
Rotational entropy                ...      0.01518689 Eh      9.53 kcal/mol
Translational entropy             ...      0.01968974 Eh     12.36 kcal/mol
-----------------------------------------------------------------------

                             ****ORCA TERMINATED NORMALLY****
TOTAL RUN TIME: 0 days 0 hours 15 minutes 9 seconds 771 msec
