                         Program Version 6.0.0  -   RELEASE  -
|  1> !TPSSh aug-cc-pVTZ d3 TightSCF SlowConv RIJCOSX defgrid2
|  2>
|  3> %pal
|  4> nprocs 4
|  5> end
|  6>
|  7> %scf
|  8> MaxIter 1500
|  9> end
| 10>
| 11> %maxcore 3000
| 12>
| 13> !CPCM
| 14> %cpcm smd true
| 15> SMDsolvent "MeCN"
| 16> surfacetype gepol_ses
| 17> rsolv 2.19
| 18> end
| 19>
| 20> * xyz 0 1
| 21> C          -0.45962349392076      1.19930168964946      0.00062202556794
| 22> C           0.93187577371451      1.21292315738455      0.00021003045593
| 23> C           1.62461355579551      0.00264447710890     -0.00023259743760
| 24> C           0.94147031950354     -1.21572927971146     -0.00024754015947
| 25> C          -0.44629067380136     -1.21277951487668      0.00019404075702
| 26> C          -1.16457141606032     -0.01003943569872      0.00066278241731
| 27> C          -2.65943474979432     -0.08619562751851      0.00125896770752
| 28> O          -3.21849789447990     -1.16065283026292     -0.00068065256956
| 29> C          -3.44514706371262      1.20360842703596     -0.00042582391608
| 30> H          -3.20900994320141      1.81348807306859      0.88908099447108
| 31> H          -3.20722570566812      1.81245947226407     -0.89017014718689
| 32> H          -4.51791848417965      0.96213295731483     -0.00129821423503
| 33> H          -1.01178782473404     -2.14828242074604      0.00023169281017
| 34> H           1.50422972929259     -2.15194601130068     -0.00059587432262
| 35> Cl          3.35241439280556      0.01090662049481     -0.00078466924471
| 36> H           1.48532961925900      2.15441464352816      0.00021462148241
| 37> H          -0.99337054081820      2.15308200226567      0.00096246340259
| 38> *
| 39>
| 40>                          ****END OF INPUT****

CARTESIAN COORDINATES (ANGSTROEM)
---------------------------------
  C     -0.459623    1.199302    0.000622
  C      0.931876    1.212923    0.000210
  C      1.624614    0.002644   -0.000233
  C      0.941470   -1.215729   -0.000248
  C     -0.446291   -1.212780    0.000194
  C     -1.164571   -0.010039    0.000663
  C     -2.659435   -0.086196    0.001259
  O     -3.218498   -1.160653   -0.000681
  C     -3.445147    1.203608   -0.000426
  H     -3.209010    1.813488    0.889081
  H     -3.207226    1.812459   -0.890170
  H     -4.517918    0.962133   -0.001298
  H     -1.011788   -2.148282    0.000232
  H      1.504230   -2.151946   -0.000596
  Cl     3.352414    0.010907   -0.000785
  H      1.485330    2.154415    0.000215
  H     -0.993371    2.153082    0.000962

 Total Charge           Charge          ....    0
 Multiplicity           Mult            ....    1
 Number of Electrons    NEL             ....   80
 Basis Dimension        Dim             ....  625

ORBITAL ENERGIES
----------------

  NO   OCC          E(Eh)            E(eV)
   0   2.0000    -101.418541     -2759.7388
   1   2.0000     -19.044608      -518.2301
   2   2.0000     -10.202387      -277.6211
   3   2.0000     -10.188682      -277.2481
   4   2.0000     -10.135762      -275.8081
   5   2.0000     -10.133895      -275.7573
   6   2.0000     -10.133761      -275.7536
   7   2.0000     -10.132097      -275.7084
   8   2.0000     -10.131627      -275.6956
   9   2.0000     -10.110761      -275.1278
  10   2.0000      -9.397516      -255.7194
  11   2.0000      -7.146401      -194.4635
  12   2.0000      -7.137691      -194.2264
  13   2.0000      -7.137043      -194.2088
  14   2.0000      -1.024985       -27.8912
  15   2.0000      -0.881003       -23.9733
  16   2.0000      -0.827749       -22.5242
  17   2.0000      -0.747875       -20.3507
  18   2.0000      -0.740669       -20.1546
  19   2.0000      -0.703882       -19.1536
  20   2.0000      -0.607821       -16.5397
  21   2.0000      -0.602005       -16.3814
  22   2.0000      -0.539427       -14.6786
  23   2.0000      -0.491475       -13.3737
  24   2.0000      -0.463723       -12.6186
  25   2.0000      -0.448378       -12.2010
  26   2.0000      -0.434404       -11.8207
  27   2.0000      -0.426014       -11.5924
  28   2.0000      -0.416288       -11.3278
  29   2.0000      -0.405703       -11.0397
  30   2.0000      -0.390811       -10.6345
  31   2.0000      -0.378096       -10.2885
  32   2.0000      -0.355704        -9.6792
  33   2.0000      -0.352375        -9.5886
  34   2.0000      -0.342084        -9.3086
  35   2.0000      -0.325730        -8.8636
  36   2.0000      -0.306984        -8.3535
  37   2.0000      -0.261585        -7.1181
  38   2.0000      -0.246197        -6.6994
  39   2.0000      -0.240128        -6.5342
  40   0.0000      -0.078831        -2.1451
  41   0.0000      -0.038173        -1.0387
  42   0.0000      -0.005766        -0.1569
  43   0.0000       0.004169         0.1134
  44   0.0000       0.008288         0.2255

MULLIKEN ATOMIC CHARGES
-----------------------
   0 C :   -0.232807
   1 C :   -0.656015
   2 C :    0.278146
   3 C :   -0.444684
   4 C :   -0.620438
   5 C :    1.026851
   6 C :    0.829796
   7 O :   -0.995744
   8 C :   -0.234896
   9 H :    0.189884
  10 H :    0.190493
  11 H :   -0.030904
  12 H :    0.175723
  13 H :    0.382998
  14 Cl:   -0.439750
  15 H :    0.333808
  16 H :    0.247540
Sum of atomic charges:   -0.0000000

LOEWDIN ATOMIC CHARGES
----------------------
   0 C :    0.203395
   1 C :    0.123115
   2 C :   -0.793707
   3 C :    0.120393
   4 C :    0.189128
   5 C :   -0.132254
   6 C :   -0.547867
   7 O :    0.491748
   8 C :    0.568206
   9 H :   -0.157410
  10 H :   -0.157353
  11 H :   -0.176837
  12 H :   -0.183253
  13 H :   -0.185394
  14 Cl:    0.992551
  15 H :   -0.184199
  16 H :   -0.170262

  Mayer bond orders larger than 0.100000
B(  0-C ,  1-C ) :   1.3036 B(  0-C ,  4-C ) :  -0.2037 B(  0-C ,  5-C ) :   0.7252
B(  0-C , 16-H ) :   0.8672 B(  1-C ,  2-C ) :   1.3823 B(  1-C ,  3-C ) :   0.1467
B(  1-C ,  5-C ) :  -0.1504 B(  1-C , 14-Cl) :   0.1232 B(  1-C , 15-H ) :   0.6720
B(  2-C ,  3-C ) :   1.3864 B(  2-C ,  4-C ) :  -0.1199 B(  2-C , 14-Cl) :   0.3762
B(  3-C ,  4-C ) :   1.5298 B(  3-C ,  5-C ) :  -0.1895 B(  3-C , 13-H ) :   0.6373
B(  3-C , 14-Cl) :   0.1269 B(  4-C ,  5-C ) :   0.6984 B(  4-C ,  6-C ) :   0.1381
B(  4-C , 12-H ) :   0.8272 B(  5-C ,  6-C ) :   0.5069 B(  5-C ,  7-O ) :   0.2608
B(  6-C ,  7-O ) :   0.5196 B(  6-C ,  8-C ) :   1.0720 B(  7-O , 12-H ) :   0.1140
B(  8-C ,  9-H ) :   0.9353 B(  8-C , 10-H ) :   0.9345 B(  8-C , 11-H ) :   1.0327

Dispersion correction           -0.022811646
FINAL SINGLE POINT ENERGY      -844.725037561306

DIPOLE MOMENT
-------------

Method             : SCF
Type of density    : Electron Density
Multiplicity       :   1
Irrep              :   0
Energy             :  -844.7022259149821366 Eh
Relativity type    :
Basis              : AO
                                X                 Y                 Z
Electronic contribution:     14.075206818      -2.984486986       0.001104136
Nuclear contribution   :    -13.920982286       4.293464133       0.000100521
                        -----------------------------------------
Total Dipole Moment    :      0.154224532       1.308977147       0.001204657
                        -----------------------------------------
Magnitude (a.u.)       :      1.318031801
Magnitude (Debye)      :      3.350170595

Rotational constants in cm-1:             0.122841             0.018421             0.016068
Rotational constants in MHz :          3682.693671           552.250394           481.695849

                             ****ORCA TERMINATED NORMALLY****
TOTAL RUN TIME: 0 days 0 hours 6 minutes 9 seconds 548 msec
