                         Program Version 6.0.0  -   RELEASE  -
|  1> !r2SCANh aug-cc-pVTZ d3 TightSCF SlowConv RIJCOSX defgrid2
|  2>
|  3> %pal
|  4> nprocs 4
|  5> end
|  6>
|  7> %scf
|  8> MaxIter 1500
|  9> end
| 10>
| 11> %maxcore 3000
| 12>
| 13> !CPCM
| 14> %cpcm smd true
| 15> SMDsolvent "MeCN"
| 16> surfacetype gepol_ses
| 17> rsolv 2.19
| 18> end
| 19>
| 20> * xyz 1 2
| 21> C           1.71497106575748      1.06171932835084     -0.03514469304606
| 22> C           0.56719485465527      1.82392831640831     -0.00294767414977
| 23> C          -0.68893058329112      1.20760587034953      0.00674165425173
| 24> C          -0.80034038219193     -0.22800805453168     -0.01673661650706
| 25> C           0.34844024659380     -1.00330914690348     -0.04917310869374
| 26> C           1.61061604456188     -0.38138433792306     -0.05904556326935
| 27> N           2.73628401268176     -1.09580230581758     -0.09073600890504
| 28> H           2.71545111037900     -2.11343777495485     -0.10881829621903
| 29> H           3.64963295510932     -0.64805903858531     -0.09811724471076
| 30> H           0.25123309236129     -2.09096960143506     -0.06695996926436
| 31> O          -1.95374878515058     -0.85587592591482     -0.00850993427148
| 32> C          -3.19266872724087     -0.16172631263894      0.01967853662734
| 33> H          -3.96658303938529     -0.94029601988636      0.01614088330526
| 34> H          -3.30896028056596      0.47212649064151     -0.87574217138754
| 35> H          -3.28534792940125      0.44030899731552      0.93950878924919
| 36> H          -1.58838328810020      1.82581855641198      0.03268809937411
| 37> H           0.63303154865974      2.91458072514130      0.01531465253765
| 38> H           2.70276038456766      1.53066783397213     -0.04298803492109
| 39> *
| 40>
| 41>                          ****END OF INPUT****

CARTESIAN COORDINATES (ANGSTROEM)
---------------------------------
  C      1.714971    1.061719   -0.035145
  C      0.567195    1.823928   -0.002948
  C     -0.688931    1.207606    0.006742
  C     -0.800340   -0.228008   -0.016737
  C      0.348440   -1.003309   -0.049173
  C      1.610616   -0.381384   -0.059046
  N      2.736284   -1.095802   -0.090736
  H      2.715451   -2.113438   -0.108818
  H      3.649633   -0.648059   -0.098117
  H      0.251233   -2.090970   -0.066960
  O     -1.953749   -0.855876   -0.008510
  C     -3.192669   -0.161726    0.019679
  H     -3.966583   -0.940296    0.016141
  H     -3.308960    0.472126   -0.875742
  H     -3.285348    0.440309    0.939509
  H     -1.588383    1.825819    0.032688
  H      0.633032    2.914581    0.015315
  H      2.702760    1.530668   -0.042988

 Total Charge           Charge          ....    1
 Multiplicity           Mult            ....    2
 Number of Electrons    NEL             ....   65
 Basis Dimension        Dim             ....  621

ORBITAL ENERGIES
----------------
                 SPIN UP ORBITALS
  NO   OCC          E(Eh)            E(eV)
   0   1.0000     -19.184201      -522.0287
   1   1.0000     -14.386145      -391.4669
   2   1.0000     -10.265185      -279.3299
   3   1.0000     -10.262558      -279.2584
   4   1.0000     -10.214343      -277.9464
   5   1.0000     -10.213624      -277.9268
   6   1.0000     -10.211025      -277.8561
   7   1.0000     -10.193358      -277.3754
   8   1.0000     -10.184531      -277.1352
   9   1.0000      -1.116418       -30.3793
  10   1.0000      -0.991055       -26.9680
  11   1.0000      -0.880202       -23.9515
  12   1.0000      -0.794773       -21.6269
  13   1.0000      -0.770027       -20.9535
  14   1.0000      -0.721982       -19.6461
  15   1.0000      -0.648761       -17.6537
  16   1.0000      -0.628443       -17.1008
  17   1.0000      -0.563581       -15.3358
  18   1.0000      -0.558592       -15.2001
  19   1.0000      -0.514406       -13.9977
  20   1.0000      -0.502964       -13.6863
  21   1.0000      -0.486959       -13.2508
  22   1.0000      -0.484546       -13.1852
  23   1.0000      -0.446531       -12.1507
  24   1.0000      -0.437143       -11.8953
  25   1.0000      -0.422115       -11.4863
  26   1.0000      -0.397219       -10.8089
  27   1.0000      -0.383185       -10.4270
  28   1.0000      -0.379647       -10.3307
  29   1.0000      -0.339688        -9.2434
  30   1.0000      -0.337930        -9.1955
  31   1.0000      -0.261759        -7.1228
  32   1.0000      -0.259279        -7.0553
  33   0.0000      -0.048214        -1.3120
  34   0.0000      -0.045105        -1.2274
  35   0.0000       0.006132         0.1669
  36   0.0000       0.018118         0.4930
  37   0.0000       0.022625         0.6157

                 SPIN DOWN ORBITALS
  NO   OCC          E(Eh)            E(eV)
   0   1.0000     -19.183674      -522.0143
   1   1.0000     -14.377963      -391.2443
   2   1.0000     -10.266246      -279.3588
   3   1.0000     -10.262494      -279.2567
   4   1.0000     -10.213654      -277.9276
   5   1.0000     -10.206010      -277.7197
   6   1.0000     -10.203986      -277.6646
   7   1.0000     -10.196970      -277.4737
   8   1.0000     -10.183277      -277.1011
   9   1.0000      -1.115705       -30.3599
  10   1.0000      -0.978825       -26.6352
  11   1.0000      -0.870854       -23.6971
  12   1.0000      -0.792508       -21.5653
  13   1.0000      -0.753848       -20.5132
  14   1.0000      -0.715791       -19.4777
  15   1.0000      -0.645464       -17.5640
  16   1.0000      -0.624524       -16.9942
  17   1.0000      -0.562564       -15.3082
  18   1.0000      -0.554659       -15.0930
  19   1.0000      -0.509887       -13.8747
  20   1.0000      -0.499930       -13.6038
  21   1.0000      -0.483343       -13.1524
  22   1.0000      -0.481425       -13.1003
  23   1.0000      -0.446126       -12.1397
  24   1.0000      -0.420574       -11.4444
  25   1.0000      -0.414212       -11.2713
  26   1.0000      -0.394821       -10.7436
  27   1.0000      -0.381554       -10.3826
  28   1.0000      -0.364825        -9.9274
  29   1.0000      -0.336589        -9.1591
  30   1.0000      -0.319784        -8.7018
  31   1.0000      -0.248255        -6.7554
  32   0.0000      -0.179657        -4.8887
  33   0.0000      -0.037464        -1.0194
  34   0.0000      -0.017318        -0.4712
  35   0.0000       0.007269         0.1978
  36   0.0000       0.019415         0.5283

MULLIKEN ATOMIC CHARGES AND SPIN POPULATIONS
--------------------------------------------
   0 C :   -0.560193    0.417858
   1 C :   -0.400215   -0.272874
   2 C :   -0.365526    0.504895
   3 C :    1.116229   -0.098345
   4 C :   -0.958171    0.084737
   5 C :    1.095046    0.007249
   6 N :   -0.442984    0.333214
   7 H :    0.058674   -0.011368
   8 H :    0.066952   -0.008781
   9 H :    0.459407   -0.007076
  10 O :   -0.635699    0.017800
  11 C :   -0.654200    0.001591
  12 H :    0.251002   -0.000908
  13 H :    0.277580   -0.000411
  14 H :    0.277992   -0.000389
  15 H :    0.475190    0.033451
  16 H :    0.416010   -0.014236
  17 H :    0.522905    0.013594
Sum of atomic charges         :    1.0000000

LOEWDIN ATOMIC CHARGES AND SPIN POPULATIONS
-------------------------------------------
   0 C :    0.289404    0.188064
   1 C :    0.246263    0.028176
   2 C :    0.282117    0.222781
   3 C :   -0.372078    0.055107
   4 C :    0.263666    0.040841
   5 C :   -0.185597    0.109012
   6 N :    0.951137    0.208073
   7 H :   -0.201751    0.028014
   8 H :   -0.208071    0.025482
   9 H :   -0.149755    0.006777
  10 O :    0.615923    0.010771
  11 C :    0.388194    0.001951
  12 H :   -0.163436   -0.000141
  13 H :   -0.153608    0.000627
  14 H :   -0.153519    0.000616
  15 H :   -0.161882    0.051979
  16 H :   -0.148688   -0.017265
  17 H :   -0.138317    0.039136

  Mayer bond orders larger than 0.100000
B(  0-C ,  1-C ) :   1.2249 B(  0-C ,  2-C ) :   0.2525 B(  0-C ,  3-C ) :  -0.2145
B(  0-C ,  4-C ) :   0.4461 B(  0-C ,  5-C ) :   0.4929 B(  0-C ,  6-N ) :  -0.1935
B(  0-C , 17-H ) :   0.3796 B(  1-C ,  2-C ) :   0.8407 B(  1-C ,  3-C ) :  -0.2077
B(  1-C ,  4-C ) :  -0.2091 B(  1-C ,  5-C ) :  -0.1753 B(  1-C , 16-H ) :   0.6498
B(  2-C ,  3-C ) :   0.7556 B(  2-C ,  4-C ) :   0.4324 B(  2-C ,  5-C ) :  -0.2115
B(  2-C , 10-O ) :  -0.1335 B(  2-C , 11-C ) :  -0.1023 B(  2-C , 15-H ) :   0.5202
B(  3-C ,  4-C ) :   0.5480 B(  3-C ,  5-C ) :  -0.1254 B(  3-C ,  6-N ) :   0.1269
B(  3-C , 10-O ) :   0.3968 B(  4-C ,  5-C ) :   0.4288 B(  4-C ,  6-N ) :  -0.1956
B(  4-C ,  9-H ) :   0.3458 B(  4-C , 10-O ) :   0.2868 B(  5-C ,  6-N ) :   0.8464
B(  5-C ,  9-H ) :   0.1590 B(  6-N ,  7-H ) :   1.1345 B(  6-N ,  8-H ) :   1.1102
B( 10-O , 11-C ) :   0.9753 B( 11-C , 12-H ) :   0.9666 B( 11-C , 13-H ) :   0.9071
B( 11-C , 14-H ) :   0.9069 B( 11-C , 15-H ) :  -0.1092

Dispersion correction           -0.005356263
FINAL SINGLE POINT ENERGY      -401.862510143608

DIPOLE MOMENT
-------------

Method             : SCF
Type of density    : Electron Density
Multiplicity       :   2
Irrep              :   0
Energy             :  -401.8571538808199648 Eh
Relativity type    :
Basis              : AO
                                X                 Y                 Z
Electronic contribution:      3.909131919      -1.196033529      -0.076853921
Nuclear contribution   :     -2.044978462       1.271551477       0.044658972
                        -----------------------------------------
Total Dipole Moment    :      1.864153458       0.075517948      -0.032194949
                        -----------------------------------------
Magnitude (a.u.)       :      1.865960232
Magnitude (Debye)      :      4.742893986

Rotational constants in cm-1:             0.119593             0.037937             0.028965
Rotational constants in MHz :          3585.313936          1137.321017           868.358011

                             ****ORCA TERMINATED NORMALLY****
TOTAL RUN TIME: 0 days 0 hours 9 minutes 4 seconds 212 msec
