                         Program Version 6.0.0  -   RELEASE  -
|  1> !r2SCANh aug-cc-pVTZ d3 TightSCF SlowConv RIJCOSX defgrid2
|  2>
|  3> %pal
|  4> nprocs 4
|  5> end
|  6>
|  7> %scf
|  8> MaxIter 1500
|  9> end
| 10>
| 11> %maxcore 3000
| 12>
| 13> !CPCM
| 14> %cpcm smd true
| 15> SMDsolvent "MeCN"
| 16> surfacetype gepol_ses
| 17> rsolv 2.19
| 18> end
| 19>
| 20> * xyz -1 2
| 21> C          -0.01331421056281      1.21015152275559     -0.00003912841012
| 22> C           1.37407426915828      1.22077182581697      0.00009471803504
| 23> C           2.08268728216500      0.01623593632828      0.00008078293558
| 24> C           1.39800867624770     -1.21018542596672     -0.00005492668248
| 25> C           0.01763373542032     -1.22524409629627     -0.00018246787257
| 26> C          -0.75988843497050     -0.01763719993150     -0.00018385015586
| 27> C          -2.18998893121825     -0.10468719257966     -0.00029823993913
| 28> O          -2.82191384294989     -1.19348424477804     -0.00032077578394
| 29> C          -2.98040993394950      1.20193760901241     -0.00023396308602
| 30> H          -2.77113925068928      1.83311429650402      0.88831166373856
| 31> H          -2.77095660989795      1.83331313895105     -0.88859326031545
| 32> H          -4.05230547218906      0.94280281896802     -0.00037251615162
| 33> H          -0.53955758793286     -2.16627118900373     -0.00028423650614
| 34> H           1.97817281356228     -2.14018774357936     -0.00004958149680
| 35> F           3.44427090335711      0.03016813897025      0.00021925839865
| 36> H           1.93269491180525      2.16366570442592      0.00021265957610
| 37> H          -0.54367651735585      2.16766590040277     -0.00001523628380
| 38> *
| 39>
| 40>                          ****END OF INPUT****

CARTESIAN COORDINATES (ANGSTROEM)
---------------------------------
  C     -0.013314    1.210152   -0.000039
  C      1.374074    1.220772    0.000095
  C      2.082687    0.016236    0.000081
  C      1.398009   -1.210185   -0.000055
  C      0.017634   -1.225244   -0.000182
  C     -0.759888   -0.017637   -0.000184
  C     -2.189989   -0.104687   -0.000298
  O     -2.821914   -1.193484   -0.000321
  C     -2.980410    1.201938   -0.000234
  H     -2.771139    1.833114    0.888312
  H     -2.770957    1.833313   -0.888593
  H     -4.052305    0.942803   -0.000373
  H     -0.539558   -2.166271   -0.000284
  H      1.978173   -2.140188   -0.000050
  F      3.444271    0.030168    0.000219
  H      1.932695    2.163666    0.000213
  H     -0.543677    2.167666   -0.000015

 Total Charge           Charge          ....   -1
 Multiplicity           Mult            ....    2
 Number of Electrons    NEL             ....   73
 Basis Dimension        Dim             ....  621

ORBITAL ENERGIES
----------------
                 SPIN UP ORBITALS
  NO   OCC          E(Eh)            E(eV)
   0   1.0000     -24.670655      -671.3226
   1   1.0000     -19.034616      -517.9582
   2   1.0000     -10.210936      -277.8537
   3   1.0000     -10.169578      -276.7283
   4   1.0000     -10.144516      -276.0463
   5   1.0000     -10.144382      -276.0427
   6   1.0000     -10.142394      -275.9886
   7   1.0000     -10.137045      -275.8430
   8   1.0000     -10.127179      -275.5745
   9   1.0000     -10.124903      -275.5126
  10   1.0000      -1.214886       -33.0587
  11   1.0000      -0.965614       -26.2757
  12   1.0000      -0.833881       -22.6910
  13   1.0000      -0.738890       -20.1062
  14   1.0000      -0.730375       -19.8745
  15   1.0000      -0.687205       -18.6998
  16   1.0000      -0.606244       -16.4967
  17   1.0000      -0.586610       -15.9625
  18   1.0000      -0.517977       -14.0949
  19   1.0000      -0.515165       -14.0183
  20   1.0000      -0.457081       -12.4378
  21   1.0000      -0.447486       -12.1767
  22   1.0000      -0.431484       -11.7413
  23   1.0000      -0.412147       -11.2151
  24   1.0000      -0.396601       -10.7921
  25   1.0000      -0.393778       -10.7152
  26   1.0000      -0.381817       -10.3898
  27   1.0000      -0.368407       -10.0249
  28   1.0000      -0.347765        -9.4632
  29   1.0000      -0.341686        -9.2977
  30   1.0000      -0.329792        -8.9741
  31   1.0000      -0.305955        -8.3255
  32   1.0000      -0.297451        -8.0941
  33   1.0000      -0.245549        -6.6817
  34   1.0000      -0.226327        -6.1587
  35   1.0000      -0.194770        -5.3000
  36   1.0000      -0.088119        -2.3978
  37   0.0000      -0.011496        -0.3128
  38   0.0000       0.008821         0.2400
  39   0.0000       0.022794         0.6203
  40   0.0000       0.025731         0.7002
  41   0.0000       0.036198         0.9850

                 SPIN DOWN ORBITALS
  NO   OCC          E(Eh)            E(eV)
   0   1.0000     -24.669464      -671.2902
   1   1.0000     -19.027909      -517.7757
   2   1.0000     -10.204984      -277.6917
   3   1.0000     -10.164434      -276.5883
   4   1.0000     -10.146650      -276.1044
   5   1.0000     -10.146451      -276.0990
   6   1.0000     -10.139079      -275.8984
   7   1.0000     -10.133597      -275.7492
   8   1.0000     -10.126345      -275.5519
   9   1.0000     -10.125384      -275.5257
  10   1.0000      -1.212503       -32.9939
  11   1.0000      -0.954152       -25.9638
  12   1.0000      -0.829903       -22.5828
  13   1.0000      -0.732144       -19.9226
  14   1.0000      -0.726711       -19.7748
  15   1.0000      -0.684008       -18.6128
  16   1.0000      -0.597335       -16.2543
  17   1.0000      -0.583999       -15.8914
  18   1.0000      -0.513562       -13.9747
  19   1.0000      -0.511521       -13.9192
  20   1.0000      -0.456060       -12.4100
  21   1.0000      -0.436450       -11.8764
  22   1.0000      -0.427113       -11.6223
  23   1.0000      -0.410419       -11.1681
  24   1.0000      -0.393316       -10.7027
  25   1.0000      -0.383991       -10.4489
  26   1.0000      -0.379779       -10.3343
  27   1.0000      -0.366796        -9.9810
  28   1.0000      -0.344396        -9.3715
  29   1.0000      -0.332270        -9.0415
  30   1.0000      -0.327548        -8.9130
  31   1.0000      -0.296055        -8.0561
  32   1.0000      -0.281549        -7.6613
  33   1.0000      -0.236809        -6.4439
  34   1.0000      -0.204913        -5.5760
  35   1.0000      -0.189578        -5.1587
  36   0.0000      -0.023716        -0.6454
  37   0.0000      -0.005818        -0.1583
  38   0.0000       0.011358         0.3091
  39   0.0000       0.024164         0.6575
  40   0.0000       0.027911         0.7595

MULLIKEN ATOMIC CHARGES AND SPIN POPULATIONS
--------------------------------------------
   0 C :   -0.499444    0.301354
   1 C :   -0.859479   -0.208875
   2 C :    0.603891    0.354016
   3 C :   -0.727432   -0.201662
   4 C :   -0.944021    0.293294
   5 C :    1.711981    0.001849
   6 C :    0.439377    0.269487
   7 O :   -1.094960    0.226566
   8 C :   -0.619505   -0.055639
   9 H :    0.219055    0.021779
  10 H :    0.220064    0.021754
  11 H :    0.147616   -0.007067
  12 H :    0.112843   -0.017764
  13 H :    0.411450   -0.002994
  14 F :   -0.539615    0.020404
  15 H :    0.409058   -0.002390
  16 H :    0.009120   -0.014114
Sum of atomic charges         :   -1.0000000

LOEWDIN ATOMIC CHARGES AND SPIN POPULATIONS
-------------------------------------------
   0 C :    0.145679    0.099634
   1 C :    0.131161    0.014296
   2 C :   -0.574141    0.138375
   3 C :    0.130577    0.013815
   4 C :    0.130369    0.099274
   5 C :   -0.214714    0.118158
   6 C :   -0.682423    0.190969
   7 O :    0.327409    0.199277
   8 C :    0.494231    0.036497
   9 H :   -0.179285    0.009546
  10 H :   -0.179329    0.009542
  11 H :   -0.204930   -0.001011
  12 H :   -0.215348    0.023329
  13 H :   -0.189274   -0.008868
  14 F :    0.471682    0.042715
  15 H :   -0.188128   -0.008522
  16 H :   -0.203536    0.022973

  Mayer bond orders larger than 0.100000
B(  0-C ,  1-C ) :   0.9207 B(  0-C ,  2-C ) :  -0.2295 B(  0-C ,  3-C ) :  -0.1839
B(  0-C ,  4-C ) :  -0.3730 B(  0-C ,  5-C ) :   0.1382 B(  0-C ,  6-C ) :   0.2666
B(  0-C , 12-H ) :   0.1142 B(  0-C , 16-H ) :   1.4466 B(  1-C ,  2-C ) :   1.2376
B(  1-C ,  3-C ) :   0.2762 B(  1-C ,  4-C ) :  -0.1000 B(  1-C ,  5-C ) :   0.1962
B(  1-C , 14-F ) :   0.1614 B(  1-C , 15-H ) :   0.5801 B(  1-C , 16-H ) :  -0.1050
B(  2-C ,  3-C ) :   1.2529 B(  2-C ,  4-C ) :  -0.2714 B(  2-C ,  6-C ) :   0.1049
B(  2-C , 14-F ) :   0.2700 B(  3-C ,  4-C ) :   1.3273 B(  3-C , 13-H ) :   0.5849
B(  3-C , 14-F ) :   0.1433 B(  3-C , 16-H ) :  -0.1328 B(  4-C ,  6-C ) :   0.4196
B(  4-C , 12-H ) :   1.1037 B(  4-C , 16-H ) :   0.1689 B(  5-C ,  6-C ) :   0.3294
B(  5-C ,  7-O ) :   0.1550 B(  5-C , 12-H ) :  -0.1051 B(  5-C , 16-H ) :  -0.2507
B(  6-C ,  7-O ) :   0.6477 B(  6-C ,  8-C ) :   0.9023 B(  6-C , 13-H ) :   0.1114
B(  7-O , 12-H ) :   0.1306 B(  8-C ,  9-H ) :   0.9713 B(  8-C , 10-H ) :   0.9707
B(  8-C , 11-H ) :   0.9785 B( 12-H , 16-H ) :   0.1372

Dispersion correction           -0.005406939
FINAL SINGLE POINT ENERGY      -484.130795971097

DIPOLE MOMENT
-------------

Method             : SCF
Type of density    : Electron Density
Multiplicity       :   2
Irrep              :   0
Energy             :  -484.1253890320675168 Eh
Relativity type    :
Basis              : AO
                                X                 Y                 Z
Electronic contribution:     11.410921938      -2.873231921       0.001206756
Nuclear contribution   :     -9.605928906       4.332386022      -0.000475554
                        -----------------------------------------
Total Dipole Moment    :      1.804993031       1.459154101       0.000731203
                        -----------------------------------------
Magnitude (a.u.)       :      2.321019403
Magnitude (Debye)      :      5.899562476

Rotational constants in cm-1:             0.120873             0.025381             0.021060
Rotational constants in MHz :          3623.689684           760.893162           631.349310

                             ****ORCA TERMINATED NORMALLY****
TOTAL RUN TIME: 0 days 0 hours 7 minutes 10 seconds 164 msec
