                         Program Version 6.0.0  -   RELEASE  -
|  1> !PBE0 aug-cc-pVTZ d3 TightSCF SlowConv RIJCOSX defgrid2
|  2>
|  3> %pal
|  4> nprocs 4
|  5> end
|  6>
|  7> %scf
|  8> MaxIter 1500
|  9> end
| 10>
| 11> %maxcore 3000
| 12>
| 13> !CPCM
| 14> %cpcm smd true
| 15> SMDsolvent "MeCN"
| 16> surfacetype gepol_ses
| 17> rsolv 2.19
| 18> end
| 19>
| 20> * xyz 1 2
| 21> C          -1.44785730295075      0.00004383668014      0.19466020963487
| 22> C          -0.70463361625558     -1.25916288948137     -0.22052956548119
| 23> C           0.75402143901141     -1.23290095960195      0.33947310722511
| 24> N           1.35243621618336     -0.00003237928940     -0.05272629159437
| 25> H           2.03239855808840     -0.00001354242890     -0.81929831940591
| 26> C           0.75406824525088      1.23284300442693      0.33954722989484
| 27> C          -0.70453653205886      1.25917936755808     -0.22058410201994
| 28> H          -1.17735315978030      2.17530279259209      0.17075301961950
| 29> H          -0.65902932856967      1.35407679956949     -1.31943227945387
| 30> H           1.35320797568110      2.07738723598631     -0.02945728358028
| 31> H           0.70381655246538      1.26167123212667      1.44376020833185
| 32> H           1.35302530838177     -2.07746967992292     -0.02968877997992
| 33> H           0.70390247903722     -1.26179946828858      1.44369537598949
| 34> H          -1.17752329445998     -2.17518232566056      0.17094554694672
| 35> H          -0.65911553793050     -1.35406143771193     -1.31937325462627
| 36> H          -2.44852309487375      0.00006008079951     -0.27520329299314
| 37> H          -1.61728600722014      0.00008813264640      1.28682627149251
| 38> *
| 39>
| 40>                          ****END OF INPUT****

CARTESIAN COORDINATES (ANGSTROEM)
---------------------------------
  C     -1.447857    0.000044    0.194660
  C     -0.704634   -1.259163   -0.220530
  C      0.754021   -1.232901    0.339473
  N      1.352436   -0.000032   -0.052726
  H      2.032399   -0.000014   -0.819298
  C      0.754068    1.232843    0.339547
  C     -0.704537    1.259179   -0.220584
  H     -1.177353    2.175303    0.170753
  H     -0.659029    1.354077   -1.319432
  H      1.353208    2.077387   -0.029457
  H      0.703817    1.261671    1.443760
  H      1.353025   -2.077470   -0.029689
  H      0.703902   -1.261799    1.443695
  H     -1.177523   -2.175182    0.170946
  H     -0.659116   -1.354061   -1.319373
  H     -2.448523    0.000060   -0.275203
  H     -1.617286    0.000088    1.286826

 Total Charge           Charge          ....    1
 Multiplicity           Mult            ....    2
 Number of Electrons    NEL             ....   47
 Basis Dimension        Dim             ....  529

ORBITAL ENERGIES
----------------
                 SPIN UP ORBITALS
  NO   OCC          E(Eh)            E(eV)
   0   1.0000     -14.517208      -395.0333
   1   1.0000     -10.289102      -279.9807
   2   1.0000     -10.289088      -279.9803
   3   1.0000     -10.249678      -278.9079
   4   1.0000     -10.249675      -278.9078
   5   1.0000     -10.234403      -278.4923
   6   1.0000      -1.043157       -28.3857
   7   1.0000      -0.839388       -22.8409
   8   1.0000      -0.818148       -22.2629
   9   1.0000      -0.698079       -18.9957
  10   1.0000      -0.682829       -18.5807
  11   1.0000      -0.622826       -16.9480
  12   1.0000      -0.574660       -15.6373
  13   1.0000      -0.516622       -14.0580
  14   1.0000      -0.505278       -13.7493
  15   1.0000      -0.484821       -13.1926
  16   1.0000      -0.461196       -12.5498
  17   1.0000      -0.448374       -12.2009
  18   1.0000      -0.422755       -11.5038
  19   1.0000      -0.386809       -10.5256
  20   1.0000      -0.386381       -10.5140
  21   1.0000      -0.360366        -9.8061
  22   1.0000      -0.351879        -9.5751
  23   1.0000      -0.311518        -8.4768
  24   0.0000      -0.001647        -0.0448
  25   0.0000       0.010867         0.2957
  26   0.0000       0.015552         0.4232
  27   0.0000       0.016017         0.4359
  28   0.0000       0.034992         0.9522

                 SPIN DOWN ORBITALS
  NO   OCC          E(Eh)            E(eV)
   0   1.0000     -14.498970      -394.5370
   1   1.0000     -10.289365      -279.9879
   2   1.0000     -10.289353      -279.9875
   3   1.0000     -10.247724      -278.8548
   4   1.0000     -10.247723      -278.8547
   5   1.0000     -10.234518      -278.4954
   6   1.0000      -1.009100       -27.4590
   7   1.0000      -0.831056       -22.6142
   8   1.0000      -0.812173       -22.1004
   9   1.0000      -0.686770       -18.6880
  10   1.0000      -0.677535       -18.4367
  11   1.0000      -0.614914       -16.7327
  12   1.0000      -0.563510       -15.3339
  13   1.0000      -0.509128       -13.8541
  14   1.0000      -0.485126       -13.2009
  15   1.0000      -0.474271       -12.9056
  16   1.0000      -0.457632       -12.4528
  17   1.0000      -0.436509       -11.8780
  18   1.0000      -0.412338       -11.2203
  19   1.0000      -0.380911       -10.3651
  20   1.0000      -0.363055        -9.8792
  21   1.0000      -0.358444        -9.7538
  22   1.0000      -0.350243        -9.5306
  23   0.0000      -0.164132        -4.4663
  24   0.0000      -0.000178        -0.0049
  25   0.0000       0.012394         0.3373
  26   0.0000       0.016619         0.4522
  27   0.0000       0.016655         0.4532

MULLIKEN ATOMIC CHARGES AND SPIN POPULATIONS
--------------------------------------------
   0 C :   -0.241224   -0.005261
   1 C :   -0.364039    0.101719
   2 C :   -0.188517   -0.060448
   3 N :   -0.043155    0.788685
   4 H :    0.134740   -0.003512
   5 C :   -0.188708   -0.060458
   6 C :   -0.364140    0.101764
   7 H :    0.201174    0.015929
   8 H :    0.202010    0.004136
   9 H :    0.264443   -0.000288
  10 H :    0.260327    0.039407
  11 H :    0.264314   -0.000296
  12 H :    0.260320    0.039441
  13 H :    0.201121    0.015928
  14 H :    0.201921    0.004149
  15 H :    0.170361    0.015763
  16 H :    0.229052    0.003340
Sum of atomic charges         :    1.0000000

LOEWDIN ATOMIC CHARGES AND SPIN POPULATIONS
-------------------------------------------
   0 C :    0.285048    0.014639
   1 C :    0.330875    0.055704
   2 C :    0.291078    0.101074
   3 N :    0.702640    0.511992
   4 H :   -0.144670    0.070330
   5 C :    0.291085    0.101070
   6 C :    0.330868    0.055708
   7 H :   -0.113238    0.012003
   8 H :   -0.115977    0.005700
   9 H :   -0.098715    0.003269
  10 H :   -0.098937    0.018969
  11 H :   -0.098720    0.003269
  12 H :   -0.098930    0.018975
  13 H :   -0.113238    0.012000
  14 H :   -0.115980    0.005700
  15 H :   -0.114941    0.008312
  16 H :   -0.118250    0.001285

  Mayer bond orders larger than 0.100000
B(  0-C ,  1-C ) :   0.9912 B(  0-C ,  6-C ) :   0.9916 B(  0-C , 15-H ) :   0.9701
B(  0-C , 16-H ) :   0.9155 B(  1-C ,  2-C ) :   0.9312 B(  1-C ,  3-N ) :   0.1191
B(  1-C , 13-H ) :   0.9231 B(  1-C , 14-H ) :   0.9688 B(  2-C ,  3-N ) :   0.9286
B(  2-C , 11-H ) :   0.9269 B(  2-C , 12-H ) :   0.8681 B(  3-N ,  4-H ) :   0.9246
B(  3-N ,  5-C ) :   0.9285 B(  3-N ,  6-C ) :   0.1191 B(  5-C ,  6-C ) :   0.9313
B(  5-C ,  9-H ) :   0.9269 B(  5-C , 10-H ) :   0.8681 B(  6-C ,  7-H ) :   0.9230
B(  6-C ,  8-H ) :   0.9687

Dispersion correction           -0.012332797
FINAL SINGLE POINT ENERGY      -251.515385868515

DIPOLE MOMENT
-------------

Method             : SCF
Type of density    : Electron Density
Multiplicity       :   2
Irrep              :   0
Energy             :  -251.5030530719507453 Eh
Relativity type    :
Basis              : AO
                                X                 Y                 Z
Electronic contribution:      2.974601432      -0.000109218      -0.267818906
Nuclear contribution   :     -1.624364743       0.000100191       0.049600711
                        -----------------------------------------
Total Dipole Moment    :      1.350236689      -0.000009027      -0.218218195
                        -----------------------------------------
Magnitude (a.u.)       :      1.367756666
Magnitude (Debye)      :      3.476561157

Rotational constants in cm-1:             0.150674             0.148298             0.085270
Rotational constants in MHz :          4517.103915          4445.872601          2556.320795

                             ****ORCA TERMINATED NORMALLY****
TOTAL RUN TIME: 0 days 0 hours 3 minutes 45 seconds 50 msec
