                         Program Version 6.0.0  -   RELEASE  -
|  1> !r2SCAN aug-cc-pVTZ d3 TightSCF SlowConv RIJCOSX defgrid2
|  2>
|  3> %pal
|  4> nprocs 15
|  5> end
|  6>
|  7> %scf
|  8> MaxIter 1500
|  9> end
| 10>
| 11> %maxcore 3500
| 12>
| 13> !CPCM
| 14> %cpcm smd true
| 15> SMDsolvent "WATER"
| 16> surfacetype gepol_ses
| 17> rsolv 1.40
| 18> end
| 19>
| 20> * xyz 1 1
| 21> O           1.67418114371668      3.37941862349945      1.15434517451953
| 22> N           2.62064316767579      2.68353532320648      1.21821077363263
| 23> C           3.73993026379150      2.91054121006730      0.20970750682041
| 24> C           4.36130392564807      1.55615394201201     -0.16493097978128
| 25> C           4.62693950470140      0.69901335740602      1.05364249756333
| 26> C           3.36304153274566      0.38280475677984      1.82347271406070
| 27> C           2.67247724345731      1.65441275633349      2.34006156392482
| 28> C           4.77144659115805      3.82229180911963      0.90254364472309
| 29> C           3.13466064770778      3.61114644043461     -0.99676243427434
| 30> C           3.47911508845757      2.30037383127262      3.48367565566839
| 31> C           1.24267102320542      1.38466686141498      2.78223585653897
| 32> H           5.30435815962353      1.74905887837014     -0.69848543170310
| 33> H           3.68229748767712      1.01484427915689     -0.84850427599189
| 34> H           3.60305334396738     -0.25238254910522      2.68961476485432
| 35> H           2.66820679637278     -0.17392576731557      1.16878669341899
| 36> H           4.29271611598733      4.70860976879227      1.34923722277333
| 37> H           5.37253037929227      3.29729158675115      1.65830335398642
| 38> H           5.45774493444870      4.16825914256566      0.11223951897270
| 39> H           2.78695679630107      4.62736503748115     -0.75666206631619
| 40> H           2.29625873974227      3.03524814826618     -1.42272318664526
| 41> H           3.92087891841351      3.68882501387840     -1.76468511803900
| 42> H           3.10731631344064      3.31044562450783      3.71967690908610
| 43> H           4.55901147845801      2.33249422618085      3.28233095765611
| 44> H           3.32267627795631      1.66477199454961      4.37074941627309
| 45> H           0.78000313618024      2.26411165418521      3.25536747289543
| 46> H           0.61113911289273      1.05517880381548      1.94035363615987
| 47> H           1.27425600304513      0.57114720607980      3.52446186259019
| 48> O           5.72044769993566      0.34198636029372      1.39209682163264
| 49> *
| 50>
| 51>                          ****END OF INPUT****

CARTESIAN COORDINATES (ANGSTROEM)
---------------------------------
  O      1.674181    3.379419    1.154345
  N      2.620643    2.683535    1.218211
  C      3.739930    2.910541    0.209708
  C      4.361304    1.556154   -0.164931
  C      4.626940    0.699013    1.053642
  C      3.363042    0.382805    1.823473
  C      2.672477    1.654413    2.340062
  C      4.771447    3.822292    0.902544
  C      3.134661    3.611146   -0.996762
  C      3.479115    2.300374    3.483676
  C      1.242671    1.384667    2.782236
  H      5.304358    1.749059   -0.698485
  H      3.682297    1.014844   -0.848504
  H      3.603053   -0.252383    2.689615
  H      2.668207   -0.173926    1.168787
  H      4.292716    4.708610    1.349237
  H      5.372530    3.297292    1.658303
  H      5.457745    4.168259    0.112240
  H      2.786957    4.627365   -0.756662
  H      2.296259    3.035248   -1.422723
  H      3.920879    3.688825   -1.764685
  H      3.107316    3.310446    3.719677
  H      4.559011    2.332494    3.282331
  H      3.322676    1.664772    4.370749
  H      0.780003    2.264112    3.255367
  H      0.611139    1.055179    1.940354
  H      1.274256    0.571147    3.524462
  O      5.720448    0.341986    1.392097

 Total Charge           Charge          ....    1
 Multiplicity           Mult            ....    1
 Number of Electrons    NEL             ....   92
 Basis Dimension        Dim             ....  920

ORBITAL ENERGIES
----------------

  NO   OCC          E(Eh)            E(eV)
   0   2.0000     -19.093332      -519.5560
   1   2.0000     -18.978034      -516.4186
   2   2.0000     -14.404567      -391.9682
   3   2.0000     -10.153342      -276.2865
   4   2.0000     -10.144957      -276.0583
   5   2.0000     -10.144942      -276.0579
   6   2.0000     -10.068255      -273.9711
   7   2.0000     -10.068248      -273.9710
   8   2.0000     -10.058940      -273.7177
   9   2.0000     -10.058875      -273.7159
  10   2.0000     -10.047247      -273.3995
  11   2.0000     -10.047217      -273.3987
  12   2.0000      -1.238437       -33.6996
  13   2.0000      -1.046390       -28.4737
  14   2.0000      -0.896142       -24.3853
  15   2.0000      -0.835230       -22.7278
  16   2.0000      -0.754733       -20.5373
  17   2.0000      -0.726139       -19.7592
  18   2.0000      -0.690356       -18.7855
  19   2.0000      -0.688857       -18.7447
  20   2.0000      -0.679019       -18.4770
  21   2.0000      -0.626221       -17.0403
  22   2.0000      -0.572398       -15.5758
  23   2.0000      -0.551527       -15.0078
  24   2.0000      -0.532723       -14.4961
  25   2.0000      -0.509845       -13.8736
  26   2.0000      -0.488902       -13.3037
  27   2.0000      -0.462296       -12.5797
  28   2.0000      -0.456164       -12.4129
  29   2.0000      -0.443614       -12.0714
  30   2.0000      -0.427912       -11.6441
  31   2.0000      -0.417729       -11.3670
  32   2.0000      -0.398294       -10.8381
  33   2.0000      -0.394330       -10.7303
  34   2.0000      -0.388156       -10.5623
  35   2.0000      -0.386395       -10.5143
  36   2.0000      -0.373778       -10.1710
  37   2.0000      -0.365758        -9.9528
  38   2.0000      -0.361992        -9.8503
  39   2.0000      -0.360541        -9.8108
  40   2.0000      -0.349149        -9.5008
  41   2.0000      -0.342330        -9.3153
  42   2.0000      -0.342030        -9.3071
  43   2.0000      -0.336084        -9.1453
  44   2.0000      -0.301988        -8.2175
  45   2.0000      -0.245737        -6.6869
  46   0.0000      -0.200389        -5.4529
  47   0.0000      -0.080333        -2.1860
  48   0.0000       0.005299         0.1442
  49   0.0000       0.015589         0.4242
  50   0.0000       0.021076         0.5735

MULLIKEN ATOMIC CHARGES
-----------------------
   0 O :   -0.922048
   1 N :    0.965252
   2 C :    2.111567
   3 C :   -0.572905
   4 C :    1.305991
   5 C :   -0.576573
   6 C :    2.107444
   7 C :   -1.003355
   8 C :   -1.322569
   9 C :   -1.001349
  10 C :   -1.323648
  11 H :    0.117568
  12 H :    0.209377
  13 H :    0.114984
  14 H :    0.208485
  15 H :    0.185948
  16 H :    0.217355
  17 H :    0.026791
  18 H :    0.151116
  19 H :    0.184336
  20 H :    0.128910
  21 H :    0.187388
  22 H :    0.217314
  23 H :    0.027827
  24 H :    0.148901
  25 H :    0.185335
  26 H :    0.129822
  27 O :   -1.209264
Sum of atomic charges:    1.0000000

LOEWDIN ATOMIC CHARGES
----------------------
   0 O :    0.655658
   1 N :    0.007363
   2 C :   -0.372889
   3 C :    0.330654
   4 C :   -0.502668
   5 C :    0.330709
   6 C :   -0.373195
   7 C :    0.640055
   8 C :    0.602553
   9 C :    0.640062
  10 C :    0.602629
  11 H :   -0.116773
  12 H :   -0.105253
  13 H :   -0.116551
  14 H :   -0.105220
  15 H :   -0.120549
  16 H :   -0.164424
  17 H :   -0.120172
  18 H :   -0.145767
  19 H :   -0.132969
  20 H :   -0.129259
  21 H :   -0.120689
  22 H :   -0.164797
  23 H :   -0.119925
  24 H :   -0.145492
  25 H :   -0.132846
  26 H :   -0.129546
  27 O :    0.509303

  Mayer bond orders larger than 0.100000
B(  0-O ,  1-N ) :   0.6422 B(  0-O ,  8-C ) :   0.1195 B(  0-O , 10-C ) :   0.1207
B(  1-N ,  2-C ) :   0.7647 B(  1-N ,  3-C ) :   0.2201 B(  1-N ,  5-C ) :   0.2186
B(  1-N ,  6-C ) :   0.7716 B(  1-N ,  7-C ) :   0.1132 B(  1-N ,  8-C ) :  -0.1901
B(  1-N ,  9-C ) :   0.1119 B(  1-N , 10-C ) :  -0.1930 B(  2-C ,  3-C ) :   0.3065
B(  2-C ,  4-C ) :   0.1275 B(  2-C ,  6-C ) :   0.2271 B(  2-C , 17-H ) :  -0.1267
B(  3-C ,  4-C ) :   0.8365 B(  3-C ,  5-C ) :   0.1304 B(  3-C ,  7-C ) :   0.1439
B(  3-C , 11-H ) :   0.9002 B(  3-C , 12-H ) :   0.9636 B(  3-C , 27-O ) :   0.2290
B(  4-C ,  5-C ) :   0.8350 B(  4-C ,  6-C ) :   0.1276 B(  4-C , 27-O ) :   0.1230
B(  5-C ,  6-C ) :   0.3024 B(  5-C ,  9-C ) :   0.1471 B(  5-C , 13-H ) :   0.9032
B(  5-C , 14-H ) :   0.9644 B(  5-C , 27-O ) :   0.2310 B(  6-C , 23-H ) :  -0.1291
B(  7-C ,  8-C ) :   0.1941 B(  7-C , 15-H ) :   1.0001 B(  7-C , 16-H ) :   0.9638
B(  7-C , 17-H ) :   1.1854 B(  8-C , 18-H ) :   1.0635 B(  8-C , 19-H ) :   1.0686
B(  8-C , 20-H ) :   1.0885 B(  9-C , 10-C ) :   0.1925 B(  9-C , 21-H ) :   0.9996
B(  9-C , 22-H ) :   0.9639 B(  9-C , 23-H ) :   1.1856 B( 10-C , 24-H ) :   1.0659
B( 10-C , 25-H ) :   1.0676 B( 10-C , 26-H ) :   1.0877

Dispersion correction           -0.010353834
FINAL SINGLE POINT ENERGY      -557.456730400544

DIPOLE MOMENT
-------------

Method             : SCF
Type of density    : Electron Density
Multiplicity       :   1
Irrep              :   0
Energy             :  -557.4463765662358128 Eh
Relativity type    :
Basis              : AO
                                X                 Y                 Z
Electronic contribution:      0.327336053      -2.667177098      -1.400077507
Nuclear contribution   :     -1.867094982       3.503684408       1.120844434
                        -----------------------------------------
Total Dipole Moment    :     -1.539758929       0.836507310      -0.279233073
                        -----------------------------------------
Magnitude (a.u.)       :      1.774421919
Magnitude (Debye)      :      4.510222086

Rotational constants in cm-1:             0.036291             0.035500             0.023692
Rotational constants in MHz :          1087.981132          1064.262103           710.263902

                             ****ORCA TERMINATED NORMALLY****
TOTAL RUN TIME: 0 days 0 hours 4 minutes 0 seconds 617 msec
