                         Program Version 6.0.0  -   RELEASE   -
|  1> !PBE0 def2-SV(p) Opt Freq d3 TightSCF SlowConv RIJCOSX defgrid2
|  2>
|  3> %pal
|  4> nprocs 2
|  5> end
|  6>
|  7> %scf
|  8> MaxIter 1500
|  9> end
| 10>
| 11> %maxcore 5000
| 12>
| 13> * xyz 0 1
| 14> 6       -3.603345500      2.127100000      0.189484500
| 15> 6       -4.896432500      1.620882500      0.192600000
| 16> 6       -2.480057000      1.280667000     -0.034563500
| 17> 6       -2.711938500     -0.102266000     -0.307772500
| 18> 6       -4.008755000     -0.614056500     -0.248682000
| 19> 6       -5.106252000      0.241916000      0.006008000
| 20> 6       -1.153021500      2.003766500      0.001634500
| 21> 6        0.141630458      1.283157707      0.301786452
| 22> 6        1.298048044      2.107759745      0.190559746
| 23> 6        2.568846469      1.601337689      0.429135114
| 24> 6        2.728094479      0.241072540      0.752926333
| 25> 6        1.592346851     -0.590803395      0.899489162
| 26> 6        0.309193431     -0.074427587      0.714832712
| 27> 8       -1.190759500      3.220424000      0.001331500
| 28> 1       -4.156734500     -1.697587500     -0.446430500
| 29> 1       -6.122330500     -0.163940000      0.034073500
| 30> 1       -3.424344500      3.203659000      0.356412500
| 31> 1       -5.747982000      2.307520500      0.356607500
| 32> 1       -1.896159500     -0.818423000     -0.667279000
| 33> 1       -0.562462730     -0.759549277      0.997208513
| 34> 1        3.730532564     -0.167182998      0.915575458
| 35> 1        1.692522687     -1.655587233      1.201769915
| 36> 1        1.162076505      3.168012467     -0.085697570
| 37> 1        3.445134273      2.271746633      0.347249392
| 38> *
| 39>
| 40>                          ****END OF INPUT****
 Total Charge           Charge          ....    0
 Multiplicity           Mult            ....    1
 Number of Electrons    NEL             ....   96
Dispersion correction           -0.025742342
FINAL SINGLE POINT ENERGY      -575.532546854807
Dispersion correction             ... done (  0.1 sec)
Dispersion correction           -0.025974650
FINAL SINGLE POINT ENERGY      -575.544064455189
Dispersion correction             ... done (  0.1 sec)
Dispersion correction           -0.026039979
FINAL SINGLE POINT ENERGY      -575.546723227044
Dispersion correction             ... done (  0.2 sec)
FINAL SINGLE POINT ENERGY      -575.547942706028
FINAL SINGLE POINT ENERGY      -575.548254323218
FINAL SINGLE POINT ENERGY      -575.548487376224
FINAL SINGLE POINT ENERGY      -575.548510938554
Dispersion correction             ... done (  0.1 sec)
Dispersion correction           -0.026230190
FINAL SINGLE POINT ENERGY      -575.548513919758
Dispersion correction             ... done (  0.1 sec)
Dispersion correction           -0.026227174
FINAL SINGLE POINT ENERGY      -575.548516216480
Dispersion correction             ... done (  0.1 sec)
                    ***********************HURRAY********************

CARTESIAN COORDINATES (ANGSTROEM)
---------------------------------
  C     -3.635858    2.049543    0.474434
  C     -4.872420    1.424405    0.358304
  C     -2.465357    1.386166    0.082662
  C     -2.557767    0.098979   -0.463061
  C     -3.799789   -0.519170   -0.598031
  C     -4.955998    0.137466   -0.178093
  C     -1.173216    2.133433    0.185358
  C      0.107414    1.381864    0.368603
  C      1.287017    1.982112   -0.091993
  C      2.514358    1.354461    0.089509
  C      2.579610    0.130769    0.759711
  C      1.414557   -0.459842    1.247766
  C      0.181550    0.159031    1.048439
  O     -1.164096    3.346348    0.119658
  H     -3.864900   -1.518833   -1.037589
  H     -5.929442   -0.352600   -0.276155
  H     -3.549614    3.065332    0.869028
  H     -5.779864    1.943646    0.680594
  H     -1.656096   -0.413130   -0.809814
  H     -0.726855   -0.299902    1.448151
  H      3.545785   -0.360813    0.908766
  H      1.465726   -1.408137    1.790812
  H      1.214240    2.951267   -0.592390
  H      3.428867    1.822805   -0.286409

 Multiplicity           Mult            ....    1
 Number of Electrons    NEL             ....   96
 Basis Dimension        Dim             ....  216

ORBITAL ENERGIES
----------------

  NO   OCC          E(Eh)            E(eV)
   0   2.0000     -19.198575      -522.4198
   1   2.0000     -10.322670      -280.8941
   2   2.0000     -10.251880      -278.9678
   3   2.0000     -10.251848      -278.9670
   4   2.0000     -10.251406      -278.9549
   5   2.0000     -10.251361      -278.9537
   6   2.0000     -10.250570      -278.9322
   7   2.0000     -10.250559      -278.9319
   8   2.0000     -10.247914      -278.8599
   9   2.0000     -10.247891      -278.8593
  10   2.0000     -10.246549      -278.8228
  11   2.0000     -10.246529      -278.8222
  12   2.0000     -10.245976      -278.8072
  13   2.0000     -10.245974      -278.8071
  14   2.0000      -1.061059       -28.8729
  15   2.0000      -0.890433       -24.2299
  16   2.0000      -0.885108       -24.0850
  17   2.0000      -0.798474       -21.7276
  18   2.0000      -0.776128       -21.1195
  19   2.0000      -0.773309       -21.0428
  20   2.0000      -0.769755       -20.9461
  21   2.0000      -0.673359       -18.3230
  22   2.0000      -0.637154       -17.3378
  23   2.0000      -0.632153       -17.2018
  24   2.0000      -0.621089       -16.9007
  25   2.0000      -0.578377       -15.7384
  26   2.0000      -0.552727       -15.0405
  27   2.0000      -0.522079       -14.2065
  28   2.0000      -0.492276       -13.3955
  29   2.0000      -0.485314       -13.2061
  30   2.0000      -0.476217       -12.9585
  31   2.0000      -0.465052       -12.6547
  32   2.0000      -0.455609       -12.3978
  33   2.0000      -0.446245       -12.1430
  34   2.0000      -0.445905       -12.1337
  35   2.0000      -0.441379       -12.0105
  36   2.0000      -0.419270       -11.4089
  37   2.0000      -0.396060       -10.7773
  38   2.0000      -0.385015       -10.4768
  39   2.0000      -0.380046       -10.3416
  40   2.0000      -0.376655       -10.2493
  41   2.0000      -0.364162        -9.9094
  42   2.0000      -0.362483        -9.8637
  43   2.0000      -0.281830        -7.6690
  44   2.0000      -0.280689        -7.6379
  45   2.0000      -0.277912        -7.5624
  46   2.0000      -0.276646        -7.5279
  47   2.0000      -0.263378        -7.1669
  48   0.0000      -0.065969        -1.7951
  49   0.0000      -0.021037        -0.5724
  50   0.0000      -0.014751        -0.4014
  51   0.0000      -0.008333        -0.2267
  52   0.0000       0.056122         1.5272

MULLIKEN ATOMIC CHARGES
-----------------------
   0 C :   -0.101724
   1 C :   -0.090399
   2 C :   -0.031733
   3 C :   -0.125903
   4 C :   -0.097185
   5 C :   -0.080323
   6 C :    0.200190
   7 C :   -0.031818
   8 C :   -0.101847
   9 C :   -0.090165
  10 C :   -0.080497
  11 C :   -0.097331
  12 C :   -0.125853
  13 O :   -0.219952
  14 H :    0.101292
  15 H :    0.104543
  16 H :    0.110218
  17 H :    0.103936
  18 H :    0.117125
  19 H :    0.117166
  20 H :    0.104567
  21 H :    0.101354
  22 H :    0.110287
  23 H :    0.104051
Sum of atomic charges:   -0.0000000

LOEWDIN ATOMIC CHARGES
----------------------
   0 C :   -0.088750
   1 C :   -0.125743
   2 C :   -0.079051
   3 C :   -0.109883
   4 C :   -0.129011
   5 C :   -0.112405
   6 C :    0.088540
   7 C :   -0.079085
   8 C :   -0.088767
   9 C :   -0.125736
  10 C :   -0.112397
  11 C :   -0.129035
  12 C :   -0.109880
  13 O :   -0.149043
  14 H :    0.132046
  15 H :    0.132284
  16 H :    0.141284
  17 H :    0.132831
  18 H :    0.136632
  19 H :    0.136647
  20 H :    0.132292
  21 H :    0.132065
  22 H :    0.141320
  23 H :    0.132848

  Mayer bond orders larger than 0.100000
B(  0-C ,  1-C ) :   1.3852 B(  0-C ,  2-C ) :   1.3834 B(  0-C , 16-H ) :   0.9569
B(  1-C ,  5-C ) :   1.3754 B(  1-C , 17-H ) :   0.9638 B(  2-C ,  3-C ) :   1.3789
B(  2-C ,  6-C ) :   0.9464 B(  3-C ,  4-C ) :   1.3906 B(  3-C , 18-H ) :   0.9499
B(  4-C ,  5-C ) :   1.3982 B(  4-C , 14-H ) :   0.9623 B(  5-C , 15-H ) :   0.9624
B(  6-C ,  7-C ) :   0.9464 B(  6-C , 13-O ) :   2.1243 B(  7-C ,  8-C ) :   1.3835
B(  7-C , 12-C ) :   1.3787 B(  8-C ,  9-C ) :   1.3852 B(  8-C , 22-H ) :   0.9568
B(  9-C , 10-C ) :   1.3753 B(  9-C , 23-H ) :   0.9639 B( 10-C , 11-C ) :   1.3980
B( 10-C , 20-H ) :   0.9624 B( 11-C , 12-C ) :   1.3907 B( 11-C , 21-H ) :   0.9622
B( 12-C , 19-H ) :   0.9500

Dispersion correction           -0.026226864
FINAL SINGLE POINT ENERGY      -575.548516894143

DIPOLE MOMENT
-------------

Method             : SCF
Type of density    : Electron Density
Multiplicity       :   1
Irrep              :   0
Energy             :  -575.5222900297061415 Eh
Relativity type    :
Basis              : AO
                                X                 Y                 Z
Electronic contribution:      0.028403752       3.721845251      -0.196081169
Nuclear contribution   :     -0.036869412      -4.873128971       0.257597129
                        -----------------------------------------
Total Dipole Moment    :     -0.008465660      -1.151283720       0.061515960
                        -----------------------------------------
Magnitude (a.u.)       :      1.152957104
Magnitude (Debye)      :      2.930584061

VIBRATIONAL FREQUENCIES
-----------------------

Scaling factor for frequencies =  1.000000000  (already applied!)

     0:       0.00 cm**-1
     1:       0.00 cm**-1
     2:       0.00 cm**-1
     3:       0.00 cm**-1
     4:       0.00 cm**-1
     5:       0.00 cm**-1
     6:      42.11 cm**-1
     7:      64.95 cm**-1
     8:      96.04 cm**-1
     9:     137.03 cm**-1
    10:     218.10 cm**-1
    11:     234.40 cm**-1
    12:     292.72 cm**-1
    13:     381.44 cm**-1
    14:     415.67 cm**-1
    15:     428.90 cm**-1
    16:     450.92 cm**-1
    17:     455.60 cm**-1
    18:     577.97 cm**-1
    19:     627.80 cm**-1
    20:     630.40 cm**-1
    21:     656.01 cm**-1
    22:     710.47 cm**-1
    23:     721.47 cm**-1
    24:     726.31 cm**-1
    25:     740.13 cm**-1
    26:     789.49 cm**-1
    27:     845.70 cm**-1
    28:     872.55 cm**-1
    29:     877.76 cm**-1
    30:     950.30 cm**-1
    31:     965.75 cm**-1
    32:     974.79 cm**-1
    33:    1007.22 cm**-1
    34:    1012.38 cm**-1
    35:    1022.01 cm**-1
    36:    1023.24 cm**-1
    37:    1031.38 cm**-1
    38:    1031.62 cm**-1
    39:    1062.51 cm**-1
    40:    1063.59 cm**-1
    41:    1108.12 cm**-1
    42:    1112.47 cm**-1
    43:    1173.86 cm**-1
    44:    1174.29 cm**-1
    45:    1187.48 cm**-1
    46:    1190.04 cm**-1
    47:    1203.41 cm**-1
    48:    1319.54 cm**-1
    49:    1338.66 cm**-1
    50:    1346.54 cm**-1
    51:    1406.99 cm**-1
    52:    1408.14 cm**-1
    53:    1493.56 cm**-1
    54:    1494.48 cm**-1
    55:    1536.50 cm**-1
    56:    1543.59 cm**-1
    57:    1667.85 cm**-1
    58:    1667.93 cm**-1
    59:    1690.06 cm**-1
    60:    1691.12 cm**-1
    61:    1804.69 cm**-1
    62:    3194.48 cm**-1
    63:    3194.79 cm**-1
    64:    3203.69 cm**-1
    65:    3204.74 cm**-1
    66:    3211.93 cm**-1
    67:    3213.38 cm**-1
    68:    3219.92 cm**-1
    69:    3220.91 cm**-1
    70:    3226.19 cm**-1
    71:    3226.54 cm**-1

IR SPECTRUM
-----------

 Mode   freq       eps      Int      T**2         TX        TY        TZ
       cm**-1   L/(mol*cm) km/mol    a.u.
----------------------------------------------------------------------------
  6:     42.11   0.000279    1.41  0.002065  ( 0.012969  0.002128  0.043503)
  7:     64.95   0.000048    0.24  0.000230  (-0.000217 -0.015164  0.000472)
  8:     96.04   0.000093    0.47  0.000301  ( 0.000252  0.017335 -0.000889)
  9:    137.03   0.000288    1.45  0.000655  (-0.017151 -0.000878 -0.018988)
 10:    218.10   0.000007    0.03  0.000009  (-0.000149 -0.003069  0.000208)
 11:    234.40   0.000750    3.79  0.000999  (-0.030306  0.000737  0.008923)
 12:    292.72   0.000008    0.04  0.000009  ( 0.000047  0.002959 -0.000173)
 13:    381.44   0.001303    6.58  0.001066  ( 0.032575 -0.000107  0.002162)
 14:    415.67   0.000083    0.42  0.000062  (-0.007699  0.000033 -0.001686)
 15:    428.90   0.000000    0.00  0.000000  (-0.000046 -0.000352  0.000011)
 16:    450.92   0.000194    0.98  0.000134  ( 0.009428 -0.000364 -0.006735)
 17:    455.60   0.000282    1.43  0.000193  (-0.000068 -0.013880  0.000710)
 18:    577.97   0.000006    0.03  0.000004  ( 0.000006 -0.001867  0.000139)
 19:    627.80   0.000051    0.26  0.000026  (-0.004442  0.000146  0.002405)
 20:    630.40   0.000004    0.02  0.000002  ( 0.000042 -0.001383  0.000082)
 21:    656.01   0.007801   39.43  0.003711  ( 0.056162  0.000814  0.023587)
 22:    710.47   0.002535   12.81  0.001114  (-0.005753 -0.001787 -0.032823)
 23:    721.47   0.020383  103.01  0.008817  (-0.013688 -0.004381 -0.092790)
 24:    726.31   0.002363   11.94  0.001015  (-0.000376 -0.031853  0.000575)
 25:    740.13   0.000331    1.67  0.000140  (-0.000134 -0.011808  0.000532)
 26:    789.49   0.001900    9.60  0.000751  ( 0.000336  0.027361 -0.001446)
 27:    845.70   0.000360    1.82  0.000133  (-0.002943  0.000540  0.011126)
 28:    872.55   0.000685    3.46  0.000245  ( 0.015452 -0.000238 -0.002473)
 29:    877.76   0.000035    0.18  0.000012  ( 0.000184 -0.003517  0.000131)
 30:    950.30   0.008820   44.57  0.002896  ( 0.052847  0.000123  0.010171)
 31:    965.75   0.000036    0.18  0.000012  (-0.000344 -0.003382  0.000119)
 32:    974.79   0.004157   21.01  0.001331  (-0.036307  0.000457  0.003516)
 33:   1007.22   0.000940    4.75  0.000291  ( 0.017046 -0.000086 -0.000802)
 34:   1012.38   0.000011    0.06  0.000004  ( 0.000240 -0.001864  0.000089)
 35:   1022.01   0.000002    0.01  0.000001  ( 0.000010 -0.000718  0.000063)
 36:   1023.24   0.000009    0.05  0.000003  (-0.001545 -0.000014 -0.000696)
 37:   1031.38   0.000336    1.70  0.000102  (-0.010077  0.000197  0.000374)
 38:   1031.62   0.000006    0.03  0.000002  (-0.001115 -0.000650  0.000061)
 39:   1062.51   0.000085    0.43  0.000025  ( 0.000106  0.004976 -0.000248)
 40:   1063.59   0.001023    5.17  0.000300  (-0.016787 -0.000054 -0.004274)
 41:   1108.12   0.000930    4.70  0.000262  (-0.013065  0.000589  0.009532)
 42:   1112.47   0.001793    9.06  0.000503  (-0.000186 -0.022393  0.001230)
 43:   1173.86   0.000114    0.58  0.000030  (-0.000135 -0.005512  0.000083)
 44:   1174.29   0.000026    0.13  0.000007  ( 0.000883 -0.000322  0.002434)
 45:   1187.48   0.000523    2.64  0.000137  (-0.000213 -0.011709  0.000567)
 46:   1190.04   0.004999   25.26  0.001311  ( 0.035657  0.000094  0.006276)
 47:   1203.41   0.000545    2.76  0.000141  ( 0.000012 -0.011874  0.000640)
 48:   1319.54   0.029019  146.65  0.006863  (-0.081383 -0.000200 -0.015475)
 49:   1338.66   0.000055    0.28  0.000013  ( 0.000016  0.003583 -0.000204)
 50:   1346.54   0.036140  182.64  0.008375  (-0.090867  0.000099 -0.010896)
 51:   1406.99   0.000851    4.30  0.000189  (-0.011178  0.000070 -0.007989)
 52:   1408.14   0.000654    3.31  0.000145  (-0.000583 -0.012020  0.000380)
 53:   1493.56   0.005488   27.73  0.001147  (-0.032313  0.000716  0.010098)
 54:   1494.48   0.001334    6.74  0.000278  ( 0.000090  0.016664 -0.000867)
 55:   1536.50   0.000029    0.15  0.000006  (-0.000135 -0.002422  0.000094)
 56:   1543.59   0.001630    8.24  0.000330  ( 0.018145 -0.000173  0.000603)
 57:   1667.85   0.000535    2.70  0.000100  (-0.007633  0.005748 -0.002967)
 58:   1667.93   0.001093    5.52  0.000204  ( 0.003300  0.013909  0.000362)
 59:   1690.06   0.002433   12.30  0.000449  (-0.000533  0.021154 -0.001239)
 60:   1691.12   0.005761   29.12  0.001063  ( 0.032277  0.000457  0.004596)
 61:   1804.69   0.034457  174.13  0.005958  ( 0.000578  0.077076 -0.004133)
 62:   3194.48   0.000082    0.42  0.000008  ( 0.002804  0.000036  0.000419)
 63:   3194.79   0.000009    0.04  0.000001  ( 0.000009 -0.000930  0.000048)
 64:   3203.69   0.000318    1.61  0.000031  (-0.001712  0.000052 -0.005298)
 65:   3204.74   0.001433    7.24  0.000139  (-0.000077 -0.011801  0.000463)
 66:   3211.93   0.003860   19.51  0.000375  ( 0.018998 -0.000191 -0.003747)
 67:   3213.38   0.000006    0.03  0.000001  ( 0.000515 -0.000604  0.000022)
 68:   3219.92   0.000873    4.41  0.000085  ( 0.005851  0.000111  0.007098)
 69:   3220.91   0.001700    8.59  0.000165  (-0.000058  0.012822 -0.000543)
 70:   3226.19   0.002552   12.90  0.000247  ( 0.015650  0.000088 -0.001375)
 71:   3226.54   0.000086    0.44  0.000008  (-0.002431  0.001544  0.000175)

--------------------------
THERMOCHEMISTRY AT 298.15K
--------------------------

Temperature         ...   298.15 K
Pressure            ...     1.00 atm
Total Mass          ...   182.22 AMU
Quasi RRHO          ...     True
Cut-Off Frequency   ...     1.00 cm^-1

Throughout the following assumptions are being made:
  (1) The electronic state is orbitally nondegenerate
  (2) There are no thermally accessible electronically excited states
  (3) Hindered rotations indicated by low frequency modes are not
      treated as such but are treated as vibrations and this may
      cause some error
  (4) All equations used are the standard statistical mechanics
      equations for an ideal gas
  (5) All vibrations are strictly harmonic

freq.      42.11  E(vib)   ...       0.53
freq.      64.95  E(vib)   ...       0.50
freq.      96.04  E(vib)   ...       0.47
freq.     137.03  E(vib)   ...       0.42
freq.     218.10  E(vib)   ...       0.33
freq.     234.40  E(vib)   ...       0.32
freq.     292.72  E(vib)   ...       0.27
freq.     381.44  E(vib)   ...       0.21
freq.     415.67  E(vib)   ...       0.18
freq.     428.90  E(vib)   ...       0.18
freq.     450.92  E(vib)   ...       0.17
freq.     455.60  E(vib)   ...       0.16
freq.     577.97  E(vib)   ...       0.11
freq.     627.80  E(vib)   ...       0.09
freq.     630.40  E(vib)   ...       0.09
freq.     656.01  E(vib)   ...       0.08
freq.     710.47  E(vib)   ...       0.07
freq.     721.47  E(vib)   ...       0.07
freq.     726.31  E(vib)   ...       0.06
freq.     740.13  E(vib)   ...       0.06
freq.     789.49  E(vib)   ...       0.05
freq.     845.70  E(vib)   ...       0.04
freq.     872.55  E(vib)   ...       0.04
freq.     877.76  E(vib)   ...       0.04
freq.     950.30  E(vib)   ...       0.03
freq.     965.75  E(vib)   ...       0.03
freq.     974.79  E(vib)   ...       0.03
freq.    1007.22  E(vib)   ...       0.02
freq.    1012.38  E(vib)   ...       0.02
freq.    1022.01  E(vib)   ...       0.02
freq.    1023.24  E(vib)   ...       0.02
freq.    1031.38  E(vib)   ...       0.02
freq.    1031.62  E(vib)   ...       0.02
freq.    1062.51  E(vib)   ...       0.02
freq.    1063.59  E(vib)   ...       0.02
freq.    1108.12  E(vib)   ...       0.02
freq.    1112.47  E(vib)   ...       0.01
freq.    1173.86  E(vib)   ...       0.01
freq.    1174.29  E(vib)   ...       0.01
freq.    1187.48  E(vib)   ...       0.01
freq.    1190.04  E(vib)   ...       0.01
freq.    1203.41  E(vib)   ...       0.01
freq.    1319.54  E(vib)   ...       0.01
freq.    1338.66  E(vib)   ...       0.01
freq.    1346.54  E(vib)   ...       0.01
freq.    1406.99  E(vib)   ...       0.00
freq.    1408.14  E(vib)   ...       0.00
freq.    1493.56  E(vib)   ...       0.00
freq.    1494.48  E(vib)   ...       0.00
freq.    1536.50  E(vib)   ...       0.00
freq.    1543.59  E(vib)   ...       0.00
freq.    1667.85  E(vib)   ...       0.00
freq.    1667.93  E(vib)   ...       0.00
freq.    1690.06  E(vib)   ...       0.00
freq.    1691.12  E(vib)   ...       0.00
freq.    1804.69  E(vib)   ...       0.00
freq.    3194.48  E(vib)   ...       0.00
freq.    3194.79  E(vib)   ...       0.00
freq.    3203.69  E(vib)   ...       0.00
freq.    3204.74  E(vib)   ...       0.00
freq.    3211.93  E(vib)   ...       0.00
freq.    3213.38  E(vib)   ...       0.00
freq.    3219.92  E(vib)   ...       0.00
freq.    3220.91  E(vib)   ...       0.00
freq.    3226.19  E(vib)   ...       0.00
freq.    3226.54  E(vib)   ...       0.00

------------
INNER ENERGY
------------

The inner energy is: U= E(el) + E(ZPE) + E(vib) + E(rot) + E(trans)
    E(el)   - is the total energy from the electronic structure calculation
              = E(kin-el) + E(nuc-el) + E(el-el) + E(nuc-nuc)
    E(ZPE)  - the the zero temperature vibrational energy from the frequency calculation
    E(vib)  - the the finite temperature correction to E(ZPE) due to population
              of excited vibrational states
    E(rot)  - is the rotational thermal energy
    E(trans)- is the translational thermal energy

Summary of contributions to the inner energy U:
Electronic energy                ...   -575.54851689 Eh
Zero point energy                ...      0.19322192 Eh     121.25 kcal/mol
Thermal vibrational correction   ...      0.00783237 Eh       4.91 kcal/mol
Thermal rotational correction    ...      0.00141627 Eh       0.89 kcal/mol
Thermal translational correction ...      0.00141627 Eh       0.89 kcal/mol
-----------------------------------------------------------------------
Total thermal energy                   -575.34463006 Eh

Summary of corrections to the electronic energy:
(perhaps to be used in another calculation)
Total thermal correction                  0.01066492 Eh       6.69 kcal/mol
Non-thermal (ZPE) correction              0.19322192 Eh     121.25 kcal/mol
-----------------------------------------------------------------------
Total correction                          0.20388684 Eh     127.94 kcal/mol

--------
ENTHALPY
--------

The enthalpy is H = U + kB*T
                kB is Boltzmann's constant
Total thermal energy              ...   -575.34463006 Eh
Thermal Enthalpy correction       ...      0.00094421 Eh       0.59 kcal/mol
-----------------------------------------------------------------------
Total Enthalpy                    ...   -575.34368585 Eh

Note: Only C1 symmetry has been detected, increase convergence thresholds
      if your molecule has a higher symmetry. Symmetry factor of 1.0 is
      used for the rotational entropy correction.

Note: Rotational entropy computed according to Herzberg
Infrared and Raman Spectra, Chapter V,1, Van Nostrand Reinhold, 1945
Point Group:  C1, Symmetry Number:   1
Rotational constants in cm-1:     0.057049     0.013730     0.011699

Vibrational entropy computed according to the QRRHO of S. Grimme
Chem.Eur.J. 2012 18 9955 using a reference frequency of 100.0 cm-1

-------
ENTROPY
-------

The entropy contributions are T*S = T*(S(el)+S(vib)+S(rot)+S(trans))
     S(el)   - electronic entropy
     S(vib)  - vibrational entropy
     S(rot)  - rotational entropy
     S(trans)- translational entropy
The entropies will be listed as multiplied by the temperature to get
units of energy

Electronic entropy                ...      0.00000000 Eh      0.00 kcal/mol
Vibrational entropy               ...      0.01321264 Eh      8.29 kcal/mol
Rotational entropy                ...      0.01498721 Eh      9.40 kcal/mol
Translational entropy             ...      0.01972108 Eh     12.38 kcal/mol
-----------------------------------------------------------------------
Final entropy term                ...      0.04792093 Eh     30.07 kcal/mol

                             ****ORCA TERMINATED NORMALLY****
TOTAL RUN TIME: 0 days 0 hours 41 minutes 35 seconds 352 msec
