                         Program Version 6.0.0  -   RELEASE  -
|  1> !r2SCAN opt aug-cc-pVTZ d3 TightSCF SlowConv RIJCOSX defgrid2
|  2>
|  3> %pal
|  4> nprocs 8
|  5> end
|  6>
|  7> %scf
|  8> MaxIter 1500
|  9> end
| 10>
| 11> %maxcore 3500
| 12>
| 13> !CPCM
| 14> %cpcm smd true
| 15> SMDsolvent "MeCN"
| 16> surfacetype gepol_ses
| 17> rsolv 2.19
| 18> end
| 19>
| 20> * xyz 1 2
| 21> C           1.36337197862367      0.00925782782262      0.00042331345329
| 22> C           0.74822645901465      1.29296895528656      0.00038316234352
| 23> C          -0.61529602246028      1.39626207073000      0.00023060917101
| 24> C          -1.42835414240665      0.22289484643639      0.00009324782531
| 25> C          -0.81975705014986     -1.06228254929373      0.00009847310954
| 26> C           0.54832834357610     -1.16073135173507      0.00023403456932
| 27> H           1.01965556748509     -2.14817388841103      0.00023835116044
| 28> H          -1.42717703035162     -1.96898347753981      0.00000365697629
| 29> O          -2.71426815111900      0.42982708435483     -0.00003024655139
| 30> C          -3.65743877124361     -0.63904368121668     -0.00016458675956
| 31> H          -4.64491010243250     -0.16049105257969     -0.00025717007063
| 32> H          -3.53752517507174     -1.25276547158578     -0.90821236062697
| 33> H          -3.53771725035146     -1.25281703649443      0.90787613291043
| 34> H          -1.11664261012245      2.36720004312394      0.00019734665612
| 35> H           1.36186872975284      2.19800021241604      0.00046058429736
| 36> S           3.05618464536732     -0.23274264105176      0.00049319565771
| 37> H           3.42654608188951      1.07420050973759     -0.00198104412179
| 38> *
| 39>
| 40>                          ****END OF INPUT****
 Total Charge           Charge          ....    1
 Multiplicity           Mult            ....    2
 Number of Electrons    NEL             ....   73
Dispersion correction           -0.005448573
FINAL SINGLE POINT ENERGY      -744.702835061874
Dispersion correction             ... done (  0.1 sec)
Dispersion correction           -0.005464897
FINAL SINGLE POINT ENERGY      -744.704060375935
Dispersion correction             ... done (  0.1 sec)
Dispersion correction           -0.005470701
FINAL SINGLE POINT ENERGY      -744.704234273604
Dispersion correction             ... done (  0.1 sec)
Dispersion correction           -0.005472064
FINAL SINGLE POINT ENERGY      -744.704236761019
Dispersion correction             ... done (  0.1 sec)
Dispersion correction           -0.005470602
FINAL SINGLE POINT ENERGY      -744.704281435086
Dispersion correction             ... done (  0.1 sec)
                    ***********************HURRAY********************

CARTESIAN COORDINATES (ANGSTROEM)
---------------------------------
  C      1.336024    0.001951   -0.001264
  C      0.747877    1.289947   -0.003769
  C     -0.609950    1.405572   -0.002780
  C     -1.421773    0.240459   -0.000957
  C     -0.838166   -1.048701   -0.003327
  C      0.523798   -1.160644   -0.002835
  H      0.985760   -2.140030   -0.003279
  H     -1.453310   -1.936053   -0.003585
  O     -2.719529    0.461599    0.002796
  C     -3.636595   -0.658082    0.002705
  H     -4.624837   -0.211167    0.005357
  H     -3.489353   -1.254792   -0.896283
  H     -3.486287   -1.258408    0.898895
  H     -1.092932    2.373886   -0.002537
  H      1.374082    2.172402   -0.006696
  S      3.036948   -0.235354    0.006397
  H      3.393338    1.069998    0.011250

 Multiplicity           Mult            ....    2
 Number of Electrons    NEL             ....   73
 Basis Dimension        Dim             ....  602

ORBITAL ENERGIES
----------------
                 SPIN UP ORBITALS
  NO   OCC          E(Eh)            E(eV)
   0   1.0000     -88.635416     -2411.8923
   1   1.0000     -19.054838      -518.5085
   2   1.0000     -10.161989      -276.5218
   3   1.0000     -10.138215      -275.8749
   4   1.0000     -10.099152      -274.8119
   5   1.0000     -10.092227      -274.6235
   6   1.0000     -10.087931      -274.5066
   7   1.0000     -10.083537      -274.3870
   8   1.0000     -10.083209      -274.3781
   9   1.0000      -7.928093      -215.7344
  10   1.0000      -5.873522      -159.8267
  11   1.0000      -5.870386      -159.7413
  12   1.0000      -5.869244      -159.7102
  13   1.0000      -1.096131       -29.8272
  14   1.0000      -0.883989       -24.0546
  15   1.0000      -0.810950       -22.0671
  16   1.0000      -0.770878       -20.9767
  17   1.0000      -0.736177       -20.0324
  18   1.0000      -0.683668       -18.6036
  19   1.0000      -0.627054       -17.0630
  20   1.0000      -0.595218       -16.1967
  21   1.0000      -0.540039       -14.6952
  22   1.0000      -0.509798       -13.8723
  23   1.0000      -0.485278       -13.2051
  24   1.0000      -0.478590       -13.0231
  25   1.0000      -0.448510       -12.2046
  26   1.0000      -0.436357       -11.8739
  27   1.0000      -0.424648       -11.5553
  28   1.0000      -0.409487       -11.1427
  29   1.0000      -0.401268       -10.9190
  30   1.0000      -0.370180       -10.0731
  31   1.0000      -0.366259        -9.9664
  32   1.0000      -0.362268        -9.8578
  33   1.0000      -0.333217        -9.0673
  34   1.0000      -0.307870        -8.3776
  35   1.0000      -0.288658        -7.8548
  36   1.0000      -0.237393        -6.4598
  37   0.0000      -0.082945        -2.2570
  38   0.0000      -0.076687        -2.0868
  39   0.0000      -0.038672        -1.0523
  40   0.0000       0.005092         0.1385
  41   0.0000       0.006876         0.1871

                 SPIN DOWN ORBITALS
  NO   OCC          E(Eh)            E(eV)
   0   1.0000     -88.633400     -2411.8374
   1   1.0000     -19.049082      -518.3519
   2   1.0000     -10.159056      -276.4420
   3   1.0000     -10.134045      -275.7614
   4   1.0000     -10.099320      -274.8165
   5   1.0000     -10.091388      -274.6006
   6   1.0000     -10.087910      -274.5060
   7   1.0000     -10.082442      -274.3572
   8   1.0000     -10.082255      -274.3521
   9   1.0000      -7.926754      -215.6979
  10   1.0000      -5.872427      -159.7969
  11   1.0000      -5.868228      -159.6826
  12   1.0000      -5.865166      -159.5993
  13   1.0000      -1.087630       -29.5959
  14   1.0000      -0.876627       -23.8542
  15   1.0000      -0.802906       -21.8482
  16   1.0000      -0.768440       -20.9103
  17   1.0000      -0.731812       -19.9136
  18   1.0000      -0.676039       -18.3959
  19   1.0000      -0.623012       -16.9530
  20   1.0000      -0.590142       -16.0586
  21   1.0000      -0.537988       -14.6394
  22   1.0000      -0.508247       -13.8301
  23   1.0000      -0.482159       -13.1202
  24   1.0000      -0.464082       -12.6283
  25   1.0000      -0.445957       -12.1351
  26   1.0000      -0.435684       -11.8556
  27   1.0000      -0.422162       -11.4876
  28   1.0000      -0.399462       -10.8699
  29   1.0000      -0.393640       -10.7115
  30   1.0000      -0.368306       -10.0221
  31   1.0000      -0.357882        -9.7385
  32   1.0000      -0.349635        -9.5141
  33   1.0000      -0.330204        -8.9853
  34   1.0000      -0.288332        -7.8459
  35   1.0000      -0.281802        -7.6682
  36   0.0000      -0.205993        -5.6054
  37   0.0000      -0.067853        -1.8464
  38   0.0000      -0.055131        -1.5002
  39   0.0000      -0.035890        -0.9766
  40   0.0000       0.006780         0.1845

MULLIKEN ATOMIC CHARGES AND SPIN POPULATIONS
--------------------------------------------
   0 C :    0.851938    0.184480
   1 C :   -0.590918   -0.022742
   2 C :   -0.789087    0.055893
   3 C :    1.211388    0.163810
   4 C :   -0.172915    0.019330
   5 C :   -0.790417    0.053387
   6 H :    0.443457    0.000344
   7 H :    0.444791    0.014308
   8 O :   -0.611967    0.176145
   9 C :   -0.621649   -0.016064
  10 H :    0.249985   -0.001015
  11 H :    0.284578    0.007579
  12 H :    0.284212    0.007609
  13 H :    0.567620    0.007472
  14 H :    0.293016    0.000771
  15 S :   -0.219901    0.392456
  16 H :    0.165869   -0.043763
Sum of atomic charges         :    1.0000000

LOEWDIN ATOMIC CHARGES AND SPIN POPULATIONS
-------------------------------------------
   0 C :   -0.538441    0.163579
   1 C :    0.180866    0.042598
   2 C :    0.264162    0.064993
   3 C :   -0.342079    0.127681
   4 C :    0.266042    0.061776
   5 C :    0.166213    0.061179
   6 H :   -0.167387    0.003608
   7 H :   -0.170350    0.006277
   8 O :    0.653595    0.149098
   9 C :    0.450054    0.015112
  10 H :   -0.165185   -0.000423
  11 H :   -0.156640    0.004168
  12 H :   -0.156443    0.004162
  13 H :   -0.150608    0.007397
  14 H :   -0.169840   -0.000462
  15 S :    1.507919    0.251791
  16 H :   -0.471880    0.037466

  Mayer bond orders larger than 0.100000
B(  0-C ,  1-C ) :   0.7665 B(  0-C ,  5-C ) :   0.9542 B(  0-C , 15-S ) :   0.4707
B(  1-C ,  2-C ) :   1.3948 B(  1-C ,  3-C ) :  -0.2914 B(  1-C , 14-H ) :   0.7658
B(  2-C ,  3-C ) :   0.5829 B(  2-C ,  4-C ) :   0.1360 B(  2-C ,  8-O ) :   0.3098
B(  2-C , 13-H ) :   0.3163 B(  3-C ,  4-C ) :   0.8122 B(  3-C ,  5-C ) :  -0.2934
B(  3-C ,  8-O ) :   0.4684 B(  4-C ,  5-C ) :   1.0358 B(  4-C ,  7-H ) :   0.4363
B(  4-C ,  8-O ) :  -0.1462 B(  4-C ,  9-C ) :  -0.1224 B(  4-C , 15-S ) :   0.1273
B(  5-C ,  6-H ) :   0.6323 B(  5-C , 15-S ) :   0.1405 B(  8-O ,  9-C ) :   0.9470
B(  9-C , 10-H ) :   0.9708 B(  9-C , 11-H ) :   0.8948 B(  9-C , 12-H ) :   0.8950
B( 15-S , 16-H ) :   1.0397

Dispersion correction           -0.005470378
FINAL SINGLE POINT ENERGY      -744.704285150482

DIPOLE MOMENT
-------------

Method             : SCF
Type of density    : Electron Density
Multiplicity       :   2
Irrep              :   0
Energy             :  -744.6988147721109499 Eh
Relativity type    :
Basis              : AO
                                X                 Y                 Z
Electronic contribution:      7.630890462       0.919813753       0.002365483
Nuclear contribution   :     -7.926123959      -1.070217374      -0.002885032
                        -----------------------------------------
Total Dipole Moment    :     -0.295233496      -0.150403621      -0.000519549
                        -----------------------------------------
Magnitude (a.u.)       :      0.331337195
Magnitude (Debye)      :      0.842192218

Rotational constants in cm-1:             0.154624             0.023843             0.020740
Rotational constants in MHz :          4635.517204           714.803223           621.783557

                             ****ORCA TERMINATED NORMALLY****
TOTAL RUN TIME: 0 days 0 hours 15 minutes 47 seconds 533 msec
