                         Program Version 6.0.0  -   RELEASE  -
|  1> !B3LYP aug-cc-pVTZ d3 TightSCF SlowConv RIJCOSX defgrid2
|  2>
|  3> %pal
|  4> nprocs 4
|  5> end
|  6>
|  7> %scf
|  8> MaxIter 1500
|  9> end
| 10>
| 11> %maxcore 3000
| 12>
| 13> !CPCM
| 14> %cpcm smd true
| 15> SMDsolvent "MeCN"
| 16> surfacetype gepol_ses
| 17> rsolv 2.19
| 18> end
| 19>
| 20> * xyz 0 1
| 21> C          -0.89224376281729     -0.45495718467486     -0.01145470130558
| 22> C          -2.16594085102826      0.11833701228886      0.04668156393021
| 23> C          -2.30980722961896      1.50552350730743      0.05266514185606
| 24> C          -1.18730292615774      2.32642588045932     -0.00578599682476
| 25> C           0.07848662017989      1.74980637635100     -0.06895843233769
| 26> C           0.26274712675783      0.36232202146058     -0.06567493940899
| 27> C           1.58397696911678     -0.26992063342449     -0.12469546497205
| 28> C           2.76363236463117      0.32107143728729      0.12304590513021
| 29> C           4.08799267811931     -0.36052851109315      0.03291116341555
| 30> H           3.98056842183658     -1.41840521263657     -0.26057190910370
| 31> H           4.74505082715594      0.13479691399593     -0.70730718173092
| 32> H           4.62530006868567     -0.32442135861975      0.99958986880157
| 33> H           2.78503020251791      1.37712737104795      0.42569396767337
| 34> H           1.57849606749139     -1.33419620856152     -0.38398649131753
| 35> H           0.95757732762518      2.39636581691597     -0.14038478463746
| 36> H          -1.29519718094620      3.41448711016187     -0.01311105785373
| 37> H          -3.31277371923385      1.94023584815831      0.09753461625361
| 38> H          -3.05632729029775     -0.51114095186127      0.09086976233295
| 39> O          -0.67674575407500     -1.78893966045310     -0.01378813421896
| 40> C          -1.76950811946695     -2.65856738104043      0.02444914878564
| 41> H          -2.43311749477465     -2.52415123007072     -0.85159816615208
| 42> H          -2.36466392584911     -2.52857531091088      0.94882566481095
| 43> H          -1.35670891985190     -3.67848395208777      0.00674595687332
| 44> *
| 45>
| 46>                          ****END OF INPUT****

CARTESIAN COORDINATES (ANGSTROEM)
---------------------------------
  C     -0.892244   -0.454957   -0.011455
  C     -2.165941    0.118337    0.046682
  C     -2.309807    1.505524    0.052665
  C     -1.187303    2.326426   -0.005786
  C      0.078487    1.749806   -0.068958
  C      0.262747    0.362322   -0.065675
  C      1.583977   -0.269921   -0.124695
  C      2.763632    0.321071    0.123046
  C      4.087993   -0.360529    0.032911
  H      3.980568   -1.418405   -0.260572
  H      4.745051    0.134797   -0.707307
  H      4.625300   -0.324421    0.999590
  H      2.785030    1.377127    0.425694
  H      1.578496   -1.334196   -0.383986
  H      0.957577    2.396366   -0.140385
  H     -1.295197    3.414487   -0.013111
  H     -3.312774    1.940236    0.097535
  H     -3.056327   -0.511141    0.090870
  O     -0.676746   -1.788940   -0.013788
  C     -1.769508   -2.658567    0.024449
  H     -2.433117   -2.524151   -0.851598
  H     -2.364664   -2.528575    0.948826
  H     -1.356709   -3.678484    0.006746

 Total Charge           Charge          ....    0
 Multiplicity           Mult            ....    1
 Number of Electrons    NEL             ....   80
 Basis Dimension        Dim             ....  782

ORBITAL ENERGIES
----------------

  NO   OCC          E(Eh)            E(eV)
   0   2.0000     -19.159638      -521.3603
   1   2.0000     -10.235491      -278.5219
   2   2.0000     -10.214528      -277.9514
   3   2.0000     -10.182227      -277.0725
   4   2.0000     -10.174877      -276.8725
   5   2.0000     -10.173876      -276.8452
   6   2.0000     -10.173531      -276.8359
   7   2.0000     -10.171665      -276.7851
   8   2.0000     -10.168022      -276.6859
   9   2.0000     -10.167994      -276.6852
  10   2.0000     -10.162293      -276.5301
  11   2.0000      -1.076115       -29.2826
  12   2.0000      -0.856358       -23.3027
  13   2.0000      -0.797155       -21.6917
  14   2.0000      -0.756028       -20.5726
  15   2.0000      -0.743927       -20.2433
  16   2.0000      -0.694247       -18.8914
  17   2.0000      -0.671252       -18.2657
  18   2.0000      -0.610794       -16.6205
  19   2.0000      -0.584159       -15.8958
  20   2.0000      -0.544804       -14.8249
  21   2.0000      -0.528646       -14.3852
  22   2.0000      -0.489176       -13.3111
  23   2.0000      -0.477331       -12.9888
  24   2.0000      -0.467523       -12.7219
  25   2.0000      -0.444318       -12.0905
  26   2.0000      -0.432907       -11.7800
  27   2.0000      -0.417656       -11.3650
  28   2.0000      -0.405719       -11.0402
  29   2.0000      -0.402515       -10.9530
  30   2.0000      -0.381827       -10.3900
  31   2.0000      -0.379371       -10.3232
  32   2.0000      -0.361655        -9.8411
  33   2.0000      -0.357192        -9.7197
  34   2.0000      -0.337615        -9.1870
  35   2.0000      -0.322660        -8.7800
  36   2.0000      -0.318398        -8.6641
  37   2.0000      -0.293420        -7.9844
  38   2.0000      -0.239109        -6.5065
  39   2.0000      -0.211028        -5.7424
  40   0.0000      -0.038067        -1.0359
  41   0.0000      -0.003362        -0.0915
  42   0.0000       0.000414         0.0113
  43   0.0000       0.005827         0.1586
  44   0.0000       0.007952         0.2164

MULLIKEN ATOMIC CHARGES
-----------------------
   0 C :    0.643736
   1 C :   -0.659710
   2 C :   -0.283988
   3 C :   -0.820455
   4 C :   -0.614998
   5 C :    1.309609
   6 C :    0.087293
   7 C :   -0.393966
   8 C :   -0.745915
   9 H :    0.242439
  10 H :    0.216360
  11 H :    0.183225
  12 H :    0.220647
  13 H :    0.111011
  14 H :   -0.162416
  15 H :    0.580926
  16 H :    0.335517
  17 H :    0.535116
  18 O :   -0.844536
  19 C :   -0.771269
  20 H :    0.314443
  21 H :    0.317197
  22 H :    0.199735
Sum of atomic charges:    0.0000000

LOEWDIN ATOMIC CHARGES
----------------------
   0 C :   -0.376087
   1 C :    0.196280
   2 C :    0.175795
   3 C :    0.178738
   4 C :    0.186895
   5 C :   -0.137213
   6 C :    0.191280
   7 C :    0.195234
   8 C :    0.540278
   9 H :   -0.172351
  10 H :   -0.162930
  11 H :   -0.163260
  12 H :   -0.178174
  13 H :   -0.204903
  14 H :   -0.178215
  15 H :   -0.174457
  16 H :   -0.168974
  17 H :   -0.191041
  18 O :    0.605242
  19 C :    0.318991
  20 H :   -0.157343
  21 H :   -0.157926
  22 H :   -0.165858

  Mayer bond orders larger than 0.100000
B(  0-C ,  1-C ) :   1.2260 B(  0-C ,  2-C ) :  -0.4955 B(  0-C ,  3-C ) :   0.1999
B(  0-C ,  4-C ) :  -1.1603 B(  0-C ,  5-C ) :   0.6534 B(  0-C ,  6-C ) :   0.1098
B(  0-C ,  7-C ) :   0.2025 B(  0-C , 16-H ) :   0.3479 B(  0-C , 17-H ) :  -0.1814
B(  0-C , 18-O ) :   0.5160 B(  1-C ,  2-C ) :   0.8074 B(  1-C ,  3-C ) :   0.3416
B(  1-C ,  5-C ) :   0.2427 B(  1-C , 14-H ) :  -0.1321 B(  1-C , 16-H ) :  -0.1244
B(  1-C , 17-H ) :   0.2263 B(  2-C ,  3-C ) :   1.1268 B(  2-C ,  4-C ) :  -0.3296
B(  2-C ,  6-C ) :   0.1444 B(  2-C , 15-H ) :   0.1178 B(  2-C , 16-H ) :   0.9122
B(  2-C , 17-H ) :   0.2564 B(  3-C ,  4-C ) :   0.9903 B(  3-C ,  5-C ) :   0.2650
B(  3-C , 14-H ) :  -0.1080 B(  3-C , 15-H ) :   0.3115 B(  3-C , 16-H ) :  -0.1438
B(  3-C , 17-H ) :  -0.1636 B(  4-C ,  5-C ) :   0.8282 B(  4-C ,  6-C ) :   0.2988
B(  4-C , 14-H ) :   1.8491 B(  4-C , 17-H ) :   0.2140 B(  5-C , 12-H ) :  -0.1147
B(  5-C , 14-H ) :  -0.1984 B(  5-C , 16-H ) :  -0.2126 B(  5-C , 17-H ) :   0.1508
B(  6-C ,  7-C ) :   0.8530 B(  6-C , 13-H ) :   1.1274 B(  7-C ,  8-C ) :   0.7142
B(  7-C , 12-H ) :   1.1108 B(  7-C , 13-H ) :  -0.1187 B(  8-C ,  9-H ) :   0.9519
B(  8-C , 10-H ) :   0.9951 B(  8-C , 11-H ) :   1.0348 B( 14-H , 17-H ) :  -0.1136
B( 17-H , 19-C ) :  -0.1168 B( 18-O , 19-C ) :   1.1546 B( 19-C , 20-H ) :   0.8839
B( 19-C , 21-H ) :   0.8753 B( 19-C , 22-H ) :   1.0344

Dispersion correction           -0.039405005
FINAL SINGLE POINT ENERGY      -463.418037809367

DIPOLE MOMENT
-------------

Method             : SCF
Type of density    : Electron Density
Multiplicity       :   1
Irrep              :   0
Energy             :  -463.3786328039995510 Eh
Relativity type    :
Basis              : AO
                                X                 Y                 Z
Electronic contribution:     -4.942315353       2.484602325      -0.160377166
Nuclear contribution   :      4.581656227      -2.893948868       0.196564691
                        -----------------------------------------
Total Dipole Moment    :     -0.360659127      -0.409346543       0.036187524
                        -----------------------------------------
Magnitude (a.u.)       :      0.546762412
Magnitude (Debye)      :      1.389759604

Rotational constants in cm-1:             0.050912             0.026902             0.017755
Rotational constants in MHz :          1526.296449           806.510912           532.292368

                             ****ORCA TERMINATED NORMALLY****
TOTAL RUN TIME: 0 days 0 hours 6 minutes 29 seconds 269 msec
