                         Program Version 6.0.0  -   RELEASE  -
|  1> !r2SCAN aug-cc-pVTZ d3 TightSCF SlowConv RIJCOSX defgrid2
|  2>
|  3> %pal
|  4> nprocs 15
|  5> end
|  6>
|  7> %scf
|  8> MaxIter 1500
|  9> end
| 10>
| 11> %maxcore 3500
| 12>
| 13> !CPCM
| 14> %cpcm smd true
| 15> SMDsolvent "WATER"
| 16> surfacetype gepol_ses
| 17> rsolv 1.40
| 18> end
| 19>
| 20> * xyz -1 2
| 21> C          -0.06058974015319     -0.02786640637996     -0.06636687374245
| 22> C          -0.02915253757207      1.41200889322469      0.08669635331984
| 23> C           0.02798442423532      2.03233434330205      1.32981811902407
| 24> C           0.05891841826264      1.28851377532912      2.57222906271290
| 25> C           0.02788466230184     -0.17442785622153      2.44488354658359
| 26> C          -0.02912762559812     -0.80604792656199      1.17894588306731
| 27> C          -0.05600083532212     -2.21190043304611      1.11490808218194
| 28> C          -0.02778223638882     -2.97912152092029      2.26676120872945
| 29> C           0.02864253401367     -2.35043181295908      3.52692854346035
| 30> C           0.05574276936416     -0.96875665770795      3.60660845784379
| 31> H           0.09961725693663     -0.44137362844551      4.56397519772263
| 32> H           0.05097367878843     -2.95610213708649      4.44040440744309
| 33> H          -0.04909796692647     -4.07320599895043      2.20123731713864
| 34> H          -0.09984497496410     -2.65971392423461      0.11785465933687
| 35> C           0.06118565181994      3.52761243856941      1.44630550499102
| 36> H          -0.83631875455019      3.99924775120952      0.99973118694746
| 37> H           0.10955815705607      3.79661097587730      2.51364550587021
| 38> H           0.93630443757164      3.96465252836867      0.92646488630537
| 39> C          -0.06070223464566      2.21802482702039     -1.17830606330920
| 40> H           0.83706819273596      2.85838996312933     -1.28473705482212
| 41> H          -0.10791860033235      1.52690469530484     -2.03502370536211
| 42> H          -0.93579834377862      2.89621056380490     -1.21654993473529
| 43> O           0.10927738480662      1.83885022543947      3.69657300623271
| 44> O          -0.11082371766120     -0.59470609206575     -1.18250068694010
| 45> *
| 46>
| 47>                          ****END OF INPUT****

CARTESIAN COORDINATES (ANGSTROEM)
---------------------------------
  C     -0.060590   -0.027866   -0.066367
  C     -0.029153    1.412009    0.086696
  C      0.027984    2.032334    1.329818
  C      0.058918    1.288514    2.572229
  C      0.027885   -0.174428    2.444884
  C     -0.029128   -0.806048    1.178946
  C     -0.056001   -2.211900    1.114908
  C     -0.027782   -2.979122    2.266761
  C      0.028643   -2.350432    3.526929
  C      0.055743   -0.968757    3.606608
  H      0.099617   -0.441374    4.563975
  H      0.050974   -2.956102    4.440404
  H     -0.049098   -4.073206    2.201237
  H     -0.099845   -2.659714    0.117855
  C      0.061186    3.527612    1.446306
  H     -0.836319    3.999248    0.999731
  H      0.109558    3.796611    2.513646
  H      0.936304    3.964653    0.926465
  C     -0.060702    2.218025   -1.178306
  H      0.837068    2.858390   -1.284737
  H     -0.107919    1.526905   -2.035024
  H     -0.935798    2.896211   -1.216550
  O      0.109277    1.838850    3.696573
  O     -0.110824   -0.594706   -1.182501

 Total Charge           Charge          ....   -1
 Multiplicity           Mult            ....    2
 Number of Electrons    NEL             ....   99
 Basis Dimension        Dim             ....  874

ORBITAL ENERGIES
----------------
                 SPIN UP ORBITALS
  NO   OCC          E(Eh)            E(eV)
   0   1.0000     -18.913853      -514.6721
   1   1.0000     -18.913797      -514.6706
   2   1.0000     -10.084723      -274.4193
   3   1.0000     -10.084684      -274.4182
   4   1.0000     -10.037093      -273.1232
   5   1.0000     -10.036701      -273.1125
   6   1.0000     -10.036150      -273.0975
   7   1.0000     -10.035777      -273.0874
   8   1.0000     -10.034086      -273.0414
   9   1.0000     -10.033972      -273.0383
  10   1.0000     -10.033956      -273.0378
  11   1.0000     -10.033622      -273.0287
  12   1.0000     -10.017940      -272.6020
  13   1.0000     -10.017926      -272.6016
  14   1.0000      -0.972241       -26.4560
  15   1.0000      -0.969972       -26.3943
  16   1.0000      -0.821386       -22.3510
  17   1.0000      -0.781439       -21.2640
  18   1.0000      -0.721538       -19.6341
  19   1.0000      -0.714186       -19.4340
  20   1.0000      -0.689675       -18.7670
  21   1.0000      -0.635650       -17.2969
  22   1.0000      -0.619025       -16.8445
  23   1.0000      -0.562712       -15.3122
  24   1.0000      -0.550393       -14.9770
  25   1.0000      -0.517272       -14.0757
  26   1.0000      -0.478215       -13.0129
  27   1.0000      -0.453197       -12.3321
  28   1.0000      -0.431852       -11.7513
  29   1.0000      -0.411898       -11.2083
  30   1.0000      -0.406830       -11.0704
  31   1.0000      -0.388884       -10.5821
  32   1.0000      -0.384958       -10.4752
  33   1.0000      -0.384698       -10.4682
  34   1.0000      -0.367511       -10.0005
  35   1.0000      -0.366301        -9.9675
  36   1.0000      -0.350621        -9.5409
  37   1.0000      -0.348919        -9.4946
  38   1.0000      -0.340378        -9.2621
  39   1.0000      -0.339896        -9.2490
  40   1.0000      -0.323353        -8.7989
  41   1.0000      -0.320958        -8.7337
  42   1.0000      -0.302784        -8.2392
  43   1.0000      -0.299209        -8.1419
  44   1.0000      -0.246067        -6.6958
  45   1.0000      -0.236675        -6.4403
  46   1.0000      -0.220106        -5.9894
  47   1.0000      -0.218250        -5.9389
  48   1.0000      -0.204208        -5.5568
  49   1.0000      -0.136988        -3.7276
  50   0.0000      -0.053653        -1.4600
  51   0.0000      -0.034393        -0.9359
  52   0.0000       0.003023         0.0823
  53   0.0000       0.017416         0.4739
  54   0.0000       0.020693         0.5631

                 SPIN DOWN ORBITALS
  NO   OCC          E(Eh)            E(eV)
   0   1.0000     -18.907433      -514.4974
   1   1.0000     -18.907370      -514.4957
   2   1.0000     -10.082278      -274.3527
   3   1.0000     -10.082243      -274.3518
   4   1.0000     -10.036654      -273.1112
   5   1.0000     -10.036263      -273.1006
   6   1.0000     -10.035543      -273.0810
   7   1.0000     -10.035173      -273.0709
   8   1.0000     -10.033853      -273.0350
   9   1.0000     -10.033840      -273.0347
  10   1.0000     -10.032530      -272.9990
  11   1.0000     -10.032067      -272.9864
  12   1.0000     -10.018058      -272.6052
  13   1.0000     -10.018043      -272.6048
  14   1.0000      -0.962613       -26.1940
  15   1.0000      -0.960240       -26.1295
  16   1.0000      -0.819162       -22.2905
  17   1.0000      -0.776984       -21.1428
  18   1.0000      -0.719300       -19.5732
  19   1.0000      -0.712038       -19.3756
  20   1.0000      -0.686069       -18.6689
  21   1.0000      -0.633665       -17.2429
  22   1.0000      -0.611932       -16.6515
  23   1.0000      -0.561711       -15.2849
  24   1.0000      -0.546652       -14.8751
  25   1.0000      -0.513894       -13.9838
  26   1.0000      -0.476506       -12.9664
  27   1.0000      -0.450487       -12.2584
  28   1.0000      -0.429533       -11.6882
  29   1.0000      -0.411049       -11.1852
  30   1.0000      -0.396695       -10.7946
  31   1.0000      -0.386874       -10.5274
  32   1.0000      -0.383156       -10.4262
  33   1.0000      -0.380976       -10.3669
  34   1.0000      -0.361014        -9.8237
  35   1.0000      -0.357100        -9.7172
  36   1.0000      -0.349388        -9.5073
  37   1.0000      -0.347941        -9.4680
  38   1.0000      -0.339230        -9.2309
  39   1.0000      -0.324507        -8.8303
  40   1.0000      -0.320099        -8.7103
  41   1.0000      -0.312521        -8.5041
  42   1.0000      -0.301454        -8.2030
  43   1.0000      -0.297854        -8.1050
  44   1.0000      -0.231324        -6.2947
  45   1.0000      -0.231254        -6.2927
  46   1.0000      -0.213325        -5.8049
  47   1.0000      -0.209980        -5.7139
  48   1.0000      -0.199269        -5.4224
  49   0.0000      -0.108330        -2.9478
  50   0.0000      -0.045943        -1.2502
  51   0.0000      -0.023761        -0.6466
  52   0.0000       0.004076         0.1109
  53   0.0000       0.018046         0.4911

MULLIKEN ATOMIC CHARGES AND SPIN POPULATIONS
--------------------------------------------
   0 C :    1.228915    0.135902
   1 C :    0.112307    0.085097
   2 C :    0.112308    0.084387
   3 C :    1.227760    0.136060
   4 C :    1.146767    0.026450
   5 C :    1.148001    0.027689
   6 C :   -1.183917    0.016216
   7 C :   -0.454787    0.026416
   8 C :   -0.455761    0.026130
   9 C :   -1.181703    0.016430
  10 H :   -0.034331   -0.009824
  11 H :    0.618407   -0.000342
  12 H :    0.616163   -0.000280
  13 H :   -0.034480   -0.009966
  14 C :   -0.953653   -0.004061
  15 H :    0.148218    0.006444
  16 H :    0.190435   -0.005260
  17 H :    0.147022    0.006372
  18 C :   -0.953095   -0.004181
  19 H :    0.147920    0.006500
  20 H :    0.189088   -0.005145
  21 H :    0.147429    0.006411
  22 O :   -1.464900    0.216196
  23 O :   -1.464112    0.216360
Sum of atomic charges         :   -1.0000000

LOEWDIN ATOMIC CHARGES AND SPIN POPULATIONS
-------------------------------------------
   0 C :   -0.606370    0.127626
   1 C :   -0.132300    0.085701
   2 C :   -0.132297    0.085593
   3 C :   -0.606497    0.127682
   4 C :   -0.151788    0.047631
   5 C :   -0.151762    0.047622
   6 C :    0.181621    0.013602
   7 C :    0.186961    0.019682
   8 C :    0.186947    0.019658
   9 C :    0.181541    0.013624
  10 H :   -0.199154    0.000836
  11 H :   -0.175119    0.003467
  12 H :   -0.175128    0.003477
  13 H :   -0.199076    0.000824
  14 C :    0.542264    0.012568
  15 H :   -0.155044    0.002776
  16 H :   -0.222114   -0.001107
  17 H :   -0.155498    0.002737
  18 C :    0.542308    0.012607
  19 H :   -0.155193    0.002780
  20 H :   -0.222256   -0.001109
  21 H :   -0.155355    0.002750
  22 O :    0.386503    0.184416
  23 O :    0.386806    0.184557

  Mayer bond orders larger than 0.100000
B(  0-C ,  1-C ) :   1.2688 B(  0-C ,  2-C ) :  -0.5304 B(  0-C ,  3-C ) :   0.9780
B(  0-C ,  4-C ) :  -0.4781 B(  0-C ,  5-C ) :   0.6429 B(  0-C ,  6-C ) :   0.6430
B(  0-C ,  7-C ) :   0.1026 B(  0-C ,  9-C ) :  -0.1222 B(  0-C , 23-O ) :  -0.3192
B(  1-C ,  2-C ) :   1.0754 B(  1-C ,  3-C ) :  -0.5318 B(  1-C ,  4-C ) :  -0.1927
B(  1-C ,  5-C ) :   0.8093 B(  1-C , 18-C ) :   0.1852 B(  1-C , 19-H ) :  -0.1682
B(  1-C , 21-H ) :  -0.1682 B(  1-C , 22-O ) :   0.1126 B(  1-C , 23-O ) :   0.3694
B(  2-C ,  3-C ) :   1.2686 B(  2-C ,  4-C ) :   0.8075 B(  2-C ,  5-C ) :  -0.1921
B(  2-C , 14-C ) :   0.1842 B(  2-C , 15-H ) :  -0.1683 B(  2-C , 17-H ) :  -0.1676
B(  2-C , 22-O ) :   0.3709 B(  2-C , 23-O ) :   0.1123 B(  3-C ,  4-C ) :   0.6442
B(  3-C ,  5-C ) :  -0.4798 B(  3-C ,  6-C ) :  -0.1216 B(  3-C ,  8-C ) :   0.1030
B(  3-C ,  9-C ) :   0.6437 B(  3-C , 22-O ) :  -0.3167 B(  4-C ,  5-C ) :   0.8184
B(  4-C ,  6-C ) :  -0.6706 B(  4-C ,  7-C ) :  -0.2171 B(  4-C ,  8-C ) :  -0.1368
B(  4-C ,  9-C ) :  -0.5074 B(  4-C , 10-H ) :  -0.1718 B(  4-C , 18-C ) :  -0.1004
B(  4-C , 22-O ) :   0.3544 B(  5-C ,  6-C ) :  -0.5073 B(  5-C ,  7-C ) :  -0.1375
B(  5-C ,  8-C ) :  -0.2163 B(  5-C ,  9-C ) :  -0.6704 B(  5-C , 13-H ) :  -0.1716
B(  5-C , 14-C ) :  -0.1009 B(  5-C , 23-O ) :   0.3569 B(  6-C ,  7-C ) :   1.1377
B(  6-C ,  9-C ) :  -0.1041 B(  6-C , 12-H ) :  -0.1173 B(  6-C , 13-H ) :   1.1769
B(  7-C ,  8-C ) :   0.9777 B(  7-C , 12-H ) :   0.3000 B(  8-C ,  9-C ) :   1.1348
B(  8-C , 11-H ) :   0.2978 B(  9-C , 10-H ) :   1.1775 B(  9-C , 11-H ) :  -0.1179
B( 10-H , 22-O ) :   0.2207 B( 13-H , 23-O ) :   0.2202 B( 14-C , 15-H ) :   1.1215
B( 14-C , 16-H ) :   0.9022 B( 14-C , 17-H ) :   1.1231 B( 18-C , 19-H ) :   1.1214
B( 18-C , 20-H ) :   0.9044 B( 18-C , 21-H ) :   1.1220

Dispersion correction           -0.009321094
FINAL SINGLE POINT ENERGY      -613.796211067410

DIPOLE MOMENT
-------------

Method             : SCF
Type of density    : Electron Density
Multiplicity       :   2
Irrep              :   0
Energy             :  -613.7868899739080462 Eh
Relativity type    :
Basis              : AO
                                X                 Y                 Z
Electronic contribution:     -0.006405488      -6.737811249       3.358587576
Nuclear contribution   :      0.007077470       6.336292283      -3.161748014
                        -----------------------------------------
Total Dipole Moment    :      0.000671982      -0.401518966       0.196839562
                        -----------------------------------------
Magnitude (a.u.)       :      0.447173060
Magnitude (Debye)      :      1.136623589

Rotational constants in cm-1:             0.036449             0.021992             0.013787
Rotational constants in MHz :          1092.703549           659.301071           413.332938

                             ****ORCA TERMINATED NORMALLY****
TOTAL RUN TIME: 0 days 0 hours 19 minutes 37 seconds 21 msec
