                         Program Version 6.0.0  -   RELEASE  -
|  1> !r2SCAN aug-cc-pVTZ d3 TightSCF SlowConv RIJCOSX defgrid2
|  2>
|  3> %pal
|  4> nprocs 4
|  5> end
|  6>
|  7> %scf
|  8> MaxIter 1500
|  9> end
| 10>
| 11> %maxcore 3000
| 12>
| 13> !CPCM
| 14> %cpcm smd true
| 15> SMDsolvent "MeCN"
| 16> surfacetype gepol_ses
| 17> rsolv 2.19
| 18> end
| 19>
| 20> * xyz 0 1
| 21> C           4.13966964128756      1.20735034805801      0.00018109983423
| 22> C           4.83985938717942      0.00012909944918     -0.00011080706815
| 23> C           4.13977283020272     -1.20715138721907     -0.00030540880609
| 24> C           2.74896974902717     -1.21166073629652     -0.00020947111922
| 25> C           2.03371707188302      0.00000535590610      0.00007936492405
| 26> C           2.74886648576486      1.21173557633403      0.00027305110837
| 27> H           2.19700573398250      2.15507580320245      0.00050096603306
| 28> C           0.60926575165477     -0.00003899905682      0.00017121398327
| 29> C          -0.60926677013399     -0.00011851011831      0.00032726130009
| 30> C          -2.03371710027454     -0.00005107798655      0.00019494163829
| 31> C          -2.74898416366441     -1.21170960248422      0.00036780306847
| 32> C          -4.13978643826222     -1.20718728138590      0.00021041667338
| 33> C          -4.83985863236214      0.00010214935927     -0.00011716793755
| 34> C          -4.13965447812715      1.20731478629068     -0.00028483680888
| 35> C          -2.74885097774675      1.21168640857502     -0.00012607465811
| 36> H          -2.19698244285642      2.15502223469334     -0.00025694123114
| 37> H          -4.68454348342066      2.15603211713716     -0.00054208004626
| 38> H          -5.93383287072922      0.00016036307699     -0.00023936958784
| 39> H          -4.68478251870500     -2.15584320000508      0.00034538941345
| 40> H          -2.19721645884462     -2.15510431633366      0.00062541194967
| 41> H           2.19719446528860     -2.15505107012925     -0.00036096765238
| 42> H           4.68475743011085     -2.15581340727935     -0.00053331434756
| 43> H           5.93383355030704      0.00017426906263     -0.00018342642694
| 44> H           4.68456993843861      2.15606107714988      0.00033824576380
| 45> *
| 46>
| 47>                          ****END OF INPUT****

CARTESIAN COORDINATES (ANGSTROEM)
---------------------------------
  C      4.139670    1.207350    0.000181
  C      4.839859    0.000129   -0.000111
  C      4.139773   -1.207151   -0.000305
  C      2.748970   -1.211661   -0.000209
  C      2.033717    0.000005    0.000079
  C      2.748866    1.211736    0.000273
  H      2.197006    2.155076    0.000501
  C      0.609266   -0.000039    0.000171
  C     -0.609267   -0.000119    0.000327
  C     -2.033717   -0.000051    0.000195
  C     -2.748984   -1.211710    0.000368
  C     -4.139786   -1.207187    0.000210
  C     -4.839859    0.000102   -0.000117
  C     -4.139654    1.207315   -0.000285
  C     -2.748851    1.211686   -0.000126
  H     -2.196982    2.155022   -0.000257
  H     -4.684543    2.156032   -0.000542
  H     -5.933833    0.000160   -0.000239
  H     -4.684783   -2.155843    0.000345
  H     -2.197216   -2.155104    0.000625
  H      2.197194   -2.155051   -0.000361
  H      4.684757   -2.155813   -0.000533
  H      5.933834    0.000174   -0.000183
  H      4.684570    2.156061    0.000338

 Total Charge           Charge          ....    0
 Multiplicity           Mult            ....    1
 Number of Electrons    NEL             ....   94
 Basis Dimension        Dim             ....  874

ORBITAL ENERGIES
----------------

  NO   OCC          E(Eh)            E(eV)
   0   2.0000     -10.074380      -274.1378
   1   2.0000     -10.074375      -274.1377
   2   2.0000     -10.049781      -273.4684
   3   2.0000     -10.049774      -273.4683
   4   2.0000     -10.049764      -273.4680
   5   2.0000     -10.049763      -273.4679
   6   2.0000     -10.049759      -273.4679
   7   2.0000     -10.047764      -273.4136
   8   2.0000     -10.046312      -273.3740
   9   2.0000     -10.046310      -273.3740
  10   2.0000     -10.046070      -273.3674
  11   2.0000     -10.046068      -273.3674
  12   2.0000     -10.045656      -273.3562
  13   2.0000     -10.045654      -273.3561
  14   2.0000      -0.836987       -22.7756
  15   2.0000      -0.833565       -22.6825
  16   2.0000      -0.765093       -20.8192
  17   2.0000      -0.739438       -20.1211
  18   2.0000      -0.720483       -19.6053
  19   2.0000      -0.720337       -19.6014
  20   2.0000      -0.689428       -18.7603
  21   2.0000      -0.606947       -16.5159
  22   2.0000      -0.579309       -15.7638
  23   2.0000      -0.578013       -15.7285
  24   2.0000      -0.577978       -15.7276
  25   2.0000      -0.515439       -14.0258
  26   2.0000      -0.498420       -13.5627
  27   2.0000      -0.454206       -12.3596
  28   2.0000      -0.442369       -12.0375
  29   2.0000      -0.431973       -11.7546
  30   2.0000      -0.427187       -11.6244
  31   2.0000      -0.405818       -11.0429
  32   2.0000      -0.400230       -10.8908
  33   2.0000      -0.391187       -10.6447
  34   2.0000      -0.390896       -10.6368
  35   2.0000      -0.371338       -10.1046
  36   2.0000      -0.359233        -9.7752
  37   2.0000      -0.329235        -8.9589
  38   2.0000      -0.325045        -8.8449
  39   2.0000      -0.319863        -8.7039
  40   2.0000      -0.315607        -8.5881
  41   2.0000      -0.305788        -8.3209
  42   2.0000      -0.262008        -7.1296
  43   2.0000      -0.255985        -6.9657
  44   2.0000      -0.246587        -6.7100
  45   2.0000      -0.246497        -6.7075
  46   2.0000      -0.207546        -5.6476
  47   0.0000      -0.083180        -2.2634
  48   0.0000      -0.043657        -1.1880
  49   0.0000      -0.042252        -1.1497
  50   0.0000      -0.029836        -0.8119
  51   0.0000       0.002626         0.0715

MULLIKEN ATOMIC CHARGES
-----------------------
   0 C :   -0.741851
   1 C :    0.110056
   2 C :   -0.741919
   3 C :   -1.144333
   4 C :    1.805235
   5 C :   -1.144408
   6 H :   -0.400457
   7 C :    1.124308
   8 C :    1.123000
   9 C :    1.805289
  10 C :   -1.144431
  11 C :   -0.741937
  12 C :    0.110098
  13 C :   -0.741910
  14 C :   -1.144385
  15 H :   -0.400369
  16 H :    0.565604
  17 H :    0.403141
  18 H :    0.565655
  19 H :   -0.400440
  20 H :   -0.400435
  21 H :    0.565661
  22 H :    0.403142
  23 H :    0.565685
Sum of atomic charges:   -0.0000000

LOEWDIN ATOMIC CHARGES
----------------------
   0 C :    0.194007
   1 C :    0.191543
   2 C :    0.194004
   3 C :    0.194262
   4 C :   -0.220176
   5 C :    0.194264
   6 H :   -0.163678
   7 C :    0.084268
   8 C :    0.084259
   9 C :   -0.220185
  10 C :    0.194260
  11 C :    0.194006
  12 C :    0.191544
  13 C :    0.194008
  14 C :    0.194264
  15 H :   -0.163677
  16 H :   -0.167947
  17 H :   -0.168912
  18 H :   -0.167948
  19 H :   -0.163680
  20 H :   -0.163679
  21 H :   -0.167948
  22 H :   -0.168912
  23 H :   -0.167947

  Mayer bond orders larger than 0.100000
B(  0-C ,  1-C ) :   0.9873 B(  0-C ,  2-C ) :   0.3449 B(  0-C ,  3-C ) :   0.1380
B(  0-C ,  4-C ) :   0.2530 B(  0-C ,  5-C ) :   1.2190 B(  0-C ,  6-H ) :  -0.1272
B(  0-C ,  7-C ) :   0.5956 B(  0-C ,  8-C ) :  -0.7638 B(  0-C , 20-H ) :  -0.1302
B(  0-C , 22-H ) :  -0.1073 B(  0-C , 23-H ) :   0.3491 B(  1-C ,  2-C ) :   0.9873
B(  1-C ,  3-C ) :  -0.4505 B(  1-C ,  4-C ) :  -0.2270 B(  1-C ,  5-C ) :  -0.4505
B(  1-C ,  6-H ) :  -0.1441 B(  1-C ,  7-C ) :  -0.2051 B(  1-C ,  8-C ) :   0.9402
B(  1-C , 20-H ) :  -0.1441 B(  1-C , 21-H ) :   0.1452 B(  1-C , 22-H ) :   0.7269
B(  1-C , 23-H ) :   0.1452 B(  2-C ,  3-C ) :   1.2191 B(  2-C ,  4-C ) :   0.2530
B(  2-C ,  5-C ) :   0.1381 B(  2-C ,  6-H ) :  -0.1301 B(  2-C ,  7-C ) :   0.5954
B(  2-C ,  8-C ) :  -0.7638 B(  2-C , 20-H ) :  -0.1272 B(  2-C , 21-H ) :   0.3491
B(  2-C , 22-H ) :  -0.1073 B(  3-C ,  5-C ) :  -0.9420 B(  3-C ,  6-H ) :   0.3571
B(  3-C ,  8-C ) :   0.1166 B(  3-C , 20-H ) :   2.4786 B(  3-C , 21-H ) :  -0.2222
B(  4-C ,  6-H ) :   0.1108 B(  4-C ,  7-C ) :   0.2056 B(  4-C ,  8-C ) :  -0.2109
B(  4-C ,  9-C ) :   0.2793 B(  4-C , 15-H ) :  -0.1543 B(  4-C , 16-H ) :   0.1527
B(  4-C , 17-H ) :  -0.1058 B(  4-C , 18-H ) :   0.1527 B(  4-C , 19-H ) :  -0.1543
B(  4-C , 20-H ) :   0.1107 B(  5-C ,  6-H ) :   2.4787 B(  5-C ,  8-C ) :   0.1164
B(  5-C , 20-H ) :   0.3571 B(  5-C , 23-H ) :  -0.2223 B(  6-H ,  7-C ) :  -0.7077
B(  6-H ,  8-C ) :  -0.5737 B(  6-H ,  9-C ) :  -0.1543 B(  6-H , 20-H ) :   0.6316
B(  6-H , 21-H ) :  -0.1720 B(  7-C ,  8-C ) :   5.2359 B(  7-C ,  9-C ) :  -0.2111
B(  7-C , 10-C ) :   0.1161 B(  7-C , 11-C ) :  -0.7635 B(  7-C , 12-C ) :   0.9404
B(  7-C , 13-C ) :  -0.7638 B(  7-C , 14-C ) :   0.1162 B(  7-C , 15-H ) :  -0.5736
B(  7-C , 17-H ) :   0.5172 B(  7-C , 19-H ) :  -0.5739 B(  7-C , 20-H ) :  -0.7076
B(  7-C , 21-H ) :   0.3147 B(  7-C , 22-H ) :  -0.5312 B(  7-C , 23-H ) :   0.3146
B(  8-C ,  9-C ) :   0.2060 B(  8-C , 11-C ) :   0.5951 B(  8-C , 12-C ) :  -0.2051
B(  8-C , 13-C ) :   0.5953 B(  8-C , 15-H ) :  -0.7076 B(  8-C , 16-H ) :   0.3150
B(  8-C , 17-H ) :  -0.5308 B(  8-C , 18-H ) :   0.3148 B(  8-C , 19-H ) :  -0.7076
B(  8-C , 20-H ) :  -0.5736 B(  8-C , 22-H ) :   0.5175 B(  9-C , 11-C ) :   0.2531
B(  9-C , 12-C ) :  -0.2270 B(  9-C , 13-C ) :   0.2532 B(  9-C , 15-H ) :   0.1108
B(  9-C , 19-H ) :   0.1109 B(  9-C , 20-H ) :  -0.1543 B(  9-C , 21-H ) :   0.1527
B(  9-C , 22-H ) :  -0.1058 B(  9-C , 23-H ) :   0.1527 B( 10-C , 11-C ) :   1.2190
B( 10-C , 12-C ) :  -0.4506 B( 10-C , 13-C ) :   0.1382 B( 10-C , 14-C ) :  -0.9420
B( 10-C , 15-H ) :   0.3571 B( 10-C , 18-H ) :  -0.2222 B( 10-C , 19-H ) :   2.4786
B( 11-C , 12-C ) :   0.9873 B( 11-C , 13-C ) :   0.3448 B( 11-C , 14-C ) :   0.1379
B( 11-C , 15-H ) :  -0.1302 B( 11-C , 17-H ) :  -0.1073 B( 11-C , 18-H ) :   0.3491
B( 11-C , 19-H ) :  -0.1272 B( 12-C , 13-C ) :   0.9872 B( 12-C , 14-C ) :  -0.4505
B( 12-C , 15-H ) :  -0.1441 B( 12-C , 16-H ) :   0.1452 B( 12-C , 17-H ) :   0.7270
B( 12-C , 18-H ) :   0.1452 B( 12-C , 19-H ) :  -0.1441 B( 13-C , 14-C ) :   1.2191
B( 13-C , 15-H ) :  -0.1272 B( 13-C , 16-H ) :   0.3493 B( 13-C , 17-H ) :  -0.1073
B( 13-C , 19-H ) :  -0.1301 B( 14-C , 15-H ) :   2.4786 B( 14-C , 16-H ) :  -0.2222
B( 14-C , 19-H ) :   0.3571 B( 15-H , 18-H ) :  -0.1720 B( 15-H , 19-H ) :   0.6316
B( 16-H , 19-H ) :  -0.1719 B( 20-H , 23-H ) :  -0.1720

Dispersion correction           -0.008275093
FINAL SINGLE POINT ENERGY      -539.354922284862

DIPOLE MOMENT
-------------

Method             : SCF
Type of density    : Electron Density
Multiplicity       :   1
Irrep              :   0
Energy             :  -539.3466471916972296 Eh
Relativity type    :
Basis              : AO
                                X                 Y                 Z
Electronic contribution:      0.000024438      -0.000227924       0.000465913
Nuclear contribution   :      0.000001470       0.000375094      -0.000682746
                        -----------------------------------------
Total Dipole Moment    :      0.000025908       0.000147169      -0.000216834
                        -----------------------------------------
Magnitude (a.u.)       :      0.000263338
Magnitude (Debye)      :      0.000669352

Rotational constants in cm-1:             0.094691             0.008279             0.007613
Rotational constants in MHz :          2838.770806           248.185899           228.232190

                             ****ORCA TERMINATED NORMALLY****
TOTAL RUN TIME: 0 days 0 hours 5 minutes 0 seconds 775 msec
