                         Program Version 6.0.0  -   RELEASE  -
|  1> !B3LYP aug-cc-pVTZ d3 TightSCF SlowConv RIJCOSX defgrid2
|  2>
|  3> %pal
|  4> nprocs 15
|  5> end
|  6>
|  7> %scf
|  8> MaxIter 1500
|  9> end
| 10>
| 11> %maxcore 3500
| 12>
| 13> !CPCM
| 14> %cpcm smd true
| 15> SMDsolvent "WATER"
| 16> surfacetype gepol_ses
| 17> rsolv 1.40
| 18> end
| 19>
| 20> * xyz 1 1
| 21> O           1.67418114371668      3.37941862349945      1.15434517451953
| 22> N           2.62064316767579      2.68353532320648      1.21821077363263
| 23> C           3.73993026379150      2.91054121006730      0.20970750682041
| 24> C           4.36130392564807      1.55615394201201     -0.16493097978128
| 25> C           4.62693950470140      0.69901335740602      1.05364249756333
| 26> C           3.36304153274566      0.38280475677984      1.82347271406070
| 27> C           2.67247724345731      1.65441275633349      2.34006156392482
| 28> C           4.77144659115805      3.82229180911963      0.90254364472309
| 29> C           3.13466064770778      3.61114644043461     -0.99676243427434
| 30> C           3.47911508845757      2.30037383127262      3.48367565566839
| 31> C           1.24267102320542      1.38466686141498      2.78223585653897
| 32> H           5.30435815962353      1.74905887837014     -0.69848543170310
| 33> H           3.68229748767712      1.01484427915689     -0.84850427599189
| 34> H           3.60305334396738     -0.25238254910522      2.68961476485432
| 35> H           2.66820679637278     -0.17392576731557      1.16878669341899
| 36> H           4.29271611598733      4.70860976879227      1.34923722277333
| 37> H           5.37253037929227      3.29729158675115      1.65830335398642
| 38> H           5.45774493444870      4.16825914256566      0.11223951897270
| 39> H           2.78695679630107      4.62736503748115     -0.75666206631619
| 40> H           2.29625873974227      3.03524814826618     -1.42272318664526
| 41> H           3.92087891841351      3.68882501387840     -1.76468511803900
| 42> H           3.10731631344064      3.31044562450783      3.71967690908610
| 43> H           4.55901147845801      2.33249422618085      3.28233095765611
| 44> H           3.32267627795631      1.66477199454961      4.37074941627309
| 45> H           0.78000313618024      2.26411165418521      3.25536747289543
| 46> H           0.61113911289273      1.05517880381548      1.94035363615987
| 47> H           1.27425600304513      0.57114720607980      3.52446186259019
| 48> O           5.72044769993566      0.34198636029372      1.39209682163264
| 49> *
| 50>
| 51>                          ****END OF INPUT****

CARTESIAN COORDINATES (ANGSTROEM)
---------------------------------
  O      1.674181    3.379419    1.154345
  N      2.620643    2.683535    1.218211
  C      3.739930    2.910541    0.209708
  C      4.361304    1.556154   -0.164931
  C      4.626940    0.699013    1.053642
  C      3.363042    0.382805    1.823473
  C      2.672477    1.654413    2.340062
  C      4.771447    3.822292    0.902544
  C      3.134661    3.611146   -0.996762
  C      3.479115    2.300374    3.483676
  C      1.242671    1.384667    2.782236
  H      5.304358    1.749059   -0.698485
  H      3.682297    1.014844   -0.848504
  H      3.603053   -0.252383    2.689615
  H      2.668207   -0.173926    1.168787
  H      4.292716    4.708610    1.349237
  H      5.372530    3.297292    1.658303
  H      5.457745    4.168259    0.112240
  H      2.786957    4.627365   -0.756662
  H      2.296259    3.035248   -1.422723
  H      3.920879    3.688825   -1.764685
  H      3.107316    3.310446    3.719677
  H      4.559011    2.332494    3.282331
  H      3.322676    1.664772    4.370749
  H      0.780003    2.264112    3.255367
  H      0.611139    1.055179    1.940354
  H      1.274256    0.571147    3.524462
  O      5.720448    0.341986    1.392097

 Total Charge           Charge          ....    1
 Multiplicity           Mult            ....    1
 Number of Electrons    NEL             ....   92
 Basis Dimension        Dim             ....  920

ORBITAL ENERGIES
----------------

  NO   OCC          E(Eh)            E(eV)
   0   2.0000     -19.273105      -524.4479
   1   2.0000     -19.151412      -521.1364
   2   2.0000     -14.562936      -396.2776
   3   2.0000     -10.290815      -280.0273
   4   2.0000     -10.279206      -279.7114
   5   2.0000     -10.279186      -279.7109
   6   2.0000     -10.204200      -277.6704
   7   2.0000     -10.204193      -277.6702
   8   2.0000     -10.193447      -277.3778
   9   2.0000     -10.193384      -277.3761
  10   2.0000     -10.182915      -277.0912
  11   2.0000     -10.182875      -277.0901
  12   2.0000      -1.279835       -34.8261
  13   2.0000      -1.083722       -29.4896
  14   2.0000      -0.932086       -25.3633
  15   2.0000      -0.869033       -23.6476
  16   2.0000      -0.788255       -21.4495
  17   2.0000      -0.758385       -20.6367
  18   2.0000      -0.723128       -19.6773
  19   2.0000      -0.720412       -19.6034
  20   2.0000      -0.709782       -19.3141
  21   2.0000      -0.660605       -17.9760
  22   2.0000      -0.609138       -16.5755
  23   2.0000      -0.584369       -15.9015
  24   2.0000      -0.564340       -15.3565
  25   2.0000      -0.542688       -14.7673
  26   2.0000      -0.520289       -14.1578
  27   2.0000      -0.492778       -13.4092
  28   2.0000      -0.487108       -13.2549
  29   2.0000      -0.477196       -12.9852
  30   2.0000      -0.457165       -12.4401
  31   2.0000      -0.448159       -12.1950
  32   2.0000      -0.427590       -11.6353
  33   2.0000      -0.427169       -11.6239
  34   2.0000      -0.417491       -11.3605
  35   2.0000      -0.416938       -11.3455
  36   2.0000      -0.403121       -10.9695
  37   2.0000      -0.395673       -10.7668
  38   2.0000      -0.392269       -10.6742
  39   2.0000      -0.390490       -10.6258
  40   2.0000      -0.379337       -10.3223
  41   2.0000      -0.372031       -10.1235
  42   2.0000      -0.369828       -10.0635
  43   2.0000      -0.364904        -9.9295
  44   2.0000      -0.339043        -9.2258
  45   2.0000      -0.280234        -7.6255
  46   0.0000      -0.170303        -4.6342
  47   0.0000      -0.052374        -1.4252
  48   0.0000      -0.005042        -0.1372
  49   0.0000       0.007955         0.2165
  50   0.0000       0.011160         0.3037

MULLIKEN ATOMIC CHARGES
-----------------------
   0 O :   -0.911380
   1 N :    0.754638
   2 C :    2.250684
   3 C :   -0.662943
   4 C :    1.292449
   5 C :   -0.665922
   6 C :    2.206429
   7 C :   -1.075705
   8 C :   -1.337211
   9 C :   -1.063487
  10 C :   -1.344612
  11 H :    0.150992
  12 H :    0.232955
  13 H :    0.145606
  14 H :    0.239939
  15 H :    0.204100
  16 H :    0.234312
  17 H :    0.043220
  18 H :    0.168466
  19 H :    0.205985
  20 H :    0.133399
  21 H :    0.203242
  22 H :    0.230712
  23 H :    0.045566
  24 H :    0.168501
  25 H :    0.200487
  26 H :    0.137882
  27 O :   -1.188305
Sum of atomic charges:    1.0000000

LOEWDIN ATOMIC CHARGES
----------------------
   0 O :    0.663718
   1 N :    0.015581
   2 C :   -0.368176
   3 C :    0.324629
   4 C :   -0.503542
   5 C :    0.324657
   6 C :   -0.368479
   7 C :    0.628408
   8 C :    0.591068
   9 C :    0.628433
  10 C :    0.591152
  11 H :   -0.114053
  12 H :   -0.102533
  13 H :   -0.113839
  14 H :   -0.102495
  15 H :   -0.118800
  16 H :   -0.162799
  17 H :   -0.118835
  18 H :   -0.143537
  19 H :   -0.130949
  20 H :   -0.127055
  21 H :   -0.118968
  22 H :   -0.163155
  23 H :   -0.118605
  24 H :   -0.143258
  25 H :   -0.130843
  26 H :   -0.127327
  27 O :    0.509601

  Mayer bond orders larger than 0.100000
B(  0-O ,  1-N ) :   0.6815 B(  0-O , 10-C ) :   0.1047 B(  1-N ,  2-C ) :   0.7239
B(  1-N ,  3-C ) :   0.1909 B(  1-N ,  5-C ) :   0.1864 B(  1-N ,  6-C ) :   0.7519
B(  1-N ,  8-C ) :  -0.1529 B(  1-N , 10-C ) :  -0.1702 B(  2-C ,  3-C ) :   0.4129
B(  2-C ,  6-C ) :   0.2242 B(  2-C ,  7-C ) :   0.1138 B(  2-C , 17-H ) :  -0.1444
B(  2-C , 19-H ) :  -0.1020 B(  3-C ,  4-C ) :   0.9019 B(  3-C ,  5-C ) :   0.1220
B(  3-C ,  7-C ) :   0.1305 B(  3-C , 11-H ) :   0.9631 B(  3-C , 12-H ) :   0.9742
B(  3-C , 27-O ) :   0.2505 B(  4-C ,  5-C ) :   0.8958 B(  5-C ,  6-C ) :   0.4039
B(  5-C ,  9-C ) :   0.1316 B(  5-C , 13-H ) :   0.9730 B(  5-C , 14-H ) :   0.9720
B(  5-C , 27-O ) :   0.2548 B(  6-C ,  9-C ) :   0.1456 B(  6-C , 23-H ) :  -0.1422
B(  6-C , 25-H ) :  -0.1024 B(  7-C ,  8-C ) :   0.1693 B(  7-C , 15-H ) :   1.0092
B(  7-C , 16-H ) :   0.9879 B(  7-C , 17-H ) :   1.2236 B(  8-C , 18-H ) :   1.0935
B(  8-C , 19-H ) :   1.0712 B(  8-C , 20-H ) :   1.1370 B(  9-C , 10-C ) :   0.1590
B(  9-C , 21-H ) :   1.0083 B(  9-C , 22-H ) :   0.9954 B(  9-C , 23-H ) :   1.2159
B( 10-C , 24-H ) :   1.0924 B( 10-C , 25-H ) :   1.0831 B( 10-C , 26-H ) :   1.1308

Dispersion correction           -0.053966322
FINAL SINGLE POINT ENERGY      -557.468974589481

DIPOLE MOMENT
-------------

Method             : SCF
Type of density    : Electron Density
Multiplicity       :   1
Irrep              :   0
Energy             :  -557.4150082673965017 Eh
Relativity type    :
Basis              : AO
                                X                 Y                 Z
Electronic contribution:      0.271620747      -2.664550490      -1.426513450
Nuclear contribution   :     -1.867094982       3.503684408       1.120844434
                        -----------------------------------------
Total Dipole Moment    :     -1.595474235       0.839133917      -0.305669016
                        -----------------------------------------
Magnitude (a.u.)       :      1.828419348
Magnitude (Debye)      :      4.647472643

Rotational constants in cm-1:             0.036291             0.035500             0.023692
Rotational constants in MHz :          1087.981132          1064.262103           710.263902

                             ****ORCA TERMINATED NORMALLY****
TOTAL RUN TIME: 0 days 0 hours 6 minutes 21 seconds 139 msec
