                         Program Version 6.0.0  -   RELEASE  -
|  1> !PBE0 def2-SV(p) Opt Freq d3 TightSCF SlowConv RIJCOSX defgrid2
|  2>
|  3> %pal
|  4> nprocs 15
|  5> end
|  6>
|  7> %scf
|  8> MaxIter 1500
|  9> end
| 10>
| 11> %maxcore 3500
| 12>
| 13>
| 14>
| 15> * xyz 0 2
| 16> O        1.892148000      3.698010000      1.453118000
| 17> N        2.679299000      2.707472000      1.243603000
| 18> C        3.790696000      2.928351000      0.306337000
| 19> C        4.407191000      1.603078000     -0.074600000
| 20> C        4.673841000      0.680853000      1.061864000
| 21> C        3.381122000      0.396215000      1.757075000
| 22> C        2.704898000      1.678223000      2.337211000
| 23> C        4.793300000      3.830082000      0.961074000
| 24> C        3.182734000      3.627420000     -0.941233000
| 25> C        3.472850000      2.208787000      3.551450000
| 26> C        1.288453000      1.395862000      2.733227000
| 27> H        4.976756000      1.817126000     -0.895203000
| 28> H        3.824828000      1.202309000     -0.926948000
| 29> H        3.662704000     -0.118409000      2.827668000
| 30> H        2.468112000     -0.323348000      1.756281000
| 31> H        4.230136000      4.611128000      1.320584000
| 32> H        6.000692000      3.631975000      1.130115000
| 33> H        5.514322000      4.219466000      0.035713000
| 34> H        2.576906000      4.387972000     -0.761082000
| 35> H        2.235594000      2.907857000     -1.086466000
| 36> H        4.112810000      3.727613000     -1.578510000
| 37> H        2.815824000      3.199326000      3.745886000
| 38> H        4.330396000      2.356799000      2.674499000
| 39> H        3.199800000      1.286562000      4.341101000
| 40> H        0.486370000      2.236112000      3.064167000
| 41> H        0.678358000      1.029249000      1.818183000
| 42> H        1.104998000      0.710455000      3.492722000
| 43> O        5.961123826      0.151143320      1.430524525
| 44> *
| 45>
| 46>                          ****END OF INPUT****
 Total Charge           Charge          ....    0
 Multiplicity           Mult            ....    2
 Number of Electrons    NEL             ....   93
Dispersion correction           -0.028554065
FINAL SINGLE POINT ENERGY      -556.317146309538
Dispersion correction             ... done (  0.1 sec)
Dispersion correction           -0.028468258
FINAL SINGLE POINT ENERGY      -556.419142354564
Dispersion correction             ... done (  0.1 sec)
Dispersion correction           -0.028471372
FINAL SINGLE POINT ENERGY      -556.498437243172
Dispersion correction             ... done (  0.1 sec)
FINAL SINGLE POINT ENERGY      -556.575061346925
FINAL SINGLE POINT ENERGY      -556.635486608406
FINAL SINGLE POINT ENERGY      -556.664576876593
FINAL SINGLE POINT ENERGY      -556.674463969941
FINAL SINGLE POINT ENERGY      -556.677300929502
FINAL SINGLE POINT ENERGY      -556.678680182663
FINAL SINGLE POINT ENERGY      -556.679139067314
FINAL SINGLE POINT ENERGY      -556.679244677823
FINAL SINGLE POINT ENERGY      -556.679300492827
FINAL SINGLE POINT ENERGY      -556.679318827463
Dispersion correction             ... done (  0.1 sec)
Dispersion correction           -0.028604152
FINAL SINGLE POINT ENERGY      -556.679323471521
Dispersion correction             ... done (  0.1 sec)
Dispersion correction           -0.028605687
FINAL SINGLE POINT ENERGY      -556.679325445734
Dispersion correction             ... done (  0.1 sec)
                    ***********************HURRAY********************

CARTESIAN COORDINATES (ANGSTROEM)
---------------------------------
  O      1.865562    3.667781    1.419340
  N      2.639110    2.689332    1.230015
  C      3.730802    2.905358    0.241811
  C      4.360938    1.559217   -0.153370
  C      4.631728    0.702621    1.056672
  C      3.373447    0.395309    1.826913
  C      2.689937    1.680667    2.323423
  C      4.791479    3.835828    0.841532
  C      3.106459    3.558224   -0.988118
  C      3.445997    2.261139    3.524265
  C      1.249311    1.371717    2.722135
  H      5.298545    1.733801   -0.702821
  H      3.660726    1.015059   -0.813079
  H      3.610146   -0.256052    2.682105
  H      2.679286   -0.141914    1.155135
  H      4.299731    4.726808    1.264911
  H      5.379620    3.342024    1.631645
  H      5.494131    4.160499    0.055467
  H      2.692055    4.544583   -0.733486
  H      2.289242    2.932628   -1.385145
  H      3.872863    3.678585   -1.772270
  H      3.048716    3.263048    3.755016
  H      4.529271    2.338878    3.337852
  H      3.304304    1.613698    4.406213
  H      0.758961    2.268737    3.127977
  H      0.670808    1.027772    1.848005
  H      1.241221    0.576617    3.486434
  O      5.731865    0.335727    1.389785

 Multiplicity           Mult            ....    2
 Number of Electrons    NEL             ....   93
 Basis Dimension        Dim             ....  200

ORBITAL ENERGIES
----------------
                 SPIN UP ORBITALS
  NO   OCC          E(Eh)            E(eV)
   0   1.0000     -19.212854      -522.8083
   1   1.0000     -19.209907      -522.7281
   2   1.0000     -14.485202      -394.1624
   3   1.0000     -10.328623      -281.0561
   4   1.0000     -10.298020      -280.2234
   5   1.0000     -10.297936      -280.2211
   6   1.0000     -10.246664      -278.8259
   7   1.0000     -10.246599      -278.8241
   8   1.0000     -10.230343      -278.3818
   9   1.0000     -10.230296      -278.3805
  10   1.0000     -10.226814      -278.2858
  11   1.0000     -10.226747      -278.2839
  12   1.0000      -1.134684       -30.8763
  13   1.0000      -1.071140       -29.1472
  14   1.0000      -0.902082       -24.5469
  15   1.0000      -0.856450       -23.3052
  16   1.0000      -0.776349       -21.1255
  17   1.0000      -0.744974       -20.2718
  18   1.0000      -0.721685       -19.6380
  19   1.0000      -0.719698       -19.5840
  20   1.0000      -0.709417       -19.3042
  21   1.0000      -0.627030       -17.0624
  22   1.0000      -0.581130       -15.8133
  23   1.0000      -0.539513       -14.6809
  24   1.0000      -0.525977       -14.3126
  25   1.0000      -0.512748       -13.9526
  26   1.0000      -0.497474       -13.5370
  27   1.0000      -0.488393       -13.2898
  28   1.0000      -0.486056       -13.2263
  29   1.0000      -0.459543       -12.5048
  30   1.0000      -0.457653       -12.4534
  31   1.0000      -0.435980       -11.8636
  32   1.0000      -0.427629       -11.6364
  33   1.0000      -0.416480       -11.3330
  34   1.0000      -0.410141       -11.1605
  35   1.0000      -0.409152       -11.1336
  36   1.0000      -0.397079       -10.8051
  37   1.0000      -0.395296       -10.7565
  38   1.0000      -0.393070       -10.6960
  39   1.0000      -0.388753       -10.5785
  40   1.0000      -0.365884        -9.9562
  41   1.0000      -0.364923        -9.9301
  42   1.0000      -0.360257        -9.8031
  43   1.0000      -0.354460        -9.6454
  44   1.0000      -0.277860        -7.5610
  45   1.0000      -0.265317        -7.2196
  46   1.0000      -0.213619        -5.8129
  47   0.0000      -0.024706        -0.6723
  48   0.0000       0.055909         1.5214
  49   0.0000       0.076461         2.0806
  50   0.0000       0.079021         2.1503
  51   0.0000       0.093627         2.5477

                 SPIN DOWN ORBITALS
  NO   OCC          E(Eh)            E(eV)
   0   1.0000     -19.209867      -522.7270
   1   1.0000     -19.197265      -522.3841
   2   1.0000     -14.473999      -393.8575
   3   1.0000     -10.328641      -281.0566
   4   1.0000     -10.298478      -280.2358
   5   1.0000     -10.298392      -280.2335
   6   1.0000     -10.246602      -278.8242
   7   1.0000     -10.246537      -278.8224
   8   1.0000     -10.229736      -278.3653
   9   1.0000     -10.229689      -278.3640
  10   1.0000     -10.226598      -278.2799
  11   1.0000     -10.226533      -278.2781
  12   1.0000      -1.109241       -30.1840
  13   1.0000      -1.070999       -29.1434
  14   1.0000      -0.892213       -24.2783
  15   1.0000      -0.855340       -23.2750
  16   1.0000      -0.771771       -21.0009
  17   1.0000      -0.730289       -19.8722
  18   1.0000      -0.721362       -19.6292
  19   1.0000      -0.717171       -19.5152
  20   1.0000      -0.708322       -19.2744
  21   1.0000      -0.623910       -16.9775
  22   1.0000      -0.579465       -15.7681
  23   1.0000      -0.530980       -14.4487
  24   1.0000      -0.524394       -14.2695
  25   1.0000      -0.501721       -13.6525
  26   1.0000      -0.487627       -13.2690
  27   1.0000      -0.486110       -13.2277
  28   1.0000      -0.470970       -12.8157
  29   1.0000      -0.457401       -12.4465
  30   1.0000      -0.455173       -12.3859
  31   1.0000      -0.427010       -11.6195
  32   1.0000      -0.423839       -11.5333
  33   1.0000      -0.415551       -11.3077
  34   1.0000      -0.408409       -11.1134
  35   1.0000      -0.407634       -11.0923
  36   1.0000      -0.394880       -10.7452
  37   1.0000      -0.391328       -10.6486
  38   1.0000      -0.390820       -10.6348
  39   1.0000      -0.377935       -10.2841
  40   1.0000      -0.364071        -9.9069
  41   1.0000      -0.359080        -9.7711
  42   1.0000      -0.356873        -9.7110
  43   1.0000      -0.327726        -8.9179
  44   1.0000      -0.268417        -7.3040
  45   1.0000      -0.261631        -7.1194
  46   0.0000      -0.048052        -1.3076
  47   0.0000      -0.023155        -0.6301
  48   0.0000       0.057162         1.5555
  49   0.0000       0.077950         2.1211
  50   0.0000       0.079330         2.1587

MULLIKEN ATOMIC CHARGES AND SPIN POPULATIONS
--------------------------------------------
   0 O :   -0.291450    0.533168
   1 N :   -0.056687    0.430099
   2 C :   -0.211791   -0.018161
   3 C :   -0.111634    0.004459
   4 C :    0.051344   -0.001584
   5 C :   -0.112478    0.004414
   6 C :   -0.210404   -0.018173
   7 C :   -0.268158    0.028092
   8 C :   -0.247164    0.005081
   9 C :   -0.269033    0.028112
  10 C :   -0.247944    0.005186
  11 H :    0.128974   -0.000879
  12 H :    0.129032    0.000575
  13 H :    0.129326   -0.000884
  14 H :    0.129019    0.000570
  15 H :    0.146852   -0.001640
  16 H :    0.146728   -0.001033
  17 H :    0.129969    0.003431
  18 H :    0.154023   -0.001137
  19 H :    0.126756    0.001008
  20 H :    0.124873   -0.001389
  21 H :    0.146991   -0.001598
  22 H :    0.146997   -0.001051
  23 H :    0.130123    0.003396
  24 H :    0.154062   -0.001133
  25 H :    0.126679    0.000998
  26 H :    0.125066   -0.001390
  27 O :   -0.200071    0.001463
Sum of atomic charges         :   -0.0000000

LOEWDIN ATOMIC CHARGES AND SPIN POPULATIONS
-------------------------------------------
   0 O :   -0.231941    0.523189
   1 N :    0.084504    0.416388
   2 C :   -0.048527   -0.004128
   3 C :   -0.232979    0.002529
   4 C :    0.058434    0.000471
   5 C :   -0.233015    0.002500
   6 C :   -0.048355   -0.004160
   7 C :   -0.329695    0.023949
   8 C :   -0.326034    0.007631
   9 C :   -0.329878    0.023931
  10 C :   -0.326007    0.007720
  11 H :    0.140113   -0.000574
  12 H :    0.140121    0.000318
  13 H :    0.140161   -0.000578
  14 H :    0.140199    0.000311
  15 H :    0.133280   -0.000462
  16 H :    0.124556   -0.000612
  17 H :    0.128802    0.002414
  18 H :    0.135365   -0.000753
  19 H :    0.124373    0.000013
  20 H :    0.125159   -0.001069
  21 H :    0.133354   -0.000420
  22 H :    0.124523   -0.000625
  23 H :    0.128791    0.002403
  24 H :    0.135343   -0.000750
  25 H :    0.124300    0.000008
  26 H :    0.125149   -0.001071
  27 O :   -0.140094    0.001428

  Mayer bond orders larger than 0.100000
B(  0-O ,  1-N ) :   1.4416 B(  1-N ,  2-C ) :   0.8660 B(  1-N ,  6-C ) :   0.8659
B(  2-C ,  3-C ) :   1.0151 B(  2-C ,  7-C ) :   1.0568 B(  2-C ,  8-C ) :   1.0730
B(  3-C ,  4-C ) :   1.0107 B(  3-C , 11-H ) :   0.9004 B(  3-C , 12-H ) :   0.8932
B(  4-C ,  5-C ) :   1.0108 B(  4-C , 27-O ) :   2.1702 B(  5-C ,  6-C ) :   1.0152
B(  5-C , 13-H ) :   0.9005 B(  5-C , 14-H ) :   0.8930 B(  6-C ,  9-C ) :   1.0565
B(  6-C , 10-C ) :   1.0726 B(  7-C , 15-H ) :   0.9349 B(  7-C , 16-H ) :   0.9316
B(  7-C , 17-H ) :   0.9410 B(  8-C , 18-H ) :   0.9333 B(  8-C , 19-H ) :   0.9411
B(  8-C , 20-H ) :   0.9412 B(  9-C , 21-H ) :   0.9346 B(  9-C , 22-H ) :   0.9318
B(  9-C , 23-H ) :   0.9411 B( 10-C , 24-H ) :   0.9335 B( 10-C , 25-H ) :   0.9412
B( 10-C , 26-H ) :   0.9412

Dispersion correction           -0.028607719
FINAL SINGLE POINT ENERGY      -556.679325962889

DIPOLE MOMENT
-------------

Method             : SCF
Type of density    : Electron Density
Multiplicity       :   2
Irrep              :   0
Energy             :  -556.6507182441589521 Eh
Relativity type    :
Basis              : AO
                                X                 Y                 Z
Electronic contribution:      2.111079107      -3.212341709      -0.843463826
Nuclear contribution   :     -2.339550433       2.955416228       0.579005487
                        -----------------------------------------
Total Dipole Moment    :     -0.228471327      -0.256925481      -0.264458339
                        -----------------------------------------
Magnitude (a.u.)       :      0.433760375
Magnitude (Debye)      :      1.102531254

VIBRATIONAL FREQUENCIES
-----------------------

Scaling factor for frequencies =  1.000000000  (already applied!)

     0:       0.00 cm**-1
     1:       0.00 cm**-1
     2:       0.00 cm**-1
     3:       0.00 cm**-1
     4:       0.00 cm**-1
     5:       0.00 cm**-1
     6:      74.62 cm**-1
     7:      78.05 cm**-1
     8:     101.12 cm**-1
     9:     200.50 cm**-1
    10:     220.62 cm**-1
    11:     250.96 cm**-1
    12:     257.25 cm**-1
    13:     275.24 cm**-1
    14:     279.71 cm**-1
    15:     300.51 cm**-1
    16:     329.04 cm**-1
    17:     334.34 cm**-1
    18:     361.09 cm**-1
    19:     361.68 cm**-1
    20:     403.07 cm**-1
    21:     425.45 cm**-1
    22:     454.30 cm**-1
    23:     513.12 cm**-1
    24:     530.20 cm**-1
    25:     569.38 cm**-1
    26:     582.19 cm**-1
    27:     627.34 cm**-1
    28:     748.40 cm**-1
    29:     815.81 cm**-1
    30:     879.55 cm**-1
    31:     884.95 cm**-1
    32:     912.87 cm**-1
    33:     952.96 cm**-1
    34:     958.58 cm**-1
    35:     958.93 cm**-1
    36:     962.33 cm**-1
    37:    1008.87 cm**-1
    38:    1010.53 cm**-1
    39:    1043.68 cm**-1
    40:    1075.66 cm**-1
    41:    1099.27 cm**-1
    42:    1169.93 cm**-1
    43:    1199.97 cm**-1
    44:    1228.58 cm**-1
    45:    1228.64 cm**-1
    46:    1261.30 cm**-1
    47:    1276.84 cm**-1
    48:    1287.91 cm**-1
    49:    1305.24 cm**-1
    50:    1351.46 cm**-1
    51:    1355.01 cm**-1
    52:    1388.20 cm**-1
    53:    1392.43 cm**-1
    54:    1402.83 cm**-1
    55:    1404.44 cm**-1
    56:    1445.77 cm**-1
    57:    1457.58 cm**-1
    58:    1459.20 cm**-1
    59:    1468.27 cm**-1
    60:    1468.70 cm**-1
    61:    1476.70 cm**-1
    62:    1480.96 cm**-1
    63:    1491.06 cm**-1
    64:    1494.00 cm**-1
    65:    1494.99 cm**-1
    66:    1507.73 cm**-1
    67:    1879.26 cm**-1
    68:    3048.61 cm**-1
    69:    3049.77 cm**-1
    70:    3051.85 cm**-1
    71:    3054.30 cm**-1
    72:    3054.63 cm**-1
    73:    3058.82 cm**-1
    74:    3140.25 cm**-1
    75:    3141.63 cm**-1
    76:    3141.99 cm**-1
    77:    3144.70 cm**-1
    78:    3146.28 cm**-1
    79:    3148.20 cm**-1
    80:    3156.90 cm**-1
    81:    3163.23 cm**-1
    82:    3174.90 cm**-1
    83:    3175.76 cm**-1

IR SPECTRUM
-----------

 Mode   freq       eps      Int      T**2         TX        TY        TZ
       cm**-1   L/(mol*cm) km/mol    a.u.
----------------------------------------------------------------------------
  6:     74.62   0.001492    7.54  0.006241  ( 0.028967  0.055049  0.048695)
  7:     78.05   0.000154    0.78  0.000616  (-0.011488 -0.014660  0.016419)
  8:    101.12   0.000119    0.60  0.000367  ( 0.012341 -0.014504 -0.002107)
  9:    200.50   0.000262    1.32  0.000407  (-0.012473 -0.010285 -0.012085)
 10:    220.62   0.000015    0.08  0.000021  (-0.001518 -0.001667  0.004013)
 11:    250.96   0.000110    0.55  0.000136  ( 0.004684  0.007980  0.007112)
 12:    257.25   0.000045    0.23  0.000055  ( 0.002730  0.003162 -0.006088)
 13:    275.24   0.000246    1.24  0.000279  ( 0.006613  0.008294 -0.012897)
 14:    279.71   0.000057    0.29  0.000064  (-0.000460  0.006457  0.004709)
 15:    300.51   0.000000    0.00  0.000000  ( 0.000267  0.000294 -0.000318)
 16:    329.04   0.000026    0.13  0.000025  (-0.003160  0.003793  0.000704)
 17:    334.34   0.000101    0.51  0.000094  ( 0.007346 -0.006350 -0.000210)
 18:    361.09   0.000010    0.05  0.000008  ( 0.000895 -0.002524 -0.001078)
 19:    361.68   0.000001    0.00  0.000000  ( 0.000172 -0.000622 -0.000168)
 20:    403.07   0.002473   12.50  0.001915  (-0.017288 -0.020345  0.034670)
 21:    425.45   0.000088    0.45  0.000065  (-0.007445  0.002289 -0.002003)
 22:    454.30   0.000483    2.44  0.000332  ( 0.007123  0.008533 -0.014437)
 23:    513.12   0.004178   21.11  0.002541  (-0.019890 -0.023558  0.039876)
 24:    530.20   0.000795    4.02  0.000468  (-0.007914  0.018771  0.007259)
 25:    569.38   0.001140    5.76  0.000625  ( 0.002048  0.020974  0.013438)
 26:    582.19   0.000001    0.00  0.000000  (-0.000174 -0.000429  0.000280)
 27:    627.34   0.000258    1.30  0.000128  ( 0.004366  0.007920  0.006819)
 28:    748.40   0.000569    2.87  0.000237  ( 0.013261 -0.007490  0.002271)
 29:    815.81   0.000114    0.58  0.000044  (-0.002612 -0.003143  0.005203)
 30:    879.55   0.000454    2.30  0.000161  (-0.011184  0.005491 -0.002449)
 31:    884.95   0.000070    0.36  0.000025  ( 0.002045  0.002272 -0.003939)
 32:    912.87   0.000649    3.28  0.000222  ( 0.010953 -0.010085 -0.000490)
 33:    952.96   0.000043    0.22  0.000014  (-0.001359 -0.001552  0.003158)
 34:    958.58   0.000211    1.07  0.000069  ( 0.004207  0.006426  0.003106)
 35:    958.93   0.000172    0.87  0.000056  ( 0.001569  0.001688 -0.007107)
 36:    962.33   0.000114    0.57  0.000037  (-0.005557  0.002043 -0.001348)
 37:   1008.87   0.000160    0.81  0.000049  (-0.002547  0.005971  0.002690)
 38:   1010.53   0.000081    0.41  0.000025  ( 0.001764  0.002868 -0.003700)
 39:   1043.68   0.000025    0.13  0.000007  (-0.001742  0.002080  0.000318)
 40:   1075.66   0.000941    4.76  0.000273  (-0.006526 -0.007747  0.013054)
 41:   1099.27   0.000358    1.81  0.000102  (-0.003924 -0.004694  0.008010)
 42:   1169.93   0.000380    1.92  0.000101  (-0.003297 -0.007413 -0.005964)
 43:   1199.97   0.000670    3.38  0.000174  (-0.005232 -0.006250  0.010378)
 44:   1228.58   0.001488    7.52  0.000378  ( 0.005726 -0.011991 -0.014187)
 45:   1228.64   0.001329    6.72  0.000338  ( 0.005353  0.014960 -0.009229)
 46:   1261.30   0.006812   34.42  0.001685  (-0.015879 -0.019630  0.032371)
 47:   1276.84   0.005789   29.26  0.001415  ( 0.023037 -0.029034 -0.006419)
 48:   1287.91   0.001654    8.36  0.000401  ( 0.014795  0.007085  0.011474)
 49:   1305.24   0.000552    2.79  0.000132  ( 0.004370  0.005563 -0.009050)
 50:   1351.46   0.005811   29.37  0.001342  ( 0.023344 -0.027663 -0.005623)
 51:   1355.01   0.014635   73.96  0.003370  (-0.022703 -0.027281  0.045942)
 52:   1388.20   0.001285    6.49  0.000289  (-0.006910 -0.008202  0.013182)
 53:   1392.43   0.006547   33.09  0.001467  (-0.031005 -0.008130 -0.020975)
 54:   1402.83   0.003261   16.48  0.000725  (-0.010942 -0.012744  0.021052)
 55:   1404.44   0.001693    8.56  0.000376  ( 0.003541 -0.017074 -0.008494)
 56:   1445.77   0.003780   19.10  0.000816  ( 0.011352  0.013279 -0.022597)
 57:   1457.58   0.000400    2.02  0.000086  ( 0.002954 -0.008252 -0.002974)
 58:   1459.20   0.000009    0.04  0.000002  ( 0.000597 -0.000134 -0.001212)
 59:   1468.27   0.000197    0.99  0.000042  ( 0.002781  0.003660 -0.004547)
 60:   1468.70   0.003088   15.61  0.000656  (-0.004968 -0.020367 -0.014721)
 61:   1476.70   0.001057    5.34  0.000223  (-0.010262 -0.006525 -0.008693)
 62:   1480.96   0.000106    0.53  0.000022  (-0.001666 -0.002109  0.003882)
 63:   1491.06   0.003186   16.10  0.000667  (-0.010510 -0.011526  0.020582)
 64:   1494.00   0.001205    6.09  0.000252  (-0.010616  0.011786  0.000331)
 65:   1494.99   0.000175    0.88  0.000036  ( 0.000886 -0.005246 -0.002861)
 66:   1507.73   0.001518    7.67  0.000314  ( 0.013445 -0.011553  0.000039)
 67:   1879.26   0.039967  201.98  0.006637  ( 0.072138 -0.034439  0.015711)
 68:   3048.61   0.000215    1.09  0.000022  (-0.000704 -0.001281  0.004458)
 69:   3049.77   0.000037    0.19  0.000004  (-0.001692 -0.000771  0.000598)
 70:   3051.85   0.004571   23.10  0.000467  (-0.015864 -0.007622 -0.012554)
 71:   3054.30   0.000568    2.87  0.000058  (-0.001303 -0.003133 -0.006821)
 72:   3054.63   0.003353   16.95  0.000343  ( 0.008238  0.010079 -0.013157)
 73:   3058.82   0.002081   10.52  0.000212  ( 0.003597  0.010786  0.009114)
 74:   3140.25   0.000337    1.71  0.000034  (-0.000932 -0.003069  0.004821)
 75:   3141.63   0.000044    0.22  0.000004  (-0.001204  0.001708  0.000038)
 76:   3141.99   0.001468    7.42  0.000146  (-0.004681 -0.005305  0.009786)
 77:   3144.70   0.002707   13.68  0.000269  ( 0.013311  0.007309  0.006166)
 78:   3146.28   0.007502   37.91  0.000744  ( 0.009610  0.011770 -0.022654)
 79:   3148.20   0.000812    4.10  0.000080  ( 0.008354 -0.002097  0.002500)
 80:   3156.90   0.000109    0.55  0.000011  (-0.001658 -0.001303  0.002509)
 81:   3163.23   0.001636    8.27  0.000161  ( 0.010794 -0.006227  0.002476)
 82:   3174.90   0.000395    2.00  0.000039  (-0.000640  0.005959  0.001706)
 83:   3175.76   0.000897    4.53  0.000088  (-0.001612  0.008062  0.004533)

--------------------------
THERMOCHEMISTRY AT 298.15K
--------------------------

Temperature         ...   298.15 K
Pressure            ...     1.00 atm
Total Mass          ...   170.23 AMU
Quasi RRHO          ...     True
Cut-Off Frequency   ...     1.00 cm^-1

Throughout the following assumptions are being made:
  (1) The electronic state is orbitally nondegenerate
      but the spin degeneracy is treated
  (2) There are no thermally accessible electronically excited states
  (3) Hindered rotations indicated by low frequency modes are not
      treated as such but are treated as vibrations and this may
      cause some error
  (4) All equations used are the standard statistical mechanics
      equations for an ideal gas
  (5) All vibrations are strictly harmonic

freq.      74.62  E(vib)   ...       0.49
freq.      78.05  E(vib)   ...       0.49
freq.     101.12  E(vib)   ...       0.46
freq.     200.50  E(vib)   ...       0.35
freq.     220.62  E(vib)   ...       0.33
freq.     250.96  E(vib)   ...       0.30
freq.     257.25  E(vib)   ...       0.30
freq.     275.24  E(vib)   ...       0.28
freq.     279.71  E(vib)   ...       0.28
freq.     300.51  E(vib)   ...       0.26
freq.     329.04  E(vib)   ...       0.24
freq.     334.34  E(vib)   ...       0.24
freq.     361.09  E(vib)   ...       0.22
freq.     361.68  E(vib)   ...       0.22
freq.     403.07  E(vib)   ...       0.19
freq.     425.45  E(vib)   ...       0.18
freq.     454.30  E(vib)   ...       0.16
freq.     513.12  E(vib)   ...       0.13
freq.     530.20  E(vib)   ...       0.13
freq.     569.38  E(vib)   ...       0.11
freq.     582.19  E(vib)   ...       0.11
freq.     627.34  E(vib)   ...       0.09
freq.     748.40  E(vib)   ...       0.06
freq.     815.81  E(vib)   ...       0.05
freq.     879.55  E(vib)   ...       0.04
freq.     884.95  E(vib)   ...       0.04
freq.     912.87  E(vib)   ...       0.03
freq.     952.96  E(vib)   ...       0.03
freq.     958.58  E(vib)   ...       0.03
freq.     958.93  E(vib)   ...       0.03
freq.     962.33  E(vib)   ...       0.03
freq.    1008.87  E(vib)   ...       0.02
freq.    1010.53  E(vib)   ...       0.02
freq.    1043.68  E(vib)   ...       0.02
freq.    1075.66  E(vib)   ...       0.02
freq.    1099.27  E(vib)   ...       0.02
freq.    1169.93  E(vib)   ...       0.01
freq.    1199.97  E(vib)   ...       0.01
freq.    1228.58  E(vib)   ...       0.01
freq.    1228.64  E(vib)   ...       0.01
freq.    1261.30  E(vib)   ...       0.01
freq.    1276.84  E(vib)   ...       0.01
freq.    1287.91  E(vib)   ...       0.01
freq.    1305.24  E(vib)   ...       0.01
freq.    1351.46  E(vib)   ...       0.01
freq.    1355.01  E(vib)   ...       0.01
freq.    1388.20  E(vib)   ...       0.00
freq.    1392.43  E(vib)   ...       0.00
freq.    1402.83  E(vib)   ...       0.00
freq.    1404.44  E(vib)   ...       0.00
freq.    1445.77  E(vib)   ...       0.00
freq.    1457.58  E(vib)   ...       0.00
freq.    1459.20  E(vib)   ...       0.00
freq.    1468.27  E(vib)   ...       0.00
freq.    1468.70  E(vib)   ...       0.00
freq.    1476.70  E(vib)   ...       0.00
freq.    1480.96  E(vib)   ...       0.00
freq.    1491.06  E(vib)   ...       0.00
freq.    1494.00  E(vib)   ...       0.00
freq.    1494.99  E(vib)   ...       0.00
freq.    1507.73  E(vib)   ...       0.00
freq.    1879.26  E(vib)   ...       0.00
freq.    3048.61  E(vib)   ...       0.00
freq.    3049.77  E(vib)   ...       0.00
freq.    3051.85  E(vib)   ...       0.00
freq.    3054.30  E(vib)   ...       0.00
freq.    3054.63  E(vib)   ...       0.00
freq.    3058.82  E(vib)   ...       0.00
freq.    3140.25  E(vib)   ...       0.00
freq.    3141.63  E(vib)   ...       0.00
freq.    3141.99  E(vib)   ...       0.00
freq.    3144.70  E(vib)   ...       0.00
freq.    3146.28  E(vib)   ...       0.00
freq.    3148.20  E(vib)   ...       0.00
freq.    3156.90  E(vib)   ...       0.00
freq.    3163.23  E(vib)   ...       0.00
freq.    3174.90  E(vib)   ...       0.00
freq.    3175.76  E(vib)   ...       0.00

------------
INNER ENERGY
------------

The inner energy is: U= E(el) + E(ZPE) + E(vib) + E(rot) + E(trans)
    E(el)   - is the total energy from the electronic structure calculation
              = E(kin-el) + E(nuc-el) + E(el-el) + E(nuc-nuc)
    E(ZPE)  - the the zero temperature vibrational energy from the frequency calculation
    E(vib)  - the the finite temperature correction to E(ZPE) due to population
              of excited vibrational states
    E(rot)  - is the rotational thermal energy
    E(trans)- is the translational thermal energy

Summary of contributions to the inner energy U:
Electronic energy                ...   -556.67932596 Eh
Zero point energy                ...      0.24392562 Eh     153.07 kcal/mol
Thermal vibrational correction   ...      0.00977299 Eh       6.13 kcal/mol
Thermal rotational correction    ...      0.00141627 Eh       0.89 kcal/mol
Thermal translational correction ...      0.00141627 Eh       0.89 kcal/mol
-----------------------------------------------------------------------
Total thermal energy                   -556.42279480 Eh

Summary of corrections to the electronic energy:
(perhaps to be used in another calculation)
Total thermal correction                  0.01260553 Eh       7.91 kcal/mol
Non-thermal (ZPE) correction              0.24392562 Eh     153.07 kcal/mol
-----------------------------------------------------------------------
Total correction                          0.25653116 Eh     160.98 kcal/mol

--------
ENTHALPY
--------

The enthalpy is H = U + kB*T
                kB is Boltzmann's constant
Total thermal energy              ...   -556.42279480 Eh
Thermal Enthalpy correction       ...      0.00094421 Eh       0.59 kcal/mol
-----------------------------------------------------------------------
Total Enthalpy                    ...   -556.42185060 Eh

Note: Only C1 symmetry has been detected, increase convergence thresholds
      if your molecule has a higher symmetry. Symmetry factor of 1.0 is
      used for the rotational entropy correction.

Note: Rotational entropy computed according to Herzberg
Infrared and Raman Spectra, Chapter V,1, Van Nostrand Reinhold, 1945
Point Group:  C1, Symmetry Number:   1
Rotational constants in cm-1:     0.036094     0.035779     0.023697

Vibrational entropy computed according to the QRRHO of S. Grimme
Chem.Eur.J. 2012 18 9955 using a reference frequency of 100.0 cm-1

-------
ENTROPY
-------

The entropy contributions are T*S = T*(S(el)+S(vib)+S(rot)+S(trans))

                             ****ORCA TERMINATED NORMALLY****
TOTAL RUN TIME: 0 days 0 hours 36 minutes 20 seconds 443 msec
