                         Program Version 6.0.0  -   RELEASE  -
|  1> !r2SCAN aug-cc-pVTZ d3 TightSCF SlowConv RIJCOSX defgrid2
|  2>
|  3> %pal
|  4> nprocs 15
|  5> end
|  6>
|  7> %scf
|  8> MaxIter 1500
|  9> end
| 10>
| 11> %maxcore 3500
| 12>
| 13> !CPCM
| 14> %cpcm smd true
| 15> SMDsolvent "WATER"
| 16> surfacetype gepol_ses
| 17> rsolv 1.40
| 18> end
| 19>
| 20> * xyz 0 1
| 21> C          -0.70221578029714     -1.27137338689409     -1.64597061061339
| 22> C          -0.84845136777775     -1.37115966451546      2.54973958440251
| 23> C           0.15259783512686     -0.68335711742679      3.28861563215234
| 24> C           0.07599304676575     -0.73632666977901      4.69600426690252
| 25> C          -0.94794284945570     -1.44026936179531      5.29150860970573
| 26> C          -1.88482068115033     -2.08384823172722      4.45797199169649
| 27> N          -1.84062401823598     -2.05300130163141      3.14506781946973
| 28> H           0.83076678593274     -0.21756410750992      5.29593236316618
| 29> H          -1.03983766734326     -1.50382384093195      6.37916241782430
| 30> H          -2.71147090586821     -2.65207963836198      4.90545942856367
| 31> C          -0.79700541461204     -1.33574559017925      1.09594053855288
| 32> C           0.25272338782719     -0.61458983536816      0.46402567600272
| 33> C           0.27592476493802     -0.59903395891095     -0.94615465995929
| 34> C          -1.69468523511231     -1.95299131995214     -0.91309590762066
| 35> N          -1.74344800729213     -1.98614929368638      0.39960781073108
| 36> H           1.07040887752629     -0.05329454733419     -1.46544045359095
| 37> H          -0.71690094151293     -1.28186330233680     -2.73919465539259
| 38> H          -2.48671429614632     -2.49728707022392     -1.44500129727560
| 39> C           1.19105099618849      0.03039450570530      2.60874274845559
| 40> C           1.23921917155320      0.06350156660395      1.24952954829313
| 41> H           1.94654977095063      0.54952317690862      3.20655609141936
| 42> H           2.03412974399493      0.60974382634704      0.73244528911423
| 43> *
| 44>
| 45>                          ****END OF INPUT****

CARTESIAN COORDINATES (ANGSTROEM)
---------------------------------
  C     -0.702216   -1.271373   -1.645971
  C     -0.848451   -1.371160    2.549740
  C      0.152598   -0.683357    3.288616
  C      0.075993   -0.736327    4.696004
  C     -0.947943   -1.440269    5.291509
  C     -1.884821   -2.083848    4.457972
  N     -1.840624   -2.053001    3.145068
  H      0.830767   -0.217564    5.295932
  H     -1.039838   -1.503824    6.379162
  H     -2.711471   -2.652080    4.905459
  C     -0.797005   -1.335746    1.095941
  C      0.252723   -0.614590    0.464026
  C      0.275925   -0.599034   -0.946155
  C     -1.694685   -1.952991   -0.913096
  N     -1.743448   -1.986149    0.399608
  H      1.070409   -0.053295   -1.465440
  H     -0.716901   -1.281863   -2.739195
  H     -2.486714   -2.497287   -1.445001
  C      1.191051    0.030395    2.608743
  C      1.239219    0.063502    1.249530
  H      1.946550    0.549523    3.206556
  H      2.034130    0.609744    0.732445

 Total Charge           Charge          ....    0
 Multiplicity           Mult            ....    1
 Number of Electrons    NEL             ....   94
 Basis Dimension        Dim             ....  828

ORBITAL ENERGIES
----------------

  NO   OCC          E(Eh)            E(eV)
   0   2.0000     -14.165039      -385.4503
   1   2.0000     -14.165009      -385.4495
   2   2.0000     -10.083464      -274.3850
   3   2.0000     -10.083197      -274.3777
   4   2.0000     -10.075682      -274.1732
   5   2.0000     -10.075657      -274.1726
   6   2.0000     -10.062460      -273.8135
   7   2.0000     -10.062440      -273.8129
   8   2.0000     -10.058256      -273.6991
   9   2.0000     -10.058246      -273.6988
  10   2.0000     -10.050350      -273.4839
  11   2.0000     -10.049748      -273.4675
  12   2.0000     -10.048833      -273.4427
  13   2.0000     -10.048818      -273.4422
  14   2.0000      -0.931507       -25.3476
  15   2.0000      -0.908650       -24.7256
  16   2.0000      -0.819889       -22.3103
  17   2.0000      -0.779036       -21.1986
  18   2.0000      -0.771013       -20.9803
  19   2.0000      -0.718853       -19.5610
  20   2.0000      -0.715548       -19.4710
  21   2.0000      -0.626392       -17.0450
  22   2.0000      -0.616768       -16.7831
  23   2.0000      -0.602307       -16.3896
  24   2.0000      -0.570851       -15.5336
  25   2.0000      -0.523363       -14.2414
  26   2.0000      -0.503128       -13.6908
  27   2.0000      -0.484464       -13.1829
  28   2.0000      -0.454426       -12.3656
  29   2.0000      -0.449631       -12.2351
  30   2.0000      -0.437091       -11.8939
  31   2.0000      -0.410373       -11.1668
  32   2.0000      -0.405323       -11.0294
  33   2.0000      -0.389406       -10.5963
  34   2.0000      -0.374542       -10.1918
  35   2.0000      -0.374249       -10.1838
  36   2.0000      -0.371839       -10.1183
  37   2.0000      -0.364945        -9.9306
  38   2.0000      -0.337331        -9.1792
  39   2.0000      -0.324130        -8.8200
  40   2.0000      -0.322286        -8.7698
  41   2.0000      -0.286858        -7.8058
  42   2.0000      -0.282997        -7.7007
  43   2.0000      -0.241549        -6.5729
  44   2.0000      -0.235498        -6.4082
  45   2.0000      -0.224070        -6.0972
  46   2.0000      -0.221711        -6.0331
  47   0.0000      -0.085668        -2.3311
  48   0.0000      -0.084311        -2.2942
  49   0.0000      -0.042757        -1.1635
  50   0.0000      -0.017274        -0.4701
  51   0.0000       0.005311         0.1445

MULLIKEN ATOMIC CHARGES
-----------------------
   0 C :   -0.315842
   1 C :    1.073371
   2 C :    1.953318
   3 C :   -1.149717
   4 C :   -0.314976
   5 C :   -0.810418
   6 N :   -0.834911
   7 H :    0.335796
   8 H :    0.260974
   9 H :    0.561493
  10 C :    1.074757
  11 C :    1.950945
  12 C :   -1.147074
  13 C :   -0.806952
  14 N :   -0.832212
  15 H :    0.337067
  16 H :    0.260052
  17 H :    0.560856
  18 C :   -1.181000
  19 C :   -1.181133
  20 H :    0.101641
  21 H :    0.103966
Sum of atomic charges:   -0.0000000

LOEWDIN ATOMIC CHARGES
----------------------
   0 C :    0.221379
   1 C :   -0.286631
   2 C :   -0.119216
   3 C :    0.226841
   4 C :    0.221417
   5 C :    0.011050
   6 N :    0.368212
   7 H :   -0.149501
   8 H :   -0.165961
   9 H :   -0.180302
  10 C :   -0.286601
  11 C :   -0.119168
  12 C :    0.226874
  13 C :    0.011115
  14 N :    0.368270
  15 H :   -0.149513
  16 H :   -0.165992
  17 H :   -0.180283
  18 C :    0.232358
  19 C :    0.232346
  20 H :   -0.158337
  21 H :   -0.158357

  Mayer bond orders larger than 0.100000
B(  0-C , 11-C ) :  -0.2475 B(  0-C , 12-C ) :   1.2958 B(  0-C , 13-C ) :   0.5610
B(  0-C , 14-N ) :  -0.1985 B(  0-C , 16-H ) :   0.9658 B(  1-C ,  2-C ) :   0.7360
B(  1-C ,  3-C ) :   0.6085 B(  1-C ,  5-C ) :  -0.1393 B(  1-C ,  6-N ) :  -0.8887
B(  1-C ,  9-H ) :   0.2098 B(  1-C , 10-C ) :   0.5291 B(  1-C , 11-C ) :   0.3854
B(  1-C , 12-C ) :  -0.1365 B(  1-C , 13-C ) :   0.1188 B(  1-C , 14-N ) :   0.3051
B(  1-C , 18-C ) :  -0.4679 B(  1-C , 19-C ) :  -0.1397 B(  2-C ,  3-C ) :  -0.4429
B(  2-C ,  4-C ) :  -0.2488 B(  2-C ,  5-C ) :  -0.6356 B(  2-C ,  9-H ) :   0.1408
B(  2-C , 10-C ) :   0.3879 B(  2-C , 11-C ) :  -0.3952 B(  2-C , 13-C ) :  -0.1545
B(  2-C , 18-C ) :  -0.3490 B(  2-C , 20-H ) :  -0.1160 B(  3-C ,  4-C ) :   1.2976
B(  3-C ,  5-C ) :   0.5255 B(  3-C ,  7-H ) :   0.8450 B(  3-C ,  9-H ) :  -0.1245
B(  3-C , 10-C ) :  -0.1367 B(  3-C , 18-C ) :   0.4312 B(  4-C ,  5-C ) :   0.5598
B(  4-C ,  6-N ) :  -0.1985 B(  4-C ,  8-H ) :   0.9639 B(  5-C ,  6-N ) :   2.0471
B(  5-C ,  7-H ) :  -0.1106 B(  5-C ,  9-H ) :   0.3288 B(  5-C , 10-C ) :   0.1207
B(  5-C , 11-C ) :  -0.1550 B(  5-C , 19-C ) :   0.1570 B(  6-N , 10-C ) :   0.2987
B(  6-N , 14-N ) :  -0.2771 B( 10-C , 11-C ) :   0.7392 B( 10-C , 12-C ) :   0.6079
B( 10-C , 13-C ) :  -0.1388 B( 10-C , 14-N ) :  -0.8886 B( 10-C , 17-H ) :   0.2107
B( 10-C , 18-C ) :  -0.1389 B( 10-C , 19-C ) :  -0.4658 B( 11-C , 12-C ) :  -0.4349
B( 11-C , 13-C ) :  -0.6337 B( 11-C , 17-H ) :   0.1408 B( 11-C , 19-C ) :  -0.3510
B( 11-C , 21-H ) :  -0.1155 B( 12-C , 13-C ) :   0.5238 B( 12-C , 15-H ) :   0.8429
B( 12-C , 17-H ) :  -0.1246 B( 12-C , 19-C ) :   0.4307 B( 13-C , 14-N ) :   2.0389
B( 13-C , 15-H ) :  -0.1115 B( 13-C , 17-H ) :   0.3298 B( 13-C , 18-C ) :   0.1570
B( 18-C , 19-C ) :   1.4621 B( 18-C , 20-H ) :   1.3492 B( 19-C , 21-H ) :   1.3457

Dispersion correction           -0.008983882
FINAL SINGLE POINT ENERGY      -571.510838452206

DIPOLE MOMENT
-------------

Method             : SCF
Type of density    : Electron Density
Multiplicity       :   1
Irrep              :   0
Energy             :  -571.5018545698515027 Eh
Relativity type    :
Basis              : AO
                                X                 Y                 Z
Electronic contribution:     -1.235907117      -0.848075139      -0.064328202
Nuclear contribution   :      2.959925509       2.031814141       0.154119783
                        -----------------------------------------
Total Dipole Moment    :      1.724018392       1.183739002       0.089791581
                        -----------------------------------------
Magnitude (a.u.)       :      2.093212834
Magnitude (Debye)      :      5.320524195

Rotational constants in cm-1:             0.054161             0.019423             0.014296
Rotational constants in MHz :          1623.694457           582.293820           428.591246

                             ****ORCA TERMINATED NORMALLY****
TOTAL RUN TIME: 0 days 0 hours 3 minutes 3 seconds 310 msec
