                         Program Version 6.0.0  -   RELEASE  -
|  1> !PBE0 aug-cc-pVTZ d3 TightSCF SlowConv RIJCOSX defgrid2
|  2>
|  3> %pal
|  4> nprocs 4
|  5> end
|  6>
|  7> %scf
|  8> MaxIter 1500
|  9> end
| 10>
| 11> %maxcore 3000
| 12>
| 13> !CPCM
| 14> %cpcm smd true
| 15> SMDsolvent "MeCN"
| 16> surfacetype gepol_ses
| 17> rsolv 2.19
| 18> end
| 19>
| 20> * xyz 0 2
| 21> S          -0.00010950333410      1.33232152061846      0.00000284685572
| 22> C          -1.36367602339461      0.23464932550616     -0.00507122495906
| 23> C          -2.63111207479134      0.80918677441119     -0.00931514148930
| 24> C          -3.79749598688692      0.01748913706240     -0.01353133573099
| 25> C          -3.62690722369362     -1.39108123583356     -0.01295952620618
| 26> C          -2.36711161265690     -1.94934818919206     -0.00874256384629
| 27> H          -2.23684953206305     -3.03459019141420     -0.00838133626109
| 28> C          -1.17821016281749     -1.17668732648083     -0.00472311773149
| 29> N          -0.00002243259599     -1.83446497066754     -0.00098097198001
| 30> C           1.17812817196274     -1.17662234567149      0.00321348810966
| 31> C           2.36706725678156     -1.94922452722425      0.00667750909652
| 32> C           3.62683749655594     -1.39090083721577      0.01126100122058
| 33> C           3.79735129127031      0.01767608816689      0.01293153169759
| 34> C           2.63092897415049      0.80931688655999      0.00908647542932
| 35> C           1.36351983422924      0.23472394637557      0.00444992884257
| 36> H           2.70292817680075      1.89826895685548      0.00952338683142
| 37> N           5.04756390584320      0.58778935524973      0.01788863149424
| 38> C           5.18172091093512      2.01927291145544      0.01839451021747
| 39> H           4.72362917020845      2.48089047963546     -0.87882697554764
| 40> H           4.71362444681400      2.48052031071610      0.91057955441826
| 41> H           6.24845927057729      2.28645848294775      0.02468300648574
| 42> C           6.21890311032700     -0.24765571266402      0.01987377959494
| 43> H           7.11746405207368      0.38638280457377      0.02575541170059
| 44> H           6.26272829635460     -0.90187803580692      0.91268866293187
| 45> H           6.27030724212294     -0.89602611228501     -0.87693708029874
| 46> H           4.49368813972706     -2.05282067647445      0.01344982462292
| 47> H           2.23685254993858     -3.03447155031151      0.00547512817034
| 48> H          -4.49372906017109     -2.05303540820711     -0.01582821380380
| 49> N          -5.04773346330895      0.58755010330840     -0.01787016769593
| 50> C          -6.21904670194275     -0.24792774805618     -0.02103570915344
| 51> H          -6.26948350136630     -0.89843815146211      0.87422819476414
| 52> H          -6.26381702737160     -0.90001046584191     -0.91541895496807
| 53> H          -7.11762903933965      0.38609970182385     -0.02430714598305
| 54> C          -5.18193217827922      2.01902912759794     -0.01996728409317
| 55> H          -4.72352139465997      2.48160383072144      0.87657566790498
| 56> H          -4.71418178558910      2.47935235497991     -0.91283316827598
| 57> H          -6.24867837130277      2.28618639267493     -0.02606269937327
| 58> H          -2.70315182110753      1.89814199356804     -0.00903802299134
| 59> *
| 60>
| 61>                          ****END OF INPUT****

CARTESIAN COORDINATES (ANGSTROEM)
---------------------------------
  S     -0.000110    1.332322    0.000003
  C     -1.363676    0.234649   -0.005071
  C     -2.631112    0.809187   -0.009315
  C     -3.797496    0.017489   -0.013531
  C     -3.626907   -1.391081   -0.012960
  C     -2.367112   -1.949348   -0.008743
  H     -2.236850   -3.034590   -0.008381
  C     -1.178210   -1.176687   -0.004723
  N     -0.000022   -1.834465   -0.000981
  C      1.178128   -1.176622    0.003213
  C      2.367067   -1.949225    0.006678
  C      3.626837   -1.390901    0.011261
  C      3.797351    0.017676    0.012932
  C      2.630929    0.809317    0.009086
  C      1.363520    0.234724    0.004450
  H      2.702928    1.898269    0.009523
  N      5.047564    0.587789    0.017889
  C      5.181721    2.019273    0.018395
  H      4.723629    2.480890   -0.878827
  H      4.713624    2.480520    0.910580
  H      6.248459    2.286458    0.024683
  C      6.218903   -0.247656    0.019874
  H      7.117464    0.386383    0.025755
  H      6.262728   -0.901878    0.912689
  H      6.270307   -0.896026   -0.876937
  H      4.493688   -2.052821    0.013450
  H      2.236853   -3.034472    0.005475
  H     -4.493729   -2.053035   -0.015828
  N     -5.047733    0.587550   -0.017870
  C     -6.219047   -0.247928   -0.021036
  H     -6.269484   -0.898438    0.874228
  H     -6.263817   -0.900010   -0.915419
  H     -7.117629    0.386100   -0.024307
  C     -5.181932    2.019029   -0.019967
  H     -4.723521    2.481604    0.876576
  H     -4.714182    2.479352   -0.912833
  H     -6.248678    2.286186   -0.026063
  H     -2.703152    1.898142   -0.009038

 Total Charge           Charge          ....    0
 Multiplicity           Mult            ....    2
 Number of Electrons    NEL             ....  151
 Basis Dimension        Dim             .... 1338

ORBITAL ENERGIES
----------------
                 SPIN UP ORBITALS
  NO   OCC          E(Eh)            E(eV)
   0   1.0000     -89.076593     -2423.8973
   1   1.0000     -14.415604      -392.2685
   2   1.0000     -14.415601      -392.2684
   3   1.0000     -14.376675      -391.2092
   4   1.0000     -10.276678      -279.6426
   5   1.0000     -10.276671      -279.6424
   6   1.0000     -10.273734      -279.5625
   7   1.0000     -10.273722      -279.5622
   8   1.0000     -10.261072      -279.2180
   9   1.0000     -10.261066      -279.2178
  10   1.0000     -10.246456      -278.8202
  11   1.0000     -10.246427      -278.8195
  12   1.0000     -10.246381      -278.8182
  13   1.0000     -10.246373      -278.8180
  14   1.0000     -10.230730      -278.3923
  15   1.0000     -10.230722      -278.3921
  16   1.0000     -10.230130      -278.3760
  17   1.0000     -10.230094      -278.3750
  18   1.0000     -10.227448      -278.3030
  19   1.0000     -10.227429      -278.3025
  20   1.0000      -8.034319      -218.6249
  21   1.0000      -5.971234      -162.4855
  22   1.0000      -5.967733      -162.3903
  23   1.0000      -5.965250      -162.3227
  24   1.0000      -0.987662       -26.8756
  25   1.0000      -0.986982       -26.8571
  26   1.0000      -0.969203       -26.3734
  27   1.0000      -0.882646       -24.0180
  28   1.0000      -0.873036       -23.7565
  29   1.0000      -0.831456       -22.6251
  30   1.0000      -0.785330       -21.3699
  31   1.0000      -0.779821       -21.2200
  32   1.0000      -0.759098       -20.6561
  33   1.0000      -0.740978       -20.1630
  34   1.0000      -0.740739       -20.1565
  35   1.0000      -0.707327       -19.2473
  36   1.0000      -0.689391       -18.7593
  37   1.0000      -0.654323       -17.8050
  38   1.0000      -0.625787       -17.0285
  39   1.0000      -0.625610       -17.0237
  40   1.0000      -0.604764       -16.4565
  41   1.0000      -0.561176       -15.2704
  42   1.0000      -0.559849       -15.2343
  43   1.0000      -0.528651       -14.3853
  44   1.0000      -0.519712       -14.1421
  45   1.0000      -0.517324       -14.0771
  46   1.0000      -0.492386       -13.3985
  47   1.0000      -0.481453       -13.1010
  48   1.0000      -0.480828       -13.0840
  49   1.0000      -0.462708       -12.5909
  50   1.0000      -0.455120       -12.3844
  51   1.0000      -0.449019       -12.2184
  52   1.0000      -0.444064       -12.0836
  53   1.0000      -0.440231       -11.9793
  54   1.0000      -0.431377       -11.7384
  55   1.0000      -0.429283       -11.6814
  56   1.0000      -0.409069       -11.1313
  57   1.0000      -0.409056       -11.1310
  58   1.0000      -0.405548       -11.0355
  59   1.0000      -0.405451       -11.0329
  60   1.0000      -0.395058       -10.7501
  61   1.0000      -0.393906       -10.7187
  62   1.0000      -0.387874       -10.5546
  63   1.0000      -0.381092       -10.3700
  64   1.0000      -0.374104       -10.1799
  65   1.0000      -0.361558        -9.8385
  66   1.0000      -0.352532        -9.5929
  67   1.0000      -0.346189        -9.4203
  68   1.0000      -0.345703        -9.4070
  69   1.0000      -0.310216        -8.4414
  70   1.0000      -0.283626        -7.7179
  71   1.0000      -0.277269        -7.5449
  72   1.0000      -0.267108        -7.2684
  73   1.0000      -0.227359        -6.1867
  74   1.0000      -0.211217        -5.7475
  75   1.0000      -0.160193        -4.3591
  76   0.0000      -0.023228        -0.6321
  77   0.0000      -0.019870        -0.5407
  78   0.0000      -0.002588        -0.0704
  79   0.0000      -0.002400        -0.0653
  80   0.0000       0.001851         0.0504

                 SPIN DOWN ORBITALS
  NO   OCC          E(Eh)            E(eV)
   0   1.0000     -89.075985     -2423.8808
   1   1.0000     -14.413633      -392.2149
   2   1.0000     -14.413629      -392.2148
   3   1.0000     -14.367758      -390.9666
   4   1.0000     -10.275102      -279.5997
   5   1.0000     -10.275095      -279.5996
   6   1.0000     -10.271472      -279.5010
   7   1.0000     -10.271460      -279.5006
   8   1.0000     -10.262337      -279.2524
   9   1.0000     -10.262331      -279.2522
  10   1.0000     -10.246585      -278.8238
  11   1.0000     -10.246557      -278.8230
  12   1.0000     -10.246510      -278.8217
  13   1.0000     -10.246502      -278.8215
  14   1.0000     -10.231215      -278.4055
  15   1.0000     -10.231179      -278.4045
  16   1.0000     -10.229061      -278.3469
  17   1.0000     -10.229051      -278.3466
  18   1.0000     -10.227831      -278.3134
  19   1.0000     -10.227813      -278.3129
  20   1.0000      -8.033695      -218.6080
  21   1.0000      -5.970942      -162.4776
  22   1.0000      -5.967487      -162.3836
  23   1.0000      -5.962952      -162.2602
  24   1.0000      -0.984094       -26.7786
  25   1.0000      -0.983575       -26.7644
  26   1.0000      -0.958950       -26.0943
  27   1.0000      -0.879927       -23.9440
  28   1.0000      -0.866584       -23.5810
  29   1.0000      -0.828788       -22.5525
  30   1.0000      -0.784152       -21.3379
  31   1.0000      -0.777173       -21.1480
  32   1.0000      -0.757533       -20.6135
  33   1.0000      -0.740238       -20.1429
  34   1.0000      -0.738234       -20.0884
  35   1.0000      -0.705819       -19.2063
  36   1.0000      -0.689411       -18.7598
  37   1.0000      -0.650588       -17.7034
  38   1.0000      -0.623818       -16.9750
  39   1.0000      -0.623103       -16.9555
  40   1.0000      -0.602661       -16.3992
  41   1.0000      -0.559123       -15.2145
  42   1.0000      -0.558397       -15.1948
  43   1.0000      -0.527074       -14.3424
  44   1.0000      -0.517723       -14.0880
  45   1.0000      -0.516533       -14.0556
  46   1.0000      -0.491553       -13.3758
  47   1.0000      -0.476519       -12.9667
  48   1.0000      -0.476065       -12.9544
  49   1.0000      -0.461853       -12.5676
  50   1.0000      -0.453955       -12.3527
  51   1.0000      -0.448058       -12.1923
  52   1.0000      -0.439517       -11.9599
  53   1.0000      -0.430768       -11.7218
  54   1.0000      -0.429931       -11.6990
  55   1.0000      -0.428368       -11.6565
  56   1.0000      -0.408439       -11.1142
  57   1.0000      -0.408425       -11.1138
  58   1.0000      -0.405071       -11.0225
  59   1.0000      -0.404681       -11.0119
  60   1.0000      -0.392795       -10.6885
  61   1.0000      -0.388466       -10.5707
  62   1.0000      -0.386746       -10.5239
  63   1.0000      -0.380544       -10.3551
  64   1.0000      -0.373292       -10.1578
  65   1.0000      -0.349531        -9.5112
  66   1.0000      -0.345559        -9.4031
  67   1.0000      -0.343644        -9.3510
  68   1.0000      -0.335268        -9.1231
  69   1.0000      -0.300094        -8.1660
  70   1.0000      -0.278516        -7.5788
  71   1.0000      -0.268955        -7.3186
  72   1.0000      -0.250218        -6.8088
  73   1.0000      -0.220061        -5.9882
  74   1.0000      -0.201233        -5.4758
  75   0.0000      -0.089068        -2.4237
  76   0.0000      -0.017338        -0.4718
  77   0.0000      -0.010684        -0.2907
  78   0.0000      -0.001935        -0.0526
  79   0.0000       0.002344         0.0638

MULLIKEN ATOMIC CHARGES AND SPIN POPULATIONS
--------------------------------------------
   0 S :    0.050219    0.125071
   1 C :    0.769939    0.125054
   2 C :   -1.040627   -0.078400
   3 C :    1.006205    0.106075
   4 C :   -0.052823   -0.037141
   5 C :   -1.013985    0.077868
   6 H :    0.424960   -0.004023
   7 C :    0.370584   -0.025096
   8 N :   -1.087385    0.361617
   9 C :    0.267138   -0.026593
  10 C :   -1.028438    0.078278
  11 C :    0.036545   -0.037882
  12 C :    1.074757    0.106013
  13 C :   -1.186196   -0.077988
  14 C :    0.754434    0.124877
  15 H :    0.088421    0.008878
  16 N :   -0.200603    0.078074
  17 C :   -1.001382   -0.012760
  18 H :    0.325898    0.004963
  19 H :    0.326198    0.005010
  20 H :    0.264280    0.001067
  21 C :   -0.966408   -0.012599
  22 H :    0.291648    0.001440
  23 H :    0.284628    0.004690
  24 H :    0.288218    0.004751
  25 H :    0.403025    0.009573
  26 H :    0.431774   -0.003896
  27 H :    0.388401    0.009489
  28 N :   -0.200459    0.078144
  29 C :   -0.944415   -0.012583
  30 H :    0.283629    0.004797
  31 H :    0.285157    0.004653
  32 H :    0.300660    0.001440
  33 C :   -0.997932   -0.012695
  34 H :    0.325562    0.004950
  35 H :    0.322334    0.004954
  36 H :    0.264645    0.001085
  37 H :    0.091394    0.008844
Sum of atomic charges         :    0.0000000

LOEWDIN ATOMIC CHARGES AND SPIN POPULATIONS
-------------------------------------------
   0 S :    1.323056    0.103545
   1 C :   -0.486530    0.066630
   2 C :    0.128375   -0.001272
   3 C :   -0.228247    0.048614
   4 C :    0.214823    0.017309
   5 C :    0.184839    0.048035
   6 H :   -0.171974    0.007909
   7 C :   -0.399593    0.052951
   8 N :    0.359853    0.251816
   9 C :   -0.399606    0.052945
  10 C :    0.184828    0.048028
  11 C :    0.214855    0.017300
  12 C :   -0.228213    0.048607
  13 C :    0.128306   -0.001273
  14 C :   -0.486556    0.066638
  15 H :   -0.210932   -0.005751
  16 N :    0.238382    0.062421
  17 C :    0.474464    0.009075
  18 H :   -0.138121    0.002363
  19 H :   -0.138402    0.002347
  20 H :   -0.157879    0.000069
  21 C :    0.474556    0.008776
  22 H :   -0.158543    0.000028
  23 H :   -0.139072    0.002302
  24 H :   -0.138626    0.002314
  25 H :   -0.189011   -0.001800
  26 H :   -0.171968    0.007909
  27 H :   -0.189016   -0.001800
  28 N :    0.238392    0.062436
  29 C :    0.474568    0.008779
  30 H :   -0.138786    0.002307
  31 H :   -0.138899    0.002309
  32 H :   -0.158558    0.000028
  33 C :    0.474476    0.009077
  34 H :   -0.138201    0.002358
  35 H :   -0.138339    0.002352
  36 H :   -0.157853    0.000069
  37 H :   -0.210848   -0.005750

  Mayer bond orders larger than 0.100000
B(  0-S ,  1-C ) :   0.3039 B(  0-S ,  2-C ) :   0.1339 B(  0-S ,  7-C ) :   0.1830
B(  0-S ,  8-N ) :  -0.1702 B(  0-S ,  9-C ) :   0.1836 B(  0-S , 13-C ) :   0.1319
B(  0-S , 14-C ) :   0.3554 B(  1-C ,  2-C ) :   0.5132 B(  1-C ,  3-C ) :  -0.2424
B(  1-C ,  4-C ) :  -0.2845 B(  1-C ,  7-C ) :   0.8665 B(  1-C ,  9-C ) :  -0.1314
B(  1-C , 13-C ) :   0.1757 B(  1-C , 14-C ) :  -0.4467 B(  1-C , 28-N ) :   0.3135
B(  1-C , 33-C ) :   0.1314 B(  2-C ,  3-C ) :   0.6045 B(  2-C ,  4-C ) :  -0.1825
B(  2-C ,  5-C ) :  -0.1203 B(  2-C ,  7-C ) :   0.5353 B(  2-C ,  9-C ) :  -0.2803
B(  2-C , 10-C ) :   0.2081 B(  2-C , 11-C ) :  -0.2012 B(  2-C , 13-C ) :   0.1185
B(  2-C , 14-C ) :   0.1834 B(  2-C , 16-N ) :   0.1975 B(  2-C , 25-H ) :  -0.5177
B(  2-C , 26-H ) :   0.2010 B(  2-C , 28-N ) :  -0.5255 B(  2-C , 29-C ) :   0.1593
B(  2-C , 33-C ) :  -0.2527 B(  2-C , 37-H ) :   1.1749 B(  3-C ,  4-C ) :   0.6922
B(  3-C ,  5-C ) :  -0.2228 B(  3-C ,  7-C ) :   0.1056 B(  3-C , 10-C ) :   0.1985
B(  3-C , 11-C ) :   0.1176 B(  3-C , 14-C ) :  -0.1277 B(  3-C , 25-H ) :   0.2137
B(  3-C , 28-N ) :   0.1933 B(  3-C , 29-C ) :  -0.1686 B(  3-C , 33-C ) :  -0.1670
B(  4-C ,  5-C ) :   1.0973 B(  4-C ,  7-C ) :   0.4595 B(  4-C ,  8-N ) :   0.1234
B(  4-C , 10-C ) :  -0.1065 B(  4-C , 11-C ) :   0.2396 B(  4-C , 13-C ) :  -0.1931
B(  4-C , 25-H ) :   0.3435 B(  4-C , 26-H ) :  -0.2041 B(  4-C , 27-H ) :   0.7510
B(  4-C , 28-N ) :  -0.4826 B(  4-C , 29-C ) :  -0.1373 B(  5-C ,  6-H ) :   0.5497
B(  5-C ,  7-C ) :  -0.1377 B(  5-C ,  8-N ) :   0.4231 B(  5-C ,  9-C ) :   0.3337
B(  5-C , 11-C ) :  -0.1322 B(  5-C , 12-C ) :   0.1916 B(  5-C , 13-C ) :   0.1059
B(  6-H ,  8-N ) :   0.1371 B(  6-H ,  9-C ) :  -0.1807 B(  6-H , 11-C ) :  -0.2357
B(  6-H , 12-C ) :   0.1175 B(  6-H , 13-C ) :   0.2211 B(  6-H , 25-H ) :  -0.1725
B(  7-C ,  9-C ) :   0.9145 B(  7-C , 10-C ) :   0.3609 B(  7-C , 12-C ) :  -0.1697
B(  7-C , 13-C ) :  -0.2658 B(  7-C , 14-C ) :  -0.1700 B(  7-C , 26-H ) :  -0.1907
B(  7-C , 28-N ) :  -0.1551 B(  8-N ,  9-C ) :   0.1564 B(  8-N , 10-C ) :   0.3626
B(  8-N , 11-C ) :   0.1331 B(  8-N , 26-H ) :   0.1617 B(  9-C , 10-C ) :  -0.1551
B(  9-C , 11-C ) :   0.4436 B(  9-C , 13-C ) :   0.5759 B(  9-C , 14-C ) :   0.8277
B(  9-C , 16-N ) :  -0.1400 B(  9-C , 25-H ) :   0.1182 B(  9-C , 27-H ) :   0.1290
B(  9-C , 28-N ) :   0.1067 B( 10-C , 11-C ) :   1.1040 B( 10-C , 12-C ) :  -0.2541
B( 10-C , 13-C ) :  -0.1073 B( 10-C , 26-H ) :   0.5513 B( 10-C , 27-H ) :  -0.1568
B( 10-C , 28-N ) :  -0.1796 B( 11-C , 12-C ) :   0.7706 B( 11-C , 13-C ) :  -0.2211
B( 11-C , 14-C ) :  -0.2788 B( 11-C , 16-N ) :  -0.6385 B( 11-C , 21-C ) :  -0.1813
B( 11-C , 25-H ) :   0.7494 B( 11-C , 27-H ) :   0.3359 B( 11-C , 28-N ) :  -0.1786
B( 12-C , 13-C ) :   0.5664 B( 12-C , 14-C ) :  -0.2364 B( 12-C , 16-N ) :   0.1344
B( 12-C , 17-C ) :  -0.2322 B( 12-C , 21-C ) :  -0.1449 B( 13-C , 14-C ) :   0.5304
B( 13-C , 15-H ) :   1.1645 B( 13-C , 16-N ) :  -0.3788 B( 13-C , 17-C ) :  -0.1970
B( 13-C , 21-C ) :   0.1615 B( 13-C , 27-H ) :  -0.3671 B( 13-C , 28-N ) :   0.2566
B( 13-C , 33-C ) :   0.1112 B( 14-C , 16-N ) :   0.3011 B( 14-C , 17-C ) :   0.1246
B( 14-C , 27-H ) :  -0.1553 B( 14-C , 28-N ) :   0.1410 B( 16-N , 17-C ) :   1.2973
B( 16-N , 21-C ) :   1.2851 B( 17-C , 18-H ) :   0.8669 B( 17-C , 19-H ) :   0.8664
B( 17-C , 20-H ) :   0.9445 B( 21-C , 22-H ) :   0.8742 B( 21-C , 23-H ) :   0.9282
B( 21-C , 24-H ) :   0.9254 B( 21-C , 25-H ) :  -0.1025 B( 25-H , 27-H ) :   0.3557
B( 25-H , 28-N ) :  -0.1589 B( 27-H , 29-C ) :  -0.1004 B( 28-N , 29-C ) :   1.2787
B( 28-N , 33-C ) :   1.2863 B( 29-C , 30-H ) :   0.9298 B( 29-C , 31-H ) :   0.9298
B( 29-C , 32-H ) :   0.8587 B( 33-C , 34-H ) :   0.8682 B( 33-C , 35-H ) :   0.8698
B( 33-C , 36-H ) :   0.9443

Dispersion correction           -0.044536794
FINAL SINGLE POINT ENERGY     -1182.250731296841

DIPOLE MOMENT
-------------

Method             : SCF
Type of density    : Electron Density
Multiplicity       :   2
Irrep              :   0
Energy             : -1182.2061945031384766 Eh
Relativity type    :
Basis              : AO
                                X                 Y                 Z
Electronic contribution:     -0.000633714      -3.225437565       0.004912617
Nuclear contribution   :     -0.000087217       5.020383448      -0.005360537
                        -----------------------------------------
Total Dipole Moment    :     -0.000720931       1.794945883      -0.000447920
                        -----------------------------------------
Magnitude (a.u.)       :      1.794946084
Magnitude (Debye)      :      4.562390366

Rotational constants in cm-1:             0.035055             0.004401             0.003922
Rotational constants in MHz :          1050.925207           131.948316           117.581806

                             ****ORCA TERMINATED NORMALLY****
TOTAL RUN TIME: 0 days 0 hours 35 minutes 5 seconds 357 msec
