                         Program Version 6.0.0  -   RELEASE  -
|  1> !B3LYP freq aug-cc-pVTZ d3 TightSCF SlowConv RIJCOSX defgrid2
|  2>
|  3> %pal
|  4> nprocs 12
|  5>
|  6> end
|  7>
|  8> %scf
|  9> MaxIter 1500
| 10> end
| 11>
| 12> %maxcore 5000
| 13>
| 14> !CPCM
| 15> %cpcm smd true
| 16> SMDsolvent "MeCN"
| 17> surfacetype gepol_ses
| 18> rsolv 2.19
| 19> end
| 20>
| 21> * xyz 1 2
| 22> C          -0.70414101117874     -1.06586457083984     -0.00260806626687
| 23> C          -1.29116664945740      0.22839872215819     -0.00043190243076
| 24> C          -0.47857844226411      1.40025735664464     -0.00091267341865
| 25> C           0.87467470263240      1.28187143682210     -0.00117472670670
| 26> C           1.47508892028644     -0.00940896253146     -0.00129381761902
| 27> C           0.65278982807208     -1.17439799770646     -0.00285317964364
| 28> H           1.12304666206757     -2.14594148801240     -0.00369605114466
| 29> C           2.86232124331321     -0.13915517399531      0.00067056689488
| 30> C           4.06678178854387     -0.25452490320904      0.00254746358011
| 31> H           5.12904472701308     -0.35314602108497      0.00379367181950
| 32> H           1.50644192412403      2.15670080793149     -0.00147772766816
| 33> H          -0.96599888720762      2.36392787713282     -0.00008997540498
| 34> O          -2.57982550646406      0.44240941292259      0.00218483618935
| 35> C          -3.52085734548594     -0.66374776683700      0.00202457193261
| 36> H          -4.49899393982929     -0.19784608862638     -0.00059278774009
| 37> H          -3.37944017608124     -1.26312459737882     -0.89398149811725
| 38> H          -3.38305256128898     -1.26056764325781      0.90046455364223
| 39> H          -1.32239067679526     -1.94835830013235     -0.00237125789790
| 40> *
| 41>
| 42>                          ****END OF INPUT****

CARTESIAN COORDINATES (ANGSTROEM)
---------------------------------
  C     -0.704141   -1.065865   -0.002608
  C     -1.291167    0.228399   -0.000432
  C     -0.478578    1.400257   -0.000913
  C      0.874675    1.281871   -0.001175
  C      1.475089   -0.009409   -0.001294
  C      0.652790   -1.174398   -0.002853
  H      1.123047   -2.145941   -0.003696
  C      2.862321   -0.139155    0.000671
  C      4.066782   -0.254525    0.002547
  H      5.129045   -0.353146    0.003794
  H      1.506442    2.156701   -0.001478
  H     -0.965999    2.363928   -0.000090
  O     -2.579826    0.442409    0.002185
  C     -3.520857   -0.663748    0.002025
  H     -4.498994   -0.197846   -0.000593
  H     -3.379440   -1.263125   -0.893981
  H     -3.383053   -1.260568    0.900465
  H     -1.322391   -1.948358   -0.002371

 Total Charge           Charge          ....    1
 Multiplicity           Mult            ....    2
 Number of Electrons    NEL             ....   69
 Basis Dimension        Dim             ....  644

ORBITAL ENERGIES
----------------
                 SPIN UP ORBITALS
  NO   OCC          E(Eh)            E(eV)
   0   1.0000     -19.233530      -523.3710
   1   1.0000     -10.308882      -280.5189
   2   1.0000     -10.262985      -279.2700
   3   1.0000     -10.239436      -278.6292
   4   1.0000     -10.227915      -278.3157
   5   1.0000     -10.223151      -278.1861
   6   1.0000     -10.223095      -278.1846
   7   1.0000     -10.221681      -278.1461
   8   1.0000     -10.221664      -278.1456
   9   1.0000     -10.217603      -278.0351
  10   1.0000      -1.141491       -31.0615
  11   1.0000      -0.913106       -24.8469
  12   1.0000      -0.834477       -22.7073
  13   1.0000      -0.804367       -21.8879
  14   1.0000      -0.782023       -21.2799
  15   1.0000      -0.740199       -20.1418
  16   1.0000      -0.664400       -18.0792
  17   1.0000      -0.647039       -17.6068
  18   1.0000      -0.589125       -16.0309
  19   1.0000      -0.568464       -15.4687
  20   1.0000      -0.537877       -14.6364
  21   1.0000      -0.536572       -14.6009
  22   1.0000      -0.518375       -14.1057
  23   1.0000      -0.480115       -13.0646
  24   1.0000      -0.468885       -12.7590
  25   1.0000      -0.452665       -12.3176
  26   1.0000      -0.436905       -11.8888
  27   1.0000      -0.434462       -11.8223
  28   1.0000      -0.404818       -11.0157
  29   1.0000      -0.397666       -10.8210
  30   1.0000      -0.368958       -10.0399
  31   1.0000      -0.340744        -9.2721
  32   1.0000      -0.320665        -8.7257
  33   1.0000      -0.307768        -8.3748
  34   1.0000      -0.267964        -7.2917
  35   0.0000      -0.080991        -2.2039
  36   0.0000      -0.050662        -1.3786
  37   0.0000      -0.007628        -0.2076
  38   0.0000       0.001179         0.0321
  39   0.0000       0.003622         0.0986

                 SPIN DOWN ORBITALS
  NO   OCC          E(Eh)            E(eV)
   0   1.0000     -19.228237      -523.2269
   1   1.0000     -10.306616      -280.4573
   2   1.0000     -10.258252      -279.1412
   3   1.0000     -10.239588      -278.6334
   4   1.0000     -10.228055      -278.3195
   5   1.0000     -10.223772      -278.2030
   6   1.0000     -10.220470      -278.1131
   7   1.0000     -10.220093      -278.1029
   8   1.0000     -10.219931      -278.0985
   9   1.0000     -10.217290      -278.0266
  10   1.0000      -1.131733       -30.7960
  11   1.0000      -0.906456       -24.6659
  12   1.0000      -0.826785       -22.4980
  13   1.0000      -0.802225       -21.8297
  14   1.0000      -0.774955       -21.0876
  15   1.0000      -0.733474       -19.9588
  16   1.0000      -0.660060       -17.9611
  17   1.0000      -0.643257       -17.5039
  18   1.0000      -0.586427       -15.9575
  19   1.0000      -0.564845       -15.3702
  20   1.0000      -0.535424       -14.5696
  21   1.0000      -0.533121       -14.5070
  22   1.0000      -0.500915       -13.6306
  23   1.0000      -0.477885       -13.0039
  24   1.0000      -0.467869       -12.7314
  25   1.0000      -0.450702       -12.2642
  26   1.0000      -0.435679       -11.8554
  27   1.0000      -0.420222       -11.4348
  28   1.0000      -0.403177       -10.9710
  29   1.0000      -0.379662       -10.3311
  30   1.0000      -0.365829        -9.9547
  31   1.0000      -0.317680        -8.6445
  32   1.0000      -0.316279        -8.6064
  33   1.0000      -0.302859        -8.2412
  34   0.0000      -0.196523        -5.3477
  35   0.0000      -0.058433        -1.5900
  36   0.0000      -0.040318        -1.0971
  37   0.0000      -0.007397        -0.2013
  38   0.0000       0.001744         0.0475

MULLIKEN ATOMIC CHARGES AND SPIN POPULATIONS
--------------------------------------------
   0 C :   -0.147487    0.073692
   1 C :    1.390872    0.160400
   2 C :   -0.696362    0.091733
   3 C :   -1.079330   -0.057542
   4 C :    1.564308    0.348434
   5 C :   -1.188006   -0.015024
   6 H :   -0.261030   -0.003197
   7 C :    1.277493   -0.099785
   8 C :   -0.729538    0.331744
   9 H :    0.333008   -0.012648
  10 H :   -0.230476   -0.001252
  11 H :    0.602670    0.000413
  12 O :   -0.658764    0.175483
  13 C :   -0.624500   -0.010861
  14 H :    0.256777    0.000879
  15 H :    0.314254    0.006802
  16 H :    0.312971    0.007097
  17 H :    0.563140    0.003631
Sum of atomic charges         :    1.0000000

LOEWDIN ATOMIC CHARGES AND SPIN POPULATIONS
-------------------------------------------
   0 C :    0.286463    0.071371
   1 C :   -0.325952    0.130481
   2 C :    0.280176    0.075648
   3 C :    0.260282    0.035707
   4 C :   -0.147047    0.146167
   5 C :    0.270217    0.050392
   6 H :   -0.141419    0.000611
   7 C :    0.056183    0.074904
   8 C :    0.506364    0.177607
   9 H :   -0.240996    0.041509
  10 H :   -0.144464   -0.003125
  11 H :   -0.148171    0.010955
  12 O :    0.665170    0.155093
  13 C :    0.457381    0.015557
  14 H :   -0.162206   -0.000394
  15 H :   -0.153418    0.003852
  16 H :   -0.152771    0.003877
  17 H :   -0.165792    0.009787

  Mayer bond orders larger than 0.100000
B(  0-C ,  1-C ) :   0.8620 B(  0-C ,  2-C ) :   0.1289 B(  0-C ,  4-C ) :   0.6899
B(  0-C ,  5-C ) :   1.1819 B(  0-C ,  6-H ) :  -0.1924 B(  0-C ,  7-C ) :  -0.2400
B(  0-C , 11-H ) :  -0.1070 B(  0-C , 17-H ) :   0.3441 B(  1-C ,  2-C ) :   0.6252
B(  1-C ,  3-C ) :  -0.4969 B(  1-C ,  4-C ) :  -0.1891 B(  1-C ,  5-C ) :  -0.4727
B(  1-C ,  7-C ) :   0.3177 B(  1-C , 10-H ) :  -0.1224 B(  1-C , 11-H ) :   0.1626
B(  1-C , 12-O ) :   0.4707 B(  1-C , 17-H ) :   0.1386 B(  2-C ,  3-C ) :   1.4266
B(  2-C ,  4-C ) :   0.5520 B(  2-C ,  7-C ) :  -0.1398 B(  2-C , 11-H ) :   0.2777
B(  2-C , 12-O ) :   0.3066 B(  3-C ,  5-C ) :  -0.4767 B(  3-C ,  6-H ) :   0.2479
B(  3-C ,  7-C ) :   0.4170 B(  3-C , 10-H ) :   2.0736 B(  4-C ,  5-C ) :   0.1446
B(  4-C ,  6-H ) :  -0.2048 B(  4-C ,  8-C ) :   0.8152 B(  4-C , 12-O ) :   0.1267
B(  5-C ,  6-H ) :   2.1705 B(  5-C ,  7-C ) :   0.3373 B(  5-C ,  8-C ) :  -0.1696
B(  5-C , 10-H ) :   0.2306 B(  6-H ,  7-C ) :  -0.2520 B(  6-H ,  8-C ) :  -0.3814
B(  6-H , 10-H ) :   0.4587 B(  7-C ,  8-C ) :   1.6668 B(  7-C ,  9-H ) :  -0.2545
B(  7-C , 10-H ) :  -0.3363 B(  8-C ,  9-H ) :   1.1880 B(  8-C , 10-H ) :  -0.3845
B(  8-C , 11-H ) :   0.1179 B(  8-C , 17-H ) :   0.2105 B( 12-O , 13-C ) :   0.9134
B( 13-C , 14-H ) :   0.9786 B( 13-C , 15-H ) :   0.8833 B( 13-C , 16-H ) :   0.8846

Dispersion correction           -0.031437310
FINAL SINGLE POINT ENERGY      -422.654230116424

DIPOLE MOMENT
-------------

Method             : SCF
Type of density    : Electron Density
Multiplicity       :   2
Irrep              :   0
Energy             :  -422.6227928062983210 Eh
Relativity type    :
Basis              : AO
                                X                 Y                 Z
Electronic contribution:      5.168193871       1.771467061      -0.002543726
Nuclear contribution   :     -5.481353755      -2.457901133       0.002603528
                        -----------------------------------------
Total Dipole Moment    :     -0.313159884      -0.686434072       0.000059802
                        -----------------------------------------
Magnitude (a.u.)       :      0.754493772
Magnitude (Debye)      :      1.917770761

VIBRATIONAL FREQUENCIES
-----------------------

Scaling factor for frequencies =  1.000000000  (already applied!)

     0:       0.00 cm**-1
     1:       0.00 cm**-1
     2:       0.00 cm**-1
     3:       0.00 cm**-1
     4:       0.00 cm**-1
     5:       0.00 cm**-1
     6:      44.64 cm**-1
     7:     118.06 cm**-1
     8:     123.99 cm**-1
     9:     134.56 cm**-1
    10:     234.93 cm**-1
    11:     242.84 cm**-1
    12:     377.56 cm**-1
    13:     383.31 cm**-1
    14:     393.97 cm**-1
    15:     495.57 cm**-1
    16:     531.48 cm**-1
    17:     531.89 cm**-1
    18:     615.80 cm**-1
    19:     661.64 cm**-1
    20:     682.79 cm**-1
    21:     700.25 cm**-1
    22:     758.01 cm**-1
    23:     778.32 cm**-1
    24:     816.15 cm**-1
    25:     862.43 cm**-1
    26:     977.37 cm**-1
    27:     990.08 cm**-1
    28:     995.48 cm**-1
    29:     999.30 cm**-1
    30:    1129.24 cm**-1
    31:    1159.53 cm**-1
    32:    1180.27 cm**-1
    33:    1198.63 cm**-1
    34:    1253.58 cm**-1
    35:    1298.43 cm**-1
    36:    1341.48 cm**-1
    37:    1363.36 cm**-1
    38:    1449.25 cm**-1
    39:    1470.15 cm**-1
    40:    1470.81 cm**-1
    41:    1472.54 cm**-1
    42:    1512.57 cm**-1
    43:    1518.93 cm**-1
    44:    1653.71 cm**-1
    45:    2115.57 cm**-1
    46:    3062.43 cm**-1
    47:    3147.64 cm**-1
    48:    3182.57 cm**-1
    49:    3207.18 cm**-1
    50:    3212.92 cm**-1
    51:    3220.44 cm**-1
    52:    3233.87 cm**-1
    53:    3411.59 cm**-1

IR SPECTRUM
-----------

 Mode   freq       eps      Int      T**2         TX        TY        TZ
       cm**-1   L/(mol*cm) km/mol    a.u.
----------------------------------------------------------------------------
  6:     44.64   0.000225    1.14  0.001576  (-0.000751 -0.001616  0.039655)
  7:    118.06   0.000355    1.79  0.000937  ( 0.005547 -0.009907 -0.028428)
  8:    123.99   0.000652    3.29  0.001641  (-0.010236  0.038368 -0.007997)
  9:    134.56   0.000032    0.16  0.000074  (-0.001470 -0.000703 -0.008455)
 10:    234.93   0.003590   18.14  0.004768  (-0.000978 -0.000286 -0.069045)
 11:    242.84   0.001609    8.13  0.002068  (-0.045321 -0.003687  0.000214)
 12:    377.56   0.000592    2.99  0.000489  ( 0.000882 -0.000338 -0.022096)
 13:    383.31   0.000017    0.08  0.000013  ( 0.003497  0.001081 -0.000268)
 14:    393.97   0.000977    4.94  0.000774  (-0.000177 -0.000296  0.027814)
 15:    495.57   0.004183   21.14  0.002634  ( 0.039842 -0.032354 -0.000465)
 16:    531.48   0.002605   13.17  0.001530  ( 0.004384  0.004299 -0.038627)
 17:    531.89   0.001798    9.09  0.001055  (-0.021397 -0.023238 -0.007566)
 18:    615.80   0.002179   11.01  0.001104  (-0.012891 -0.030618  0.000711)
 19:    661.64   0.012254   61.93  0.005780  (-0.006700 -0.075313  0.007912)
 20:    682.79   0.009288   46.94  0.004245  ( 0.000304  0.009217  0.064499)
 21:    700.25   0.009453   47.77  0.004213  (-0.061982  0.019255  0.000390)
 22:    758.01   0.000072    0.36  0.000029  ( 0.000056  0.000077  0.005426)
 23:    778.32   0.000081    0.41  0.000032  (-0.000395  0.000348 -0.005664)
 24:    816.15   0.003064   15.48  0.001171  ( 0.031590  0.013170  0.000168)
 25:    862.43   0.024997  126.32  0.009045  (-0.000636  0.000218  0.095102)
 26:    977.37   0.013527   68.36  0.004319  (-0.050020 -0.042627  0.000067)
 27:    990.08   0.023489  118.70  0.007404  ( 0.085301  0.011281  0.000044)
 28:    995.48   0.000065    0.33  0.000020  ( 0.003053  0.000532  0.003290)
 29:    999.30   0.000023    0.11  0.000007  (-0.000458 -0.000609  0.002548)
 30:   1129.24   0.004894   24.73  0.001352  ( 0.005558  0.036352  0.000125)
 31:   1159.53   0.000112    0.57  0.000030  ( 0.000861 -0.000398  0.005410)
 32:   1180.27   0.002486   12.57  0.000657  ( 0.023382  0.010520 -0.000158)
 33:   1198.63   0.000664    3.35  0.000173  (-0.013139 -0.000415 -0.000119)
 34:   1253.58   0.028032  141.66  0.006978  (-0.083524  0.001432 -0.000055)
 35:   1298.43   0.000313    1.58  0.000075  (-0.003795  0.007804  0.000013)
 36:   1341.48   0.010506   53.09  0.002444  ( 0.033180  0.036648  0.000053)
 37:   1363.36   0.111606  564.01  0.025546  (-0.159681  0.006913  0.000017)
 38:   1449.25   0.045811  231.51  0.009864  (-0.095540  0.027138  0.000300)
 39:   1470.15   0.007986   40.36  0.001695  ( 0.031261 -0.003181  0.026605)
 40:   1470.81   0.001357    6.86  0.000288  (-0.000495 -0.013211 -0.010638)
 41:   1472.54   0.026120  132.00  0.005535  ( 0.073205  0.005841 -0.011926)
 42:   1512.57   0.006550   33.10  0.001351  (-0.019244 -0.031320 -0.000128)
 43:   1518.93   0.146068  738.17  0.030010  (-0.172782  0.012497  0.000022)
 44:   1653.71   0.003773   19.07  0.000712  ( 0.026472  0.003356 -0.000066)
 45:   2115.57   0.213934  1081.13  0.031557  ( 0.177208 -0.012413  0.000090)
 46:   3062.43   0.003882   19.62  0.000396  (-0.017742 -0.008984 -0.000229)
 47:   3147.64   0.001187    6.00  0.000118  ( 0.000709  0.000485  0.010813)
 48:   3182.57   0.003082   15.57  0.000302  (-0.017204  0.002492  0.000064)
 49:   3207.18   0.000249    1.26  0.000024  (-0.002457 -0.004259 -0.000145)
 50:   3212.92   0.000002    0.01  0.000000  (-0.000421 -0.000047 -0.000064)
 51:   3220.44   0.000383    1.94  0.000037  (-0.003817 -0.004752 -0.000055)
 52:   3233.87   0.000956    4.83  0.000092  (-0.001341  0.009511  0.000053)
 53:   3411.59   0.015149   76.56  0.001386  ( 0.037061 -0.003486  0.000009)

--------------------------
THERMOCHEMISTRY AT 298.15K
--------------------------

Temperature         ...   298.15 K
Pressure            ...     1.00 atm
Total Mass          ...   132.16 AMU
Quasi RRHO          ...     True
Cut-Off Frequency   ...     1.00 cm^-1

Throughout the following assumptions are being made:
  (1) The electronic state is orbitally nondegenerate
      but the spin degeneracy is treated
  (2) There are no thermally accessible electronically excited states
  (3) Hindered rotations indicated by low frequency modes are not
      treated as such but are treated as vibrations and this may
      cause some error
  (4) All equations used are the standard statistical mechanics
      equations for an ideal gas
  (5) All vibrations are strictly harmonic

freq.      44.64  E(vib)   ...       0.53
freq.     118.06  E(vib)   ...       0.44
freq.     123.99  E(vib)   ...       0.43
freq.     134.56  E(vib)   ...       0.42
freq.     234.93  E(vib)   ...       0.32
freq.     242.84  E(vib)   ...       0.31
freq.     377.56  E(vib)   ...       0.21
freq.     383.31  E(vib)   ...       0.20
freq.     393.97  E(vib)   ...       0.20
freq.     495.57  E(vib)   ...       0.14
freq.     531.48  E(vib)   ...       0.13
freq.     531.89  E(vib)   ...       0.13
freq.     615.80  E(vib)   ...       0.10
freq.     661.64  E(vib)   ...       0.08
freq.     682.79  E(vib)   ...       0.08
freq.     700.25  E(vib)   ...       0.07
freq.     758.01  E(vib)   ...       0.06
freq.     778.32  E(vib)   ...       0.05
freq.     816.15  E(vib)   ...       0.05
freq.     862.43  E(vib)   ...       0.04
freq.     977.37  E(vib)   ...       0.03
freq.     990.08  E(vib)   ...       0.02
freq.     995.48  E(vib)   ...       0.02
freq.     999.30  E(vib)   ...       0.02
freq.    1129.24  E(vib)   ...       0.01
freq.    1159.53  E(vib)   ...       0.01
freq.    1180.27  E(vib)   ...       0.01
freq.    1198.63  E(vib)   ...       0.01
freq.    1253.58  E(vib)   ...       0.01
freq.    1298.43  E(vib)   ...       0.01
freq.    1341.48  E(vib)   ...       0.01
freq.    1363.36  E(vib)   ...       0.01
freq.    1449.25  E(vib)   ...       0.00
freq.    1470.15  E(vib)   ...       0.00
freq.    1470.81  E(vib)   ...       0.00
freq.    1472.54  E(vib)   ...       0.00
freq.    1512.57  E(vib)   ...       0.00
freq.    1518.93  E(vib)   ...       0.00
freq.    1653.71  E(vib)   ...       0.00
freq.    2115.57  E(vib)   ...       0.00
freq.    3062.43  E(vib)   ...       0.00
freq.    3147.64  E(vib)   ...       0.00
freq.    3182.57  E(vib)   ...       0.00
freq.    3207.18  E(vib)   ...       0.00
freq.    3212.92  E(vib)   ...       0.00
freq.    3220.44  E(vib)   ...       0.00
freq.    3233.87  E(vib)   ...       0.00
freq.    3411.59  E(vib)   ...       0.00

------------
INNER ENERGY
------------

The inner energy is: U= E(el) + E(ZPE) + E(vib) + E(rot) + E(trans)
    E(el)   - is the total energy from the electronic structure calculation
              = E(kin-el) + E(nuc-el) + E(el-el) + E(nuc-nuc)
    E(ZPE)  - the the zero temperature vibrational energy from the frequency calculation
    E(vib)  - the the finite temperature correction to E(ZPE) due to population
              of excited vibrational states
    E(rot)  - is the rotational thermal energy
    E(trans)- is the translational thermal energy

Summary of contributions to the inner energy U:
Electronic energy                ...   -422.65423012 Eh
Zero point energy                ...      0.14060188 Eh      88.23 kcal/mol
Thermal vibrational correction   ...      0.00664864 Eh       4.17 kcal/mol
Thermal rotational correction    ...      0.00141627 Eh       0.89 kcal/mol
Thermal translational correction ...      0.00141627 Eh       0.89 kcal/mol
-----------------------------------------------------------------------
Total thermal energy                   -422.50414705 Eh

Summary of corrections to the electronic energy:
(perhaps to be used in another calculation)
Total thermal correction                  0.00948118 Eh       5.95 kcal/mol
Non-thermal (ZPE) correction              0.14060188 Eh      88.23 kcal/mol
-----------------------------------------------------------------------
Total correction                          0.15008306 Eh      94.18 kcal/mol

--------
ENTHALPY
--------

The enthalpy is H = U + kB*T
                kB is Boltzmann's constant
Total thermal energy              ...   -422.50414705 Eh
Thermal Enthalpy correction       ...      0.00094421 Eh       0.59 kcal/mol
-----------------------------------------------------------------------
Total Enthalpy                    ...   -422.50320284 Eh

Note: Only C1 symmetry has been detected, increase convergence thresholds
      if your molecule has a higher symmetry. Symmetry factor of 1.0 is
      used for the rotational entropy correction.

Note: Rotational entropy computed according to Herzberg
Infrared and Raman Spectra, Chapter V,1, Van Nostrand Reinhold, 1945
Point Group:  C1, Symmetry Number:   1
Rotational constants in cm-1:     0.157061     0.024101     0.020979

Vibrational entropy computed according to the QRRHO of S. Grimme
Chem.Eur.J. 2012 18 9955 using a reference frequency of 100.0 cm-1

-------
ENTROPY
-------

The entropy contributions are T*S = T*(S(el)+S(vib)+S(rot)+S(trans))
     S(el)   - electronic entropy
     S(vib)  - vibrational entropy
     S(rot)  - rotational entropy
     S(trans)- translational entropy
The entropies will be listed as multiplied by the temperature to get
units of energy

Electronic entropy                ...      0.00065446 Eh      0.41 kcal/mol
Vibrational entropy               ...      0.01138527 Eh      7.14 kcal/mol
Rotational entropy                ...      0.01396776 Eh      8.76 kcal/mol
Translational entropy             ...      0.01926618 Eh     12.09 kcal/mol
-----------------------------------------------------------------------
Final entropy term                ...      0.04527366 Eh     28.41 kcal/mol

In case the symmetry of your molecule has not been determined correctly
or in case you have a reason to use a different symmetry number we print
out the resulting rotational entropy values for sn=1,12:

 non-linear molecules -----------------------------------
|  sn= 1 | S(rot)=       0.01396776 Eh      8.76 kcal/mol|
|  sn= 2 | S(rot)=       0.01331330 Eh      8.35 kcal/mol|
|  sn= 3 | S(rot)=       0.01293047 Eh      8.11 kcal/mol|
|  sn= 4 | S(rot)=       0.01265884 Eh      7.94 kcal/mol|
|  sn= 5 | S(rot)=       0.01244816 Eh      7.81 kcal/mol|
|  sn= 6 | S(rot)=       0.01227601 Eh      7.70 kcal/mol|
|  sn= 7 | S(rot)=       0.01213047 Eh      7.61 kcal/mol|
|  sn= 8 | S(rot)=       0.01200439 Eh      7.53 kcal/mol|
|  sn= 9 | S(rot)=       0.01189318 Eh      7.46 kcal/mol|
|  sn=10 | S(rot)=       0.01179370 Eh      7.40 kcal/mol|
|  sn=11 | S(rot)=       0.01170371 Eh      7.34 kcal/mol|

                             ****ORCA TERMINATED NORMALLY****
TOTAL RUN TIME: 0 days 0 hours 41 minutes 58 seconds 855 msec
