                         Program Version 6.0.0  -   RELEASE  -
|  1> !r2SCANh aug-cc-pVTZ d3 TightSCF SlowConv RIJCOSX defgrid2
|  2>
|  3> %pal
|  4> nprocs 6
|  5> end
|  6>
|  7> %scf
|  8> MaxIter 1500
|  9> end
| 10>
| 11> %maxcore 3000
| 12>
| 13> !CPCM
| 14> %cpcm smd true
| 15> SMDsolvent "MeCN"
| 16> surfacetype gepol_ses
| 17> rsolv 2.19
| 18> end
| 19>
| 20> * xyz -1 2
| 21>   C          -1.16908364743389     -1.25106043112589     -0.00046711885945
| 22>   C          -2.51558895662628     -0.94805778331016     -0.00048970260602
| 23>   C          -2.96951415995677      0.38786935411419     -0.00003437372110
| 24>   C          -1.99949719417351      1.41257476413842      0.00046952009611
| 25>   C          -0.64650719425624      1.13368035065037      0.00050575201273
| 26>   C          -0.16707249946699     -0.21739071251225      0.00002200149285
| 27>   C           1.18771930240505     -0.62830725495849      0.00000084051024
| 28>   O           1.69166054938407     -1.73447405522234     -0.00027921149921
| 29>   Cl          2.41415222066200      0.84117378911090      0.00088007792741
| 30>   H           0.08783721642061      1.94210741862158      0.00088650713536
| 31>   H          -2.32239478311716      2.46171169296406      0.00083360203305
| 32>   H          -4.03893270236722      0.62157662484535     -0.00006413910783
| 33>   H          -3.24555265578784     -1.76825494852385     -0.00088549117391
| 34>   H          -0.82790279568582     -2.29013880879190     -0.00083276424023
| 35> *
| 36>
| 37>                          ****END OF INPUT****

CARTESIAN COORDINATES (ANGSTROEM)
---------------------------------
  C     -1.169084   -1.251060   -0.000467
  C     -2.515589   -0.948058   -0.000490
  C     -2.969514    0.387869   -0.000034
  C     -1.999497    1.412575    0.000470
  C     -0.646507    1.133680    0.000506
  C     -0.167072   -0.217391    0.000022
  C      1.187719   -0.628307    0.000001
  O      1.691661   -1.734474   -0.000279
  Cl     2.414152    0.841174    0.000880
  H      0.087837    1.942107    0.000887
  H     -2.322395    2.461712    0.000834
  H     -4.038933    0.621577   -0.000064
  H     -3.245553   -1.768255   -0.000885
  H     -0.827903   -2.290139   -0.000833

 Total Charge           Charge          ....   -1
 Multiplicity           Mult            ....    2
 Number of Electrons    NEL             ....   73
 Basis Dimension        Dim             ....  533

ORBITAL ENERGIES
----------------
                 SPIN UP ORBITALS
  NO   OCC          E(Eh)            E(eV)
   0   1.0000    -101.536813     -2762.9572
   1   1.0000     -19.081030      -519.2212
   2   1.0000     -10.231440      -278.4116
   3   1.0000     -10.150661      -276.2135
   4   1.0000     -10.144570      -276.0478
   5   1.0000     -10.143906      -276.0297
   6   1.0000     -10.142878      -276.0017
   7   1.0000     -10.142524      -275.9921
   8   1.0000     -10.138828      -275.8915
   9   1.0000      -9.447985      -257.0927
  10   1.0000      -7.165272      -194.9770
  11   1.0000      -7.159671      -194.8245
  12   1.0000      -7.159084      -194.8086
  13   1.0000      -1.024430       -27.8762
  14   1.0000      -0.837727       -22.7957
  15   1.0000      -0.784779       -21.3549
  16   1.0000      -0.736044       -20.0288
  17   1.0000      -0.727889       -19.8069
  18   1.0000      -0.623239       -16.9592
  19   1.0000      -0.575999       -15.6737
  20   1.0000      -0.526865       -14.3367
  21   1.0000      -0.477762       -13.0006
  22   1.0000      -0.437782       -11.9126
  23   1.0000      -0.428058       -11.6481
  24   1.0000      -0.402391       -10.9496
  25   1.0000      -0.399784       -10.8787
  26   1.0000      -0.390970       -10.6388
  27   1.0000      -0.383839       -10.4448
  28   1.0000      -0.344019        -9.3612
  29   1.0000      -0.332392        -9.0449
  30   1.0000      -0.303052        -8.2465
  31   1.0000      -0.282312        -7.6821
  32   1.0000      -0.278782        -7.5860
  33   1.0000      -0.246542        -6.7088
  34   1.0000      -0.245509        -6.6806
  35   1.0000      -0.244165        -6.6441
  36   1.0000      -0.107392        -2.9223
  37   0.0000      -0.009727        -0.2647
  38   0.0000       0.005658         0.1540
  39   0.0000       0.021788         0.5929
  40   0.0000       0.027198         0.7401
  41   0.0000       0.030685         0.8350

                 SPIN DOWN ORBITALS
  NO   OCC          E(Eh)            E(eV)
   0   1.0000    -101.536790     -2762.9565
   1   1.0000     -19.074666      -519.0480
   2   1.0000     -10.225737      -278.2564
   3   1.0000     -10.150559      -276.2107
   4   1.0000     -10.146691      -276.1055
   5   1.0000     -10.145907      -276.0842
   6   1.0000     -10.139135      -275.8999
   7   1.0000     -10.138951      -275.8949
   8   1.0000     -10.133278      -275.7405
   9   1.0000      -9.447970      -257.0923
  10   1.0000      -7.165494      -194.9830
  11   1.0000      -7.159354      -194.8159
  12   1.0000      -7.159090      -194.8087
  13   1.0000      -1.013905       -27.5898
  14   1.0000      -0.833120       -22.6703
  15   1.0000      -0.781959       -21.2782
  16   1.0000      -0.730211       -19.8700
  17   1.0000      -0.724279       -19.7086
  18   1.0000      -0.608984       -16.5713
  19   1.0000      -0.574869       -15.6430
  20   1.0000      -0.522416       -14.2157
  21   1.0000      -0.472594       -12.8600
  22   1.0000      -0.435235       -11.8433
  23   1.0000      -0.423150       -11.5145
  24   1.0000      -0.401114       -10.9149
  25   1.0000      -0.390015       -10.6128
  26   1.0000      -0.381001       -10.3676
  27   1.0000      -0.371997       -10.1226
  28   1.0000      -0.330073        -8.9817
  29   1.0000      -0.328309        -8.9338
  30   1.0000      -0.302188        -8.2229
  31   1.0000      -0.278065        -7.5665
  32   1.0000      -0.275393        -7.4938
  33   1.0000      -0.240551        -6.5457
  34   1.0000      -0.235824        -6.4171
  35   1.0000      -0.224521        -6.1095
  36   0.0000      -0.042294        -1.1509
  37   0.0000      -0.004537        -0.1234
  38   0.0000       0.008878         0.2416
  39   0.0000       0.025531         0.6947
  40   0.0000       0.028680         0.7804

MULLIKEN ATOMIC CHARGES AND SPIN POPULATIONS
--------------------------------------------
   0 C :   -0.947094    0.296453
   1 C :   -0.402766   -0.200854
   2 C :   -0.417280    0.389066
   3 C :   -0.617015   -0.187116
   4 C :   -0.977102    0.301142
   5 C :    1.696161   -0.010444
   6 C :    0.392233    0.270357
   7 O :   -0.845485    0.206936
   8 Cl:   -0.458501    0.008223
   9 H :    0.197432   -0.017443
  10 H :    0.426883   -0.014927
  11 H :    0.502204   -0.013495
  12 H :    0.373017   -0.007621
  13 H :    0.077313   -0.020276
Sum of atomic charges         :   -1.0000000

LOEWDIN ATOMIC CHARGES AND SPIN POPULATIONS
-------------------------------------------
   0 C :    0.132176    0.104580
   1 C :    0.132639    0.018575
   2 C :    0.147239    0.143156
   3 C :    0.129453    0.019803
   4 C :    0.096686    0.102124
   5 C :   -0.333907    0.115320
   6 C :   -1.145156    0.210251
   7 O :    0.288442    0.190376
   8 Cl:    0.603146    0.028961
   9 H :   -0.274940    0.022415
  10 H :   -0.186745   -0.008881
  11 H :   -0.199175    0.038827
  12 H :   -0.185454   -0.009466
  13 H :   -0.204405    0.023959

  Mayer bond orders larger than 0.100000
B(  0-C ,  1-C ) :   1.2176 B(  0-C ,  4-C ) :  -0.1668 B(  0-C ,  5-C ) :   0.1380
B(  0-C ,  6-C ) :   0.2475 B(  0-C , 12-H ) :  -0.1146 B(  0-C , 13-H ) :   1.0595
B(  1-C ,  2-C ) :   0.9276 B(  1-C ,  4-C ) :  -0.1163 B(  1-C , 12-H ) :   0.8000
B(  2-C ,  3-C ) :   0.9668 B(  2-C ,  5-C ) :  -0.1590 B(  2-C ,  6-C ) :   0.1407
B(  2-C , 11-H ) :   0.6134 B(  3-C ,  4-C ) :   1.2168 B(  3-C , 10-H ) :   0.7201
B(  4-C ,  6-C ) :   0.3720 B(  4-C ,  9-H ) :   1.2835 B(  4-C , 10-H ) :  -0.1164
B(  4-C , 13-H ) :   0.1147 B(  5-C ,  6-C ) :   0.6533 B(  5-C ,  7-O ) :   0.2136
B(  5-C , 13-H ) :  -0.1123 B(  6-C ,  7-O ) :   0.8186 B(  6-C ,  8-Cl) :   0.7140
B(  7-O , 13-H ) :   0.1502 B(  8-Cl,  9-H ) :  -0.1277

Dispersion correction           -0.004951820
FINAL SINGLE POINT ENERGY      -805.211102777165

DIPOLE MOMENT
-------------

Method             : SCF
Type of density    : Electron Density
Multiplicity       :   2
Irrep              :   0
Energy             :  -805.2061509571458373 Eh
Relativity type    :
Basis              : AO
                                X                 Y                 Z
Electronic contribution:     11.080023561       1.045265284       0.001889788
Nuclear contribution   :    -12.989017313      -0.288558488      -0.001883982
                        -----------------------------------------
Total Dipole Moment    :     -1.908993752       0.756706797       0.000005806
                        -----------------------------------------
Magnitude (a.u.)       :      2.053500018
Magnitude (Debye)      :      5.219582237

Rotational constants in cm-1:             0.100365             0.030413             0.023340
Rotational constants in MHz :          3008.857541           911.756969           699.723685

                             ****ORCA TERMINATED NORMALLY****
TOTAL RUN TIME: 0 days 0 hours 5 minutes 10 seconds 124 msec
