                         Program Version 6.0.0  -   RELEASE  -
|  1> !PBE0 aug-cc-pVTZ d3 TightSCF SlowConv RIJCOSX defgrid2
|  2>
|  3> %pal
|  4> nprocs 4
|  5> end
|  6>
|  7> %scf
|  8> MaxIter 1500
|  9> end
| 10>
| 11> %maxcore 3000
| 12>
| 13> !CPCM
| 14> %cpcm smd true
| 15> SMDsolvent "MeCN"
| 16> surfacetype gepol_ses
| 17> rsolv 2.19
| 18> end
| 19>
| 20> * xyz 1 2
| 21> C           0.42766922826058      1.09250554753671     -0.00002934984792
| 22> C          -0.91803929338371      1.32112616186701     -0.00007862922355
| 23> C          -1.83359468145124      0.22604701172772     -0.00005052019445
| 24> C          -1.34403470586700     -1.10812997260672      0.00004176990950
| 25> C           0.01076802795708     -1.32157729093281      0.00010017037764
| 26> C           0.94695487201857     -0.24147431186404      0.00005526206874
| 27> C           2.33481183567959     -0.54917553496955      0.00008494824583
| 28> C           3.37151795017655      0.35638842083076      0.00003100754924
| 29> C           4.79867889425726     -0.01212296739284      0.00003041343018
| 30> H           5.30495592523331      0.43227355340951      0.87968521925492
| 31> H           5.30486849674351      0.43200595766830     -0.87981167059255
| 32> H           4.96193499106042     -1.10070955791719      0.00017599972354
| 33> H           3.14539862986225      1.43012139140852     -0.00004517175902
| 34> H           2.59593124142522     -1.61436223702820      0.00015424626296
| 35> H           0.39241616474177     -2.34656611487460      0.00017208140391
| 36> H          -2.03091333615712     -1.95604876858454      0.00007442711173
| 37> O          -3.09670762656711      0.54742056766508     -0.00013047431290
| 38> C          -4.12777516023530     -0.43476601526242     -0.00013255885468
| 39> H          -4.06321175276157     -1.05773088391001      0.90732683477409
| 40> H          -4.06307084433532     -1.05786982004323     -0.90748503150178
| 41> H          -5.07065366505136      0.12679713547228     -0.00024982874602
| 42> H          -1.33253890672666      2.33189179701734     -0.00014213674034
| 43> H           1.10842431512030      1.94641593078294     -0.00005240833907
| 44> *
| 45>
| 46>                          ****END OF INPUT****

CARTESIAN COORDINATES (ANGSTROEM)
---------------------------------
  C      0.427669    1.092506   -0.000029
  C     -0.918039    1.321126   -0.000079
  C     -1.833595    0.226047   -0.000051
  C     -1.344035   -1.108130    0.000042
  C      0.010768   -1.321577    0.000100
  C      0.946955   -0.241474    0.000055
  C      2.334812   -0.549176    0.000085
  C      3.371518    0.356388    0.000031
  C      4.798679   -0.012123    0.000030
  H      5.304956    0.432274    0.879685
  H      5.304868    0.432006   -0.879812
  H      4.961935   -1.100710    0.000176
  H      3.145399    1.430121   -0.000045
  H      2.595931   -1.614362    0.000154
  H      0.392416   -2.346566    0.000172
  H     -2.030913   -1.956049    0.000074
  O     -3.096708    0.547421   -0.000130
  C     -4.127775   -0.434766   -0.000133
  H     -4.063212   -1.057731    0.907327
  H     -4.063071   -1.057870   -0.907485
  H     -5.070654    0.126797   -0.000250
  H     -1.332539    2.331892   -0.000142
  H      1.108424    1.946416   -0.000052

 Total Charge           Charge          ....    1
 Multiplicity           Mult            ....    2
 Number of Electrons    NEL             ....   79
 Basis Dimension        Dim             ....  782

ORBITAL ENERGIES
----------------
                 SPIN UP ORBITALS
  NO   OCC          E(Eh)            E(eV)
   0   1.0000     -19.301006      -525.2071
   1   1.0000     -10.350049      -281.6391
   2   1.0000     -10.291678      -280.0508
   3   1.0000     -10.287911      -279.9483
   4   1.0000     -10.287777      -279.9446
   5   1.0000     -10.273843      -279.5655
   6   1.0000     -10.271143      -279.4920
   7   1.0000     -10.269842      -279.4566
   8   1.0000     -10.265771      -279.3458
   9   1.0000     -10.264842      -279.3206
  10   1.0000     -10.234170      -278.4859
  11   1.0000      -1.164602       -31.6904
  12   1.0000      -0.926675       -25.2161
  13   1.0000      -0.866299       -23.5732
  14   1.0000      -0.821067       -22.3424
  15   1.0000      -0.809677       -22.0324
  16   1.0000      -0.766207       -20.8496
  17   1.0000      -0.713971       -19.4281
  18   1.0000      -0.667287       -18.1578
  19   1.0000      -0.646783       -17.5999
  20   1.0000      -0.598790       -16.2939
  21   1.0000      -0.582454       -15.8494
  22   1.0000      -0.543504       -14.7895
  23   1.0000      -0.535607       -14.5746
  24   1.0000      -0.526654       -14.3310
  25   1.0000      -0.486438       -13.2367
  26   1.0000      -0.470149       -12.7934
  27   1.0000      -0.467466       -12.7204
  28   1.0000      -0.448736       -12.2107
  29   1.0000      -0.447907       -12.1882
  30   1.0000      -0.439475       -11.9587
  31   1.0000      -0.431662       -11.7461
  32   1.0000      -0.403396       -10.9770
  33   1.0000      -0.401230       -10.9180
  34   1.0000      -0.392392       -10.6775
  35   1.0000      -0.384219       -10.4551
  36   1.0000      -0.364054        -9.9064
  37   1.0000      -0.327080        -8.9003
  38   1.0000      -0.308910        -8.4059
  39   1.0000      -0.255960        -6.9650
  40   0.0000      -0.077696        -2.1142
  41   0.0000      -0.041392        -1.1263
  42   0.0000      -0.001308        -0.0356
  43   0.0000       0.007012         0.1908
  44   0.0000       0.011681         0.3179

                 SPIN DOWN ORBITALS
  NO   OCC          E(Eh)            E(eV)
   0   1.0000     -19.297052      -525.0995
   1   1.0000     -10.347455      -281.5686
   2   1.0000     -10.288283      -279.9584
   3   1.0000     -10.287926      -279.9487
   4   1.0000     -10.281788      -279.7817
   5   1.0000     -10.273191      -279.5477
   6   1.0000     -10.270893      -279.4852
   7   1.0000     -10.270261      -279.4680
   8   1.0000     -10.265244      -279.3315
   9   1.0000     -10.264295      -279.3057
  10   1.0000     -10.234407      -278.4924
  11   1.0000      -1.157068       -31.4854
  12   1.0000      -0.920396       -25.0452
  13   1.0000      -0.857206       -23.3258
  14   1.0000      -0.816067       -22.2063
  15   1.0000      -0.804303       -21.8862
  16   1.0000      -0.764794       -20.8111
  17   1.0000      -0.708286       -19.2734
  18   1.0000      -0.663929       -18.0664
  19   1.0000      -0.641359       -17.4523
  20   1.0000      -0.594603       -16.1800
  21   1.0000      -0.580078       -15.7847
  22   1.0000      -0.541161       -14.7258
  23   1.0000      -0.532735       -14.4964
  24   1.0000      -0.511785       -13.9264
  25   1.0000      -0.484134       -13.1740
  26   1.0000      -0.468154       -12.7391
  27   1.0000      -0.466667       -12.6986
  28   1.0000      -0.446698       -12.1553
  29   1.0000      -0.437851       -11.9145
  30   1.0000      -0.433728       -11.8023
  31   1.0000      -0.419926       -11.4268
  32   1.0000      -0.401924       -10.9369
  33   1.0000      -0.399341       -10.8666
  34   1.0000      -0.382326       -10.4036
  35   1.0000      -0.376161       -10.2359
  36   1.0000      -0.361635        -9.8406
  37   1.0000      -0.305881        -8.3234
  38   1.0000      -0.300406        -8.1745
  39   0.0000      -0.174317        -4.7434
  40   0.0000      -0.050574        -1.3762
  41   0.0000      -0.029618        -0.8059
  42   0.0000      -0.000812        -0.0221
  43   0.0000       0.007586         0.2064

MULLIKEN ATOMIC CHARGES AND SPIN POPULATIONS
--------------------------------------------
   0 C :   -0.561465   -0.003380
   1 C :   -0.953129    0.025454
   2 C :    1.042011    0.160207
   3 C :   -0.541312    0.035407
   4 C :   -0.731421    0.022890
   5 C :    1.449347    0.238266
   6 C :   -0.105867    0.014476
   7 C :   -0.319021    0.378907
   8 C :   -0.806942   -0.038257
   9 H :    0.247316    0.027028
  10 H :    0.247134    0.027047
  11 H :    0.294470   -0.006611
  12 H :    0.330499   -0.028581
  13 H :    0.239142    0.003452
  14 H :    0.211150   -0.001685
  15 H :    0.608210    0.009200
  16 O :   -0.625560    0.126198
  17 C :   -0.726125   -0.010573
  18 H :    0.332978    0.005851
  19 H :    0.332649    0.005671
  20 H :    0.267128    0.000869
  21 H :    0.660259    0.003373
  22 H :    0.108549    0.004790
Sum of atomic charges         :    1.0000000

LOEWDIN ATOMIC CHARGES AND SPIN POPULATIONS
-------------------------------------------
   0 C :    0.254146    0.042321
   1 C :    0.263369    0.046059
   2 C :   -0.354522    0.113487
   3 C :    0.268644    0.054705
   4 C :    0.258784    0.058584
   5 C :   -0.089888    0.119946
   6 C :    0.268676    0.083460
   7 C :    0.282833    0.202726
   8 C :    0.596399    0.065161
   9 H :   -0.141471    0.014090
  10 H :   -0.141421    0.014095
  11 H :   -0.155753    0.001403
  12 H :   -0.151216    0.035723
  13 H :   -0.154319    0.000636
  14 H :   -0.138458    0.005010
  15 H :   -0.159934    0.004949
  16 O :    0.642539    0.115592
  17 C :    0.405331    0.011709
  18 H :   -0.146664    0.003069
  19 H :   -0.146710    0.003069
  20 H :   -0.156684   -0.000322
  21 H :   -0.145689    0.003583
  22 H :   -0.157993    0.000945

  Mayer bond orders larger than 0.100000
B(  0-C ,  1-C ) :   1.2239 B(  0-C ,  2-C ) :  -0.3046 B(  0-C ,  3-C ) :  -0.3650
B(  0-C ,  4-C ) :  -0.5553 B(  0-C ,  5-C ) :   0.4834 B(  0-C ,  6-C ) :   0.2390
B(  0-C ,  7-C ) :   0.1179 B(  0-C , 21-H ) :   0.1453 B(  0-C , 22-H ) :   1.3792
B(  1-C ,  2-C ) :   0.8642 B(  1-C ,  3-C ) :   0.2653 B(  1-C ,  5-C ) :   0.2474
B(  1-C , 16-O ) :   0.2978 B(  2-C ,  3-C ) :   1.0555 B(  2-C ,  4-C ) :  -0.3457
B(  2-C ,  6-C ) :   0.1094 B(  2-C , 15-H ) :   0.1640 B(  2-C , 16-O ) :   0.4672
B(  2-C , 21-H ) :   0.1513 B(  3-C ,  4-C ) :   1.2066 B(  3-C ,  5-C ) :   0.2121
B(  3-C , 15-H ) :   0.1568 B(  4-C ,  5-C ) :   0.3560 B(  4-C ,  6-C ) :  -0.1097
B(  4-C , 14-H ) :   1.2380 B(  5-C ,  6-C ) :   0.4271 B(  5-C ,  7-C ) :  -0.2480
B(  5-C , 12-H ) :  -0.1054 B(  6-C ,  7-C ) :   1.0013 B(  6-C , 13-H ) :   0.9701
B(  6-C , 14-H ) :  -0.1116 B(  7-C ,  8-C ) :   0.8932 B(  7-C , 12-H ) :   1.0405
B(  8-C ,  9-H ) :   0.9448 B(  8-C , 10-H ) :   0.9445 B(  8-C , 11-H ) :   0.8942
B( 14-H , 22-H ) :   0.1867 B( 16-O , 17-C ) :   1.0217 B( 17-C , 18-H ) :   0.8620
B( 17-C , 19-H ) :   0.8619 B( 17-C , 20-H ) :   0.9550

Dispersion correction           -0.019927092
FINAL SINGLE POINT ENERGY      -462.934208861340

DIPOLE MOMENT
-------------

Method             : SCF
Type of density    : Electron Density
Multiplicity       :   2
Irrep              :   0
Energy             :  -462.9142817693854113 Eh
Relativity type    :
Basis              : AO
                                X                 Y                 Z
Electronic contribution:     -5.274213650       1.633471147      -0.000369978
Nuclear contribution   :      5.760035760      -2.141608365      -0.000061222
                        -----------------------------------------
Total Dipole Moment    :      0.485822109      -0.508137218      -0.000431200
                        -----------------------------------------
Magnitude (a.u.)       :      0.703012617
Magnitude (Debye)      :      1.786916064

Rotational constants in cm-1:             0.146577             0.015467             0.014066
Rotational constants in MHz :          4394.279814           463.685769           421.681577

                             ****ORCA TERMINATED NORMALLY****
TOTAL RUN TIME: 0 days 0 hours 11 minutes 23 seconds 257 msec
