                         Program Version 6.0.0  -   RELEASE  -
|  1> !r2SCAN freq aug-cc-pVTZ d3 TightSCF SlowConv RIJCOSX defgrid2
|  2>
|  3> %pal
|  4> nprocs 12
|  5> end
|  6>
|  7> %scf
|  8> MaxIter 1500
|  9> end
| 10>
| 11> %maxcore 5000
| 12>
| 13> !CPCM
| 14> %cpcm smd true
| 15> SMDsolvent "MeCN"
| 16> surfacetype gepol_ses
| 17> rsolv 2.19
| 18> end
| 19>
| 20> * xyz 1 2
| 21> C           2.43734962072344     -0.69283039368824     -0.00011358420026
| 22> C           2.43736733322946      0.69276953271561     -0.00025798581825
| 23> C           1.22825478760172      1.39708269200042     -0.00025298701384
| 24> C           0.00001082044108      0.71260940093786      0.00000462564657
| 25> C          -1.22821541044001      1.39711411317378      0.00026437037548
| 26> C          -2.43734636692464      0.69283240969486      0.00026826741854
| 27> C          -2.43736442819769     -0.69276741432946      0.00012069273356
| 28> C          -1.22825108953411     -1.39708004747009      0.00012567505487
| 29> C          -0.00000741485117     -0.71260671745239      0.00000325491388
| 30> C           1.22821835487458     -1.39711206024927     -0.00012009444627
| 31> H           1.23207726256149     -2.48030915900948     -0.00004249143479
| 32> H          -1.23213773696526     -2.48027720689233      0.00004567561737
| 33> H          -3.37230023032845     -1.23729080283753     -0.00040087572634
| 34> H          -3.37226788745900      1.23738016325922     -0.00013065645405
| 35> H          -1.23207542542101      2.48031138339631      0.00027977249962
| 36> H           1.23214336544346      2.48027989129696     -0.00026612278838
| 37> H           3.37230318528835      1.23729266534849      0.00014244617872
| 38> H           3.37227225995778     -1.23737644989472      0.00040661744355
| 39> *
| 40>
| 41>                          ****END OF INPUT****

CARTESIAN COORDINATES (ANGSTROEM)
---------------------------------
  C      2.437350   -0.692830   -0.000114
  C      2.437367    0.692770   -0.000258
  C      1.228255    1.397083   -0.000253
  C      0.000011    0.712609    0.000005
  C     -1.228215    1.397114    0.000264
  C     -2.437346    0.692832    0.000268
  C     -2.437364   -0.692767    0.000121
  C     -1.228251   -1.397080    0.000126
  C     -0.000007   -0.712607    0.000003
  C      1.228218   -1.397112   -0.000120
  H      1.232077   -2.480309   -0.000042
  H     -1.232138   -2.480277    0.000046
  H     -3.372300   -1.237291   -0.000401
  H     -3.372268    1.237380   -0.000131
  H     -1.232075    2.480311    0.000280
  H      1.232143    2.480280   -0.000266
  H      3.372303    1.237293    0.000142
  H      3.372272   -1.237376    0.000407

 Total Charge           Charge          ....    1
 Multiplicity           Mult            ....    2
 Number of Electrons    NEL             ....   67
 Basis Dimension        Dim             ....  644

ORBITAL ENERGIES
----------------
                 SPIN UP ORBITALS
  NO   OCC          E(Eh)            E(eV)
   0   1.0000     -10.095771      -274.7199
   1   1.0000     -10.095754      -274.7194
   2   1.0000     -10.095750      -274.7193
   3   1.0000     -10.095737      -274.7190
   4   1.0000     -10.085363      -274.4367
   5   1.0000     -10.085023      -274.4274
   6   1.0000     -10.080879      -274.3147
   7   1.0000     -10.080877      -274.3146
   8   1.0000     -10.080399      -274.3016
   9   1.0000     -10.080388      -274.3013
  10   1.0000      -0.887355       -24.1462
  11   1.0000      -0.833069       -22.6690
  12   1.0000      -0.787702       -21.4345
  13   1.0000      -0.750893       -20.4328
  14   1.0000      -0.729159       -19.8414
  15   1.0000      -0.638093       -17.3634
  16   1.0000      -0.616559       -16.7774
  17   1.0000      -0.603328       -16.4174
  18   1.0000      -0.517562       -14.0836
  19   1.0000      -0.512994       -13.9593
  20   1.0000      -0.498149       -13.5553
  21   1.0000      -0.448475       -12.2036
  22   1.0000      -0.446232       -12.1426
  23   1.0000      -0.423213       -11.5162
  24   1.0000      -0.419487       -11.4148
  25   1.0000      -0.414499       -11.2791
  26   1.0000      -0.395018       -10.7490
  27   1.0000      -0.373923       -10.1750
  28   1.0000      -0.353821        -9.6280
  29   1.0000      -0.339612        -9.2413
  30   1.0000      -0.334355        -9.0983
  31   1.0000      -0.319343        -8.6898
  32   1.0000      -0.271375        -7.3845
  33   1.0000      -0.254294        -6.9197
  34   0.0000      -0.124597        -3.3904
  35   0.0000      -0.071773        -1.9530
  36   0.0000      -0.052456        -1.4274
  37   0.0000       0.005022         0.1367
  38   0.0000       0.019096         0.5196

                 SPIN DOWN ORBITALS
  NO   OCC          E(Eh)            E(eV)
   0   1.0000     -10.091371      -274.6002
   1   1.0000     -10.091354      -274.5997
   2   1.0000     -10.091346      -274.5995
   3   1.0000     -10.091331      -274.5991
   4   1.0000     -10.086531      -274.4685
   5   1.0000     -10.086193      -274.4593
   6   1.0000     -10.080231      -274.2970
   7   1.0000     -10.080229      -274.2970
   8   1.0000     -10.079751      -274.2840
   9   1.0000     -10.079741      -274.2837
  10   1.0000      -0.882543       -24.0152
  11   1.0000      -0.825978       -22.4760
  12   1.0000      -0.777700       -21.1623
  13   1.0000      -0.750659       -20.4265
  14   1.0000      -0.715552       -19.4711
  15   1.0000      -0.631937       -17.1959
  16   1.0000      -0.613859       -16.7040
  17   1.0000      -0.597992       -16.2722
  18   1.0000      -0.515420       -14.0253
  19   1.0000      -0.508187       -13.8285
  20   1.0000      -0.496795       -13.5185
  21   1.0000      -0.446664       -12.1543
  22   1.0000      -0.446238       -12.1428
  23   1.0000      -0.421494       -11.4694
  24   1.0000      -0.417454       -11.3595
  25   1.0000      -0.401704       -10.9309
  26   1.0000      -0.392503       -10.6806
  27   1.0000      -0.373215       -10.1557
  28   1.0000      -0.337738        -9.1903
  29   1.0000      -0.335962        -9.1420
  30   1.0000      -0.333807        -9.0834
  31   1.0000      -0.292843        -7.9687
  32   1.0000      -0.270810        -7.3691
  33   0.0000      -0.217262        -5.9120
  34   0.0000      -0.094888        -2.5820
  35   0.0000      -0.066948        -1.8218
  36   0.0000      -0.029970        -0.8155
  37   0.0000       0.006305         0.1716

MULLIKEN ATOMIC CHARGES AND SPIN POPULATIONS
--------------------------------------------
   0 C :   -0.383495    0.015573
   1 C :   -0.383500    0.015573
   2 C :   -1.039075    0.253421
   3 C :    1.912079   -0.085740
   4 C :   -1.039059    0.253432
   5 C :   -0.383510    0.015560
   6 C :   -0.383503    0.015586
   7 C :   -1.039017    0.253411
   8 C :    1.912111   -0.085728
   9 C :   -1.039009    0.253418
  10 H :    0.070312    0.030503
  11 H :    0.070304    0.030501
  12 H :    0.646173   -0.006625
  13 H :    0.646176   -0.006628
  14 H :    0.070318    0.030503
  15 H :    0.070320    0.030492
  16 H :    0.646194   -0.006625
  17 H :    0.646182   -0.006626
Sum of atomic charges         :    1.0000000

LOEWDIN ATOMIC CHARGES AND SPIN POPULATIONS
-------------------------------------------
   0 C :    0.282515    0.070372
   1 C :    0.282513    0.070370
   2 C :    0.302624    0.132058
   3 C :   -0.089195    0.029411
   4 C :    0.302623    0.132058
   5 C :    0.282513    0.070370
   6 C :    0.282514    0.070372
   7 C :    0.302626    0.132059
   8 C :   -0.089193    0.029412
   9 C :    0.302626    0.132059
  10 H :   -0.138570    0.026278
  11 H :   -0.138570    0.026278
  12 H :   -0.151971    0.006587
  13 H :   -0.151972    0.006587
  14 H :   -0.138570    0.026278
  15 H :   -0.138570    0.026278
  16 H :   -0.151972    0.006586
  17 H :   -0.151971    0.006587

  Mayer bond orders larger than 0.100000
B(  0-C ,  1-C ) :   1.1106 B(  0-C ,  3-C ) :  -0.3828 B(  0-C ,  7-C ) :   0.1051
B(  0-C ,  9-C ) :   1.0826 B(  0-C , 17-H ) :   0.2591 B(  1-C ,  2-C ) :   1.0826
B(  1-C ,  4-C ) :   0.1051 B(  1-C ,  8-C ) :  -0.3828 B(  1-C , 16-H ) :   0.2591
B(  2-C ,  3-C ) :  -0.2369 B(  2-C ,  4-C ) :   0.3925 B(  2-C ,  5-C ) :   0.1051
B(  2-C ,  8-C ) :  -0.4446 B(  2-C , 15-H ) :   1.3394 B(  2-C , 16-H ) :  -0.1707
B(  3-C ,  4-C ) :  -0.2370 B(  3-C ,  6-C ) :  -0.3828 B(  3-C ,  7-C ) :  -0.4447
B(  3-C ,  8-C ) :   1.6196 B(  3-C ,  9-C ) :  -0.4447 B(  3-C , 14-H ) :  -0.1305
B(  3-C , 15-H ) :  -0.1304 B(  4-C ,  5-C ) :   1.0825 B(  4-C ,  8-C ) :  -0.4447
B(  4-C , 13-H ) :  -0.1707 B(  4-C , 14-H ) :   1.3394 B(  5-C ,  6-C ) :   1.1106
B(  5-C ,  8-C ) :  -0.3828 B(  5-C , 13-H ) :   0.2591 B(  6-C ,  7-C ) :   1.0826
B(  6-C ,  9-C ) :   0.1051 B(  6-C , 12-H ) :   0.2591 B(  7-C ,  8-C ) :  -0.2370
B(  7-C ,  9-C ) :   0.3925 B(  7-C , 11-H ) :   1.3394 B(  7-C , 12-H ) :  -0.1707
B(  8-C ,  9-C ) :  -0.2369 B(  8-C , 10-H ) :  -0.1304 B(  8-C , 11-H ) :  -0.1305
B(  9-C , 10-H ) :   1.3394 B(  9-C , 17-H ) :  -0.1707

Dispersion correction           -0.006309026
FINAL SINGLE POINT ENERGY      -385.605098186713

DIPOLE MOMENT
-------------

Method             : SCF
Type of density    : Electron Density
Multiplicity       :   2
Irrep              :   0
Energy             :  -385.5987891602308082 Eh
Relativity type    :
Basis              : AO
                                X                 Y                 Z
Electronic contribution:      0.000003881      -0.000026541       0.000000062
Nuclear contribution   :      0.000001607       0.000001119       0.000000508
                        -----------------------------------------
Total Dipole Moment    :      0.000005487      -0.000025422       0.000000569
                        -----------------------------------------
Magnitude (a.u.)       :      0.000026014
Magnitude (Debye)      :      0.000066122

VIBRATIONAL FREQUENCIES
-----------------------

Scaling factor for frequencies =  1.000000000  (already applied!)

     0:       0.00 cm**-1
     1:       0.00 cm**-1
     2:       0.00 cm**-1
     3:       0.00 cm**-1
     4:       0.00 cm**-1
     5:       0.00 cm**-1
     6:     140.49 cm**-1
     7:     160.60 cm**-1
     8:     353.62 cm**-1
     9:     363.29 cm**-1
    10:     402.95 cm**-1
    11:     415.20 cm**-1
    12:     446.23 cm**-1
    13:     476.34 cm**-1
    14:     514.24 cm**-1
    15:     601.79 cm**-1
    16:     728.30 cm**-1
    17:     734.10 cm**-1
    18:     749.89 cm**-1
    19:     776.22 cm**-1
    20:     810.03 cm**-1
    21:     855.84 cm**-1
    22:     924.46 cm**-1
    23:     943.76 cm**-1
    24:     968.26 cm**-1
    25:     991.28 cm**-1
    26:    1009.14 cm**-1
    27:    1013.26 cm**-1
    28:    1040.57 cm**-1
    29:    1059.79 cm**-1
    30:    1112.55 cm**-1
    31:    1114.73 cm**-1
    32:    1165.45 cm**-1
    33:    1168.56 cm**-1
    34:    1225.45 cm**-1
    35:    1255.90 cm**-1
    36:    1294.64 cm**-1
    37:    1416.92 cm**-1
    38:    1423.77 cm**-1
    39:    1432.00 cm**-1
    40:    1451.89 cm**-1
    41:    1486.19 cm**-1
    42:    1518.32 cm**-1
    43:    1541.13 cm**-1
    44:    1555.41 cm**-1
    45:    1618.41 cm**-1
    46:    3186.23 cm**-1
    47:    3187.07 cm**-1
    48:    3189.64 cm**-1
    49:    3190.21 cm**-1
    50:    3199.86 cm**-1
    51:    3199.94 cm**-1
    52:    3210.77 cm**-1
    53:    3211.47 cm**-1

IR SPECTRUM
-----------

 Mode   freq       eps      Int      T**2         TX        TY        TZ
       cm**-1   L/(mol*cm) km/mol    a.u.
----------------------------------------------------------------------------
  6:    140.49   0.000827    4.18  0.001836  (-0.001695  0.000000 -0.042814)
  7:    160.60   0.000000    0.00  0.000000  (-0.000000 -0.000422  0.000000)
  8:    353.62   0.000279    1.41  0.000246  ( 0.000000 -0.015700  0.000000)
  9:    363.29   0.000000    0.00  0.000000  ( 0.000000  0.000011  0.000000)
 10:    402.95   0.007840   39.62  0.006071  (-0.000083 -0.000000  0.077919)
 11:    415.20   0.000000    0.00  0.000000  ( 0.000251 -0.000000  0.000321)
 12:    446.23   0.000000    0.00  0.000000  ( 0.000000  0.000399  0.000000)
 13:    476.34   0.000000    0.00  0.000000  ( 0.000002 -0.000001 -0.000004)
 14:    514.24   0.000000    0.00  0.000000  ( 0.000000 -0.000001 -0.000000)
 15:    601.79   0.005238   26.47  0.002716  (-0.052118  0.000001 -0.000126)
 16:    728.30   0.000000    0.00  0.000000  (-0.000000  0.000011 -0.000001)
 17:    734.10   0.000000    0.00  0.000000  (-0.000103  0.000000 -0.000237)
 18:    749.89   0.034100  172.33  0.014191  (-0.000315  0.000000 -0.119124)
 19:    776.22   0.000000    0.00  0.000000  (-0.000000 -0.000001 -0.000001)
 20:    810.03   0.000251    1.27  0.000097  ( 0.000000  0.009838  0.000000)
 21:    855.84   0.000000    0.00  0.000000  ( 0.000000  0.000298 -0.000000)
 22:    924.46   0.000000    0.00  0.000000  (-0.000056 -0.000000  0.000037)
 23:    943.76   0.000000    0.00  0.000000  ( 0.000002 -0.000001 -0.000006)
 24:    968.26   0.000000    0.00  0.000000  ( 0.000000  0.000015 -0.000000)
 25:    991.28   0.000930    4.70  0.000293  (-0.000315  0.000000  0.017104)
 26:   1009.14   0.000000    0.00  0.000000  ( 0.000000  0.000226 -0.000000)
 27:   1013.26   0.000000    0.00  0.000000  (-0.000016 -0.000000 -0.000039)
 28:   1040.57   0.001506    7.61  0.000452  ( 0.021253 -0.000000 -0.000222)
 29:   1059.79   0.000000    0.00  0.000000  (-0.000000  0.000001 -0.000000)
 30:   1112.55   0.000999    5.05  0.000280  (-0.000001 -0.016742  0.000000)
 31:   1114.73   0.000000    0.00  0.000000  (-0.000006  0.000002 -0.000000)
 32:   1165.45   0.008014   40.50  0.002146  ( 0.046324 -0.000002 -0.000019)
 33:   1168.56   0.000000    0.00  0.000000  ( 0.000017 -0.000002  0.000000)
 34:   1225.45   0.112581  568.94  0.028669  (-0.169320  0.000002 -0.000019)
 35:   1255.90   0.000000    0.00  0.000000  ( 0.000012  0.000000 -0.000010)
 36:   1294.64   0.002075   10.49  0.000500  ( 0.000001 -0.022366  0.000000)
 37:   1416.92   0.011846   59.87  0.002609  (-0.000001 -0.051078 -0.000000)
 38:   1423.77   0.000000    0.00  0.000000  (-0.000000  0.000015  0.000000)
 39:   1432.00   0.007693   38.88  0.001676  (-0.040944  0.000001  0.000085)
 40:   1451.89   0.000000    0.00  0.000000  ( 0.000006 -0.000000  0.000008)
 41:   1486.19   0.000000    0.00  0.000000  ( 0.000001  0.000004  0.000000)
 42:   1518.32   0.000000    0.00  0.000000  (-0.000007  0.000001  0.000001)
 43:   1541.13   0.032309  163.28  0.006542  (-0.000002 -0.080884 -0.000000)
 44:   1555.41   0.032583  164.66  0.006537  (-0.080852  0.000001  0.000088)
 45:   1618.41   0.000000    0.00  0.000000  (-0.000000  0.000001 -0.000000)
 46:   3186.23   0.000000    0.00  0.000000  ( 0.000002  0.000004  0.000000)
 47:   3187.07   0.000605    3.06  0.000059  ( 0.000001  0.007700  0.000000)
 48:   3189.64   0.000675    3.41  0.000066  (-0.008126  0.000001 -0.000034)
 49:   3190.21   0.000000    0.00  0.000000  ( 0.000006  0.000000  0.000000)
 50:   3199.86   0.000000    0.00  0.000000  (-0.000002  0.000051 -0.000000)
 51:   3199.94   0.002567   12.97  0.000250  ( 0.000001 -0.015823  0.000000)
 52:   3210.77   0.005852   29.57  0.000569  ( 0.023848 -0.000000 -0.000159)
 53:   3211.47   0.000000    0.00  0.000000  ( 0.000014 -0.000001 -0.000000)

--------------------------
THERMOCHEMISTRY AT 298.15K
--------------------------

Temperature         ...   298.15 K
Pressure            ...     1.00 atm
Total Mass          ...   128.17 AMU
Quasi RRHO          ...     True
Cut-Off Frequency   ...     1.00 cm^-1

Throughout the following assumptions are being made:
  (1) The electronic state is orbitally nondegenerate
      but the spin degeneracy is treated
  (2) There are no thermally accessible electronically excited states
  (3) Hindered rotations indicated by low frequency modes are not
      treated as such but are treated as vibrations and this may
      cause some error
  (4) All equations used are the standard statistical mechanics
      equations for an ideal gas
  (5) All vibrations are strictly harmonic

freq.     140.49  E(vib)   ...       0.41
freq.     160.60  E(vib)   ...       0.39
freq.     353.62  E(vib)   ...       0.22
freq.     363.29  E(vib)   ...       0.22
freq.     402.95  E(vib)   ...       0.19
freq.     415.20  E(vib)   ...       0.19
freq.     446.23  E(vib)   ...       0.17
freq.     476.34  E(vib)   ...       0.15
freq.     514.24  E(vib)   ...       0.13
freq.     601.79  E(vib)   ...       0.10
freq.     728.30  E(vib)   ...       0.06
freq.     734.10  E(vib)   ...       0.06
freq.     749.89  E(vib)   ...       0.06
freq.     776.22  E(vib)   ...       0.05
freq.     810.03  E(vib)   ...       0.05
freq.     855.84  E(vib)   ...       0.04
freq.     924.46  E(vib)   ...       0.03
freq.     943.76  E(vib)   ...       0.03
freq.     968.26  E(vib)   ...       0.03
freq.     991.28  E(vib)   ...       0.02
freq.    1009.14  E(vib)   ...       0.02
freq.    1013.26  E(vib)   ...       0.02
freq.    1040.57  E(vib)   ...       0.02
freq.    1059.79  E(vib)   ...       0.02
freq.    1112.55  E(vib)   ...       0.01
freq.    1114.73  E(vib)   ...       0.01
freq.    1165.45  E(vib)   ...       0.01
freq.    1168.56  E(vib)   ...       0.01
freq.    1225.45  E(vib)   ...       0.01
freq.    1255.90  E(vib)   ...       0.01
freq.    1294.64  E(vib)   ...       0.01
freq.    1416.92  E(vib)   ...       0.00
freq.    1423.77  E(vib)   ...       0.00
freq.    1432.00  E(vib)   ...       0.00
freq.    1451.89  E(vib)   ...       0.00
freq.    1486.19  E(vib)   ...       0.00
freq.    1518.32  E(vib)   ...       0.00
freq.    1541.13  E(vib)   ...       0.00
freq.    1555.41  E(vib)   ...       0.00
freq.    1618.41  E(vib)   ...       0.00
freq.    3186.23  E(vib)   ...       0.00
freq.    3187.07  E(vib)   ...       0.00
freq.    3189.64  E(vib)   ...       0.00
freq.    3190.21  E(vib)   ...       0.00
freq.    3199.86  E(vib)   ...       0.00
freq.    3199.94  E(vib)   ...       0.00
freq.    3210.77  E(vib)   ...       0.00
freq.    3211.47  E(vib)   ...       0.00

------------
INNER ENERGY
------------

The inner energy is: U= E(el) + E(ZPE) + E(vib) + E(rot) + E(trans)
    E(el)   - is the total energy from the electronic structure calculation
              = E(kin-el) + E(nuc-el) + E(el-el) + E(nuc-nuc)
    E(ZPE)  - the the zero temperature vibrational energy from the frequency calculation
    E(vib)  - the the finite temperature correction to E(ZPE) due to population
              of excited vibrational states
    E(rot)  - is the rotational thermal energy
    E(trans)- is the translational thermal energy

Summary of contributions to the inner energy U:
Electronic energy                ...   -385.60509819 Eh
Zero point energy                ...      0.14542945 Eh      91.26 kcal/mol
Thermal vibrational correction   ...      0.00447173 Eh       2.81 kcal/mol
Thermal rotational correction    ...      0.00141627 Eh       0.89 kcal/mol
Thermal translational correction ...      0.00141627 Eh       0.89 kcal/mol
-----------------------------------------------------------------------
Total thermal energy                   -385.45236446 Eh

Summary of corrections to the electronic energy:
(perhaps to be used in another calculation)
Total thermal correction                  0.00730428 Eh       4.58 kcal/mol
Non-thermal (ZPE) correction              0.14542945 Eh      91.26 kcal/mol
-----------------------------------------------------------------------
Total correction                          0.15273373 Eh      95.84 kcal/mol

--------
ENTHALPY
--------

The enthalpy is H = U + kB*T
                kB is Boltzmann's constant
Total thermal energy              ...   -385.45236446 Eh
Thermal Enthalpy correction       ...      0.00094421 Eh       0.59 kcal/mol
-----------------------------------------------------------------------
Total Enthalpy                    ...   -385.45142025 Eh

Note: Rotational entropy computed according to Herzberg
Infrared and Raman Spectra, Chapter V,1, Van Nostrand Reinhold, 1945
Point Group:  C2, Symmetry Number:   2
Rotational constants in cm-1:     0.105352     0.041130     0.029581

Vibrational entropy computed according to the QRRHO of S. Grimme
Chem.Eur.J. 2012 18 9955 using a reference frequency of 100.0 cm-1

-------
ENTROPY
-------

The entropy contributions are T*S = T*(S(el)+S(vib)+S(rot)+S(trans))
     S(el)   - electronic entropy
     S(vib)  - vibrational entropy
     S(rot)  - rotational entropy
     S(trans)- translational entropy
The entropies will be listed as multiplied by the temperature to get
units of energy

Electronic entropy                ...      0.00065446 Eh      0.41 kcal/mol
Vibrational entropy               ...      0.00692881 Eh      4.35 kcal/mol
Rotational entropy                ...      0.01308727 Eh      8.21 kcal/mol
Translational entropy             ...      0.01922279 Eh     12.06 kcal/mol
-----------------------------------------------------------------------
Final entropy term                ...      0.03989332 Eh     25.03 kcal/mol

In case the symmetry of your molecule has not been determined correctly
or in case you have a reason to use a different symmetry number we print
out the resulting rotational entropy values for sn=1,12:

 non-linear molecules -----------------------------------
|  sn= 1 | S(rot)=       0.01374173 Eh      8.62 kcal/mol|
|  sn= 2 | S(rot)=       0.01308727 Eh      8.21 kcal/mol|
|  sn= 3 | S(rot)=       0.01270444 Eh      7.97 kcal/mol|
|  sn= 4 | S(rot)=       0.01243282 Eh      7.80 kcal/mol|
|  sn= 5 | S(rot)=       0.01222213 Eh      7.67 kcal/mol|
|  sn= 6 | S(rot)=       0.01204998 Eh      7.56 kcal/mol|
|  sn= 7 | S(rot)=       0.01190444 Eh      7.47 kcal/mol|
|  sn= 8 | S(rot)=       0.01177836 Eh      7.39 kcal/mol|
|  sn= 9 | S(rot)=       0.01166715 Eh      7.32 kcal/mol|
|  sn=10 | S(rot)=       0.01156767 Eh      7.26 kcal/mol|
|  sn=11 | S(rot)=       0.01147768 Eh      7.20 kcal/mol|
|  sn=12 | S(rot)=       0.01139553 Eh      7.15 kcal/mol|
 linear molecules ---------------------------------------
|  Dinfh | S(rot)=       0.00864991 Eh      5.43 kcal/mol|
|  Cinfv | S(rot)=       0.00930436 Eh      5.84 kcal/mol|
 --------------------------------------------------------

                             ****ORCA TERMINATED NORMALLY****
TOTAL RUN TIME: 0 days 0 hours 45 minutes 15 seconds 26 msec
