                         Program Version 6.0.0  -   RELEASE  -
|  1> !PBE0 aug-cc-pVTZ d3 TightSCF SlowConv RIJCOSX defgrid2
|  2>
|  3> %pal
|  4> nprocs 15
|  5> end
|  6>
|  7> %scf
|  8> MaxIter 1500
|  9> end
| 10>
| 11> %maxcore 3500
| 12>
| 13> !CPCM
| 14> %cpcm smd true
| 15> SMDsolvent "WATER"
| 16> surfacetype gepol_ses
| 17> rsolv 1.40
| 18> end
| 19>
| 20> * xyz 0 1
| 21> C          -0.70221578029714     -1.27137338689409     -1.64597061061339
| 22> C          -0.84845136777775     -1.37115966451546      2.54973958440251
| 23> C           0.15259783512686     -0.68335711742679      3.28861563215234
| 24> C           0.07599304676575     -0.73632666977901      4.69600426690252
| 25> C          -0.94794284945570     -1.44026936179531      5.29150860970573
| 26> C          -1.88482068115033     -2.08384823172722      4.45797199169649
| 27> N          -1.84062401823598     -2.05300130163141      3.14506781946973
| 28> H           0.83076678593274     -0.21756410750992      5.29593236316618
| 29> H          -1.03983766734326     -1.50382384093195      6.37916241782430
| 30> H          -2.71147090586821     -2.65207963836198      4.90545942856367
| 31> C          -0.79700541461204     -1.33574559017925      1.09594053855288
| 32> C           0.25272338782719     -0.61458983536816      0.46402567600272
| 33> C           0.27592476493802     -0.59903395891095     -0.94615465995929
| 34> C          -1.69468523511231     -1.95299131995214     -0.91309590762066
| 35> N          -1.74344800729213     -1.98614929368638      0.39960781073108
| 36> H           1.07040887752629     -0.05329454733419     -1.46544045359095
| 37> H          -0.71690094151293     -1.28186330233680     -2.73919465539259
| 38> H          -2.48671429614632     -2.49728707022392     -1.44500129727560
| 39> C           1.19105099618849      0.03039450570530      2.60874274845559
| 40> C           1.23921917155320      0.06350156660395      1.24952954829313
| 41> H           1.94654977095063      0.54952317690862      3.20655609141936
| 42> H           2.03412974399493      0.60974382634704      0.73244528911423
| 43> *
| 44>
| 45>                          ****END OF INPUT****

CARTESIAN COORDINATES (ANGSTROEM)
---------------------------------
  C     -0.702216   -1.271373   -1.645971
  C     -0.848451   -1.371160    2.549740
  C      0.152598   -0.683357    3.288616
  C      0.075993   -0.736327    4.696004
  C     -0.947943   -1.440269    5.291509
  C     -1.884821   -2.083848    4.457972
  N     -1.840624   -2.053001    3.145068
  H      0.830767   -0.217564    5.295932
  H     -1.039838   -1.503824    6.379162
  H     -2.711471   -2.652080    4.905459
  C     -0.797005   -1.335746    1.095941
  C      0.252723   -0.614590    0.464026
  C      0.275925   -0.599034   -0.946155
  C     -1.694685   -1.952991   -0.913096
  N     -1.743448   -1.986149    0.399608
  H      1.070409   -0.053295   -1.465440
  H     -0.716901   -1.281863   -2.739195
  H     -2.486714   -2.497287   -1.445001
  C      1.191051    0.030395    2.608743
  C      1.239219    0.063502    1.249530
  H      1.946550    0.549523    3.206556
  H      2.034130    0.609744    0.732445

 Total Charge           Charge          ....    0
 Multiplicity           Mult            ....    1
 Number of Electrons    NEL             ....   94
 Basis Dimension        Dim             ....  828

ORBITAL ENERGIES
----------------

  NO   OCC          E(Eh)            E(eV)
   0   2.0000     -14.389693      -391.5634
   1   2.0000     -14.389663      -391.5626
   2   2.0000     -10.274800      -279.5915
   3   2.0000     -10.274377      -279.5800
   4   2.0000     -10.266585      -279.3680
   5   2.0000     -10.266555      -279.3672
   6   2.0000     -10.253249      -279.0051
   7   2.0000     -10.253218      -279.0042
   8   2.0000     -10.249364      -278.8994
   9   2.0000     -10.249354      -278.8991
  10   2.0000     -10.240915      -278.6695
  11   2.0000     -10.240099      -278.6473
  12   2.0000     -10.239268      -278.6247
  13   2.0000     -10.239256      -278.6243
  14   2.0000      -0.995146       -27.0793
  15   2.0000      -0.971413       -26.4335
  16   2.0000      -0.879931       -23.9441
  17   2.0000      -0.837406       -22.7870
  18   2.0000      -0.829604       -22.5747
  19   2.0000      -0.774961       -21.0878
  20   2.0000      -0.771812       -21.0021
  21   2.0000      -0.679688       -18.4953
  22   2.0000      -0.669680       -18.2229
  23   2.0000      -0.655235       -17.8298
  24   2.0000      -0.622426       -16.9371
  25   2.0000      -0.572918       -15.5899
  26   2.0000      -0.554075       -15.0771
  27   2.0000      -0.534255       -14.5378
  28   2.0000      -0.501775       -13.6540
  29   2.0000      -0.497395       -13.5348
  30   2.0000      -0.485241       -13.2041
  31   2.0000      -0.453753       -12.3473
  32   2.0000      -0.451074       -12.2743
  33   2.0000      -0.435713       -11.8563
  34   2.0000      -0.420745       -11.4490
  35   2.0000      -0.419374       -11.4118
  36   2.0000      -0.412999       -11.2383
  37   2.0000      -0.410572       -11.1722
  38   2.0000      -0.381540       -10.3822
  39   2.0000      -0.366815        -9.9815
  40   2.0000      -0.361019        -9.8238
  41   2.0000      -0.319439        -8.6924
  42   2.0000      -0.315354        -8.5812
  43   2.0000      -0.287152        -7.8138
  44   2.0000      -0.269031        -7.3207
  45   2.0000      -0.261776        -7.1233
  46   2.0000      -0.247901        -6.7457
  47   0.0000      -0.060024        -1.6333
  48   0.0000      -0.058923        -1.6034
  49   0.0000      -0.016991        -0.4624
  50   0.0000       0.001511         0.0411
  51   0.0000       0.010332         0.2812

MULLIKEN ATOMIC CHARGES
-----------------------
   0 C :   -0.394481
   1 C :    1.159917
   2 C :    1.405466
   3 C :   -1.162280
   4 C :   -0.399761
   5 C :   -0.769803
   6 N :   -0.850018
   7 H :    0.513004
   8 H :    0.439566
   9 H :    0.555438
  10 C :    1.152907
  11 C :    1.398336
  12 C :   -1.170372
  13 C :   -0.765742
  14 N :   -0.843202
  15 H :    0.523120
  16 H :    0.440185
  17 H :    0.552910
  18 C :   -1.203299
  19 C :   -1.206216
  20 H :    0.309954
  21 H :    0.314371
Sum of atomic charges:   -0.0000000

LOEWDIN ATOMIC CHARGES
----------------------
   0 C :    0.218224
   1 C :   -0.289242
   2 C :   -0.120874
   3 C :    0.224367
   4 C :    0.218253
   5 C :    0.006896
   6 N :    0.370980
   7 H :   -0.145453
   8 H :   -0.162540
   9 H :   -0.176315
  10 C :   -0.289224
  11 C :   -0.120820
  12 C :    0.224400
  13 C :    0.006974
  14 N :    0.371043
  15 H :   -0.145472
  16 H :   -0.162566
  17 H :   -0.176300
  18 C :    0.228716
  19 C :    0.228685
  20 H :   -0.154857
  21 H :   -0.154873

  Mayer bond orders larger than 0.100000
B(  0-C , 11-C ) :  -0.2200 B(  0-C , 12-C ) :   1.5195 B(  0-C , 13-C ) :   0.8591
B(  0-C , 14-N ) :  -0.1854 B(  0-C , 16-H ) :   0.7269 B(  1-C ,  2-C ) :   0.8877
B(  1-C ,  3-C ) :   0.4769 B(  1-C ,  5-C ) :  -0.1283 B(  1-C ,  6-N ) :  -0.8560
B(  1-C ,  9-H ) :   0.1560 B(  1-C , 10-C ) :   0.6178 B(  1-C , 11-C ) :   0.2897
B(  1-C , 14-N ) :   0.2917 B(  1-C , 18-C ) :  -0.4513 B(  2-C ,  4-C ) :  -0.2279
B(  2-C ,  5-C ) :  -0.4313 B(  2-C ,  7-H ) :   0.1443 B(  2-C , 10-C ) :   0.2910
B(  2-C , 11-C ) :  -0.3565 B(  2-C , 18-C ) :   0.2097 B(  3-C ,  4-C ) :   1.5272
B(  3-C ,  5-C ) :   0.3384 B(  3-C ,  6-N ) :   0.1285 B(  3-C ,  7-H ) :   0.5736
B(  3-C , 18-C ) :   0.3047 B(  4-C ,  5-C ) :   0.8563 B(  4-C ,  6-N ) :  -0.1855
B(  4-C ,  8-H ) :   0.7293 B(  5-C ,  6-N ) :   2.1343 B(  5-C ,  9-H ) :   0.4233
B(  5-C , 19-C ) :   0.1231 B(  6-N , 10-C ) :   0.2891 B(  6-N , 14-N ) :  -0.3053
B( 10-C , 11-C ) :   0.8862 B( 10-C , 12-C ) :   0.4778 B( 10-C , 13-C ) :  -0.1357
B( 10-C , 14-N ) :  -0.8567 B( 10-C , 17-H ) :   0.1579 B( 10-C , 19-C ) :  -0.4531
B( 11-C , 12-C ) :   0.1191 B( 11-C , 13-C ) :  -0.4295 B( 11-C , 15-H ) :   0.1468
B( 11-C , 19-C ) :   0.1963 B( 12-C , 13-C ) :   0.3404 B( 12-C , 14-N ) :   0.1273
B( 12-C , 15-H ) :   0.5526 B( 12-C , 19-C ) :   0.2997 B( 13-C , 14-N ) :   2.1212
B( 13-C , 17-H ) :   0.4273 B( 13-C , 18-C ) :   0.1251 B( 18-C , 19-C ) :   1.7492
B( 18-C , 20-H ) :   0.9911 B( 19-C , 21-H ) :   0.9848

Dispersion correction           -0.025708275
FINAL SINGLE POINT ENERGY      -571.169272070378

DIPOLE MOMENT
-------------

Method             : SCF
Type of density    : Electron Density
Multiplicity       :   1
Irrep              :   0
Energy             :  -571.1435637957680456 Eh
Relativity type    :
Basis              : AO
                                X                 Y                 Z
Electronic contribution:     -1.233926103      -0.846795066      -0.064343777
Nuclear contribution   :      2.959925509       2.031814141       0.154119783
                        -----------------------------------------
Total Dipole Moment    :      1.725999406       1.185019075       0.089776006
                        -----------------------------------------
Magnitude (a.u.)       :      2.095567677
Magnitude (Debye)      :      5.326509730

Rotational constants in cm-1:             0.054161             0.019423             0.014296
Rotational constants in MHz :          1623.694457           582.293820           428.591246

                             ****ORCA TERMINATED NORMALLY****
TOTAL RUN TIME: 0 days 0 hours 4 minutes 39 seconds 524 msec
