                         Program Version 6.0.0  -   RELEASE  -
|  1> !TPSSh aug-cc-pVTZ d3 TightSCF SlowConv RIJCOSX defgrid2
|  2>
|  3> %pal
|  4> nprocs 10
|  5> end
|  6>
|  7> %scf
|  8> MaxIter 1500
|  9> end
| 10>
| 11> %maxcore 3500
| 12>
| 13> !CPCM
| 14> %cpcm smd true
| 15> SMDsolvent "WATER"
| 16> surfacetype gepol_ses
| 17> rsolv 1.40
| 18> end
| 19>
| 20> * xyz 1 1
| 21>   C          -0.12783464168902      0.03134307060273     -1.09515140317282
| 22>   C          -0.07771588779790     -0.92971218052811     -0.16710947357547
| 23>   C          -0.12919605245006     -0.42683937130453      1.23585814524276
| 24>   N          -0.22178468713299      1.04844033562478      0.98180183190431
| 25>   C          -0.22815278386695      1.40845079820397     -0.48344802154556
| 26>   H          -0.00562746786650     -1.99097881364679     -0.41742121227399
| 27>   O          -0.28283959618216      1.84841054848959      1.83590548918913
| 28>   C          -0.08518619128336     -0.35879109937522     -2.55276447601453
| 29>   O          -0.01182556277165     -1.53029284400420     -2.84168103743639
| 30>   C          -1.55459876437257      2.13631852567497     -0.74219631083336
| 31>   H          -1.61559639608661      2.40210019987432     -1.80874507031995
| 32>   H          -2.41672834703621      1.49039588964646     -0.50990257113543
| 33>   H          -1.60867043617204      3.06315133921376     -0.14807750091220
| 34>   C           0.99197987220583      2.31175839591414     -0.70863005539040
| 35>   H           0.90571734984683      3.23356560719802     -0.11031871750380
| 36>   H           1.92856903642825      1.78807470587538     -0.45768655458116
| 37>   H           1.04150556124239      2.59281936172848     -1.77181047702734
| 38>   C           1.15110865335917     -0.68043554170839      2.04328624127400
| 39>   H           1.23899297088630     -1.76802501138656      2.19811060240581
| 40>   H           2.04596289628099     -0.33699333930403      1.49967780306167
| 41>   H           1.09453254399261     -0.18569022918863      3.02671243361448
| 42>   C          -1.38670020602967     -0.84436366873233      2.01059021085389
| 43>   H          -2.30386467942418     -0.61864219459089      1.44313189602476
| 44>   H          -1.33732117512029     -1.93426317158842      2.16621895625276
| 45>   H          -1.41858650993659     -0.34674593001915      2.99356252765365
| 46>   N          -0.13386543071122      0.63534107507626     -3.47284130418435
| 47>   H          -0.18439275173440      1.61992840290075     -3.25301637873183
| 48>   H          -0.10209108757800      0.36432528735361     -4.45187443683860
| 49> *
| 50>
| 51>                          ****END OF INPUT****

CARTESIAN COORDINATES (ANGSTROEM)
---------------------------------
  C     -0.127835    0.031343   -1.095151
  C     -0.077716   -0.929712   -0.167109
  C     -0.129196   -0.426839    1.235858
  N     -0.221785    1.048440    0.981802
  C     -0.228153    1.408451   -0.483448
  H     -0.005627   -1.990979   -0.417421
  O     -0.282840    1.848411    1.835905
  C     -0.085186   -0.358791   -2.552764
  O     -0.011826   -1.530293   -2.841681
  C     -1.554599    2.136319   -0.742196
  H     -1.615596    2.402100   -1.808745
  H     -2.416728    1.490396   -0.509903
  H     -1.608670    3.063151   -0.148078
  C      0.991980    2.311758   -0.708630
  H      0.905717    3.233566   -0.110319
  H      1.928569    1.788075   -0.457687
  H      1.041506    2.592819   -1.771810
  C      1.151109   -0.680436    2.043286
  H      1.238993   -1.768025    2.198111
  H      2.045963   -0.336993    1.499678
  H      1.094533   -0.185690    3.026712
  C     -1.386700   -0.844364    2.010590
  H     -2.303865   -0.618642    1.443132
  H     -1.337321   -1.934263    2.166219
  H     -1.418587   -0.346746    2.993563
  N     -0.133865    0.635341   -3.472841
  H     -0.184393    1.619928   -3.253016
  H     -0.102091    0.364325   -4.451874

 Total Charge           Charge          ....    1
 Multiplicity           Mult            ....    1
 Number of Electrons    NEL             ....   98
 Basis Dimension        Dim             ....  943

ORBITAL ENERGIES
----------------

  NO   OCC          E(Eh)            E(eV)
   0   2.0000     -19.201231      -522.4921
   1   2.0000     -19.041867      -518.1555
   2   2.0000     -14.492823      -394.3698
   3   2.0000     -14.284539      -388.7021
   4   2.0000     -10.239990      -278.6443
   5   2.0000     -10.222278      -278.1623
   6   2.0000     -10.217943      -278.0444
   7   2.0000     -10.159306      -276.4488
   8   2.0000     -10.155631      -276.3488
   9   2.0000     -10.139115      -275.8993
  10   2.0000     -10.139078      -275.8983
  11   2.0000     -10.137527      -275.8561
  12   2.0000     -10.137477      -275.8548
  13   2.0000      -1.256366       -34.1875
  14   2.0000      -1.044551       -28.4237
  15   2.0000      -0.943132       -25.6639
  16   2.0000      -0.899452       -24.4753
  17   2.0000      -0.840910       -22.8823
  18   2.0000      -0.775254       -21.0957
  19   2.0000      -0.742389       -20.2014
  20   2.0000      -0.708643       -19.2831
  21   2.0000      -0.697213       -18.9721
  22   2.0000      -0.653659       -17.7870
  23   2.0000      -0.641382       -17.4529
  24   2.0000      -0.602221       -16.3873
  25   2.0000      -0.579474       -15.7683
  26   2.0000      -0.551863       -15.0170
  27   2.0000      -0.534416       -14.5422
  28   2.0000      -0.530180       -14.4269
  29   2.0000      -0.490013       -13.3339
  30   2.0000      -0.476957       -12.9787
  31   2.0000      -0.450447       -12.2573
  32   2.0000      -0.444727       -12.1016
  33   2.0000      -0.442444       -12.0395
  34   2.0000      -0.426363       -11.6019
  35   2.0000      -0.424298       -11.5457
  36   2.0000      -0.416231       -11.3262
  37   2.0000      -0.408415       -11.1135
  38   2.0000      -0.404173       -10.9981
  39   2.0000      -0.393946       -10.7198
  40   2.0000      -0.388463       -10.5706
  41   2.0000      -0.368425       -10.0254
  42   2.0000      -0.367593       -10.0027
  43   2.0000      -0.362047        -9.8518
  44   2.0000      -0.356371        -9.6974
  45   2.0000      -0.325157        -8.8480
  46   2.0000      -0.280423        -7.6307
  47   2.0000      -0.276448        -7.5225
  48   2.0000      -0.272880        -7.4255
  49   0.0000      -0.187556        -5.1037
  50   0.0000      -0.074551        -2.0286
  51   0.0000      -0.008122        -0.2210
  52   0.0000       0.004185         0.1139
  53   0.0000       0.007716         0.2100

MULLIKEN ATOMIC CHARGES
-----------------------
   0 C :    0.709142
   1 C :   -0.565003
   2 C :    0.463599
   3 N :    1.409077
   4 C :    0.923487
   5 H :    0.171481
   6 O :   -1.116446
   7 C :    0.800773
   8 O :   -1.129116
   9 C :   -0.357226
  10 H :    0.099717
  11 H :    0.122384
  12 H :    0.014459
  13 C :   -0.356378
  14 H :    0.015914
  15 H :    0.114828
  16 H :    0.099397
  17 C :   -0.420922
  18 H :    0.054174
  19 H :    0.109347
  20 H :    0.055261
  21 C :   -0.420138
  22 H :    0.108465
  23 H :    0.053664
  24 H :    0.060175
  25 N :   -0.173319
  26 H :    0.079135
  27 H :    0.074069
Sum of atomic charges:    1.0000000

LOEWDIN ATOMIC CHARGES
----------------------
   0 C :   -0.062046
   1 C :    0.269354
   2 C :   -0.388704
   3 N :   -0.044649
   4 C :   -0.378706
   5 H :   -0.129053
   6 O :    0.656066
   7 C :   -0.682729
   8 O :    0.445115
   9 C :    0.640207
  10 H :   -0.140516
  11 H :   -0.127055
  12 H :   -0.134435
  13 C :    0.640244
  14 H :   -0.134631
  15 H :   -0.126672
  16 H :   -0.141102
  17 C :    0.640217
  18 H :   -0.124690
  19 H :   -0.131460
  20 H :   -0.136775
  21 C :    0.640465
  22 H :   -0.131584
  23 H :   -0.124626
  24 H :   -0.136866
  25 N :    0.888535
  26 H :   -0.301577
  27 H :   -0.242329

  Mayer bond orders larger than 0.100000
B(  0-C ,  1-C ) :   1.1505 B(  0-C ,  3-N ) :  -0.2155 B(  0-C ,  4-C ) :   0.7915
B(  0-C ,  7-C ) :  -0.1054 B(  0-C ,  8-O ) :   0.8498 B(  0-C , 25-N ) :  -0.2535
B(  1-C ,  2-C ) :   1.2838 B(  1-C ,  3-N ) :  -0.3069 B(  1-C ,  4-C ) :  -0.1917
B(  1-C ,  5-H ) :   0.9656 B(  1-C ,  7-C ) :   0.4858 B(  1-C ,  8-O ) :  -0.1088
B(  2-C ,  3-N ) :   0.9833 B(  2-C ,  4-C ) :  -0.2327 B(  2-C ,  6-O ) :  -0.1786
B(  2-C ,  7-C ) :  -0.1169 B(  2-C , 17-C ) :   0.8882 B(  2-C , 21-C ) :   0.8970
B(  3-N ,  4-C ) :   1.2263 B(  4-C ,  7-C ) :   0.3298 B(  4-C ,  9-C ) :   0.9126
B(  4-C , 13-C ) :   0.9062 B(  5-H ,  8-O ) :   0.1427 B(  6-O ,  9-C ) :   0.1004
B(  6-O , 13-C ) :   0.1023 B(  7-C , 25-N ) :   1.1291 B(  9-C , 10-H ) :   0.9700
B(  9-C , 11-H ) :   0.9155 B(  9-C , 12-H ) :   1.0489 B( 13-C , 14-H ) :   1.0480
B( 13-C , 15-H ) :   0.9222 B( 13-C , 16-H ) :   0.9666 B( 17-C , 18-H ) :   1.0238
B( 17-C , 19-H ) :   0.9366 B( 17-C , 20-H ) :   1.0240 B( 17-C , 21-C ) :   0.1026
B( 21-C , 22-H ) :   0.9396 B( 21-C , 23-H ) :   1.0243 B( 21-C , 24-H ) :   1.0178
B( 25-N , 26-H ) :   1.0319 B( 25-N , 27-H ) :   0.9928

Dispersion correction           -0.037950907
FINAL SINGLE POINT ENERGY      -612.000599257933

DIPOLE MOMENT
-------------

Method             : SCF
Type of density    : Electron Density
Multiplicity       :   1
Irrep              :   0
Energy             :  -611.9626483508561705 Eh
Relativity type    :
Basis              : AO
                                X                 Y                 Z
Electronic contribution:      0.141718298      -1.331236641      -3.229324626
Nuclear contribution   :     -0.277270832       3.421665314       4.666505617
                        -----------------------------------------
Total Dipole Moment    :     -0.135552535       2.090428673       1.437180991
                        -----------------------------------------
Magnitude (a.u.)       :      2.540424320
Magnitude (Debye)      :      6.457245457

Rotational constants in cm-1:             0.040160             0.022299             0.017655
Rotational constants in MHz :          1203.956703           668.492574           529.280087

                             ****ORCA TERMINATED NORMALLY****
TOTAL RUN TIME: 0 days 0 hours 9 minutes 25 seconds 404 msec
