                         Program Version 6.0.0  -   RELEASE  -
|  1> !PBE0 def2-SV(p) Opt Freq d3 TightSCF SlowConv RIJCOSX defgrid2
|  2>
|  3> %pal
|  4> nprocs 4
|  5> end
|  6>
|  7> %scf
|  8> MaxIter 1500
|  9> end
| 10>
| 11> %maxcore 3000
| 12>
| 13>
| 14>
| 15> * xyz 1 2
| 16> C    -1.1895544   -1.1115753   -0.0006760
| 17> C     0.0134310   -1.7944379   -0.0008591
| 18> C     1.2014825   -1.0850702   -0.0005453
| 19> C     1.1999101    0.3478071    0.0009809
| 20> C     2.4916970    1.0539790    0.0003452
| 21> H     2.3721019    2.1337516    0.0009937
| 22> H     3.0870723    0.7484611    0.8667230
| 23> H     3.0853726    0.7494093   -0.8675414
| 24> C    -0.0147520    1.0151492    0.0028540
| 25> C    -1.2205273    0.3184601    0.0024399
| 26> C    -2.5092213    1.0296200    0.0019985
| 27> H    -2.5921564    1.6558464   -0.8926638
| 28> H    -2.5558327    1.7363179    0.8360998
| 29> H    -3.3577350    0.3524670    0.0455333
| 30> H    -0.0288929    2.0947739    0.0046740
| 31> H     2.1484628   -1.6045520   -0.0024529
| 32> H     0.0250094   -2.8731766   -0.0021144
| 33> H    -2.1235930   -1.6536058   -0.0026302
| 34> *
| 35>
| 36>                          ****END OF INPUT****
 Total Charge           Charge          ....    1
 Multiplicity           Mult            ....    2
 Number of Electrons    NEL             ....   57
Dispersion correction           -0.015132042
FINAL SINGLE POINT ENERGY      -309.964032703571
Dispersion correction             ... done (  0.1 sec)
Dispersion correction           -0.015042617
FINAL SINGLE POINT ENERGY      -309.966203493882
Dispersion correction             ... done (  0.1 sec)
Dispersion correction           -0.015032023
FINAL SINGLE POINT ENERGY      -309.966261429009
Dispersion correction             ... done (  0.1 sec)
FINAL SINGLE POINT ENERGY      -309.966277674455
FINAL SINGLE POINT ENERGY      -309.966282996820
FINAL SINGLE POINT ENERGY      -309.966289304756
FINAL SINGLE POINT ENERGY      -309.966308726218
FINAL SINGLE POINT ENERGY      -309.966364077544
FINAL SINGLE POINT ENERGY      -309.966426022700
FINAL SINGLE POINT ENERGY      -309.966498905081
FINAL SINGLE POINT ENERGY      -309.966872231473
FINAL SINGLE POINT ENERGY      -309.967294827207
FINAL SINGLE POINT ENERGY      -309.967268533592
FINAL SINGLE POINT ENERGY      -309.967409401851
FINAL SINGLE POINT ENERGY      -309.967442866211
FINAL SINGLE POINT ENERGY      -309.967459148484
Dispersion correction             ... done (  0.1 sec)
Dispersion correction           -0.015038215
FINAL SINGLE POINT ENERGY      -309.967462920593
Dispersion correction             ... done (  0.1 sec)
Dispersion correction           -0.015038973
FINAL SINGLE POINT ENERGY      -309.967463866499
Dispersion correction             ... done (  0.1 sec)
                    ***********************HURRAY********************

CARTESIAN COORDINATES (ANGSTROEM)
---------------------------------
  C     -1.189297   -1.092855   -0.108196
  C      0.005892   -1.798225   -0.134011
  C      1.198082   -1.091052   -0.064347
  C      1.213651    0.357851    0.034242
  C      2.517755    1.050484    0.106404
  H      2.414271    2.142807    0.175754
  H      3.096033    0.685225    0.978817
  H      3.133667    0.799864   -0.780449
  C     -0.000078    1.043127    0.058238
  C     -1.210922    0.355930   -0.010412
  C     -2.517804    1.046787    0.011976
  H     -3.094032    0.802855   -0.903197
  H     -2.418383    2.138636    0.093394
  H     -3.133389    0.674116    0.855027
  H     -0.002120    2.133775    0.132290
  H      2.155614   -1.621828   -0.082797
  H      0.007908   -2.888545   -0.207832
  H     -2.144572   -1.625328   -0.161742

 Multiplicity           Mult            ....    2
 Number of Electrons    NEL             ....   57
 Basis Dimension        Dim             ....  132

ORBITAL ENERGIES
----------------
                 SPIN UP ORBITALS
  NO   OCC          E(Eh)            E(eV)
   0   1.0000     -10.477370      -285.1037
   1   1.0000     -10.477150      -285.0977
   2   1.0000     -10.466379      -284.8047
   3   1.0000     -10.466153      -284.7985
   4   1.0000     -10.434753      -283.9441
   5   1.0000     -10.427787      -283.7545
   6   1.0000     -10.399300      -282.9793
   7   1.0000     -10.399224      -282.9773
   8   1.0000      -1.094882       -29.7933
   9   1.0000      -1.009418       -27.4677
  10   1.0000      -0.985318       -26.8119
  11   1.0000      -0.898659       -24.4537
  12   1.0000      -0.892942       -24.2982
  13   1.0000      -0.812591       -22.1117
  14   1.0000      -0.785291       -21.3688
  15   1.0000      -0.718720       -19.5574
  16   1.0000      -0.694980       -18.9114
  17   1.0000      -0.652046       -17.7431
  18   1.0000      -0.635032       -17.2801
  19   1.0000      -0.628475       -17.1017
  20   1.0000      -0.618175       -16.8214
  21   1.0000      -0.608130       -16.5481
  22   1.0000      -0.586427       -15.9575
  23   1.0000      -0.572294       -15.5729
  24   1.0000      -0.558779       -15.2051
  25   1.0000      -0.552823       -15.0431
  26   1.0000      -0.546571       -14.8729
  27   1.0000      -0.470934       -12.8148
  28   1.0000      -0.469442       -12.7742
  29   0.0000      -0.238155        -6.4805
  30   0.0000      -0.198176        -5.3926
  31   0.0000      -0.084687        -2.3045
  32   0.0000      -0.071040        -1.9331
  33   0.0000      -0.056834        -1.5465

                 SPIN DOWN ORBITALS
  NO   OCC          E(Eh)            E(eV)
   0   1.0000     -10.473917      -285.0098
   1   1.0000     -10.473675      -285.0032
   2   1.0000     -10.460262      -284.6382
   3   1.0000     -10.460056      -284.6326
   4   1.0000     -10.437324      -284.0140
   5   1.0000     -10.429220      -283.7935
   6   1.0000     -10.399214      -282.9770
   7   1.0000     -10.399139      -282.9749
   8   1.0000      -1.084350       -29.5067
   9   1.0000      -0.996271       -27.1099
  10   1.0000      -0.982680       -26.7401
  11   1.0000      -0.897089       -24.4110
  12   1.0000      -0.881465       -23.9859
  13   1.0000      -0.807747       -21.9799
  14   1.0000      -0.778632       -21.1876
  15   1.0000      -0.715106       -19.4590
  16   1.0000      -0.691236       -18.8095
  17   1.0000      -0.649750       -17.6806
  18   1.0000      -0.627044       -17.0627
  19   1.0000      -0.616152       -16.7664
  20   1.0000      -0.613482       -16.6937
  21   1.0000      -0.595754       -16.2113
  22   1.0000      -0.585196       -15.9240
  23   1.0000      -0.570690       -15.5293
  24   1.0000      -0.550797       -14.9879
  25   1.0000      -0.543810       -14.7978
  26   1.0000      -0.536208       -14.5910
  27   1.0000      -0.464592       -12.6422
  28   0.0000      -0.368103       -10.0166
  29   0.0000      -0.196892        -5.3577
  30   0.0000      -0.184475        -5.0198
  31   0.0000      -0.083195        -2.2638
  32   0.0000      -0.056030        -1.5246

MULLIKEN ATOMIC CHARGES AND SPIN POPULATIONS
--------------------------------------------
   0 C :   -0.023728    0.416359
   1 C :   -0.070350   -0.210919
   2 C :   -0.023803    0.415035
   3 C :    0.005861    0.234562
   4 C :   -0.315567   -0.009255
   5 H :    0.188197   -0.001310
   6 H :    0.206416    0.021920
   7 H :    0.206265    0.021681
   8 C :   -0.128823   -0.123536
   9 C :    0.005837    0.233222
  10 C :   -0.315521   -0.009139
  11 H :    0.206512    0.021927
  12 H :    0.188150   -0.001311
  13 H :    0.206074    0.021506
  14 H :    0.143476    0.003021
  15 H :    0.172680   -0.020124
  16 H :    0.175616    0.006553
  17 H :    0.172709   -0.020192
Sum of atomic charges         :    1.0000000

LOEWDIN ATOMIC CHARGES AND SPIN POPULATIONS
-------------------------------------------
   0 C :    0.014368    0.349326
   1 C :   -0.106832   -0.114430
   2 C :    0.014119    0.348332
   3 C :    0.066452    0.199903
   4 C :   -0.320036    0.011361
   5 H :    0.158317   -0.000663
   6 H :    0.178645    0.019338
   7 H :    0.178435    0.019130
   8 C :   -0.117912   -0.063773
   9 C :    0.066222    0.198976
  10 C :   -0.320027    0.011371
  11 H :    0.178700    0.019345
  12 H :    0.158304   -0.000664
  13 H :    0.178291    0.018981
  14 H :    0.162274    0.001197
  15 H :    0.169591   -0.010398
  16 H :    0.171487    0.003099
  17 H :    0.169603   -0.010432

  Mayer bond orders larger than 0.100000
B(  0-C ,  1-C ) :   1.3930 B(  0-C ,  9-C ) :   1.1458 B(  0-C , 17-H ) :   0.9491
B(  1-C ,  2-C ) :   1.3941 B(  1-C , 16-H ) :   0.9515 B(  2-C ,  3-C ) :   1.1457
B(  2-C , 15-H ) :   0.9491 B(  3-C ,  4-C ) :   1.1178 B(  3-C ,  8-C ) :   1.4009
B(  3-C ,  9-C ) :   0.1085 B(  4-C ,  5-H ) :   0.9350 B(  4-C ,  6-H ) :   0.8964
B(  4-C ,  7-H ) :   0.8968 B(  8-C ,  9-C ) :   1.4016 B(  8-C , 14-H ) :   0.9499
B(  9-C , 10-C ) :   1.1176 B( 10-C , 11-H ) :   0.8963 B( 10-C , 12-H ) :   0.9350
B( 10-C , 13-H ) :   0.8970

Dispersion correction           -0.015039093
FINAL SINGLE POINT ENERGY      -309.967464083940

DIPOLE MOMENT
-------------

Method             : SCF
Type of density    : Electron Density
Multiplicity       :   2
Irrep              :   0
Energy             :  -309.9524249909374589 Eh
Relativity type    :
Basis              : AO
                                X                 Y                 Z
Electronic contribution:      0.006550649      -3.105015914      -0.211916028
Nuclear contribution   :     -0.005606480       2.888237007       0.196904737
                        -----------------------------------------
Total Dipole Moment    :      0.000944169      -0.216778906      -0.015011290
                        -----------------------------------------
Magnitude (a.u.)       :      0.217300079
Magnitude (Debye)      :      0.552332907

VIBRATIONAL FREQUENCIES
-----------------------

Scaling factor for frequencies =  1.000000000  (already applied!)

     0:       0.00 cm**-1
     1:       0.00 cm**-1
     2:       0.00 cm**-1
     3:       0.00 cm**-1
     4:       0.00 cm**-1
     5:       0.00 cm**-1
     6:      90.12 cm**-1
     7:      96.73 cm**-1
     8:     170.14 cm**-1
     9:     173.14 cm**-1
    10:     280.60 cm**-1
    11:     372.51 cm**-1
    12:     403.17 cm**-1
    13:     415.47 cm**-1
    14:     507.38 cm**-1
    15:     532.89 cm**-1
    16:     572.56 cm**-1
    17:     722.83 cm**-1
    18:     781.77 cm**-1
    19:     887.97 cm**-1
    20:     896.97 cm**-1
    21:     923.75 cm**-1
    22:     980.90 cm**-1
    23:    1010.54 cm**-1
    24:    1018.03 cm**-1
    25:    1021.17 cm**-1
    26:    1022.82 cm**-1
    27:    1029.96 cm**-1
    28:    1111.98 cm**-1
    29:    1141.32 cm**-1
    30:    1187.31 cm**-1
    31:    1300.56 cm**-1
    32:    1310.20 cm**-1
    33:    1363.86 cm**-1
    34:    1372.33 cm**-1
    35:    1410.86 cm**-1
    36:    1426.19 cm**-1
    37:    1426.90 cm**-1
    38:    1439.66 cm**-1
    39:    1449.28 cm**-1
    40:    1465.73 cm**-1
    41:    1530.82 cm**-1
    42:    1541.30 cm**-1
    43:    1609.96 cm**-1
    44:    3009.28 cm**-1
    45:    3013.80 cm**-1
    46:    3081.46 cm**-1
    47:    3082.35 cm**-1
    48:    3180.52 cm**-1
    49:    3181.19 cm**-1
    50:    3214.92 cm**-1
    51:    3218.81 cm**-1
    52:    3222.98 cm**-1
    53:    3240.84 cm**-1

IR SPECTRUM
-----------

 Mode   freq       eps      Int      T**2         TX        TY        TZ
       cm**-1   L/(mol*cm) km/mol    a.u.
----------------------------------------------------------------------------
  6:     90.12   0.001169    5.91  0.004049  ( 0.001093  0.004436 -0.063471)
  7:     96.73   0.000022    0.11  0.000072  (-0.000649 -0.001401  0.008349)
  8:    170.14   0.000044    0.22  0.000081  ( 0.000286  0.000460 -0.008990)
  9:    173.14   0.000000    0.00  0.000000  (-0.000067 -0.000027 -0.000023)
 10:    280.60   0.000022    0.11  0.000024  ( 0.000048  0.004881  0.000395)
 11:    372.51   0.000005    0.03  0.000005  (-0.000036  0.000098 -0.002126)
 12:    403.17   0.000598    3.02  0.000463  (-0.021502 -0.000005 -0.000533)
 13:    415.47   0.004960   25.07  0.003726  (-0.061022 -0.000047 -0.001358)
 14:    507.38   0.000000    0.00  0.000000  ( 0.000035 -0.000024  0.000119)
 15:    532.89   0.000002    0.01  0.000001  (-0.000009  0.000972 -0.000187)
 16:    572.56   0.005247   26.52  0.002860  ( 0.000838  0.003630 -0.053347)
 17:    722.83   0.000000    0.00  0.000000  ( 0.000034  0.000192 -0.000034)
 18:    781.77   0.003026   15.29  0.001208  (-0.000971 -0.002361  0.034660)
 19:    887.97   0.000002    0.01  0.000001  ( 0.000316  0.000049 -0.000761)
 20:    896.97   0.007852   39.68  0.002732  ( 0.052255  0.000087  0.001028)
 21:    923.75   0.000000    0.00  0.000000  ( 0.000099 -0.000047  0.000038)
 22:    980.90   0.000026    0.13  0.000008  ( 0.000045  0.002859  0.000237)
 23:   1010.54   0.000078    0.40  0.000024  ( 0.000063 -0.004921  0.000047)
 24:   1018.03   0.002074   10.48  0.000636  ( 0.001000 -0.001677  0.025139)
 25:   1021.17   0.004044   20.44  0.001236  ( 0.035151  0.000059  0.000471)
 26:   1022.82   0.000021    0.11  0.000006  (-0.002522 -0.000188  0.000120)
 27:   1029.96   0.003077   15.55  0.000932  (-0.000309 -0.002091  0.030461)
 28:   1111.98   0.011052   55.85  0.003102  ( 0.055682  0.000150  0.001074)
 29:   1141.32   0.001249    6.31  0.000341  ( 0.000391 -0.018432 -0.001250)
 30:   1187.31   0.008347   42.18  0.002194  (-0.046828 -0.000090 -0.000961)
 31:   1300.56   0.011822   59.74  0.002837  (-0.053248  0.000015 -0.001097)
 32:   1310.20   0.000002    0.01  0.000001  ( 0.000036 -0.000728 -0.000055)
 33:   1363.86   0.034299  173.33  0.007848  (-0.088564 -0.000017 -0.002091)
 34:   1372.33   0.000056    0.28  0.000013  (-0.000410 -0.003551 -0.000135)
 35:   1410.86   0.000293    1.48  0.000065  (-0.008045 -0.000021  0.000384)
 36:   1426.19   0.000269    1.36  0.000059  ( 0.000324  0.001555 -0.007511)
 37:   1426.90   0.008219   41.53  0.001797  (-0.000801 -0.003146  0.042272)
 38:   1439.66   0.001426    7.21  0.000309  (-0.000016  0.017470  0.001962)
 39:   1449.28   0.003631   18.35  0.000782  ( 0.027957  0.000105  0.000436)
 40:   1465.73   0.018902   95.52  0.004024  ( 0.063421  0.000053  0.001491)
 41:   1530.82   0.005172   26.14  0.001054  ( 0.001789  0.032342  0.002253)
 42:   1541.30   0.078803  398.24  0.015955  (-0.126292  0.000434 -0.002274)
 43:   1609.96   0.001613    8.15  0.000313  (-0.000211 -0.017640 -0.001199)
 44:   3009.28   0.024639  124.52  0.002555  ( 0.050533  0.000040  0.001240)
 45:   3013.80   0.001316    6.65  0.000136  ( 0.000007  0.011650  0.000758)
 46:   3081.46   0.002345   11.85  0.000237  (-0.000472 -0.001056  0.015365)
 47:   3082.35   0.000004    0.02  0.000000  ( 0.000158 -0.000030  0.000654)
 48:   3180.52   0.004021   20.32  0.000395  ( 0.019849  0.000591  0.000419)
 49:   3181.19   0.000221    1.12  0.000022  (-0.003152  0.003431  0.000124)
 50:   3214.92   0.000199    1.00  0.000019  ( 0.000018 -0.004380 -0.000302)
 51:   3218.81   0.000239    1.21  0.000023  ( 0.004810  0.000029  0.000094)
 52:   3222.98   0.000282    1.42  0.000027  (-0.000001 -0.005208 -0.000393)
 53:   3240.84   0.001585    8.01  0.000153  (-0.000019  0.012322  0.000873)

--------------------------
THERMOCHEMISTRY AT 298.15K
--------------------------

Temperature         ...   298.15 K
Pressure            ...     1.00 atm
Total Mass          ...   106.17 AMU
Quasi RRHO          ...     True
Cut-Off Frequency   ...     1.00 cm^-1

Throughout the following assumptions are being made:
  (1) The electronic state is orbitally nondegenerate
      but the spin degeneracy is treated
  (2) There are no thermally accessible electronically excited states
  (3) Hindered rotations indicated by low frequency modes are not
      treated as such but are treated as vibrations and this may
      cause some error
  (4) All equations used are the standard statistical mechanics
      equations for an ideal gas
  (5) All vibrations are strictly harmonic

freq.      90.12  E(vib)   ...       0.47
freq.      96.73  E(vib)   ...       0.46
freq.     170.14  E(vib)   ...       0.38
freq.     173.14  E(vib)   ...       0.38
freq.     280.60  E(vib)   ...       0.28
freq.     372.51  E(vib)   ...       0.21
freq.     403.17  E(vib)   ...       0.19
freq.     415.47  E(vib)   ...       0.18
freq.     507.38  E(vib)   ...       0.14
freq.     532.89  E(vib)   ...       0.13
freq.     572.56  E(vib)   ...       0.11
freq.     722.83  E(vib)   ...       0.07
freq.     781.77  E(vib)   ...       0.05
freq.     887.97  E(vib)   ...       0.04
freq.     896.97  E(vib)   ...       0.03
freq.     923.75  E(vib)   ...       0.03
freq.     980.90  E(vib)   ...       0.02
freq.    1010.54  E(vib)   ...       0.02
freq.    1018.03  E(vib)   ...       0.02
freq.    1021.17  E(vib)   ...       0.02
freq.    1022.82  E(vib)   ...       0.02
freq.    1029.96  E(vib)   ...       0.02
freq.    1111.98  E(vib)   ...       0.01
freq.    1141.32  E(vib)   ...       0.01
freq.    1187.31  E(vib)   ...       0.01
freq.    1300.56  E(vib)   ...       0.01
freq.    1310.20  E(vib)   ...       0.01
freq.    1363.86  E(vib)   ...       0.01
freq.    1372.33  E(vib)   ...       0.01
freq.    1410.86  E(vib)   ...       0.00
freq.    1426.19  E(vib)   ...       0.00
freq.    1426.90  E(vib)   ...       0.00
freq.    1439.66  E(vib)   ...       0.00
freq.    1449.28  E(vib)   ...       0.00
freq.    1465.73  E(vib)   ...       0.00
freq.    1530.82  E(vib)   ...       0.00
freq.    1541.30  E(vib)   ...       0.00
freq.    1609.96  E(vib)   ...       0.00
freq.    3009.28  E(vib)   ...       0.00
freq.    3013.80  E(vib)   ...       0.00
freq.    3081.46  E(vib)   ...       0.00
freq.    3082.35  E(vib)   ...       0.00
freq.    3180.52  E(vib)   ...       0.00
freq.    3181.19  E(vib)   ...       0.00
freq.    3214.92  E(vib)   ...       0.00
freq.    3218.81  E(vib)   ...       0.00
freq.    3222.98  E(vib)   ...       0.00
freq.    3240.84  E(vib)   ...       0.00

------------
INNER ENERGY
------------

The inner energy is: U= E(el) + E(ZPE) + E(vib) + E(rot) + E(trans)
    E(el)   - is the total energy from the electronic structure calculation
              = E(kin-el) + E(nuc-el) + E(el-el) + E(nuc-nuc)
    E(ZPE)  - the the zero temperature vibrational energy from the frequency calculation
    E(vib)  - the the finite temperature correction to E(ZPE) due to population
              of excited vibrational states
    E(rot)  - is the rotational thermal energy
    E(trans)- is the translational thermal energy

Summary of contributions to the inner energy U:
Electronic energy                ...   -309.96746408 Eh
Zero point energy                ...      0.15365293 Eh      96.42 kcal/mol
Thermal vibrational correction   ...      0.00539570 Eh       3.39 kcal/mol
Thermal rotational correction    ...      0.00141627 Eh       0.89 kcal/mol
Thermal translational correction ...      0.00141627 Eh       0.89 kcal/mol
-----------------------------------------------------------------------
Total thermal energy                   -309.80558291 Eh

Summary of corrections to the electronic energy:
(perhaps to be used in another calculation)
Total thermal correction                  0.00822824 Eh       5.16 kcal/mol
Non-thermal (ZPE) correction              0.15365293 Eh      96.42 kcal/mol
-----------------------------------------------------------------------
Total correction                          0.16188117 Eh     101.58 kcal/mol

--------
ENTHALPY
--------

The enthalpy is H = U + kB*T
                kB is Boltzmann's constant
Total thermal energy              ...   -309.80558291 Eh
Thermal Enthalpy correction       ...      0.00094421 Eh       0.59 kcal/mol
-----------------------------------------------------------------------
Total Enthalpy                    ...   -309.80463870 Eh

Note: Only C1 symmetry has been detected, increase convergence thresholds
      if your molecule has a higher symmetry. Symmetry factor of 1.0 is
      used for the rotational entropy correction.

Note: Rotational entropy computed according to Herzberg
Infrared and Raman Spectra, Chapter V,1, Van Nostrand Reinhold, 1945
Point Group:  C1, Symmetry Number:   1
Rotational constants in cm-1:     0.117442     0.059099     0.039898

Vibrational entropy computed according to the QRRHO of S. Grimme
Chem.Eur.J. 2012 18 9955 using a reference frequency of 100.0 cm-1

-------
ENTROPY
-------

The entropy contributions are T*S = T*(S(el)+S(vib)+S(rot)+S(trans))
     S(el)   - electronic entropy
     S(vib)  - vibrational entropy
     S(rot)  - rotational entropy
     S(trans)- translational entropy
The entropies will be listed as multiplied by the temperature to get
units of energy

Electronic entropy                ...      0.00065446 Eh      0.41 kcal/mol
Vibrational entropy               ...      0.00914408 Eh      5.74 kcal/mol
Rotational entropy                ...      0.01337806 Eh      8.39 kcal/mol
Translational entropy             ...      0.01895601 Eh     11.90 kcal/mol
-----------------------------------------------------------------------
Final entropy term                ...      0.04213261 Eh     26.44 kcal/mol

In case the symmetry of your molecule has not been determined correctly
or in case you have a reason to use a different symmetry number we print
out the resulting rotational entropy values for sn=1,12:

 non-linear molecules -----------------------------------
|  sn= 1 | S(rot)=       0.01337806 Eh      8.39 kcal/mol|
|  sn= 2 | S(rot)=       0.01272361 Eh      7.98 kcal/mol|
|  sn= 3 | S(rot)=       0.01234078 Eh      7.74 kcal/mol|
|  sn= 4 | S(rot)=       0.01206915 Eh      7.57 kcal/mol|
|  sn= 5 | S(rot)=       0.01185846 Eh      7.44 kcal/mol|
|  sn= 6 | S(rot)=       0.01168632 Eh      7.33 kcal/mol|
|  sn= 7 | S(rot)=       0.01154077 Eh      7.24 kcal/mol|
|  sn= 8 | S(rot)=       0.01141469 Eh      7.16 kcal/mol|
|  sn= 9 | S(rot)=       0.01130349 Eh      7.09 kcal/mol|
|  sn=10 | S(rot)=       0.01120401 Eh      7.03 kcal/mol|
|  sn=11 | S(rot)=       0.01111402 Eh      6.97 kcal/mol|

                             ****ORCA TERMINATED NORMALLY****
TOTAL RUN TIME: 0 days 0 hours 21 minutes 14 seconds 332 msec
