                         Program Version 6.0.0  -   RELEASE  -
|  1> !PBE0 def2-SV(p) Opt Freq d3 TightSCF SlowConv RIJCOSX defgrid2
|  2>
|  3> %pal
|  4> nprocs 4
|  5> end
|  6>
|  7> %scf
|  8> MaxIter 1500
|  9> end
| 10>
| 11> %maxcore 3000
| 12>
| 13>
| 14>
| 15> * xyz 1 2
| 16> C     0.7617057   -1.1623944    0.2305400
| 17> C    -0.7616468   -1.1624314   -0.2305859
| 18> H    -1.2834755   -2.0075628    0.2195825
| 19> H    -0.7619452   -1.2071090   -1.3260389
| 20> O    -1.3099416   -0.0000327    0.2621199
| 21> C    -0.7617100    1.1624054   -0.2305633
| 22> C     0.7616429    1.1624424    0.2305614
| 23> H     1.2834714    2.0075734   -0.2196079
| 24> H     0.7619420    1.2071208    1.3260144
| 25> O     1.3099376    0.0000433   -0.2621436
| 26> H    -1.2835846    2.0074999    0.2196209
| 27> H    -0.7620110    1.2071035   -1.3260156
| 28> H     1.2835805   -2.0074892   -0.2196434
| 29> H     0.7620060   -1.2070919    1.3259923
| 30> *
| 31>
| 32>                          ****END OF INPUT****
 Total Charge           Charge          ....    1
 Multiplicity           Mult            ....    2
 Number of Electrons    NEL             ....   47
Dispersion correction           -0.008958031
FINAL SINGLE POINT ENERGY      -306.755929158998
Dispersion correction             ... done (  0.0 sec)
Dispersion correction           -0.008939224
FINAL SINGLE POINT ENERGY      -306.756581270032
Dispersion correction             ... done (  0.1 sec)
Dispersion correction           -0.008939201
FINAL SINGLE POINT ENERGY      -306.756651291353
Dispersion correction             ... done (  0.1 sec)
Dispersion correction           -0.008941244
FINAL SINGLE POINT ENERGY      -306.756666049098
Dispersion correction             ... done (  0.1 sec)
                    ***********************HURRAY********************

CARTESIAN COORDINATES (ANGSTROEM)
---------------------------------
  C      0.763096   -1.162940    0.237184
  C     -0.763042   -1.162970   -0.237246
  H     -1.275902   -2.023408    0.218003
  H     -0.773629   -1.198967   -1.340577
  O     -1.302101   -0.000039    0.261584
  C     -0.763104    1.162944   -0.237204
  C      0.763035    1.162986    0.237222
  H      1.275896    2.023416   -0.218041
  H      0.773629    1.198994    1.340554
  O      1.302101    0.000048   -0.261597
  H     -1.276024    2.023350    0.218037
  H     -0.773667    1.198945   -1.340536
  H      1.276019   -2.023340   -0.218063
  H      0.773662   -1.198942    1.340514

 Multiplicity           Mult            ....    2
 Number of Electrons    NEL             ....   47
 Basis Dimension        Dim             ....  100

ORBITAL ENERGIES
----------------
                 SPIN UP ORBITALS
  NO   OCC          E(Eh)            E(eV)
   0   1.0000     -19.505057      -530.7596
   1   1.0000     -19.504995      -530.7579
   2   1.0000     -10.514156      -286.1047
   3   1.0000     -10.514147      -286.1045
   4   1.0000     -10.514116      -286.1037
   5   1.0000     -10.514097      -286.1031
   6   1.0000      -1.371659       -37.3247
   7   1.0000      -1.329680       -36.1824
   8   1.0000      -1.043976       -28.4080
   9   1.0000      -0.941193       -25.6112
  10   1.0000      -0.934612       -25.4321
  11   1.0000      -0.830214       -22.5913
  12   1.0000      -0.776807       -21.1380
  13   1.0000      -0.762327       -20.7440
  14   1.0000      -0.734351       -19.9827
  15   1.0000      -0.726621       -19.7724
  16   1.0000      -0.723429       -19.6855
  17   1.0000      -0.654039       -17.7973
  18   1.0000      -0.636486       -17.3197
  19   1.0000      -0.625538       -17.0218
  20   1.0000      -0.607447       -16.5295
  21   1.0000      -0.568350       -15.4656
  22   1.0000      -0.560336       -15.2475
  23   1.0000      -0.500451       -13.6180
  24   0.0000      -0.106495        -2.8979
  25   0.0000      -0.100497        -2.7347
  26   0.0000      -0.090911        -2.4738
  27   0.0000      -0.077120        -2.0985
  28   0.0000      -0.056916        -1.5488

                 SPIN DOWN ORBITALS
  NO   OCC          E(Eh)            E(eV)
   0   1.0000     -19.495355      -530.4956
   1   1.0000     -19.495297      -530.4940
   2   1.0000     -10.512408      -286.0572
   3   1.0000     -10.512398      -286.0569
   4   1.0000     -10.512393      -286.0568
   5   1.0000     -10.512378      -286.0564
   6   1.0000      -1.355045       -36.8727
   7   1.0000      -1.310869       -35.6706
   8   1.0000      -1.035173       -28.1685
   9   1.0000      -0.936035       -25.4708
  10   1.0000      -0.916241       -24.9322
  11   1.0000      -0.822184       -22.3728
  12   1.0000      -0.759231       -20.6597
  13   1.0000      -0.752898       -20.4874
  14   1.0000      -0.730075       -19.8664
  15   1.0000      -0.721581       -19.6352
  16   1.0000      -0.706123       -19.2146
  17   1.0000      -0.623041       -16.9538
  18   1.0000      -0.621694       -16.9171
  19   1.0000      -0.609996       -16.5988
  20   1.0000      -0.594669       -16.1818
  21   1.0000      -0.553697       -15.0669
  22   1.0000      -0.536668       -14.6035
  23   0.0000      -0.386571       -10.5191
  24   0.0000      -0.100663        -2.7392
  25   0.0000      -0.096476        -2.6253
  26   0.0000      -0.085332        -2.3220
  27   0.0000      -0.074682        -2.0322

MULLIKEN ATOMIC CHARGES AND SPIN POPULATIONS
--------------------------------------------
   0 C :   -0.069855    0.065931
   1 C :   -0.069862    0.065931
   2 H :    0.227789    0.013020
   3 H :    0.203679    0.015830
   4 O :   -0.223222    0.310432
   5 C :   -0.069856    0.065932
   6 C :   -0.069862    0.065931
   7 H :    0.227788    0.013019
   8 H :    0.203679    0.015831
   9 O :   -0.223210    0.310446
  10 H :    0.227792    0.013020
  11 H :    0.203675    0.015829
  12 H :    0.227791    0.013019
  13 H :    0.203674    0.015830
Sum of atomic charges         :    1.0000000

LOEWDIN ATOMIC CHARGES AND SPIN POPULATIONS
-------------------------------------------
   0 C :   -0.091787    0.078600
   1 C :   -0.091790    0.078600
   2 H :    0.175768    0.009460
   3 H :    0.158990    0.011175
   4 O :    0.014055    0.301525
   5 C :   -0.091787    0.078600
   6 C :   -0.091790    0.078599
   7 H :    0.175768    0.009459
   8 H :    0.158990    0.011176
   9 O :    0.014068    0.301537
  10 H :    0.175769    0.009460
  11 H :    0.158989    0.011174
  12 H :    0.175769    0.009460
  13 H :    0.158989    0.011175

  Mayer bond orders larger than 0.100000
B(  0-C ,  1-C ) :   0.9510 B(  0-C ,  9-O ) :   1.0195 B(  0-C , 12-H ) :   0.9016
B(  0-C , 13-H ) :   0.8910 B(  1-C ,  2-H ) :   0.9016 B(  1-C ,  3-H ) :   0.8910
B(  1-C ,  4-O ) :   1.0195 B(  4-O ,  5-C ) :   1.0195 B(  4-O ,  9-O ) :   0.1269
B(  5-C ,  6-C ) :   0.9510 B(  5-C , 10-H ) :   0.9016 B(  5-C , 11-H ) :   0.8910
B(  6-C ,  7-H ) :   0.9016 B(  6-C ,  8-H ) :   0.8910 B(  6-C ,  9-O ) :   1.0195

Dispersion correction           -0.008941869
FINAL SINGLE POINT ENERGY      -306.756666791471

DIPOLE MOMENT
-------------

Method             : SCF
Type of density    : Electron Density
Multiplicity       :   2
Irrep              :   0
Energy             :  -306.7477249229155518 Eh
Relativity type    :
Basis              : AO
                                X                 Y                 Z
Electronic contribution:      0.000027404      -0.000004117       0.000013394
Nuclear contribution   :      0.000002668       0.000005347      -0.000029732
                        -----------------------------------------
Total Dipole Moment    :      0.000030072       0.000001230      -0.000016338
                        -----------------------------------------
Magnitude (a.u.)       :      0.000034246
Magnitude (Debye)      :      0.000087046

VIBRATIONAL FREQUENCIES
-----------------------

Scaling factor for frequencies =  1.000000000  (already applied!)

     0:       0.00 cm**-1
     1:       0.00 cm**-1
     2:       0.00 cm**-1
     3:       0.00 cm**-1
     4:       0.00 cm**-1
     5:       0.00 cm**-1
     6:     245.00 cm**-1
     7:     354.89 cm**-1
     8:     460.41 cm**-1
     9:     475.77 cm**-1
    10:     491.29 cm**-1
    11:     629.43 cm**-1
    12:     644.34 cm**-1
    13:     824.76 cm**-1
    14:     894.53 cm**-1
    15:     950.96 cm**-1
    16:     953.59 cm**-1
    17:     982.58 cm**-1
    18:    1051.21 cm**-1
    19:    1079.06 cm**-1
    20:    1086.63 cm**-1
    21:    1212.34 cm**-1
    22:    1234.30 cm**-1
    23:    1270.78 cm**-1
    24:    1296.50 cm**-1
    25:    1318.91 cm**-1
    26:    1321.57 cm**-1
    27:    1328.32 cm**-1
    28:    1336.47 cm**-1
    29:    1350.20 cm**-1
    30:    1471.10 cm**-1
    31:    1475.47 cm**-1
    32:    1488.38 cm**-1
    33:    1512.50 cm**-1
    34:    3078.47 cm**-1
    35:    3080.79 cm**-1
    36:    3081.31 cm**-1
    37:    3083.57 cm**-1
    38:    3186.92 cm**-1
    39:    3187.97 cm**-1
    40:    3191.85 cm**-1
    41:    3192.95 cm**-1

IR SPECTRUM
-----------

 Mode   freq       eps      Int      T**2         TX        TY        TZ
       cm**-1   L/(mol*cm) km/mol    a.u.
----------------------------------------------------------------------------
  6:    245.00   0.000221    1.12  0.000282  (-0.000002 -0.016787 -0.000002)
  7:    354.89   0.004462   22.55  0.003924  ( 0.038867  0.000002  0.049122)
  8:    460.41   0.000000    0.00  0.000000  (-0.000001 -0.000001 -0.000003)
  9:    475.77   0.000000    0.00  0.000000  (-0.000001 -0.000003  0.000002)
 10:    491.29   0.000000    0.00  0.000000  (-0.000003  0.000001 -0.000001)
 11:    629.43   0.010741   54.28  0.005325  ( 0.072429  0.000008  0.008896)
 12:    644.34   0.007677   38.80  0.003718  (-0.000011  0.060976  0.000000)
 13:    824.76   0.000000    0.00  0.000000  ( 0.000006  0.000000 -0.000000)
 14:    894.53   0.000000    0.00  0.000000  (-0.000001 -0.000001  0.000000)
 15:    950.96   0.019817  100.15  0.006503  ( 0.079813  0.000031 -0.011535)
 16:    953.59   0.000329    1.66  0.000108  (-0.000200  0.010375  0.000034)
 17:    982.58   0.000000    0.00  0.000000  ( 0.000025  0.000001  0.000004)
 18:   1051.21   0.006701   33.87  0.001989  ( 0.029025 -0.000003  0.033867)
 19:   1079.06   0.000598    3.02  0.000173  (-0.000001 -0.013150 -0.000000)
 20:   1086.63   0.000000    0.00  0.000000  (-0.000003 -0.000001 -0.000008)
 21:   1212.34   0.000000    0.00  0.000000  ( 0.000001  0.000005 -0.000001)
 22:   1234.30   0.000203    1.02  0.000051  (-0.000002 -0.007158  0.000000)
 23:   1270.78   0.000000    0.00  0.000000  ( 0.000000 -0.000007  0.000000)
 24:   1296.50   0.000000    0.00  0.000000  ( 0.000003  0.000003 -0.000002)
 25:   1318.91   0.004886   24.69  0.001156  (-0.015499  0.000037  0.030262)
 26:   1321.57   0.000000    0.00  0.000000  ( 0.000001 -0.000019  0.000002)
 27:   1328.32   0.000000    0.00  0.000000  (-0.000008 -0.000011  0.000008)
 28:   1336.47   0.022427  113.34  0.005237  (-0.000014 -0.072364  0.000006)
 29:   1350.20   0.002195   11.09  0.000507  (-0.016898  0.000035 -0.014889)
 30:   1471.10   0.000000    0.00  0.000000  ( 0.000001  0.000001 -0.000002)
 31:   1475.47   0.000038    0.19  0.000008  (-0.000006  0.002853  0.000014)
 32:   1488.38   0.003769   19.05  0.000790  ( 0.010402  0.000002 -0.026115)
 33:   1512.50   0.000000    0.00  0.000000  (-0.000000  0.000000  0.000000)
 34:   3078.47   0.000311    1.57  0.000031  ( 0.000003  0.005610 -0.000003)
 35:   3080.79   0.000000    0.00  0.000000  (-0.000002  0.000001  0.000003)
 36:   3081.31   0.000000    0.00  0.000000  ( 0.000001  0.000001  0.000000)
 37:   3083.57   0.000426    2.15  0.000043  ( 0.004050 -0.000003 -0.005164)
 38:   3186.92   0.002386   12.06  0.000234  (-0.000014 -0.015285  0.000013)
 39:   3187.97   0.000000    0.00  0.000000  ( 0.000002  0.000027 -0.000001)
 40:   3191.85   0.000000    0.00  0.000000  (-0.000031  0.000002  0.000026)
 41:   3192.95   0.002270   11.47  0.000222  (-0.011464  0.000021  0.009512)

--------------------------
THERMOCHEMISTRY AT 298.15K
--------------------------

Temperature         ...   298.15 K
Pressure            ...     1.00 atm
Total Mass          ...    88.11 AMU
Quasi RRHO          ...     True
Cut-Off Frequency   ...     1.00 cm^-1

Throughout the following assumptions are being made:
  (1) The electronic state is orbitally nondegenerate
      but the spin degeneracy is treated
  (2) There are no thermally accessible electronically excited states
  (3) Hindered rotations indicated by low frequency modes are not
      treated as such but are treated as vibrations and this may
      cause some error
  (4) All equations used are the standard statistical mechanics
      equations for an ideal gas
  (5) All vibrations are strictly harmonic

freq.     245.00  E(vib)   ...       0.31
freq.     354.89  E(vib)   ...       0.22
freq.     460.41  E(vib)   ...       0.16
freq.     475.77  E(vib)   ...       0.15
freq.     491.29  E(vib)   ...       0.14
freq.     629.43  E(vib)   ...       0.09
freq.     644.34  E(vib)   ...       0.09
freq.     824.76  E(vib)   ...       0.04
freq.     894.53  E(vib)   ...       0.03
freq.     950.96  E(vib)   ...       0.03
freq.     953.59  E(vib)   ...       0.03
freq.     982.58  E(vib)   ...       0.02
freq.    1051.21  E(vib)   ...       0.02
freq.    1079.06  E(vib)   ...       0.02
freq.    1086.63  E(vib)   ...       0.02
freq.    1212.34  E(vib)   ...       0.01
freq.    1234.30  E(vib)   ...       0.01
freq.    1270.78  E(vib)   ...       0.01
freq.    1296.50  E(vib)   ...       0.01
freq.    1318.91  E(vib)   ...       0.01
freq.    1321.57  E(vib)   ...       0.01
freq.    1328.32  E(vib)   ...       0.01
freq.    1336.47  E(vib)   ...       0.01
freq.    1350.20  E(vib)   ...       0.01
freq.    1471.10  E(vib)   ...       0.00
freq.    1475.47  E(vib)   ...       0.00
freq.    1488.38  E(vib)   ...       0.00
freq.    1512.50  E(vib)   ...       0.00
freq.    3078.47  E(vib)   ...       0.00
freq.    3080.79  E(vib)   ...       0.00
freq.    3081.31  E(vib)   ...       0.00
freq.    3083.57  E(vib)   ...       0.00
freq.    3186.92  E(vib)   ...       0.00
freq.    3187.97  E(vib)   ...       0.00
freq.    3191.85  E(vib)   ...       0.00
freq.    3192.95  E(vib)   ...       0.00

------------
INNER ENERGY
------------

The inner energy is: U= E(el) + E(ZPE) + E(vib) + E(rot) + E(trans)
    E(el)   - is the total energy from the electronic structure calculation
              = E(kin-el) + E(nuc-el) + E(el-el) + E(nuc-nuc)
    E(ZPE)  - the the zero temperature vibrational energy from the frequency calculation
    E(vib)  - the the finite temperature correction to E(ZPE) due to population
              of excited vibrational states
    E(rot)  - is the rotational thermal energy
    E(trans)- is the translational thermal energy

Summary of contributions to the inner energy U:
Electronic energy                ...   -306.75666679 Eh
Zero point energy                ...      0.12262263 Eh      76.95 kcal/mol
Thermal vibrational correction   ...      0.00232243 Eh       1.46 kcal/mol
Thermal rotational correction    ...      0.00141627 Eh       0.89 kcal/mol
Thermal translational correction ...      0.00141627 Eh       0.89 kcal/mol
-----------------------------------------------------------------------
Total thermal energy                   -306.62888918 Eh

Summary of corrections to the electronic energy:
(perhaps to be used in another calculation)
Total thermal correction                  0.00515498 Eh       3.23 kcal/mol
Non-thermal (ZPE) correction              0.12262263 Eh      76.95 kcal/mol
-----------------------------------------------------------------------
Total correction                          0.12777761 Eh      80.18 kcal/mol

--------
ENTHALPY
--------

The enthalpy is H = U + kB*T
                kB is Boltzmann's constant
Total thermal energy              ...   -306.62888918 Eh
Thermal Enthalpy correction       ...      0.00094421 Eh       0.59 kcal/mol
-----------------------------------------------------------------------
Total Enthalpy                    ...   -306.62794498 Eh

Note: Rotational entropy computed according to Herzberg
Infrared and Raman Spectra, Chapter V,1, Van Nostrand Reinhold, 1945
Point Group:  C2h, Symmetry Number:   2
Rotational constants in cm-1:     0.169249     0.162821     0.094443

Vibrational entropy computed according to the QRRHO of S. Grimme
Chem.Eur.J. 2012 18 9955 using a reference frequency of 100.0 cm-1

-------
ENTROPY
-------

The entropy contributions are T*S = T*(S(el)+S(vib)+S(rot)+S(trans))
     S(el)   - electronic entropy
     S(vib)  - vibrational entropy
     S(rot)  - rotational entropy
     S(trans)- translational entropy
The entropies will be listed as multiplied by the temperature to get
units of energy

Electronic entropy                ...      0.00065446 Eh      0.41 kcal/mol
Vibrational entropy               ...      0.00334637 Eh      2.10 kcal/mol
Rotational entropy                ...      0.01166588 Eh      7.32 kcal/mol
Translational entropy             ...      0.01869190 Eh     11.73 kcal/mol
-----------------------------------------------------------------------
Final entropy term                ...      0.03435861 Eh     21.56 kcal/mol

In case the symmetry of your molecule has not been determined correctly
or in case you have a reason to use a different symmetry number we print
out the resulting rotational entropy values for sn=1,12:

 non-linear molecules -----------------------------------
|  sn= 1 | S(rot)=       0.01232034 Eh      7.73 kcal/mol|
|  sn= 2 | S(rot)=       0.01166588 Eh      7.32 kcal/mol|
|  sn= 3 | S(rot)=       0.01128305 Eh      7.08 kcal/mol|
|  sn= 4 | S(rot)=       0.01101142 Eh      6.91 kcal/mol|
|  sn= 5 | S(rot)=       0.01080074 Eh      6.78 kcal/mol|
|  sn= 6 | S(rot)=       0.01062859 Eh      6.67 kcal/mol|
|  sn= 7 | S(rot)=       0.01048304 Eh      6.58 kcal/mol|
|  sn= 8 | S(rot)=       0.01035697 Eh      6.50 kcal/mol|
|  sn= 9 | S(rot)=       0.01024576 Eh      6.43 kcal/mol|
|  sn=10 | S(rot)=       0.01014628 Eh      6.37 kcal/mol|
|  sn=11 | S(rot)=       0.01005629 Eh      6.31 kcal/mol|
|  sn=12 | S(rot)=       0.00997413 Eh      6.26 kcal/mol|
 linear molecules ---------------------------------------
|  Dinfh | S(rot)=       0.00755384 Eh      4.74 kcal/mol|
|  Cinfv | S(rot)=       0.00820830 Eh      5.15 kcal/mol|
 --------------------------------------------------------

-------------------
GIBBS FREE ENERGY
-------------------

The Gibbs free energy is G = H - T*S

Total enthalpy                    ...   -306.62794498 Eh
Total entropy correction          ...     -0.03435861 Eh    -21.56 kcal/mol
-----------------------------------------------------------------------
Final Gibbs free energy         ...   -306.66230358 Eh

                             ****ORCA TERMINATED NORMALLY****
TOTAL RUN TIME: 0 days 0 hours 6 minutes 8 seconds 4 msec
