                         Program Version 6.0.0  -   RELEASE  -
|  1> !TPSSh aug-cc-pVTZ d3 TightSCF SlowConv RIJCOSX defgrid2
|  2>
|  3> %pal
|  4> nprocs 4
|  5> end
|  6>
|  7> %scf
|  8> MaxIter 1500
|  9> end
| 10>
| 11> %maxcore 3000
| 12>
| 13> !CPCM
| 14> %cpcm smd true
| 15> SMDsolvent "MeCN"
| 16> surfacetype gepol_ses
| 17> rsolv 2.19
| 18> end
| 19>
| 20> * xyz 1 2
| 21> C          -1.44481249477950     -1.24089869043630     -0.04422599400373
| 22> C          -0.65270604847852     -0.00076368095320      0.28791614725384
| 23> C          -1.30929275863265      1.23982712865771      0.35161568821529
| 24> C          -2.74063823963677      1.43127678213719      0.02585737149656
| 25> C          -3.39505339125515      0.23037622200763     -0.64214547535322
| 26> C          -2.95552826966099     -1.04385052815768      0.05894599867098
| 27> H          -3.25015333818141     -1.00365338980094      1.12375920827710
| 28> H          -3.45411967363569     -1.92734186501785     -0.37018160543262
| 29> H          -3.10809852954095      0.19229025020268     -1.70915885064496
| 30> H          -4.49080288100221      0.33786121592847     -0.61492706244962
| 31> H          -3.25929625917231      1.67756120213297      0.97946727706286
| 32> H          -2.84476148649454      2.35439029011798     -0.57598988497406
| 33> H          -0.76469248652363      2.13141528408385      0.67016269395744
| 34> N           0.66752107988003     -0.10626256742495      0.51040491586712
| 35> C           1.56955562659101      1.00233502677147      0.81026146443154
| 36> H           1.02598182456206      1.94284494841719      0.94569175972172
| 37> C           2.60477512331413      1.13220701827643     -0.31350161995086
| 38> H           3.33201792543053      1.91420413707981     -0.04701570716605
| 39> H           2.09193033727133      1.43067631822316     -1.25179236728035
| 40> O           3.30361867772652     -0.05985085481676     -0.47723954868017
| 41> C           2.46362526797603     -1.12359131694069     -0.79016381810780
| 42> H           1.94257622699126     -0.95317296670009     -1.75539103320005
| 43> C           1.42056299159698     -1.34142967958749      0.31558716197835
| 44> H           1.93714553018002     -1.57576109367006      1.26235030582174
| 45> H           0.75880210570906     -2.17479036012822      0.05847316266350
| 46> H           3.08480888198717     -2.02759057110245     -0.88152456683608
| 47> H           2.08534474449633      0.75971289468002      1.75472159871514
| 48> H          -1.17788242047587     -1.56014085908261     -1.07070698702721
| 49> H          -1.13843616624223     -2.06145349489725      0.62645826697362
| 50> *
| 51>
| 52>                          ****END OF INPUT****

CARTESIAN COORDINATES (ANGSTROEM)
---------------------------------
  C     -1.444812   -1.240899   -0.044226
  C     -0.652706   -0.000764    0.287916
  C     -1.309293    1.239827    0.351616
  C     -2.740638    1.431277    0.025857
  C     -3.395053    0.230376   -0.642145
  C     -2.955528   -1.043851    0.058946
  H     -3.250153   -1.003653    1.123759
  H     -3.454120   -1.927342   -0.370182
  H     -3.108099    0.192290   -1.709159
  H     -4.490803    0.337861   -0.614927
  H     -3.259296    1.677561    0.979467
  H     -2.844761    2.354390   -0.575990
  H     -0.764692    2.131415    0.670163
  N      0.667521   -0.106263    0.510405
  C      1.569556    1.002335    0.810261
  H      1.025982    1.942845    0.945692
  C      2.604775    1.132207   -0.313502
  H      3.332018    1.914204   -0.047016
  H      2.091930    1.430676   -1.251792
  O      3.303619   -0.059851   -0.477240
  C      2.463625   -1.123591   -0.790164
  H      1.942576   -0.953173   -1.755391
  C      1.420563   -1.341430    0.315587
  H      1.937146   -1.575761    1.262350
  H      0.758802   -2.174790    0.058473
  H      3.084809   -2.027591   -0.881525
  H      2.085345    0.759713    1.754722
  H     -1.177882   -1.560141   -1.070707
  H     -1.138436   -2.061453    0.626458

 Total Charge           Charge          ....    1
 Multiplicity           Mult            ....    2
 Number of Electrons    NEL             ....   91
 Basis Dimension        Dim             ....  943

ORBITAL ENERGIES
----------------
                 SPIN UP ORBITALS
  NO   OCC          E(Eh)            E(eV)
   0   1.0000     -19.078260      -519.1459
   1   1.0000     -14.354479      -390.6052
   2   1.0000     -10.204375      -277.6752
   3   1.0000     -10.177542      -276.9450
   4   1.0000     -10.176958      -276.9291
   5   1.0000     -10.170290      -276.7477
   6   1.0000     -10.169807      -276.7345
   7   1.0000     -10.167643      -276.6756
   8   1.0000     -10.135599      -275.8037
   9   1.0000     -10.129535      -275.6386
  10   1.0000     -10.117216      -275.3034
  11   1.0000     -10.114400      -275.2268
  12   1.0000      -1.053787       -28.6750
  13   1.0000      -0.991004       -26.9666
  14   1.0000      -0.839718       -22.8499
  15   1.0000      -0.782200       -21.2847
  16   1.0000      -0.764027       -20.7902
  17   1.0000      -0.749376       -20.3916
  18   1.0000      -0.693978       -18.8841
  19   1.0000      -0.671970       -18.2852
  20   1.0000      -0.621925       -16.9234
  21   1.0000      -0.612441       -16.6654
  22   1.0000      -0.574830       -15.6419
  23   1.0000      -0.546172       -14.8621
  24   1.0000      -0.516284       -14.0488
  25   1.0000      -0.489300       -13.3145
  26   1.0000      -0.482467       -13.1286
  27   1.0000      -0.478845       -13.0300
  28   1.0000      -0.469267       -12.7694
  29   1.0000      -0.458651       -12.4805
  30   1.0000      -0.439536       -11.9604
  31   1.0000      -0.424312       -11.5461
  32   1.0000      -0.422061       -11.4849
  33   1.0000      -0.409392       -11.1401
  34   1.0000      -0.402259       -10.9460
  35   1.0000      -0.384421       -10.4606
  36   1.0000      -0.379658       -10.3310
  37   1.0000      -0.366952        -9.9853
  38   1.0000      -0.358088        -9.7441
  39   1.0000      -0.343126        -9.3369
  40   1.0000      -0.322279        -8.7697
  41   1.0000      -0.321213        -8.7407
  42   1.0000      -0.311352        -8.4723
  43   1.0000      -0.309143        -8.4122
  44   1.0000      -0.267538        -7.2801
  45   1.0000      -0.230052        -6.2600
  46   0.0000      -0.032749        -0.8911
  47   0.0000      -0.007721        -0.2101
  48   0.0000       0.003837         0.1044
  49   0.0000       0.004274         0.1163
  50   0.0000       0.006492         0.1766

                 SPIN DOWN ORBITALS
  NO   OCC          E(Eh)            E(eV)
   0   1.0000     -19.077752      -519.1320
   1   1.0000     -14.345691      -390.3661
   2   1.0000     -10.205680      -277.7107
   3   1.0000     -10.176940      -276.9286
   4   1.0000     -10.176496      -276.9165
   5   1.0000     -10.170499      -276.7533
   6   1.0000     -10.170033      -276.7407
   7   1.0000     -10.158155      -276.4174
   8   1.0000     -10.135561      -275.8026
   9   1.0000     -10.129993      -275.6511
  10   1.0000     -10.117228      -275.3038
  11   1.0000     -10.114360      -275.2257
  12   1.0000      -1.052330       -28.6354
  13   1.0000      -0.979314       -26.6485
  14   1.0000      -0.832813       -22.6620
  15   1.0000      -0.780325       -21.2337
  16   1.0000      -0.763232       -20.7686
  17   1.0000      -0.743199       -20.2235
  18   1.0000      -0.687336       -18.7034
  19   1.0000      -0.670907       -18.2563
  20   1.0000      -0.619846       -16.8669
  21   1.0000      -0.606926       -16.5153
  22   1.0000      -0.572137       -15.5686
  23   1.0000      -0.542300       -14.7567
  24   1.0000      -0.512557       -13.9474
  25   1.0000      -0.486452       -13.2370
  26   1.0000      -0.477275       -12.9873
  27   1.0000      -0.474299       -12.9063
  28   1.0000      -0.467235       -12.7141
  29   1.0000      -0.454851       -12.3771
  30   1.0000      -0.433817       -11.8048
  31   1.0000      -0.421106       -11.4589
  32   1.0000      -0.417410       -11.3583
  33   1.0000      -0.407389       -11.0856
  34   1.0000      -0.400369       -10.8946
  35   1.0000      -0.377861       -10.2821
  36   1.0000      -0.375900       -10.2288
  37   1.0000      -0.365278        -9.9397
  38   1.0000      -0.356381        -9.6976
  39   1.0000      -0.331449        -9.0192
  40   1.0000      -0.320321        -8.7164
  41   1.0000      -0.318394        -8.6639
  42   1.0000      -0.310060        -8.4372
  43   1.0000      -0.303053        -8.2465
  44   1.0000      -0.259252        -7.0546
  45   0.0000      -0.154385        -4.2010
  46   0.0000      -0.012800        -0.3483
  47   0.0000      -0.001782        -0.0485
  48   0.0000       0.005022         0.1367
  49   0.0000       0.006816         0.1855

MULLIKEN ATOMIC CHARGES AND SPIN POPULATIONS
--------------------------------------------
   0 C :    0.322927    0.007867
   1 C :    0.951621   -0.012197
   2 C :   -0.465565    0.661925
   3 C :    0.085657   -0.122803
   4 C :    0.049384    0.003574
   5 C :   -0.173025   -0.006494
   6 H :   -0.010468   -0.003532
   7 H :   -0.042135    0.000612
   8 H :    0.067192    0.000930
   9 H :   -0.053993   -0.000670
  10 H :    0.106794    0.055211
  11 H :    0.045915    0.030839
  12 H :    0.099034   -0.043302
  13 N :   -0.020416    0.373132
  14 C :   -0.349231   -0.039927
  15 H :   -0.030717    0.002187
  16 C :    0.356185    0.028871
  17 H :    0.012507    0.002818
  18 H :    0.123541    0.002961
  19 O :   -0.680576    0.018336
  20 C :    0.345943    0.038299
  21 H :    0.118945    0.001908
  22 C :   -0.217839   -0.046600
  23 H :    0.030388    0.024734
  24 H :   -0.006649    0.002003
  25 H :    0.015959    0.004622
  26 H :    0.029107    0.013104
  27 H :    0.149710    0.001091
  28 H :    0.139804    0.000501
Sum of atomic charges         :    1.0000000

LOEWDIN ATOMIC CHARGES AND SPIN POPULATIONS
-------------------------------------------
   0 C :    0.318038    0.003260
   1 C :   -0.076121    0.107492
   2 C :    0.366241    0.310678
   3 C :    0.303267    0.093472
   4 C :    0.291803    0.004643
   5 C :    0.300427    0.001979
   6 H :   -0.118703    0.000412
   7 H :   -0.120519    0.000168
   8 H :   -0.121576    0.000792
   9 H :   -0.124498   -0.000032
  10 H :   -0.110534    0.026838
  11 H :   -0.117508    0.014898
  12 H :   -0.161512    0.056770
  13 N :    0.342396    0.227928
  14 C :    0.270911    0.031568
  15 H :   -0.157900    0.000613
  16 C :    0.062181    0.014933
  17 H :   -0.128314    0.002699
  18 H :   -0.122689    0.001772
  19 O :    0.612979    0.015737
  20 C :    0.062649    0.018242
  21 H :   -0.123197    0.002217
  22 C :    0.268145    0.039339
  23 H :   -0.097581    0.010502
  24 H :   -0.155494    0.001906
  25 H :   -0.127685    0.003618
  26 H :   -0.100049    0.007774
  27 H :   -0.104139    0.000432
  28 H :   -0.131019   -0.000649

  Mayer bond orders larger than 0.100000
B(  0-C ,  1-C ) :   0.7802 B(  0-C ,  5-C ) :   1.0814 B(  0-C , 27-H ) :   0.8506
B(  0-C , 28-H ) :   0.8601 B(  1-C ,  2-C ) :   0.5255 B(  1-C ,  3-C ) :  -0.1626
B(  1-C , 12-H ) :   0.1312 B(  1-C , 13-N ) :   0.3299 B(  1-C , 14-C ) :  -0.1821
B(  1-C , 22-C ) :  -0.1138 B(  2-C ,  3-C ) :   1.1223 B(  2-C ,  4-C ) :   0.1207
B(  2-C , 12-H ) :   0.7646 B(  3-C ,  4-C ) :   1.0976 B(  3-C ,  5-C ) :   0.1019
B(  3-C , 10-H ) :   0.9022 B(  3-C , 11-H ) :   0.8676 B(  4-C ,  5-C ) :   1.0969
B(  4-C ,  8-H ) :   0.9307 B(  4-C ,  9-H ) :   0.9868 B(  5-C ,  6-H ) :   0.9800
B(  5-C ,  7-H ) :   0.9472 B( 13-N , 14-C ) :   1.3008 B( 13-N , 22-C ) :   1.0817
B( 14-C , 15-H ) :   0.9987 B( 14-C , 16-C ) :   1.0333 B( 14-C , 22-C ) :   0.1924
B( 14-C , 26-H ) :   0.9566 B( 16-C , 17-H ) :   1.0227 B( 16-C , 18-H ) :   0.9277
B( 16-C , 19-O ) :   0.7901 B( 16-C , 20-C ) :   0.1128 B( 19-O , 20-C ) :   0.7944
B( 20-C , 21-H ) :   0.9221 B( 20-C , 22-C ) :   1.0527 B( 20-C , 25-H ) :   1.0139
B( 22-C , 23-H ) :   0.9229 B( 22-C , 24-H ) :   0.9788

Dispersion correction           -0.036069210
FINAL SINGLE POINT ENERGY      -521.348651957401

DIPOLE MOMENT
-------------

Method             : SCF
Type of density    : Electron Density
Multiplicity       :   2
Irrep              :   0
Energy             :  -521.3125827478883139 Eh
Relativity type    :
Basis              : AO
                                X                 Y                 Z
Electronic contribution:      6.273371387       0.785831240       1.253772326
Nuclear contribution   :     -6.882345932      -0.552455491      -0.747170800
                        -----------------------------------------
Total Dipole Moment    :     -0.608974545       0.233375749       0.506601526
                        -----------------------------------------
Magnitude (a.u.)       :      0.825808297
Magnitude (Debye)      :      2.099037878

Rotational constants in cm-1:             0.071012             0.017984             0.015658
Rotational constants in MHz :          2128.893427           539.145769           469.425599

                             ****ORCA TERMINATED NORMALLY****
TOTAL RUN TIME: 0 days 0 hours 16 minutes 45 seconds 933 msec
