                         Program Version 6.0.0  -   RELEASE  -
|  1> !r2SCAN aug-cc-pVTZ d3 TightSCF SlowConv RIJCOSX defgrid2
|  2>
|  3> %pal
|  4> nprocs 15
|  5> end
|  6>
|  7> %scf
|  8> MaxIter 1500
|  9> end
| 10>
| 11> %maxcore 3500
| 12>
| 13> !CPCM
| 14> %cpcm smd true
| 15> SMDsolvent "WATER"
| 16> surfacetype gepol_ses
| 17> rsolv 1.40
| 18> end
| 19>
| 20> * xyz 0 1
| 21> C          -0.05907366598530     -0.02793506437793     -0.04390048443000
| 22> C          -0.02890735437417      1.45710089193008      0.08222581496885
| 23> C           0.02781409212755      2.06300295185481      1.29625580282132
| 24> C           0.05780784816423      1.27059537024470      2.55865678848172
| 25> C           0.02728706606325     -0.21148353395784      2.45495612270071
| 26> C          -0.02843189949116     -0.83640031526210      1.20261036404921
| 27> C          -0.05547047371799     -2.22955810695340      1.11889579291072
| 28> C          -0.02722158045044     -2.99492416088675      2.28117734907788
| 29> C           0.02796540531077     -2.37140543755571      3.53091392418760
| 30> C           0.05520008600593     -0.98250737910286      3.61837358653962
| 31> H           0.09847557758253     -0.46770840832251      4.58128936060527
| 32> H           0.04990261703070     -2.97596484746596      4.44240334694328
| 33> H          -0.04820318575023     -4.08675470796317      2.21598714046560
| 34> H          -0.09870498752579     -2.68915740048288      0.12846959179026
| 35> C           0.06194462166156      3.55006381235348      1.44143215923311
| 36> H          -0.84116618668105      4.01208400301480      1.00272169259353
| 37> H           0.12018684562378      3.82673225712869      2.50411119237925
| 38> H           0.93021072875079      3.98022200468594      0.91048633813469
| 39> C          -0.06163879144342      2.23535286557775     -1.19335579257479
| 40> H           0.84200005659416      2.86322691783085     -1.29721049713274
| 41> H          -0.11947303398066      1.55280359233205     -2.05354858361608
| 42> H          -0.92952293856559      2.91875817267932     -1.21877475276670
| 43> O           0.10605373554418      1.82136872263288      3.64196829309901
| 44> O          -0.10703458249363     -0.56180561393426     -1.13565794046132
| 45> *
| 46>
| 47>                          ****END OF INPUT****

CARTESIAN COORDINATES (ANGSTROEM)
---------------------------------
  C     -0.059074   -0.027935   -0.043900
  C     -0.028907    1.457101    0.082226
  C      0.027814    2.063003    1.296256
  C      0.057808    1.270595    2.558657
  C      0.027287   -0.211484    2.454956
  C     -0.028432   -0.836400    1.202610
  C     -0.055470   -2.229558    1.118896
  C     -0.027222   -2.994924    2.281177
  C      0.027965   -2.371405    3.530914
  C      0.055200   -0.982507    3.618374
  H      0.098476   -0.467708    4.581289
  H      0.049903   -2.975965    4.442403
  H     -0.048203   -4.086755    2.215987
  H     -0.098705   -2.689157    0.128470
  C      0.061945    3.550064    1.441432
  H     -0.841166    4.012084    1.002722
  H      0.120187    3.826732    2.504111
  H      0.930211    3.980222    0.910486
  C     -0.061639    2.235353   -1.193356
  H      0.842000    2.863227   -1.297210
  H     -0.119473    1.552804   -2.053549
  H     -0.929523    2.918758   -1.218775
  O      0.106054    1.821369    3.641968
  O     -0.107035   -0.561806   -1.135658

 Total Charge           Charge          ....    0
 Multiplicity           Mult            ....    1
 Number of Electrons    NEL             ....   98
 Basis Dimension        Dim             ....  874

ORBITAL ENERGIES
----------------

  NO   OCC          E(Eh)            E(eV)
   0   2.0000     -18.961551      -515.9700
   1   2.0000     -18.961527      -515.9694
   2   2.0000     -10.137945      -275.8675
   3   2.0000     -10.137920      -275.8668
   4   2.0000     -10.071254      -274.0528
   5   2.0000     -10.070643      -274.0361
   6   2.0000     -10.064684      -273.8740
   7   2.0000     -10.064259      -273.8624
   8   2.0000     -10.056654      -273.6555
   9   2.0000     -10.056434      -273.6495
  10   2.0000     -10.056127      -273.6411
  11   2.0000     -10.055931      -273.6358
  12   2.0000     -10.032209      -272.9903
  13   2.0000     -10.032168      -272.9892
  14   2.0000      -1.027892       -27.9704
  15   2.0000      -1.026169       -27.9235
  16   2.0000      -0.847484       -23.0612
  17   2.0000      -0.809565       -22.0294
  18   2.0000      -0.746200       -20.3051
  19   2.0000      -0.736225       -20.0337
  20   2.0000      -0.708297       -19.2737
  21   2.0000      -0.657874       -17.9017
  22   2.0000      -0.637144       -17.3376
  23   2.0000      -0.589081       -16.0297
  24   2.0000      -0.571096       -15.5403
  25   2.0000      -0.542945       -14.7743
  26   2.0000      -0.508033       -13.8243
  27   2.0000      -0.477382       -12.9902
  28   2.0000      -0.460100       -12.5200
  29   2.0000      -0.431251       -11.7349
  30   2.0000      -0.429826       -11.6962
  31   2.0000      -0.423193       -11.5157
  32   2.0000      -0.414900       -11.2900
  33   2.0000      -0.407384       -11.0855
  34   2.0000      -0.393155       -10.6983
  35   2.0000      -0.388074       -10.5600
  36   2.0000      -0.377596       -10.2749
  37   2.0000      -0.373631       -10.1670
  38   2.0000      -0.360579        -9.8119
  39   2.0000      -0.354399        -9.6437
  40   2.0000      -0.346535        -9.4297
  41   2.0000      -0.344321        -9.3694
  42   2.0000      -0.327504        -8.9118
  43   2.0000      -0.324017        -8.8170
  44   2.0000      -0.266122        -7.2415
  45   2.0000      -0.253978        -6.9111
  46   2.0000      -0.251422        -6.8415
  47   2.0000      -0.243497        -6.6259
  48   2.0000      -0.234011        -6.3678
  49   0.0000      -0.142210        -3.8697
  50   0.0000      -0.072012        -1.9596
  51   0.0000      -0.047254        -1.2859
  52   0.0000       0.003104         0.0845
  53   0.0000       0.009087         0.2473

MULLIKEN ATOMIC CHARGES
-----------------------
   0 C :    1.473347
   1 C :    0.058278
   2 C :    0.059864
   3 C :    1.470789
   4 C :    1.082002
   5 C :    1.083045
   6 C :   -1.151311
   7 C :   -0.416740
   8 C :   -0.417446
   9 C :   -1.149288
  10 H :    0.038278
  11 H :    0.623259
  12 H :    0.621827
  13 H :    0.038108
  14 C :   -0.873489
  15 H :    0.172582
  16 H :    0.170064
  17 H :    0.166750
  18 C :   -0.872493
  19 H :    0.172565
  20 H :    0.168440
  21 H :    0.166900
  22 O :   -1.342070
  23 O :   -1.343259
Sum of atomic charges:    0.0000000

LOEWDIN ATOMIC CHARGES
----------------------
   0 C :   -0.508029
   1 C :   -0.078882
   2 C :   -0.078728
   3 C :   -0.507950
   4 C :   -0.119004
   5 C :   -0.118973
   6 C :    0.221729
   7 C :    0.227299
   8 C :    0.227292
   9 C :    0.221702
  10 H :   -0.175695
  11 H :   -0.159776
  12 H :   -0.159787
  13 H :   -0.175682
  14 C :    0.579366
  15 H :   -0.144292
  16 H :   -0.202750
  17 H :   -0.145400
  18 C :    0.579306
  19 H :   -0.144373
  20 H :   -0.202892
  21 H :   -0.145316
  22 O :    0.505454
  23 O :    0.505379

  Mayer bond orders larger than 0.100000
B(  0-C ,  1-C ) :   1.0645 B(  0-C ,  2-C ) :  -0.3770 B(  0-C ,  3-C ) :   0.6249
B(  0-C ,  4-C ) :  -0.3090 B(  0-C ,  5-C ) :   0.5711 B(  0-C ,  6-C ) :   0.5842
B(  0-C ,  7-C ) :   0.1355 B(  0-C ,  9-C ) :  -0.1294 B(  0-C , 23-O ) :  -0.2153
B(  1-C ,  2-C ) :   1.5809 B(  1-C ,  3-C ) :  -0.3784 B(  1-C ,  4-C ) :  -0.2975
B(  1-C ,  5-C ) :   0.8001 B(  1-C , 18-C ) :   0.2964 B(  1-C , 19-H ) :  -0.1455
B(  1-C , 21-H ) :  -0.1469 B(  1-C , 22-O ) :   0.1295 B(  1-C , 23-O ) :   0.3372
B(  2-C ,  3-C ) :   1.0635 B(  2-C ,  4-C ) :   0.8002 B(  2-C ,  5-C ) :  -0.2988
B(  2-C , 14-C ) :   0.2964 B(  2-C , 15-H ) :  -0.1458 B(  2-C , 17-H ) :  -0.1466
B(  2-C , 22-O ) :   0.3370 B(  2-C , 23-O ) :   0.1301 B(  3-C ,  4-C ) :   0.5690
B(  3-C ,  5-C ) :  -0.3090 B(  3-C ,  6-C ) :  -0.1286 B(  3-C ,  8-C ) :   0.1358
B(  3-C ,  9-C ) :   0.5857 B(  3-C , 22-O ) :  -0.2122 B(  4-C ,  5-C ) :   1.0227
B(  4-C ,  6-C ) :  -0.6701 B(  4-C ,  7-C ) :  -0.2060 B(  4-C ,  8-C ) :  -0.1577
B(  4-C ,  9-C ) :  -0.3613 B(  4-C , 10-H ) :  -0.1028 B(  4-C , 22-O ) :   0.2840
B(  5-C ,  6-C ) :  -0.3604 B(  5-C ,  7-C ) :  -0.1579 B(  5-C ,  8-C ) :  -0.2061
B(  5-C ,  9-C ) :  -0.6688 B(  5-C , 13-H ) :  -0.1029 B(  5-C , 23-O ) :   0.2833
B(  6-C ,  7-C ) :   1.0737 B(  6-C , 12-H ) :  -0.1041 B(  6-C , 13-H ) :   1.0465
B(  7-C ,  8-C ) :   1.0513 B(  7-C , 12-H ) :   0.2863 B(  8-C ,  9-C ) :   1.0721
B(  8-C , 11-H ) :   0.2849 B(  9-C , 10-H ) :   1.0463 B(  9-C , 11-H ) :  -0.1044
B( 10-H , 22-O ) :   0.2298 B( 13-H , 23-O ) :   0.2295 B( 14-C , 15-H ) :   1.0812
B( 14-C , 16-H ) :   0.9321 B( 14-C , 17-H ) :   1.0870 B( 18-C , 19-H ) :   1.0810
B( 18-C , 20-H ) :   0.9341 B( 18-C , 21-H ) :   1.0862

Dispersion correction           -0.009296040
FINAL SINGLE POINT ENERGY      -613.654315833554

DIPOLE MOMENT
-------------

Method             : SCF
Type of density    : Electron Density
Multiplicity       :   1
Irrep              :   0
Energy             :  -613.6450197938843303 Eh
Relativity type    :
Basis              : AO
                                X                 Y                 Z
Electronic contribution:     -0.004991706      -6.512129988       3.250589789
Nuclear contribution   :      0.005720256       6.367214391      -3.176836513
                        -----------------------------------------
Total Dipole Moment    :      0.000728551      -0.144915598       0.073753276
                        -----------------------------------------
Magnitude (a.u.)       :      0.162605679
Magnitude (Debye)      :      0.413310791

Rotational constants in cm-1:             0.037375             0.021586             0.013754
Rotational constants in MHz :          1120.461464           647.130480           412.334281

                             ****ORCA TERMINATED NORMALLY****
TOTAL RUN TIME: 0 days 0 hours 3 minutes 18 seconds 897 msec
