                         Program Version 6.0.0  -   RELEASE  -
|  1> !TPSSh aug-cc-pVTZ d3 TightSCF SlowConv RIJCOSX defgrid2
|  2>
|  3> %pal
|  4> nprocs 4
|  5> end
|  6>
|  7> %scf
|  8> MaxIter 1500
|  9> end
| 10>
| 11> %maxcore 3000
| 12>
| 13> !CPCM
| 14> %cpcm smd true
| 15> SMDsolvent "MeCN"
| 16> surfacetype gepol_ses
| 17> rsolv 2.19
| 18> end
| 19>
| 20> * xyz 1 2
| 21> C          -1.21410268013558      0.66079671488085      0.00044125101463
| 22> C          -0.00479873951211      1.42348649358076      0.00008291249140
| 23> C           1.19917788477091      0.76805500599948     -0.00093245598873
| 24> C           1.21410525376750     -0.66078759041144     -0.00041186823336
| 25> C           0.00483277696024     -1.42348058095615     -0.00006380880582
| 26> C          -1.19915583251644     -0.76807297563841      0.00095026344814
| 27> H          -2.14500237789104     -1.31691197560262      0.00198921433109
| 28> H           0.05803237074867     -2.51570929713129     -0.00010038106333
| 29> H           2.17564601802106     -1.18573947417440      0.00063492612648
| 30> H           2.14497947433067      1.31689182680587     -0.00197612697820
| 31> H          -0.05801300840356      2.51575704823161      0.00011149719674
| 32> H          -2.17570214014031      1.18578190441576     -0.00060722353904
| 33> *
| 34>
| 35>                          ****END OF INPUT****

CARTESIAN COORDINATES (ANGSTROEM)
---------------------------------
  C     -1.214103    0.660797    0.000441
  C     -0.004799    1.423486    0.000083
  C      1.199178    0.768055   -0.000932
  C      1.214105   -0.660788   -0.000412
  C      0.004833   -1.423481   -0.000064
  C     -1.199156   -0.768073    0.000950
  H     -2.145002   -1.316912    0.001989
  H      0.058032   -2.515709   -0.000100
  H      2.175646   -1.185739    0.000635
  H      2.144979    1.316892   -0.001976
  H     -0.058013    2.515757    0.000111
  H     -2.175702    1.185782   -0.000607

 Total Charge           Charge          ....    1
 Multiplicity           Mult            ....    2
 Number of Electrons    NEL             ....   41
 Basis Dimension        Dim             ....  414

ORBITAL ENERGIES
----------------
                 SPIN UP ORBITALS
  NO   OCC          E(Eh)            E(eV)
   0   1.0000     -10.207968      -277.7729
   1   1.0000     -10.207942      -277.7722
   2   1.0000     -10.173125      -276.8248
   3   1.0000     -10.173106      -276.8243
   4   1.0000     -10.172387      -276.8047
   5   1.0000     -10.172368      -276.8042
   6   1.0000      -0.890288       -24.2260
   7   1.0000      -0.783003       -21.3066
   8   1.0000      -0.780450       -21.2371
   9   1.0000      -0.638682       -17.3794
  10   1.0000      -0.629007       -17.1162
  11   1.0000      -0.544996       -14.8301
  12   1.0000      -0.485265       -13.2047
  13   1.0000      -0.479692       -13.0531
  14   1.0000      -0.449418       -12.2293
  15   1.0000      -0.443242       -12.0612
  16   1.0000      -0.414858       -11.2888
  17   1.0000      -0.374792       -10.1986
  18   1.0000      -0.369496       -10.0545
  19   1.0000      -0.315258        -8.5786
  20   1.0000      -0.298098        -8.1117
  21   0.0000      -0.100161        -2.7255
  22   0.0000      -0.065934        -1.7942
  23   0.0000      -0.007547        -0.2054
  24   0.0000       0.011990         0.3263
  25   0.0000       0.012139         0.3303

                 SPIN DOWN ORBITALS
  NO   OCC          E(Eh)            E(eV)
   0   1.0000     -10.200715      -277.5756
   1   1.0000     -10.200694      -277.5750
   2   1.0000     -10.172781      -276.8154
   3   1.0000     -10.172763      -276.8149
   4   1.0000     -10.172082      -276.7964
   5   1.0000     -10.172065      -276.7960
   6   1.0000      -0.880155       -23.9502
   7   1.0000      -0.779014       -21.1980
   8   1.0000      -0.763555       -20.7774
   9   1.0000      -0.629080       -17.1181
  10   1.0000      -0.623871       -16.9764
  11   1.0000      -0.542696       -14.7675
  12   1.0000      -0.481170       -13.0933
  13   1.0000      -0.475428       -12.9371
  14   1.0000      -0.449339       -12.2271
  15   1.0000      -0.438661       -11.9366
  16   1.0000      -0.384316       -10.4578
  17   1.0000      -0.373406       -10.1609
  18   1.0000      -0.366511        -9.9733
  19   1.0000      -0.293402        -7.9839
  20   0.0000      -0.237943        -6.4748
  21   0.0000      -0.056780        -1.5451
  22   0.0000      -0.053455        -1.4546
  23   0.0000      -0.006226        -0.1694
  24   0.0000       0.012208         0.3322

MULLIKEN ATOMIC CHARGES AND SPIN POPULATIONS
--------------------------------------------
   0 C :   -0.166828    0.456555
   1 C :   -0.272774    0.017552
   2 C :   -0.277134    0.011906
   3 C :   -0.165585    0.456463
   4 C :   -0.274522    0.017565
   5 C :   -0.276562    0.011940
   6 H :    0.431635   -0.001228
   7 H :    0.436376   -0.000974
   8 H :    0.348929    0.016211
   9 H :    0.431320   -0.001219
  10 H :    0.436776   -0.000971
  11 H :    0.348370    0.016200
Sum of atomic charges         :    1.0000000

LOEWDIN ATOMIC CHARGES AND SPIN POPULATIONS
-------------------------------------------
   0 C :    0.326999    0.256523
   1 C :    0.284712    0.091744
   2 C :    0.284250    0.089972
   3 C :    0.327006    0.256490
   4 C :    0.284717    0.091733
   5 C :    0.284246    0.089983
   6 H :   -0.138360    0.005130
   7 H :   -0.138097    0.005678
   8 H :   -0.119536    0.050971
   9 H :   -0.138394    0.005128
  10 H :   -0.138060    0.005680
  11 H :   -0.119483    0.050968

  Mayer bond orders larger than 0.100000
B(  0-C ,  1-C ) :   1.2194 B(  0-C ,  5-C ) :   1.2149 B(  0-C , 11-H ) :   0.7143
B(  1-C ,  2-C ) :   1.6278 B(  1-C , 10-H ) :   0.6047 B(  2-C ,  3-C ) :   1.2153
B(  2-C ,  9-H ) :   0.6144 B(  3-C ,  4-C ) :   1.2195 B(  3-C ,  8-H ) :   0.7135
B(  4-C ,  5-C ) :   1.6275 B(  4-C ,  7-H ) :   0.6053 B(  5-C ,  6-H ) :   0.6143

Dispersion correction           -0.012453862
FINAL SINGLE POINT ENERGY      -232.124267326776

DIPOLE MOMENT
-------------

Method             : SCF
Type of density    : Electron Density
Multiplicity       :   2
Irrep              :   0
Energy             :  -232.1118134652257652 Eh
Relativity type    :
Basis              : AO
                                X                 Y                 Z
Electronic contribution:      0.000050812      -0.000024867       0.000010141
Nuclear contribution   :     -0.000102416       0.000063154      -0.000012453
                        -----------------------------------------
Total Dipole Moment    :     -0.000051604       0.000038287      -0.000002313
                        -----------------------------------------
Magnitude (a.u.)       :      0.000064298
Magnitude (Debye)      :      0.000163432

Rotational constants in cm-1:             0.193350             0.179303             0.093031
Rotational constants in MHz :          5796.486713          5375.355688          2788.992179

                             ****ORCA TERMINATED NORMALLY****
TOTAL RUN TIME: 0 days 0 hours 2 minutes 38 seconds 601 msec
