                         Program Version 6.0.0  -   RELEASE  -
|  1> !r2SCAN aug-cc-pVTZ d3 TightSCF SlowConv RIJCOSX defgrid2
|  2>
|  3> %pal
|  4> nprocs 4
|  5> end
|  6>
|  7> %scf
|  8> MaxIter 1500
|  9> end
| 10>
| 11> %maxcore 3000
| 12>
| 13> !CPCM
| 14> %cpcm smd true
| 15> SMDsolvent "MeCN"
| 16> surfacetype gepol_ses
| 17> rsolv 2.19
| 18> end
| 19>
| 20> * xyz 0 1
| 21> C           1.36094883267894     -0.66831836744035      0.79166505304401
| 22> C           2.61668489634387     -1.26993624441883      0.83762450630671
| 23> C           3.69751463551123     -0.71498852855237      0.15220113395429
| 24> C           3.51411500210824      0.45521897470958     -0.58452696169930
| 25> C           2.26200602044100      1.06208181225052     -0.64510108123094
| 26> C           1.18681200151517      0.49836983896063      0.04263488062587
| 27> O          -0.00001482572359      1.16979071588351      0.00005454238981
| 28> C          -1.18682038085230      0.49834069380338     -0.04260530375666
| 29> C          -2.26210069770780      1.06211241497205      0.64495038697290
| 30> C          -3.51419441314783      0.45522857582203      0.58430306316011
| 31> C          -3.69749941395526     -0.71506183581738     -0.15231803955518
| 32> C          -2.61658550079969     -1.27006941979564     -0.83755825340367
| 33> C          -1.36085917884001     -0.66843361449673     -0.79152524362506
| 34> H          -0.51558365320611     -1.09715909206061     -1.33585483016717
| 35> H          -2.75062021450227     -2.18281812892327     -1.42596293506599
| 36> H          -4.68044516686291     -1.19217947086648     -0.19470697547587
| 37> H          -4.35472302990288      0.90118829684160      1.12448028512422
| 38> H          -2.09557313650778      1.97752399950586      1.21789909020225
| 39> H           2.09540249638844      1.97742680661202     -1.21813253528145
| 40> H           4.35457955862348      0.90113009122578     -1.12484535245104
| 41> H           4.68047118965145     -1.19208889118135      0.19453111833043
| 42> H           2.75079772312689     -2.18261728806241      1.42611640363857
| 43> H           0.51573555561975     -1.09698553897151      1.33613674796315
| 44> *
| 45>
| 46>                          ****END OF INPUT****

CARTESIAN COORDINATES (ANGSTROEM)
---------------------------------
  C      1.360949   -0.668318    0.791665
  C      2.616685   -1.269936    0.837625
  C      3.697515   -0.714989    0.152201
  C      3.514115    0.455219   -0.584527
  C      2.262006    1.062082   -0.645101
  C      1.186812    0.498370    0.042635
  O     -0.000015    1.169791    0.000055
  C     -1.186820    0.498341   -0.042605
  C     -2.262101    1.062112    0.644950
  C     -3.514194    0.455229    0.584303
  C     -3.697499   -0.715062   -0.152318
  C     -2.616586   -1.270069   -0.837558
  C     -1.360859   -0.668434   -0.791525
  H     -0.515584   -1.097159   -1.335855
  H     -2.750620   -2.182818   -1.425963
  H     -4.680445   -1.192179   -0.194707
  H     -4.354723    0.901188    1.124480
  H     -2.095573    1.977524    1.217899
  H      2.095402    1.977427   -1.218133
  H      4.354580    0.901130   -1.124845
  H      4.680471   -1.192089    0.194531
  H      2.750798   -2.182617    1.426116
  H      0.515736   -1.096986    1.336137

 Total Charge           Charge          ....    0
 Multiplicity           Mult            ....    1
 Number of Electrons    NEL             ....   90
 Basis Dimension        Dim             ....  828

ORBITAL ENERGIES
----------------

  NO   OCC          E(Eh)            E(eV)
   0   2.0000     -19.006894      -517.2039
   1   2.0000     -10.106438      -275.0101
   2   2.0000     -10.106419      -275.0096
   3   2.0000     -10.045086      -273.3407
   4   2.0000     -10.045072      -273.3403
   5   2.0000     -10.044855      -273.3344
   6   2.0000     -10.044839      -273.3340
   7   2.0000     -10.042963      -273.2829
   8   2.0000     -10.042948      -273.2825
   9   2.0000     -10.041393      -273.2402
  10   2.0000     -10.041379      -273.2398
  11   2.0000     -10.038197      -273.1532
  12   2.0000     -10.038186      -273.1529
  13   2.0000      -1.060622       -28.8610
  14   2.0000      -0.832613       -22.6565
  15   2.0000      -0.817828       -22.2542
  16   2.0000      -0.737627       -20.0719
  17   2.0000      -0.720948       -19.6180
  18   2.0000      -0.717040       -19.5116
  19   2.0000      -0.694281       -18.8924
  20   2.0000      -0.609875       -16.5956
  21   2.0000      -0.587564       -15.9884
  22   2.0000      -0.575845       -15.6695
  23   2.0000      -0.548945       -14.9375
  24   2.0000      -0.517300       -14.0764
  25   2.0000      -0.476745       -12.9729
  26   2.0000      -0.455465       -12.3938
  27   2.0000      -0.448853       -12.2139
  28   2.0000      -0.440907       -11.9977
  29   2.0000      -0.411685       -11.2025
  30   2.0000      -0.408114       -11.1053
  31   2.0000      -0.391706       -10.6589
  32   2.0000      -0.391052       -10.6411
  33   2.0000      -0.377908       -10.2834
  34   2.0000      -0.373227       -10.1560
  35   2.0000      -0.344108        -9.3636
  36   2.0000      -0.334361        -9.0984
  37   2.0000      -0.328565        -8.9407
  38   2.0000      -0.327779        -8.9193
  39   2.0000      -0.306653        -8.3444
  40   2.0000      -0.302645        -8.2354
  41   2.0000      -0.247220        -6.7272
  42   2.0000      -0.241371        -6.5680
  43   2.0000      -0.238276        -6.4838
  44   2.0000      -0.206196        -5.6109
  45   0.0000      -0.048503        -1.3198
  46   0.0000      -0.041167        -1.1202
  47   0.0000      -0.034110        -0.9282
  48   0.0000      -0.022321        -0.6074
  49   0.0000       0.005874         0.1598

MULLIKEN ATOMIC CHARGES
-----------------------
   0 C :   -0.440494
   1 C :   -0.602251
   2 C :   -0.499743
   3 C :   -0.395419
   4 C :   -1.299436
   5 C :    1.467122
   6 O :   -0.806482
   7 C :    1.465617
   8 C :   -1.300057
   9 C :   -0.395674
  10 C :   -0.499575
  11 C :   -0.601963
  12 C :   -0.438564
  13 H :    0.518965
  14 H :    0.345921
  15 H :    0.453592
  16 H :    0.364947
  17 H :    0.489461
  18 H :    0.489475
  19 H :    0.364785
  20 H :    0.453595
  21 H :    0.345856
  22 H :    0.520322
Sum of atomic charges:   -0.0000000

LOEWDIN ATOMIC CHARGES
----------------------
   0 C :    0.196983
   1 C :    0.184580
   2 C :    0.179616
   3 C :    0.178252
   4 C :    0.201816
   5 C :   -0.403776
   6 O :    0.622535
   7 C :   -0.403823
   8 C :    0.201778
   9 C :    0.178248
  10 C :    0.179630
  11 C :    0.184585
  12 C :    0.196967
  13 H :   -0.165580
  14 H :   -0.168690
  15 H :   -0.175668
  16 H :   -0.169989
  17 H :   -0.168752
  18 H :   -0.168757
  19 H :   -0.170001
  20 H :   -0.175678
  21 H :   -0.168700
  22 H :   -0.165577

  Mayer bond orders larger than 0.100000
B(  0-C ,  1-C ) :   1.0518 B(  0-C ,  2-C ) :   0.1096 B(  0-C ,  3-C ) :  -0.1334
B(  0-C ,  4-C ) :   0.4306 B(  0-C ,  5-C ) :   0.8015 B(  0-C ,  7-C ) :  -0.1110
B(  0-C , 12-C ) :   0.3089 B(  0-C , 22-H ) :   0.3753 B(  1-C ,  2-C ) :   1.1542
B(  1-C ,  4-C ) :  -0.2346 B(  1-C ,  5-C ) :  -0.3118 B(  1-C , 21-H ) :   0.8309
B(  2-C ,  3-C ) :   1.1620 B(  2-C ,  4-C ) :   0.4814 B(  2-C ,  5-C ) :  -0.1465
B(  2-C , 20-H ) :   0.6220 B(  3-C ,  4-C ) :   1.2018 B(  3-C ,  5-C ) :  -0.3350
B(  3-C , 19-H ) :   0.7871 B(  4-C ,  6-O ) :   0.1882 B(  4-C , 18-H ) :   0.2746
B(  5-C ,  6-O ) :   0.4879 B(  5-C , 12-C ) :  -0.1120 B(  6-O ,  7-C ) :   0.4880
B(  6-O ,  8-C ) :   0.1881 B(  7-C ,  9-C ) :  -0.3346 B(  7-C , 10-C ) :  -0.1466
B(  7-C , 11-C ) :  -0.3115 B(  7-C , 12-C ) :   0.8022 B(  8-C ,  9-C ) :   1.2017
B(  8-C , 10-C ) :   0.4813 B(  8-C , 11-C ) :  -0.2347 B(  8-C , 12-C ) :   0.4297
B(  8-C , 17-H ) :   0.2746 B(  9-C , 10-C ) :   1.1620 B(  9-C , 12-C ) :  -0.1334
B(  9-C , 16-H ) :   0.7867 B( 10-C , 11-C ) :   1.1543 B( 10-C , 12-C ) :   0.1091
B( 10-C , 15-H ) :   0.6221 B( 11-C , 12-C ) :   1.0511 B( 11-C , 14-H ) :   0.8308
B( 12-C , 13-H ) :   0.3765

Dispersion correction           -0.008273989
FINAL SINGLE POINT ENERGY      -538.420927538907

DIPOLE MOMENT
-------------

Method             : SCF
Type of density    : Electron Density
Multiplicity       :   1
Irrep              :   0
Energy             :  -538.4126535503071409 Eh
Relativity type    :
Basis              : AO
                                X                 Y                 Z
Electronic contribution:     -0.000204513       2.502232248      -0.000102307
Nuclear contribution   :      0.000034886      -2.982425974      -0.000176877
                        -----------------------------------------
Total Dipole Moment    :     -0.000169627      -0.480193726      -0.000279184
                        -----------------------------------------
Magnitude (a.u.)       :      0.480193837
Magnitude (Debye)      :      1.220555735

Rotational constants in cm-1:             0.080234             0.014509             0.013552
Rotational constants in MHz :          2405.352266           434.979833           406.266844

                             ****ORCA TERMINATED NORMALLY****
TOTAL RUN TIME: 0 days 0 hours 4 minutes 15 seconds 699 msec
