                         Program Version 6.0.0  -   RELEASE  -
|  1> !r2SCAN freq aug-cc-pVTZ d3 TightSCF SlowConv RIJCOSX defgrid2
|  2>
|  3> %pal
|  4> nprocs 12
|  5> end
|  6>
|  7> %scf
|  8> MaxIter 1500
|  9> end
| 10>
| 11> %maxcore 5000
| 12>
| 13> !CPCM
| 14> %cpcm smd true
| 15> SMDsolvent "MeCN"
| 16> surfacetype gepol_ses
| 17> rsolv 2.19
| 18> end
| 19>
| 20> * xyz 0 1
| 21> C           2.42396639264275     -0.70591241430678     -0.00021695002935
| 22> C           2.42397774512808      0.70587779776541     -0.00019085440633
| 23> C           1.23899417996266      1.39960023848390     -0.00007098343775
| 24> C           0.00000721030391      0.71511280080503      0.00000651333831
| 25> C          -1.23896933210579      1.39961925957942      0.00008750777058
| 26> C          -2.42396352882775      0.70591489155447      0.00020175708793
| 27> C          -2.42397356863886     -0.70587529029991      0.00022316061498
| 28> C          -1.23899031009827     -1.39959770161291      0.00010273173677
| 29> C          -0.00000378147398     -0.71511006954385      0.00000202080714
| 30> C           1.23897238646935     -1.39961659084378     -0.00010218624479
| 31> H           1.23575750886998     -2.48441952405376      0.00001645791491
| 32> H          -1.23579159514273     -2.48440067514982     -0.00002326353063
| 33> H          -3.36658103695114     -1.24052201337867     -0.00017324930940
| 34> H          -3.36656300219801      1.24057563011157     -0.00020833780090
| 35> H          -1.23575423781979      2.48442220007100     -0.00004872584721
| 36> H           1.23579548260192      2.48440322392975      0.00007222631599
| 37> H           3.36658529581522      1.24052426853439      0.00022245603139
| 38> H           3.36656549146246     -1.24057393164549      0.00017611898837
| 39> *
| 40>
| 41>                          ****END OF INPUT****

CARTESIAN COORDINATES (ANGSTROEM)
---------------------------------
  C      2.423966   -0.705912   -0.000217
  C      2.423978    0.705878   -0.000191
  C      1.238994    1.399600   -0.000071
  C      0.000007    0.715113    0.000007
  C     -1.238969    1.399619    0.000088
  C     -2.423964    0.705915    0.000202
  C     -2.423974   -0.705875    0.000223
  C     -1.238990   -1.399598    0.000103
  C     -0.000004   -0.715110    0.000002
  C      1.238972   -1.399617   -0.000102
  H      1.235758   -2.484420    0.000016
  H     -1.235792   -2.484401   -0.000023
  H     -3.366581   -1.240522   -0.000173
  H     -3.366563    1.240576   -0.000208
  H     -1.235754    2.484422   -0.000049
  H      1.235795    2.484403    0.000072
  H      3.366585    1.240524    0.000222
  H      3.366565   -1.240574    0.000176

 Total Charge           Charge          ....    0
 Multiplicity           Mult            ....    1
 Number of Electrons    NEL             ....   68
 Basis Dimension        Dim             ....  644

ORBITAL ENERGIES
----------------

  NO   OCC          E(Eh)            E(eV)
   0   2.0000     -10.051478      -273.5146
   1   2.0000     -10.051150      -273.5057
   2   2.0000     -10.040122      -273.2056
   3   2.0000     -10.040116      -273.2054
   4   2.0000     -10.040050      -273.2036
   5   2.0000     -10.040049      -273.2036
   6   2.0000     -10.039535      -273.1896
   7   2.0000     -10.039534      -273.1896
   8   2.0000     -10.039240      -273.1816
   9   2.0000     -10.039233      -273.1814
  10   2.0000      -0.844483       -22.9795
  11   2.0000      -0.790570       -21.5125
  12   2.0000      -0.743355       -20.2277
  13   2.0000      -0.710573       -19.3357
  14   2.0000      -0.687939       -18.7198
  15   2.0000      -0.594580       -16.1793
  16   2.0000      -0.580206       -15.7882
  17   2.0000      -0.564179       -15.3521
  18   2.0000      -0.482157       -13.1202
  19   2.0000      -0.477020       -12.9804
  20   2.0000      -0.461488       -12.5577
  21   2.0000      -0.413314       -11.2468
  22   2.0000      -0.409329       -11.1384
  23   2.0000      -0.384216       -10.4550
  24   2.0000      -0.383688       -10.4407
  25   2.0000      -0.373714       -10.1693
  26   2.0000      -0.365378        -9.9424
  27   2.0000      -0.335154        -9.1200
  28   2.0000      -0.312214        -8.4958
  29   2.0000      -0.304824        -8.2947
  30   2.0000      -0.296978        -8.0812
  31   2.0000      -0.272787        -7.4229
  32   2.0000      -0.235518        -6.4088
  33   2.0000      -0.207125        -5.6362
  34   0.0000      -0.071305        -1.9403
  35   0.0000      -0.042246        -1.1496
  36   0.0000      -0.011327        -0.3082
  37   0.0000       0.007725         0.2102
  38   0.0000       0.021327         0.5803

MULLIKEN ATOMIC CHARGES
-----------------------
   0 C :   -0.435366
   1 C :   -0.435363
   2 C :   -1.188449
   3 C :    2.001439
   4 C :   -1.188457
   5 C :   -0.435364
   6 C :   -0.435365
   7 C :   -1.188444
   8 C :    2.001488
   9 C :   -1.188439
  10 H :   -0.007700
  11 H :   -0.007740
  12 H :    0.630807
  13 H :    0.630808
  14 H :   -0.007728
  15 H :   -0.007718
  16 H :    0.630792
  17 H :    0.630799
Sum of atomic charges:    0.0000000

LOEWDIN ATOMIC CHARGES
----------------------
   0 C :    0.200451
   1 C :    0.200451
   2 C :    0.216275
   3 C :   -0.131089
   4 C :    0.216275
   5 C :    0.200452
   6 C :    0.200451
   7 C :    0.216275
   8 C :   -0.131089
   9 C :    0.216275
  10 H :   -0.171830
  11 H :   -0.171830
  12 H :   -0.179352
  13 H :   -0.179352
  14 H :   -0.171830
  15 H :   -0.171830
  16 H :   -0.179352
  17 H :   -0.179352

  Mayer bond orders larger than 0.100000
B(  0-C ,  1-C ) :   1.0328 B(  0-C ,  3-C ) :  -0.3551 B(  0-C ,  9-C ) :   1.1378
B(  0-C , 17-H ) :   0.2586 B(  1-C ,  2-C ) :   1.1377 B(  1-C ,  8-C ) :  -0.3552
B(  1-C , 16-H ) :   0.2586 B(  2-C ,  3-C ) :  -0.4436 B(  2-C ,  4-C ) :   0.5745
B(  2-C ,  8-C ) :  -0.3462 B(  2-C , 15-H ) :   1.4605 B(  2-C , 16-H ) :  -0.1946
B(  3-C ,  4-C ) :  -0.4436 B(  3-C ,  6-C ) :  -0.3552 B(  3-C ,  7-C ) :  -0.3462
B(  3-C ,  8-C ) :   1.4297 B(  3-C ,  9-C ) :  -0.3462 B(  3-C , 13-H ) :   0.1075
B(  3-C , 14-H ) :  -0.1633 B(  3-C , 15-H ) :  -0.1633 B(  3-C , 16-H ) :   0.1075
B(  4-C ,  5-C ) :   1.1378 B(  4-C ,  8-C ) :  -0.3463 B(  4-C , 13-H ) :  -0.1946
B(  4-C , 14-H ) :   1.4605 B(  5-C ,  6-C ) :   1.0328 B(  5-C ,  8-C ) :  -0.3552
B(  5-C , 13-H ) :   0.2585 B(  6-C ,  7-C ) :   1.1378 B(  6-C , 12-H ) :   0.2586
B(  7-C ,  8-C ) :  -0.4436 B(  7-C ,  9-C ) :   0.5745 B(  7-C , 11-H ) :   1.4606
B(  7-C , 12-H ) :  -0.1946 B(  8-C ,  9-C ) :  -0.4436 B(  8-C , 10-H ) :  -0.1633
B(  8-C , 11-H ) :  -0.1634 B(  8-C , 12-H ) :   0.1075 B(  8-C , 17-H ) :   0.1075
B(  9-C , 10-H ) :   1.4605 B(  9-C , 17-H ) :  -0.1946

Dispersion correction           -0.006310394
FINAL SINGLE POINT ENERGY      -385.817841317052

DIPOLE MOMENT
-------------

Method             : SCF
Type of density    : Electron Density
Multiplicity       :   1
Irrep              :   0
Energy             :  -385.8115309226417367 Eh
Relativity type    :
Basis              : AO
                                X                 Y                 Z
Electronic contribution:     -0.000002623      -0.000001154      -0.000001221
Nuclear contribution   :     -0.000000007      -0.000001019      -0.000000432
                        -----------------------------------------
Total Dipole Moment    :     -0.000002630      -0.000002173      -0.000001653
                        -----------------------------------------
Magnitude (a.u.)       :      0.000003791
Magnitude (Debye)      :      0.000009635

VIBRATIONAL FREQUENCIES
-----------------------

Scaling factor for frequencies =  1.000000000  (already applied!)

     0:       0.00 cm**-1
     1:       0.00 cm**-1
     2:       0.00 cm**-1
     3:       0.00 cm**-1
     4:       0.00 cm**-1
     5:       0.00 cm**-1
     6:     165.48 cm**-1
     7:     175.29 cm**-1
     8:     361.60 cm**-1
     9:     389.89 cm**-1
    10:     467.86 cm**-1
    11:     479.47 cm**-1
    12:     514.62 cm**-1
    13:     518.71 cm**-1
    14:     588.93 cm**-1
    15:     627.34 cm**-1
    16:     723.17 cm**-1
    17:     770.85 cm**-1
    18:     785.48 cm**-1
    19:     797.75 cm**-1
    20:     807.90 cm**-1
    21:     847.67 cm**-1
    22:     898.45 cm**-1
    23:     949.88 cm**-1
    24:     961.42 cm**-1
    25:     981.23 cm**-1
    26:     988.29 cm**-1
    27:     999.40 cm**-1
    28:    1034.30 cm**-1
    29:    1041.45 cm**-1
    30:    1139.06 cm**-1
    31:    1158.53 cm**-1
    32:    1160.79 cm**-1
    33:    1161.19 cm**-1
    34:    1234.74 cm**-1
    35:    1264.09 cm**-1
    36:    1279.97 cm**-1
    37:    1403.51 cm**-1
    38:    1408.59 cm**-1
    39:    1408.90 cm**-1
    40:    1480.31 cm**-1
    41:    1481.59 cm**-1
    42:    1541.02 cm**-1
    43:    1603.54 cm**-1
    44:    1628.18 cm**-1
    45:    1657.79 cm**-1
    46:    3153.12 cm**-1
    47:    3153.80 cm**-1
    48:    3156.69 cm**-1
    49:    3157.75 cm**-1
    50:    3170.83 cm**-1
    51:    3171.01 cm**-1
    52:    3183.74 cm**-1
    53:    3184.78 cm**-1

IR SPECTRUM
-----------

 Mode   freq       eps      Int      T**2         TX        TY        TZ
       cm**-1   L/(mol*cm) km/mol    a.u.
----------------------------------------------------------------------------
  6:    165.48   0.001096    5.54  0.002067  (-0.000038 -0.000001 -0.045466)
  7:    175.29   0.000000    0.00  0.000000  (-0.000009 -0.000286 -0.000001)
  8:    361.60   0.001064    5.38  0.000919  ( 0.000000 -0.030308 -0.000000)
  9:    389.89   0.000000    0.00  0.000000  (-0.000000  0.000002 -0.000000)
 10:    467.86   0.000000    0.00  0.000000  ( 0.000006  0.000000 -0.000021)
 11:    479.47   0.010264   51.87  0.006680  (-0.000022  0.000000  0.081734)
 12:    514.62   0.000000    0.00  0.000000  (-0.000004  0.000000  0.000002)
 13:    518.71   0.000000    0.00  0.000000  ( 0.000000  0.000000  0.000000)
 14:    588.93   0.000000    0.00  0.000000  ( 0.000006  0.000013  0.000003)
 15:    627.34   0.001653    8.35  0.000822  ( 0.028673 -0.000000 -0.000145)
 16:    723.17   0.000000    0.00  0.000000  ( 0.000000  0.000008 -0.000000)
 17:    770.85   0.000000    0.00  0.000000  (-0.000000 -0.000000 -0.000000)
 18:    785.48   0.000000    0.00  0.000000  (-0.000013 -0.000000 -0.000018)
 19:    797.75   0.047666  240.89  0.018646  ( 0.000006 -0.000001 -0.136550)
 20:    807.90   0.000002    0.01  0.000001  (-0.000001 -0.000781  0.000009)
 21:    847.67   0.000000    0.00  0.000000  (-0.000001  0.000268 -0.000001)
 22:    898.45   0.000000    0.00  0.000000  (-0.000005  0.000000  0.000012)
 23:    949.88   0.000000    0.00  0.000000  (-0.000002 -0.000000 -0.000001)
 24:    961.42   0.000000    0.00  0.000000  ( 0.000000 -0.000005  0.000000)
 25:    981.23   0.001812    9.16  0.000576  (-0.000307 -0.000000  0.024001)
 26:    988.29   0.000000    0.00  0.000000  (-0.000004  0.000287 -0.000001)
 27:    999.40   0.000000    0.00  0.000000  ( 0.000002  0.000000  0.000000)
 28:   1034.30   0.006450   32.59  0.001946  (-0.044112  0.000000 -0.000223)
 29:   1041.45   0.000000    0.00  0.000000  (-0.000001 -0.000000 -0.000000)
 30:   1139.06   0.002694   13.62  0.000738  ( 0.000000  0.027168  0.000000)
 31:   1158.53   0.000000    0.00  0.000000  (-0.000000  0.000000 -0.000003)
 32:   1160.79   0.000000    0.00  0.000000  ( 0.000003 -0.000000  0.000000)
 33:   1161.19   0.000185    0.94  0.000050  ( 0.007059  0.000000  0.000027)
 34:   1234.74   0.000345    1.75  0.000087  ( 0.009344  0.000000  0.000032)
 35:   1264.09   0.000000    0.00  0.000000  ( 0.000000  0.000000  0.000003)
 36:   1279.97   0.001382    6.98  0.000337  (-0.000000  0.018357 -0.000000)
 37:   1403.51   0.000275    1.39  0.000061  (-0.007814  0.000001 -0.000043)
 38:   1408.59   0.002562   12.95  0.000568  (-0.000000 -0.023827 -0.000000)
 39:   1408.90   0.000000    0.00  0.000000  ( 0.000000  0.000017  0.000000)
 40:   1480.31   0.000000    0.00  0.000000  ( 0.000000 -0.000000  0.000000)
 41:   1481.59   0.000000    0.00  0.000000  ( 0.000000  0.000000  0.000005)
 42:   1541.02   0.003930   19.86  0.000796  ( 0.028210  0.000000 -0.000027)
 43:   1603.54   0.000000    0.00  0.000000  ( 0.000000 -0.000000  0.000000)
 44:   1628.18   0.000685    3.46  0.000131  ( 0.000001  0.011456  0.000000)
 45:   1657.79   0.000000    0.00  0.000000  ( 0.000002  0.000000  0.000000)
 46:   3153.12   0.000000    0.00  0.000000  (-0.000001  0.000000 -0.000000)
 47:   3153.80   0.004779   24.15  0.000473  ( 0.000000  0.021745  0.000000)
 48:   3156.69   0.000136    0.69  0.000013  ( 0.003668  0.000000 -0.000058)
 49:   3157.75   0.000000    0.00  0.000000  ( 0.000000  0.000000  0.000000)
 50:   3170.83   0.000000    0.00  0.000000  (-0.000001 -0.000020 -0.000001)
 51:   3171.01   0.018512   93.55  0.001822  (-0.000001 -0.042682 -0.000000)
 52:   3183.74   0.015439   78.02  0.001513  ( 0.038901 -0.000001 -0.000129)
 53:   3184.78   0.000000    0.00  0.000000  (-0.000004 -0.000000  0.000000)

--------------------------
THERMOCHEMISTRY AT 298.15K
--------------------------

Temperature         ...   298.15 K
Pressure            ...     1.00 atm
Total Mass          ...   128.17 AMU
Quasi RRHO          ...     True
Cut-Off Frequency   ...     1.00 cm^-1

Throughout the following assumptions are being made:
  (1) The electronic state is orbitally nondegenerate
  (2) There are no thermally accessible electronically excited states
  (3) Hindered rotations indicated by low frequency modes are not
      treated as such but are treated as vibrations and this may
      cause some error
  (4) All equations used are the standard statistical mechanics
      equations for an ideal gas
  (5) All vibrations are strictly harmonic

freq.     165.48  E(vib)   ...       0.39
freq.     175.29  E(vib)   ...       0.38
freq.     361.60  E(vib)   ...       0.22
freq.     389.89  E(vib)   ...       0.20
freq.     467.86  E(vib)   ...       0.16
freq.     479.47  E(vib)   ...       0.15
freq.     514.62  E(vib)   ...       0.13
freq.     518.71  E(vib)   ...       0.13
freq.     588.93  E(vib)   ...       0.10
freq.     627.34  E(vib)   ...       0.09
freq.     723.17  E(vib)   ...       0.07
freq.     770.85  E(vib)   ...       0.05
freq.     785.48  E(vib)   ...       0.05
freq.     797.75  E(vib)   ...       0.05
freq.     807.90  E(vib)   ...       0.05
freq.     847.67  E(vib)   ...       0.04
freq.     898.45  E(vib)   ...       0.03
freq.     949.88  E(vib)   ...       0.03
freq.     961.42  E(vib)   ...       0.03
freq.     981.23  E(vib)   ...       0.02
freq.     988.29  E(vib)   ...       0.02
freq.     999.40  E(vib)   ...       0.02
freq.    1034.30  E(vib)   ...       0.02
freq.    1041.45  E(vib)   ...       0.02
freq.    1139.06  E(vib)   ...       0.01
freq.    1158.53  E(vib)   ...       0.01
freq.    1160.79  E(vib)   ...       0.01
freq.    1161.19  E(vib)   ...       0.01
freq.    1234.74  E(vib)   ...       0.01
freq.    1264.09  E(vib)   ...       0.01
freq.    1279.97  E(vib)   ...       0.01
freq.    1403.51  E(vib)   ...       0.00
freq.    1408.59  E(vib)   ...       0.00
freq.    1408.90  E(vib)   ...       0.00
freq.    1480.31  E(vib)   ...       0.00
freq.    1481.59  E(vib)   ...       0.00
freq.    1541.02  E(vib)   ...       0.00
freq.    1603.54  E(vib)   ...       0.00
freq.    1628.18  E(vib)   ...       0.00
freq.    1657.79  E(vib)   ...       0.00
freq.    3153.12  E(vib)   ...       0.00
freq.    3153.80  E(vib)   ...       0.00
freq.    3156.69  E(vib)   ...       0.00
freq.    3157.75  E(vib)   ...       0.00
freq.    3170.83  E(vib)   ...       0.00
freq.    3171.01  E(vib)   ...       0.00
freq.    3183.74  E(vib)   ...       0.00
freq.    3184.78  E(vib)   ...       0.00

------------
INNER ENERGY
------------

The inner energy is: U= E(el) + E(ZPE) + E(vib) + E(rot) + E(trans)
    E(el)   - is the total energy from the electronic structure calculation
              = E(kin-el) + E(nuc-el) + E(el-el) + E(nuc-nuc)
    E(ZPE)  - the the zero temperature vibrational energy from the frequency calculation
    E(vib)  - the the finite temperature correction to E(ZPE) due to population
              of excited vibrational states
    E(rot)  - is the rotational thermal energy
    E(trans)- is the translational thermal energy

Summary of contributions to the inner energy U:
Electronic energy                ...   -385.81784132 Eh
Zero point energy                ...      0.14630381 Eh      91.81 kcal/mol
Thermal vibrational correction   ...      0.00409011 Eh       2.57 kcal/mol
Thermal rotational correction    ...      0.00141627 Eh       0.89 kcal/mol
Thermal translational correction ...      0.00141627 Eh       0.89 kcal/mol
-----------------------------------------------------------------------
Total thermal energy                   -385.66461485 Eh

Summary of corrections to the electronic energy:
(perhaps to be used in another calculation)
Total thermal correction                  0.00692266 Eh       4.34 kcal/mol
Non-thermal (ZPE) correction              0.14630381 Eh      91.81 kcal/mol
-----------------------------------------------------------------------
Total correction                          0.15322647 Eh      96.15 kcal/mol

--------
ENTHALPY
--------

The enthalpy is H = U + kB*T
                kB is Boltzmann's constant
Total thermal energy              ...   -385.66461485 Eh
Thermal Enthalpy correction       ...      0.00094421 Eh       0.59 kcal/mol
-----------------------------------------------------------------------
Total Enthalpy                    ...   -385.66367064 Eh

Note: Rotational entropy computed according to Herzberg
Infrared and Raman Spectra, Chapter V,1, Van Nostrand Reinhold, 1945
Point Group:  C2h, Symmetry Number:   2
Rotational constants in cm-1:     0.104427     0.041328     0.029610

Vibrational entropy computed according to the QRRHO of S. Grimme
Chem.Eur.J. 2012 18 9955 using a reference frequency of 100.0 cm-1

-------
ENTROPY
-------

The entropy contributions are T*S = T*(S(el)+S(vib)+S(rot)+S(trans))
     S(el)   - electronic entropy
     S(vib)  - vibrational entropy
     S(rot)  - rotational entropy
     S(trans)- translational entropy
The entropies will be listed as multiplied by the temperature to get
units of energy

Electronic entropy                ...      0.00000000 Eh      0.00 kcal/mol
Vibrational entropy               ...      0.00620942 Eh      3.90 kcal/mol
Rotational entropy                ...      0.01308870 Eh      8.21 kcal/mol
Translational entropy             ...      0.01922279 Eh     12.06 kcal/mol
-----------------------------------------------------------------------
Final entropy term                ...      0.03852091 Eh     24.17 kcal/mol

In case the symmetry of your molecule has not been determined correctly
or in case you have a reason to use a different symmetry number we print
out the resulting rotational entropy values for sn=1,12:

 non-linear molecules -----------------------------------
|  sn= 1 | S(rot)=       0.01374316 Eh      8.62 kcal/mol|
|  sn= 2 | S(rot)=       0.01308870 Eh      8.21 kcal/mol|
|  sn= 3 | S(rot)=       0.01270587 Eh      7.97 kcal/mol|
|  sn= 4 | S(rot)=       0.01243424 Eh      7.80 kcal/mol|
|  sn= 5 | S(rot)=       0.01222356 Eh      7.67 kcal/mol|
|  sn= 6 | S(rot)=       0.01205141 Eh      7.56 kcal/mol|
|  sn= 7 | S(rot)=       0.01190587 Eh      7.47 kcal/mol|
|  sn= 8 | S(rot)=       0.01177979 Eh      7.39 kcal/mol|
|  sn= 9 | S(rot)=       0.01166858 Eh      7.32 kcal/mol|
|  sn=10 | S(rot)=       0.01156910 Eh      7.26 kcal/mol|
|  sn=11 | S(rot)=       0.01147911 Eh      7.20 kcal/mol|
|  sn=12 | S(rot)=       0.01139696 Eh      7.15 kcal/mol|
 linear molecules ---------------------------------------
|  Dinfh | S(rot)=       0.00864899 Eh      5.43 kcal/mol|
|  Cinfv | S(rot)=       0.00930345 Eh      5.84 kcal/mol|
 --------------------------------------------------------

                             ****ORCA TERMINATED NORMALLY****
TOTAL RUN TIME: 0 days 0 hours 22 minutes 26 seconds 510 msec
