                         Program Version 6.0.0  -   RELEASE  -
|  1> !B3LYP opt aug-cc-pVTZ d3 TightSCF SlowConv RIJCOSX defgrid2
|  2>
|  3> %pal
|  4> nprocs 8
|  5> end
|  6>
|  7> %scf
|  8> MaxIter 1500
|  9> end
| 10>
| 11> %maxcore 3500
| 12>
| 13> !CPCM
| 14> %cpcm smd true
| 15> SMDsolvent "MeCN"
| 16> surfacetype gepol_ses
| 17> rsolv 2.19
| 18> end
| 19>
| 20> * xyz 1 2
| 21>   C          -0.33666803182593      0.87387725927931      0.00224950043583
| 22>   C          -1.60527267573123      0.30572515683772      0.00105884348909
| 23>   C          -1.75984581826177     -1.11462509282437      0.00028869816155
| 24>   C          -0.63781120335465     -1.92987020807192      0.00328888822389
| 25>   C           0.62639976702454     -1.37107696388191      0.00533286087199
| 26>   C           0.79278172637951      0.05900655011665      0.00335848385233
| 27>   C           2.09127905212894      0.65930122282696      0.00287608449921
| 28>   C           3.27431140228722     -0.01962698829955     -0.00195780741242
| 29>   C           4.59636859538704      0.63427453281458     -0.00279342426495
| 30>   H           5.16933812851862      0.30601966926642     -0.87836852191443
| 31>   H           5.17394343950864      0.29732934603458      0.86641958518382
| 32>   H           4.52750177901063      1.72115031269952      0.00261747050622
| 33>   H           3.27624695599458     -1.10419916855458     -0.00634443234427
| 34>   H           2.11916663667144      1.74423253091597      0.00477369293326
| 35>   H           1.49309261877595     -2.01590161293601      0.00892814411229
| 36>   H          -0.75777301235899     -3.00441873924256      0.00405307417330
| 37>   H          -2.74733568834794     -1.55341725046853     -0.00362166180579
| 38>   O          -2.64009780361867      1.14137702221222      0.00064499050515
| 39>   C          -3.98728109533832      0.61271331821223     -0.00262503946123
| 40>   H          -4.62910447971791      1.48831415583646      0.00024456666639
| 41>   H          -4.15824125182703      0.01609663878409      0.89317810877055
| 42>   H          -4.15590256787947      0.02366941076364     -0.90378951336332
| 43>   H          -0.23793387342517      1.95138289767907      0.00142330818156
| 44> *
| 45>
| 46>                          ****END OF INPUT****
 Total Charge           Charge          ....    1
 Multiplicity           Mult            ....    2
 Number of Electrons    NEL             ....   79
Dispersion correction           -0.039108169
FINAL SINGLE POINT ENERGY      -463.217178125333
Dispersion correction             ... done (  0.0 sec)
Dispersion correction           -0.039106637
FINAL SINGLE POINT ENERGY      -463.217264127325
Dispersion correction             ... done (  0.1 sec)
Dispersion correction           -0.039110024
FINAL SINGLE POINT ENERGY      -463.217278061977
Dispersion correction             ... done (  0.1 sec)
Dispersion correction           -0.039108632
FINAL SINGLE POINT ENERGY      -463.217283484808
Dispersion correction             ... done (  0.1 sec)
                    ***********************HURRAY********************

CARTESIAN COORDINATES (ANGSTROEM)
---------------------------------
  C     -0.335869    0.863263    0.002760
  C     -1.603692    0.301491    0.001285
  C     -1.755122   -1.117759    0.000726
  C     -0.634489   -1.933916    0.003940
  C      0.627835   -1.380214    0.006026
  C      0.795009    0.049162    0.003976
  C      2.088735    0.650925    0.003571
  C      3.275462   -0.018643   -0.002544
  C      4.591625    0.642026   -0.003229
  H      5.166117    0.319624   -0.878534
  H      5.172591    0.306999    0.862970
  H      4.519052    1.727452    0.004663
  H      3.285813   -1.101266   -0.008369
  H      2.113211    1.734347    0.006408
  H      1.490642   -2.026408    0.010025
  H     -0.756699   -3.006692    0.004877
  H     -2.739237   -1.558929   -0.003184
  O     -2.636639    1.136977    0.000502
  C     -3.984848    0.624597   -0.003401
  H     -4.622483    1.502053   -0.001870
  H     -4.169088    0.030656    0.890253
  H     -4.165170    0.036501   -0.901632
  H     -0.235593    1.939087    0.002020

 Multiplicity           Mult            ....    2
 Number of Electrons    NEL             ....   79
 Basis Dimension        Dim             ....  782

ORBITAL ENERGIES
----------------
                 SPIN UP ORBITALS
  NO   OCC          E(Eh)            E(eV)
   0   1.0000     -19.198920      -522.4292
   1   1.0000     -10.282344      -279.7968
   2   1.0000     -10.235965      -278.5348
   3   1.0000     -10.229409      -278.3564
   4   1.0000     -10.229141      -278.3491
   5   1.0000     -10.228489      -278.3313
   6   1.0000     -10.226267      -278.2709
   7   1.0000     -10.212723      -277.9023
   8   1.0000     -10.206008      -277.7196
   9   1.0000     -10.197820      -277.4968
  10   1.0000     -10.177508      -276.9441
  11   1.0000      -1.107534       -30.1375
  12   1.0000      -0.901833       -24.5401
  13   1.0000      -0.842541       -22.9267
  14   1.0000      -0.794943       -21.6315
  15   1.0000      -0.787173       -21.4201
  16   1.0000      -0.726289       -19.7633
  17   1.0000      -0.710911       -19.3449
  18   1.0000      -0.640947       -17.4411
  19   1.0000      -0.634217       -17.2579
  20   1.0000      -0.579924       -15.7805
  21   1.0000      -0.556902       -15.1541
  22   1.0000      -0.523389       -14.2421
  23   1.0000      -0.514483       -13.9998
  24   1.0000      -0.495231       -13.4759
  25   1.0000      -0.493748       -13.4356
  26   1.0000      -0.463483       -12.6120
  27   1.0000      -0.448691       -12.2095
  28   1.0000      -0.434032       -11.8106
  29   1.0000      -0.427546       -11.6341
  30   1.0000      -0.417787       -11.3686
  31   1.0000      -0.414971       -11.2919
  32   1.0000      -0.401940       -10.9374
  33   1.0000      -0.387108       -10.5337
  34   1.0000      -0.374111       -10.1801
  35   1.0000      -0.370499       -10.0818
  36   1.0000      -0.354455        -9.6452
  37   1.0000      -0.332620        -9.0511
  38   1.0000      -0.266790        -7.2597
  39   1.0000      -0.262150        -7.1335
  40   0.0000      -0.083761        -2.2792
  41   0.0000      -0.037411        -1.0180
  42   0.0000      -0.006186        -0.1683
  43   0.0000       0.001746         0.0475
  44   0.0000       0.006799         0.1850

                 SPIN DOWN ORBITALS
  NO   OCC          E(Eh)            E(eV)
   0   1.0000     -19.197033      -522.3778
   1   1.0000     -10.281814      -279.7824
   2   1.0000     -10.234801      -278.5031
   3   1.0000     -10.228557      -278.3332
   4   1.0000     -10.225616      -278.2532
   5   1.0000     -10.224234      -278.2156
   6   1.0000     -10.221366      -278.1375
   7   1.0000     -10.211864      -277.8789
   8   1.0000     -10.207732      -277.7665
   9   1.0000     -10.198437      -277.5136
  10   1.0000     -10.177580      -276.9460
  11   1.0000      -1.104012       -30.0417
  12   1.0000      -0.895631       -24.3714
  13   1.0000      -0.834967       -22.7206
  14   1.0000      -0.793153       -21.5828
  15   1.0000      -0.778920       -21.1955
  16   1.0000      -0.720539       -19.6069
  17   1.0000      -0.707856       -19.2618
  18   1.0000      -0.637828       -17.3562
  19   1.0000      -0.629930       -17.1413
  20   1.0000      -0.576762       -15.6945
  21   1.0000      -0.554544       -15.0899
  22   1.0000      -0.521102       -14.1799
  23   1.0000      -0.511667       -13.9232
  24   1.0000      -0.492098       -13.3907
  25   1.0000      -0.487217       -13.2578
  26   1.0000      -0.462707       -12.5909
  27   1.0000      -0.447720       -12.1831
  28   1.0000      -0.425908       -11.5896
  29   1.0000      -0.424339       -11.5468
  30   1.0000      -0.412694       -11.2300
  31   1.0000      -0.407309       -11.0834
  32   1.0000      -0.400346       -10.8940
  33   1.0000      -0.385702       -10.4955
  34   1.0000      -0.372295       -10.1307
  35   1.0000      -0.358234        -9.7481
  36   1.0000      -0.352552        -9.5934
  37   1.0000      -0.315488        -8.5849
  38   1.0000      -0.255184        -6.9439
  39   0.0000      -0.190365        -5.1801
  40   0.0000      -0.061322        -1.6686
  41   0.0000      -0.028127        -0.7654
  42   0.0000      -0.005933        -0.1614
  43   0.0000       0.001925         0.0524

MULLIKEN ATOMIC CHARGES AND SPIN POPULATIONS
--------------------------------------------
   0 C :   -0.850550   -0.066559
   1 C :    0.853690    0.044528
   2 C :    0.003643    0.344647
   3 C :   -0.922773   -0.120267
   4 C :   -0.396817    0.342640
   5 C :    1.809927    0.096179
   6 C :   -0.206172    0.081015
   7 C :   -0.258569    0.250863
   8 C :   -0.747768   -0.020028
   9 H :    0.218833    0.019418
  10 H :    0.220366    0.019255
  11 H :    0.256660   -0.003219
  12 H :    0.171655   -0.016692
  13 H :    0.049165    0.000098
  14 H :    0.273078   -0.023317
  15 H :    0.530511    0.004153
  16 H :    0.263226   -0.020588
  17 O :   -0.624280    0.064857
  18 C :   -0.615693   -0.001295
  19 H :    0.256392    0.000207
  20 H :    0.279778    0.001030
  21 H :    0.279164    0.001039
  22 H :    0.156533    0.002036
Sum of atomic charges         :    1.0000000

LOEWDIN ATOMIC CHARGES AND SPIN POPULATIONS
-------------------------------------------
   0 C :    0.252800   -0.001034
   1 C :   -0.342542    0.071303
   2 C :    0.291910    0.169533
   3 C :    0.270242    0.047750
   4 C :    0.291594    0.167523
   5 C :   -0.088350    0.088966
   6 C :    0.282096    0.087451
   7 C :    0.294374    0.143430
   8 C :    0.612117    0.047255
   9 H :   -0.146738    0.010650
  10 H :   -0.146916    0.010602
  11 H :   -0.161825    0.001183
  12 H :   -0.163962    0.023248
  13 H :   -0.158332    0.008729
  14 H :   -0.168919    0.034135
  15 H :   -0.152930   -0.008673
  16 H :   -0.166614    0.037185
  17 O :    0.635284    0.056438
  18 C :    0.412031    0.005562
  19 H :   -0.169000   -0.000264
  20 H :   -0.160337    0.001418
  21 H :   -0.160239    0.001414
  22 H :   -0.155744   -0.003804

  Mayer bond orders larger than 0.100000
B(  0-C ,  1-C ) :   0.6370 B(  0-C ,  2-C ) :  -0.1419 B(  0-C ,  3-C ) :   0.1191
B(  0-C ,  4-C ) :  -0.2990 B(  0-C ,  5-C ) :   0.2090 B(  0-C ,  6-C ) :  -0.2568
B(  0-C ,  7-C ) :   0.1565 B(  0-C , 17-O ) :   0.3746 B(  0-C , 18-C ) :   0.1184
B(  0-C , 22-H ) :   1.1992 B(  1-C ,  2-C ) :   1.0197 B(  1-C ,  4-C ) :  -0.2261
B(  1-C ,  6-C ) :   0.1345 B(  1-C ,  7-C ) :   0.1144 B(  1-C , 17-O ) :   0.2026
B(  1-C , 22-H ) :  -0.1298 B(  2-C ,  3-C ) :   1.0395 B(  2-C ,  5-C ) :  -0.1080
B(  2-C , 16-H ) :   1.0703 B(  2-C , 17-O ) :  -0.1737 B(  2-C , 18-C ) :  -0.1615
B(  3-C ,  4-C ) :   1.0279 B(  3-C ,  5-C ) :  -0.1304 B(  3-C ,  7-C ) :  -0.1036
B(  3-C , 14-H ) :  -0.1360 B(  3-C , 15-H ) :   0.3922 B(  4-C ,  5-C ) :   0.4673
B(  4-C ,  6-C ) :   0.1390 B(  4-C , 14-H ) :   0.9898 B(  5-C ,  7-C ) :  -0.1363
B(  5-C ,  8-C ) :   0.1072 B(  5-C , 12-H ) :  -0.2060 B(  5-C , 17-O ) :   0.1629
B(  5-C , 22-H ) :  -0.1290 B(  6-C ,  7-C ) :   0.7801 B(  6-C , 13-H ) :   1.2998
B(  7-C ,  8-C ) :   0.6463 B(  7-C , 12-H ) :   1.3098 B(  7-C , 13-H ) :  -0.1361
B(  8-C ,  9-H ) :   0.9936 B(  8-C , 10-H ) :   0.9931 B(  8-C , 11-H ) :   0.9565
B(  8-C , 12-H ) :  -0.1067 B( 16-H , 18-C ) :  -0.1215 B( 17-O , 18-C ) :   0.9321
B( 18-C , 19-H ) :   0.9549 B( 18-C , 20-H ) :   0.9270 B( 18-C , 21-H ) :   0.9277

Dispersion correction           -0.039108037
FINAL SINGLE POINT ENERGY      -463.217284771382

DIPOLE MOMENT
-------------

Method             : SCF
Type of density    : Electron Density
Multiplicity       :   2
Irrep              :   0
Energy             :  -463.1781767348286962 Eh
Relativity type    :
Basis              : AO
                                X                 Y                 Z
Electronic contribution:     -4.228145153      -0.712381088       0.018607028
Nuclear contribution   :      4.728265502      -0.244919274      -0.023239617
                        -----------------------------------------
Total Dipole Moment    :      0.500120348      -0.957300362      -0.004632590
                        -----------------------------------------
Magnitude (a.u.)       :      1.080076760
Magnitude (Debye)      :      2.745336948

Rotational constants in cm-1:             0.104944             0.017152             0.014824
Rotational constants in MHz :          3146.142264           514.215896           444.424901

                             ****ORCA TERMINATED NORMALLY****
TOTAL RUN TIME: 0 days 0 hours 39 minutes 41 seconds 190 msec
