                         Program Version 6.0.0  -   RELEASE  -
|  1> !PBE0 freq aug-cc-pVTZ d3 TightSCF SlowConv RIJCOSX defgrid2
|  2>
|  3> %pal
|  4> nprocs 12
|  5> end
|  6>
|  7> %scf
|  8> MaxIter 1500
|  9> end
| 10>
| 11> %maxcore 5000
| 12>
| 13> !CPCM
| 14> %cpcm smd true
| 15> SMDsolvent "MeCN"
| 16> surfacetype gepol_ses
| 17> rsolv 2.19
| 18> end
| 19>
| 20> * xyz 0 1
| 21> C          -1.15272881913218     -1.23786565560577     -0.00060922348458
| 22> C          -2.50299561309501     -0.94640010600734     -0.00036404891800
| 23> C          -2.92692860542215      0.37726219019491      0.00022135378060
| 24> C          -1.99916216470682      1.40949918290633      0.00007290847418
| 25> C          -0.64451574431019      1.12548161251954     -0.00038634306224
| 26> C          -0.21627648959906     -0.20006212835383     -0.00045603409614
| 27> C           1.19758969990836     -0.59442779639650      0.00017884501165
| 28> O           1.62763132426212     -1.70134644612926     -0.00102226121388
| 29> Cl          2.37638672955140      0.77070815548780      0.00341463629377
| 30> H           0.07583031607941      1.93111372954968     -0.00087870737011
| 31> H          -2.33122213449188      2.43976678740262      0.00111425561217
| 32> H          -3.98612577895119      0.60362211720879      0.00096275318743
| 33> H          -3.22805235659775     -1.75023375960518     -0.00061963839529
| 34> H          -0.81010756349503     -2.26418388317177     -0.00113379581956
| 35> *
| 36>
| 37>                          ****END OF INPUT****

CARTESIAN COORDINATES (ANGSTROEM)
---------------------------------
  C     -1.152729   -1.237866   -0.000609
  C     -2.502996   -0.946400   -0.000364
  C     -2.926929    0.377262    0.000221
  C     -1.999162    1.409499    0.000073
  C     -0.644516    1.125482   -0.000386
  C     -0.216276   -0.200062   -0.000456
  C      1.197590   -0.594428    0.000179
  O      1.627631   -1.701346   -0.001022
  Cl     2.376387    0.770708    0.003415
  H      0.075830    1.931114   -0.000879
  H     -2.331222    2.439767    0.001114
  H     -3.986126    0.603622    0.000963
  H     -3.228052   -1.750234   -0.000620
  H     -0.810108   -2.264184   -0.001134

 Total Charge           Charge          ....    0
 Multiplicity           Mult            ....    1
 Number of Electrons    NEL             ....   72
 Basis Dimension        Dim             ....  533

ORBITAL ENERGIES
----------------

  NO   OCC          E(Eh)            E(eV)
   0   2.0000    -101.742669     -2768.5588
   1   2.0000     -19.238869      -523.5162
   2   2.0000     -10.380440      -282.4661
   3   2.0000     -10.262970      -279.2696
   4   2.0000     -10.248518      -278.8763
   5   2.0000     -10.247933      -278.8604
   6   2.0000     -10.244872      -278.7771
   7   2.0000     -10.239388      -278.6279
   8   2.0000     -10.239294      -278.6254
   9   2.0000      -9.545337      -259.7418
  10   2.0000      -7.279678      -198.0901
  11   2.0000      -7.273023      -197.9090
  12   2.0000      -7.271967      -197.8803
  13   2.0000      -1.127349       -30.6767
  14   2.0000      -0.909248       -24.7419
  15   2.0000      -0.873871       -23.7792
  16   2.0000      -0.801658       -21.8142
  17   2.0000      -0.787371       -21.4254
  18   2.0000      -0.676397       -18.4057
  19   2.0000      -0.640378       -17.4256
  20   2.0000      -0.589587       -16.0435
  21   2.0000      -0.547458       -14.8971
  22   2.0000      -0.508056       -13.8249
  23   2.0000      -0.495677       -13.4881
  24   2.0000      -0.471797       -12.8382
  25   2.0000      -0.464747       -12.6464
  26   2.0000      -0.463207       -12.6045
  27   2.0000      -0.447729       -12.1833
  28   2.0000      -0.398870       -10.8538
  29   2.0000      -0.382107       -10.3977
  30   2.0000      -0.366639        -9.9767
  31   2.0000      -0.344668        -9.3789
  32   2.0000      -0.342947        -9.3321
  33   2.0000      -0.313897        -8.5416
  34   2.0000      -0.288924        -7.8620
  35   2.0000      -0.283960        -7.7269
  36   0.0000      -0.078114        -2.1256
  37   0.0000      -0.020834        -0.5669
  38   0.0000      -0.001531        -0.0416
  39   0.0000       0.013643         0.3712
  40   0.0000       0.018827         0.5123

MULLIKEN ATOMIC CHARGES
-----------------------
   0 C :   -0.878244
   1 C :   -0.508862
   2 C :   -0.421237
   3 C :   -0.743992
   4 C :   -0.830250
   5 C :    1.112371
   6 C :    0.592760
   7 O :   -0.662911
   8 Cl:   -0.291124
   9 H :    0.524170
  10 H :    0.605679
  11 H :    0.604523
  12 H :    0.583536
  13 H :    0.313581
Sum of atomic charges:    0.0000000

LOEWDIN ATOMIC CHARGES
----------------------
   0 C :    0.191461
   1 C :    0.216605
   2 C :    0.213979
   3 C :    0.213806
   4 C :    0.158715
   5 C :   -0.253182
   6 C :   -1.129516
   7 O :    0.418793
   8 Cl:    0.878952
   9 H :   -0.237101
  10 H :   -0.166131
  11 H :   -0.162435
  12 H :   -0.165910
  13 H :   -0.178037

  Mayer bond orders larger than 0.100000
B(  0-C ,  1-C ) :   1.3103 B(  0-C ,  4-C ) :  -0.1035 B(  0-C ,  5-C ) :   0.6756
B(  0-C , 13-H ) :   0.7434 B(  1-C ,  2-C ) :   1.3329 B(  1-C , 12-H ) :   0.4761
B(  2-C ,  3-C ) :   1.4066 B(  2-C ,  5-C ) :  -0.1276 B(  2-C , 11-H ) :   0.4486
B(  3-C ,  4-C ) :   1.2885 B(  3-C ,  5-C ) :  -0.1405 B(  3-C , 10-H ) :   0.4179
B(  4-C ,  5-C ) :   0.6088 B(  4-C ,  6-C ) :   0.1348 B(  4-C ,  9-H ) :   0.7134
B(  5-C ,  6-C ) :   0.6675 B(  5-C ,  7-O ) :   0.2365 B(  5-C ,  8-Cl) :   0.1007
B(  6-C ,  7-O ) :   1.1259 B(  6-C ,  8-Cl) :   0.7517 B(  7-O , 13-H ) :   0.1542
B(  8-Cl,  9-H ) :  -0.1395

Dispersion correction           -0.014223477
FINAL SINGLE POINT ENERGY      -804.804202020483

DIPOLE MOMENT
-------------

Method             : SCF
Type of density    : Electron Density
Multiplicity       :   1
Irrep              :   0
Energy             :  -804.7899785433135094 Eh
Relativity type    :
Basis              : AO
                                X                 Y                 Z
Electronic contribution:     10.803828582       0.796856097       0.007021614
Nuclear contribution   :    -12.831162912      -0.165414003      -0.007225158
                        -----------------------------------------
Total Dipole Moment    :     -2.027334329       0.631442093      -0.000203544
                        -----------------------------------------
Magnitude (a.u.)       :      2.123394368
Magnitude (Debye)      :      5.397239558

VIBRATIONAL FREQUENCIES
-----------------------

Scaling factor for frequencies =  1.000000000  (already applied!)

     0:       0.00 cm**-1
     1:       0.00 cm**-1
     2:       0.00 cm**-1
     3:       0.00 cm**-1
     4:       0.00 cm**-1
     5:       0.00 cm**-1
     6:      18.97 cm**-1
     7:     146.89 cm**-1
     8:     180.69 cm**-1
     9:     317.08 cm**-1
    10:     405.86 cm**-1
    11:     420.36 cm**-1
    12:     427.86 cm**-1
    13:     506.94 cm**-1
    14:     618.99 cm**-1
    15:     669.41 cm**-1
    16:     673.97 cm**-1
    17:     691.87 cm**-1
    18:     796.88 cm**-1
    19:     859.38 cm**-1
    20:     876.80 cm**-1
    21:     970.59 cm**-1
    22:    1011.01 cm**-1
    23:    1019.13 cm**-1
    24:    1033.60 cm**-1
    25:    1050.04 cm**-1
    26:    1106.51 cm**-1
    27:    1160.95 cm**-1
    28:    1177.66 cm**-1
    29:    1230.04 cm**-1
    30:    1329.39 cm**-1
    31:    1376.14 cm**-1
    32:    1477.48 cm**-1
    33:    1517.38 cm**-1
    34:    1638.62 cm**-1
    35:    1653.79 cm**-1
    36:    1827.69 cm**-1
    37:    3196.47 cm**-1
    38:    3206.69 cm**-1
    39:    3214.34 cm**-1
    40:    3222.64 cm**-1
    41:    3232.12 cm**-1

IR SPECTRUM
-----------

 Mode   freq       eps      Int      T**2         TX        TY        TZ
       cm**-1   L/(mol*cm) km/mol    a.u.
----------------------------------------------------------------------------
  6:     18.97   0.000079    0.40  0.001305  ( 0.001129  0.001078  0.036089)
  7:    146.89   0.000049    0.25  0.000105  ( 0.000179  0.000530 -0.010229)
  8:    180.69   0.000349    1.76  0.000602  (-0.021881 -0.011109 -0.000040)
  9:    317.08   0.005007   25.30  0.004927  (-0.055228 -0.043326 -0.000042)
 10:    405.86   0.000000    0.00  0.000000  (-0.000052 -0.000492  0.000236)
 11:    420.36   0.003767   19.04  0.002797  (-0.027142 -0.045389  0.000066)
 12:    427.86   0.000178    0.90  0.000130  (-0.000153  0.000072  0.011392)
 13:    506.94   0.002377   12.01  0.001463  ( 0.021685  0.031510  0.000112)
 14:    618.99   0.000939    4.75  0.000473  ( 0.019210  0.010203  0.000577)
 15:    669.41   0.010246   51.78  0.004777  ( 0.001332  0.000473  0.069099)
 16:    673.97   0.041116  207.78  0.019038  ( 0.123285  0.061955 -0.000260)
 17:    691.87   0.017731   89.60  0.007997  ( 0.000545  0.000466 -0.089425)
 18:    796.88   0.007062   35.69  0.002766  ( 0.000181 -0.000140 -0.052589)
 19:    859.38   0.000018    0.09  0.000007  ( 0.000174  0.000291  0.002548)
 20:    876.80   0.078676  397.60  0.028002  (-0.145988 -0.081789 -0.000293)
 21:    970.59   0.000477    2.41  0.000154  ( 0.000145  0.000235 -0.012387)
 22:   1011.01   0.000012    0.06  0.000004  (-0.000181  0.000732  0.001746)
 23:   1019.13   0.000347    1.75  0.000106  (-0.008220  0.006213  0.000061)
 24:   1033.60   0.000008    0.04  0.000002  (-0.000211 -0.000206 -0.001491)
 25:   1050.04   0.001472    7.44  0.000438  (-0.018597  0.009576  0.000088)
 26:   1106.51   0.002498   12.63  0.000705  ( 0.004778 -0.026110  0.000076)
 27:   1160.95   0.000174    0.88  0.000047  (-0.000976  0.006777  0.000027)
 28:   1177.66   0.015238   77.01  0.004038  (-0.063481 -0.002833 -0.000066)
 29:   1230.04   0.067380  340.51  0.017095  (-0.128383 -0.024745 -0.000102)
 30:   1329.39   0.000836    4.23  0.000196  ( 0.009647  0.010163 -0.000073)
 31:   1376.14   0.003555   17.97  0.000806  (-0.001581  0.028349 -0.000027)
 32:   1477.48   0.008485   42.88  0.001792  (-0.025196 -0.034020  0.000004)
 33:   1517.38   0.000222    1.12  0.000046  (-0.003012 -0.006040 -0.000020)
 34:   1638.62   0.003808   19.24  0.000725  (-0.025266  0.009314  0.000004)
 35:   1653.79   0.016367   82.71  0.003088  ( 0.052194 -0.019083 -0.000037)
 36:   1827.69   0.133244  673.36  0.022750  ( 0.061619 -0.137671 -0.000177)
 37:   3196.47   0.000184    0.93  0.000018  ( 0.004024 -0.001340 -0.000049)
 38:   3206.69   0.001357    6.86  0.000132  ( 0.003176  0.011043 -0.000075)
 39:   3214.34   0.001610    8.14  0.000156  (-0.009761  0.007813 -0.000123)
 40:   3222.64   0.001834    9.27  0.000178  ( 0.012201  0.005359 -0.000018)
 41:   3232.12   0.000349    1.76  0.000034  (-0.004686  0.003427  0.000082)

--------------------------
THERMOCHEMISTRY AT 298.15K
--------------------------

Temperature         ...   298.15 K
Pressure            ...     1.00 atm
Total Mass          ...   140.57 AMU
Quasi RRHO          ...     True
Cut-Off Frequency   ...     1.00 cm^-1

Throughout the following assumptions are being made:
  (1) The electronic state is orbitally nondegenerate
  (2) There are no thermally accessible electronically excited states
  (3) Hindered rotations indicated by low frequency modes are not
      treated as such but are treated as vibrations and this may
      cause some error
  (4) All equations used are the standard statistical mechanics
      equations for an ideal gas
  (5) All vibrations are strictly harmonic

freq.      18.97  E(vib)   ...       0.57
freq.     146.89  E(vib)   ...       0.41
freq.     180.69  E(vib)   ...       0.37
freq.     317.08  E(vib)   ...       0.25
freq.     405.86  E(vib)   ...       0.19
freq.     420.36  E(vib)   ...       0.18
freq.     427.86  E(vib)   ...       0.18
freq.     506.94  E(vib)   ...       0.14
freq.     618.99  E(vib)   ...       0.09
freq.     669.41  E(vib)   ...       0.08
freq.     673.97  E(vib)   ...       0.08
freq.     691.87  E(vib)   ...       0.07
freq.     796.88  E(vib)   ...       0.05
freq.     859.38  E(vib)   ...       0.04
freq.     876.80  E(vib)   ...       0.04
freq.     970.59  E(vib)   ...       0.03
freq.    1011.01  E(vib)   ...       0.02
freq.    1019.13  E(vib)   ...       0.02
freq.    1033.60  E(vib)   ...       0.02
freq.    1050.04  E(vib)   ...       0.02
freq.    1106.51  E(vib)   ...       0.02
freq.    1160.95  E(vib)   ...       0.01
freq.    1177.66  E(vib)   ...       0.01
freq.    1230.04  E(vib)   ...       0.01
freq.    1329.39  E(vib)   ...       0.01
freq.    1376.14  E(vib)   ...       0.01
freq.    1477.48  E(vib)   ...       0.00
freq.    1517.38  E(vib)   ...       0.00
freq.    1638.62  E(vib)   ...       0.00
freq.    1653.79  E(vib)   ...       0.00
freq.    1827.69  E(vib)   ...       0.00
freq.    3196.47  E(vib)   ...       0.00
freq.    3206.69  E(vib)   ...       0.00
freq.    3214.34  E(vib)   ...       0.00
freq.    3222.64  E(vib)   ...       0.00
freq.    3232.12  E(vib)   ...       0.00

------------
INNER ENERGY
------------

The inner energy is: U= E(el) + E(ZPE) + E(vib) + E(rot) + E(trans)
    E(el)   - is the total energy from the electronic structure calculation
              = E(kin-el) + E(nuc-el) + E(el-el) + E(nuc-nuc)
    E(ZPE)  - the the zero temperature vibrational energy from the frequency calculation
    E(vib)  - the the finite temperature correction to E(ZPE) due to population
              of excited vibrational states
    E(rot)  - is the rotational thermal energy
    E(trans)- is the translational thermal energy

Summary of contributions to the inner energy U:
Electronic energy                ...   -804.80420202 Eh
Zero point energy                ...      0.10084135 Eh      63.28 kcal/mol
Thermal vibrational correction   ...      0.00463874 Eh       2.91 kcal/mol
Thermal rotational correction    ...      0.00141627 Eh       0.89 kcal/mol
Thermal translational correction ...      0.00141627 Eh       0.89 kcal/mol
-----------------------------------------------------------------------
Total thermal energy                   -804.69588939 Eh

Summary of corrections to the electronic energy:
(perhaps to be used in another calculation)
Total thermal correction                  0.00747129 Eh       4.69 kcal/mol
Non-thermal (ZPE) correction              0.10084135 Eh      63.28 kcal/mol
-----------------------------------------------------------------------
Total correction                          0.10831263 Eh      67.97 kcal/mol

--------
ENTHALPY
--------

The enthalpy is H = U + kB*T
                kB is Boltzmann's constant
Total thermal energy              ...   -804.69588939 Eh
Thermal Enthalpy correction       ...      0.00094421 Eh       0.59 kcal/mol
-----------------------------------------------------------------------
Total Enthalpy                    ...   -804.69494518 Eh

Note: Only C1 symmetry has been detected, increase convergence thresholds
      if your molecule has a higher symmetry. Symmetry factor of 1.0 is
      used for the rotational entropy correction.

Note: Rotational entropy computed according to Herzberg
Infrared and Raman Spectra, Chapter V,1, Van Nostrand Reinhold, 1945
Point Group:  C1, Symmetry Number:   1
Rotational constants in cm-1:     0.105088     0.031209     0.024063

Vibrational entropy computed according to the QRRHO of S. Grimme
Chem.Eur.J. 2012 18 9955 using a reference frequency of 100.0 cm-1

-------
ENTROPY
-------

The entropy contributions are T*S = T*(S(el)+S(vib)+S(rot)+S(trans))
     S(el)   - electronic entropy
     S(vib)  - vibrational entropy
     S(rot)  - rotational entropy
     S(trans)- translational entropy
The entropies will be listed as multiplied by the temperature to get
units of energy

Electronic entropy                ...      0.00000000 Eh      0.00 kcal/mol
Vibrational entropy               ...      0.00799574 Eh      5.02 kcal/mol
Rotational entropy                ...      0.01397069 Eh      8.77 kcal/mol
Translational entropy             ...      0.01935352 Eh     12.14 kcal/mol
-----------------------------------------------------------------------
Final entropy term                ...      0.04131996 Eh     25.93 kcal/mol

In case the symmetry of your molecule has not been determined correctly
or in case you have a reason to use a different symmetry number we print
out the resulting rotational entropy values for sn=1,12:

 non-linear molecules -----------------------------------
|  sn= 1 | S(rot)=       0.01397069 Eh      8.77 kcal/mol|
|  sn= 2 | S(rot)=       0.01331623 Eh      8.36 kcal/mol|
|  sn= 3 | S(rot)=       0.01293340 Eh      8.12 kcal/mol|
|  sn= 4 | S(rot)=       0.01266178 Eh      7.95 kcal/mol|
|  sn= 5 | S(rot)=       0.01245109 Eh      7.81 kcal/mol|
|  sn= 6 | S(rot)=       0.01227894 Eh      7.71 kcal/mol|
|  sn= 7 | S(rot)=       0.01213340 Eh      7.61 kcal/mol|
|  sn= 8 | S(rot)=       0.01200732 Eh      7.53 kcal/mol|
|  sn= 9 | S(rot)=       0.01189611 Eh      7.46 kcal/mol|
|  sn=10 | S(rot)=       0.01179663 Eh      7.40 kcal/mol|
|  sn=11 | S(rot)=       0.01170664 Eh      7.35 kcal/mol|
|  sn=12 | S(rot)=       0.01162449 Eh      7.29 kcal/mol|
 linear molecules ---------------------------------------
|  Dinfh | S(rot)=       0.00884485 Eh      5.55 kcal/mol|
|  Cinfv | S(rot)=       0.00949930 Eh      5.96 kcal/mol|
 --------------------------------------------------------

-------------------
GIBBS FREE ENERGY
-------------------

The Gibbs free energy is G = H - T*S

                             ****ORCA TERMINATED NORMALLY****
TOTAL RUN TIME: 0 days 0 hours 22 minutes 28 seconds 365 msec
