                         Program Version 6.0.0  -   RELEASE  -
|  1> !PBE0 freq def2-SV(p) d3 TightSCF SlowConv RIJCOSX defgrid2
|  2>
|  3> %pal
|  4> nprocs 12
|  5> end
|  6>
|  7> %scf
|  8> MaxIter 1500
|  9> end
| 10>
| 11> %maxcore 5000
| 12>
| 13> !CPCM
| 14> %cpcm smd true
| 15> SMDsolvent "MeCN"
| 16> surfacetype gepol_ses
| 17> rsolv 2.19
| 18> end
| 19>
| 20> * xyz 0 1
| 21> C           1.35660025059995     -0.00429043906810     -0.20822125844131
| 22> C           0.75630199151195      1.26236690367265     -0.15690478525367
| 23> C          -0.62405070775742      1.38498847344957     -0.06894244115111
| 24> C          -1.44537653715540      0.24860061472456     -0.03087542744127
| 25> C          -0.85031465344564     -1.01769650253269     -0.08354066475025
| 26> C           0.53762295598256     -1.13596509245376     -0.17084845201279
| 27> H           0.97880746361597     -2.13704462019350     -0.20969050550572
| 28> H          -1.45423378814272     -1.92678180005872     -0.05679971818784
| 29> O          -2.77157814018759      0.46621939216636      0.05561462271786
| 30> C          -3.63578530885167     -0.64096797035771      0.09904660400582
| 31> H          -4.65698015534507     -0.23662892642667      0.16770764191386
| 32> H          -3.55637196676559     -1.25825271633206     -0.81545669972425
| 33> H          -3.44268572059263     -1.27612623969987      0.98395627536633
| 34> H          -1.09066209887068      2.37311265598985     -0.02787483854366
| 35> H           1.37206244832312      2.16658240463226     -0.18626775546921
| 36> S           3.10977842659807     -0.23509273855890     -0.32013780221106
| 37> H           3.44196324048281      1.07954240104675     -0.30535509531173
| 38> *
| 39>
| 40>                          ****END OF INPUT****

CARTESIAN COORDINATES (ANGSTROEM)
---------------------------------
  C      1.356600   -0.004290   -0.208221
  C      0.756302    1.262367   -0.156905
  C     -0.624051    1.384988   -0.068942
  C     -1.445377    0.248601   -0.030875
  C     -0.850315   -1.017697   -0.083541
  C      0.537623   -1.135965   -0.170848
  H      0.978807   -2.137045   -0.209691
  H     -1.454234   -1.926782   -0.056800
  O     -2.771578    0.466219    0.055615
  C     -3.635785   -0.640968    0.099047
  H     -4.656980   -0.236629    0.167708
  H     -3.556372   -1.258253   -0.815457
  H     -3.442686   -1.276126    0.983956
  H     -1.090662    2.373113   -0.027875
  H      1.372062    2.166582   -0.186268
  S      3.109778   -0.235093   -0.320138
  H      3.441963    1.079542   -0.305355

 Total Charge           Charge          ....    0
 Multiplicity           Mult            ....    1
 Number of Electrons    NEL             ....   74
 Basis Dimension        Dim             ....  146

ORBITAL ENERGIES
----------------

  NO   OCC          E(Eh)            E(eV)
   0   2.0000     -89.007897     -2422.0280
   1   2.0000     -19.242364      -523.6113
   2   2.0000     -10.297363      -280.2055
   3   2.0000     -10.269987      -279.4606
   4   2.0000     -10.269808      -279.4557
   5   2.0000     -10.243406      -278.7373
   6   2.0000     -10.242809      -278.7210
   7   2.0000     -10.236927      -278.5609
   8   2.0000     -10.235621      -278.5254
   9   2.0000      -8.010321      -217.9719
  10   2.0000      -5.952597      -161.9784
  11   2.0000      -5.948871      -161.8770
  12   2.0000      -5.942832      -161.7127
  13   2.0000      -1.092590       -29.7309
  14   2.0000      -0.886173       -24.1140
  15   2.0000      -0.808361       -21.9966
  16   2.0000      -0.771353       -20.9896
  17   2.0000      -0.742285       -20.1986
  18   2.0000      -0.689927       -18.7739
  19   2.0000      -0.631727       -17.1902
  20   2.0000      -0.598197       -16.2778
  21   2.0000      -0.552153       -15.0248
  22   2.0000      -0.512714       -13.9517
  23   2.0000      -0.483579       -13.1588
  24   2.0000      -0.483425       -13.1547
  25   2.0000      -0.459341       -12.4993
  26   2.0000      -0.440077       -11.9751
  27   2.0000      -0.433063       -11.7842
  28   2.0000      -0.404218       -10.9993
  29   2.0000      -0.403688       -10.9849
  30   2.0000      -0.373936       -10.1753
  31   2.0000      -0.353669        -9.6238
  32   2.0000      -0.352748        -9.5988
  33   2.0000      -0.338033        -9.1984
  34   2.0000      -0.286494        -7.7959
  35   2.0000      -0.275317        -7.4918
  36   2.0000      -0.214458        -5.8357
  37   0.0000      -0.011066        -0.3011
  38   0.0000       0.006571         0.1788
  39   0.0000       0.032067         0.8726
  40   0.0000       0.082033         2.2322
  41   0.0000       0.099679         2.7124

MULLIKEN ATOMIC CHARGES
-----------------------
   0 C :   -0.031339
   1 C :   -0.159211
   2 C :   -0.179019
   3 C :    0.272787
   4 C :   -0.253280
   5 C :   -0.141567
   6 H :    0.122883
   7 H :    0.129578
   8 O :   -0.338109
   9 C :   -0.180336
  10 H :    0.161596
  11 H :    0.148055
  12 H :    0.147969
  13 H :    0.115241
  14 H :    0.125248
  15 S :   -0.150502
  16 H :    0.210006
Sum of atomic charges:   -0.0000000

LOEWDIN ATOMIC CHARGES
----------------------
   0 C :   -0.202571
   1 C :   -0.150412
   2 C :   -0.155932
   3 C :    0.022680
   4 C :   -0.180788
   5 C :   -0.147849
   6 H :    0.143076
   7 H :    0.151137
   8 O :   -0.119566
   9 C :   -0.206018
  10 H :    0.131720
  11 H :    0.120652
  12 H :    0.120663
  13 H :    0.147035
  14 H :    0.145038
  15 S :    0.068640
  16 H :    0.112495

  Mayer bond orders larger than 0.100000
B(  0-C ,  1-C ) :   1.3576 B(  0-C ,  5-C ) :   1.3755 B(  0-C , 15-S ) :   1.0141
B(  1-C ,  2-C ) :   1.4268 B(  1-C , 14-H ) :   0.9566 B(  2-C ,  3-C ) :   1.3374
B(  2-C , 13-H ) :   0.9634 B(  3-C ,  4-C ) :   1.3026 B(  3-C ,  8-O ) :   1.1170
B(  4-C ,  5-C ) :   1.4016 B(  4-C ,  7-H ) :   0.9597 B(  5-C ,  6-H ) :   0.9594
B(  8-O ,  9-C ) :   0.9409 B(  9-C , 10-H ) :   0.9533 B(  9-C , 11-H ) :   0.9401
B(  9-C , 12-H ) :   0.9402 B( 15-S , 16-H ) :   0.8973

Dispersion correction           -0.015972940
FINAL SINGLE POINT ENERGY      -744.051936750251

DIPOLE MOMENT
-------------

Method             : SCF
Type of density    : Electron Density
Multiplicity       :   1
Irrep              :   0
Energy             :  -744.0359638099611175 Eh
Relativity type    :
Basis              : AO
                                X                 Y                 Z
Electronic contribution:      7.313025628       1.027756560      -0.459930734
Nuclear contribution   :     -8.018157611      -1.119377703       0.511297331
                        -----------------------------------------
Total Dipole Moment    :     -0.705131983      -0.091621143       0.051366596
                        -----------------------------------------
Magnitude (a.u.)       :      0.712912389
Magnitude (Debye)      :      1.812079284

VIBRATIONAL FREQUENCIES
-----------------------

Scaling factor for frequencies =  1.000000000  (already applied!)

     0:       0.00 cm**-1
     1:       0.00 cm**-1
     2:       0.00 cm**-1
     3:       0.00 cm**-1
     4:       0.00 cm**-1
     5:       0.00 cm**-1
     6:      62.07 cm**-1
     7:      76.90 cm**-1
     8:     139.49 cm**-1
     9:     198.56 cm**-1
    10:     240.82 cm**-1
    11:     304.21 cm**-1
    12:     346.06 cm**-1
    13:     364.73 cm**-1
    14:     425.59 cm**-1
    15:     507.04 cm**-1
    16:     527.00 cm**-1
    17:     638.33 cm**-1
    18:     652.55 cm**-1
    19:     734.34 cm**-1
    20:     826.05 cm**-1
    21:     830.23 cm**-1
    22:     846.27 cm**-1
    23:     932.29 cm**-1
    24:     962.78 cm**-1
    25:     978.51 cm**-1
    26:    1019.19 cm**-1
    27:    1087.55 cm**-1
    28:    1123.04 cm**-1
    29:    1144.82 cm**-1
    30:    1178.64 cm**-1
    31:    1188.03 cm**-1
    32:    1213.99 cm**-1
    33:    1318.89 cm**-1
    34:    1326.57 cm**-1
    35:    1382.27 cm**-1
    36:    1460.33 cm**-1
    37:    1464.35 cm**-1
    38:    1471.95 cm**-1
    39:    1477.34 cm**-1
    40:    1551.22 cm**-1
    41:    1652.03 cm**-1
    42:    1694.98 cm**-1
    43:    2666.69 cm**-1
    44:    3021.60 cm**-1
    45:    3105.99 cm**-1
    46:    3168.31 cm**-1
    47:    3198.24 cm**-1
    48:    3200.95 cm**-1
    49:    3219.81 cm**-1
    50:    3234.93 cm**-1

IR SPECTRUM
-----------

 Mode   freq       eps      Int      T**2         TX        TY        TZ
       cm**-1   L/(mol*cm) km/mol    a.u.
----------------------------------------------------------------------------
  6:     62.07   0.005990   30.27  0.030115  ( 0.005404 -0.004252  0.173399)
  7:     76.90   0.002574   13.01  0.010444  (-0.005058  0.002074 -0.102050)
  8:    139.49   0.000053    0.27  0.000118  (-0.001239 -0.000236 -0.010770)
  9:    198.56   0.000931    4.71  0.001463  ( 0.035183 -0.014888 -0.001992)
 10:    240.82   0.000002    0.01  0.000003  ( 0.000724 -0.000472  0.001466)
 11:    304.21   0.000038    0.19  0.000039  ( 0.005094 -0.003548 -0.000249)
 12:    346.06   0.001448    7.32  0.001306  (-0.002140  0.000370 -0.036070)
 13:    364.73   0.000163    0.82  0.000139  (-0.004097 -0.011072 -0.000011)
 14:    425.59   0.000108    0.55  0.000080  ( 0.000576 -0.000518  0.008885)
 15:    507.04   0.000316    1.60  0.000195  ( 0.013915  0.001003 -0.000298)
 16:    527.00   0.005393   27.25  0.003193  ( 0.002708 -0.000523  0.056443)
 17:    638.33   0.002884   14.57  0.001410  ( 0.035370 -0.012378 -0.002338)
 18:    652.55   0.006839   34.56  0.003271  ( 0.056227 -0.009860 -0.003474)
 19:    734.34   0.000033    0.17  0.000014  ( 0.000420 -0.000136  0.003699)
 20:    826.05   0.000784    3.96  0.000296  (-0.001603  0.000282 -0.017128)
 21:    830.23   0.000651    3.29  0.000245  ( 0.010046 -0.011804 -0.002101)
 22:    846.27   0.018983   95.93  0.007000  (-0.004904  0.000859 -0.083518)
 23:    932.29   0.002213   11.18  0.000741  ( 0.009663  0.025436 -0.000562)
 24:    962.78   0.000187    0.94  0.000061  (-0.000814  0.000148 -0.007735)
 25:    978.51   0.000010    0.05  0.000003  ( 0.000611  0.000925  0.001409)
 26:   1019.19   0.001164    5.88  0.000356  (-0.018819 -0.000714  0.001297)
 27:   1087.55   0.023637  119.45  0.006783  ( 0.063364  0.052492 -0.003476)
 28:   1123.04   0.006690   33.81  0.001859  (-0.016667  0.039741  0.001394)
 29:   1144.82   0.003773   19.07  0.001028  ( 0.031111  0.007568 -0.001796)
 30:   1178.64   0.000228    1.15  0.000060  ( 0.001378 -0.000054  0.007644)
 31:   1188.03   0.003665   18.52  0.000963  ( 0.028143  0.012948 -0.001726)
 32:   1213.99   0.001210    6.11  0.000311  (-0.007929 -0.015746  0.000386)
 33:   1318.89   0.001163    5.88  0.000275  (-0.005268 -0.015726  0.000175)
 34:   1326.57   0.077331  390.80  0.018191  (-0.134006 -0.012824  0.008323)
 35:   1382.27   0.013262   67.02  0.002994  (-0.041818 -0.035226  0.002105)
 36:   1460.33   0.002884   14.57  0.000616  (-0.000965 -0.000434  0.024802)
 37:   1464.35   0.004585   23.17  0.000977  (-0.031137 -0.002746  0.000303)
 38:   1471.95   0.010632   53.73  0.002254  ( 0.046917 -0.006428 -0.003390)
 39:   1477.34   0.003505   17.72  0.000740  (-0.026854  0.004297  0.000941)
 40:   1551.22   0.074135  374.65  0.014914  (-0.121816 -0.004073  0.007630)
 41:   1652.03   0.003909   19.75  0.000738  (-0.021314  0.016777  0.001616)
 42:   1694.98   0.011879   60.03  0.002187  ( 0.046281  0.006050 -0.002930)
 43:   2666.69   0.000834    4.21  0.000098  ( 0.004700  0.008687 -0.000038)
 44:   3021.60   0.015765   79.67  0.001628  (-0.031708 -0.024903  0.001638)
 45:   3105.99   0.008228   41.58  0.000827  (-0.002043  0.000184 -0.028680)
 46:   3168.31   0.003924   19.83  0.000386  (-0.017841  0.008162  0.001245)
 47:   3198.24   0.001184    5.98  0.000116  ( 0.008528 -0.006523 -0.000519)
 48:   3200.95   0.001195    6.04  0.000116  (-0.009858 -0.004367  0.000463)
 49:   3219.81   0.000733    3.70  0.000071  (-0.003590  0.007620  0.000296)
 50:   3234.93   0.000698    3.53  0.000067  ( 0.007575  0.003115 -0.000483)

--------------------------
THERMOCHEMISTRY AT 298.15K
--------------------------

Temperature         ...   298.15 K
Pressure            ...     1.00 atm
Total Mass          ...   140.20 AMU
Quasi RRHO          ...     True
Cut-Off Frequency   ...     1.00 cm^-1

Throughout the following assumptions are being made:
  (1) The electronic state is orbitally nondegenerate
  (2) There are no thermally accessible electronically excited states
  (3) Hindered rotations indicated by low frequency modes are not
      treated as such but are treated as vibrations and this may
      cause some error
  (4) All equations used are the standard statistical mechanics
      equations for an ideal gas
  (5) All vibrations are strictly harmonic

freq.      62.07  E(vib)   ...       0.51
freq.      76.90  E(vib)   ...       0.49
freq.     139.49  E(vib)   ...       0.42
freq.     198.56  E(vib)   ...       0.35
freq.     240.82  E(vib)   ...       0.31
freq.     304.21  E(vib)   ...       0.26
freq.     346.06  E(vib)   ...       0.23
freq.     364.73  E(vib)   ...       0.22
freq.     425.59  E(vib)   ...       0.18
freq.     507.04  E(vib)   ...       0.14
freq.     527.00  E(vib)   ...       0.13
freq.     638.33  E(vib)   ...       0.09
freq.     652.55  E(vib)   ...       0.08
freq.     734.34  E(vib)   ...       0.06
freq.     826.05  E(vib)   ...       0.04
freq.     830.23  E(vib)   ...       0.04
freq.     846.27  E(vib)   ...       0.04
freq.     932.29  E(vib)   ...       0.03
freq.     962.78  E(vib)   ...       0.03
freq.     978.51  E(vib)   ...       0.03
freq.    1019.19  E(vib)   ...       0.02
freq.    1087.55  E(vib)   ...       0.02
freq.    1123.04  E(vib)   ...       0.01
freq.    1144.82  E(vib)   ...       0.01
freq.    1178.64  E(vib)   ...       0.01
freq.    1188.03  E(vib)   ...       0.01
freq.    1213.99  E(vib)   ...       0.01
freq.    1318.89  E(vib)   ...       0.01
freq.    1326.57  E(vib)   ...       0.01
freq.    1382.27  E(vib)   ...       0.01
freq.    1460.33  E(vib)   ...       0.00
freq.    1464.35  E(vib)   ...       0.00
freq.    1471.95  E(vib)   ...       0.00
freq.    1477.34  E(vib)   ...       0.00
freq.    1551.22  E(vib)   ...       0.00
freq.    1652.03  E(vib)   ...       0.00
freq.    1694.98  E(vib)   ...       0.00
freq.    2666.69  E(vib)   ...       0.00
freq.    3021.60  E(vib)   ...       0.00
freq.    3105.99  E(vib)   ...       0.00
freq.    3168.31  E(vib)   ...       0.00
freq.    3198.24  E(vib)   ...       0.00
freq.    3200.95  E(vib)   ...       0.00
freq.    3219.81  E(vib)   ...       0.00
freq.    3234.93  E(vib)   ...       0.00

------------
INNER ENERGY
------------

The inner energy is: U= E(el) + E(ZPE) + E(vib) + E(rot) + E(trans)
    E(el)   - is the total energy from the electronic structure calculation
              = E(kin-el) + E(nuc-el) + E(el-el) + E(nuc-nuc)
    E(ZPE)  - the the zero temperature vibrational energy from the frequency calculation
    E(vib)  - the the finite temperature correction to E(ZPE) due to population
              of excited vibrational states
    E(rot)  - is the rotational thermal energy
    E(trans)- is the translational thermal energy

Summary of contributions to the inner energy U:
Electronic energy                ...   -744.05193675 Eh
Zero point energy                ...      0.13251082 Eh      83.15 kcal/mol
Thermal vibrational correction   ...      0.00607516 Eh       3.81 kcal/mol
Thermal rotational correction    ...      0.00141627 Eh       0.89 kcal/mol
Thermal translational correction ...      0.00141627 Eh       0.89 kcal/mol
-----------------------------------------------------------------------
Total thermal energy                   -743.91051824 Eh

Summary of corrections to the electronic energy:
(perhaps to be used in another calculation)
Total thermal correction                  0.00890770 Eh       5.59 kcal/mol
Non-thermal (ZPE) correction              0.13251082 Eh      83.15 kcal/mol
-----------------------------------------------------------------------
Total correction                          0.14141851 Eh      88.74 kcal/mol

--------
ENTHALPY
--------

The enthalpy is H = U + kB*T
                kB is Boltzmann's constant
Total thermal energy              ...   -743.91051824 Eh
Thermal Enthalpy correction       ...      0.00094421 Eh       0.59 kcal/mol
-----------------------------------------------------------------------
Total Enthalpy                    ...   -743.90957403 Eh

Note: Only C1 symmetry has been detected, increase convergence thresholds
      if your molecule has a higher symmetry. Symmetry factor of 1.0 is
      used for the rotational entropy correction.

Note: Rotational entropy computed according to Herzberg
Infrared and Raman Spectra, Chapter V,1, Van Nostrand Reinhold, 1945
Point Group:  C1, Symmetry Number:   1
Rotational constants in cm-1:     0.159159     0.023036     0.020203

Vibrational entropy computed according to the QRRHO of S. Grimme
Chem.Eur.J. 2012 18 9955 using a reference frequency of 100.0 cm-1

-------
ENTROPY
-------

The entropy contributions are T*S = T*(S(el)+S(vib)+S(rot)+S(trans))
     S(el)   - electronic entropy
     S(vib)  - vibrational entropy
     S(rot)  - rotational entropy
     S(trans)- translational entropy
The entropies will be listed as multiplied by the temperature to get
units of energy

Electronic entropy                ...      0.00000000 Eh      0.00 kcal/mol
Vibrational entropy               ...      0.01032923 Eh      6.48 kcal/mol
Rotational entropy                ...      0.01400062 Eh      8.79 kcal/mol
Translational entropy             ...      0.01934980 Eh     12.14 kcal/mol
-----------------------------------------------------------------------
Final entropy term                ...      0.04367966 Eh     27.41 kcal/mol

In case the symmetry of your molecule has not been determined correctly
or in case you have a reason to use a different symmetry number we print
out the resulting rotational entropy values for sn=1,12:

 non-linear molecules -----------------------------------
|  sn= 1 | S(rot)=       0.01400062 Eh      8.79 kcal/mol|
|  sn= 2 | S(rot)=       0.01334617 Eh      8.37 kcal/mol|
|  sn= 3 | S(rot)=       0.01296333 Eh      8.13 kcal/mol|
|  sn= 4 | S(rot)=       0.01269171 Eh      7.96 kcal/mol|
|  sn= 5 | S(rot)=       0.01248102 Eh      7.83 kcal/mol|
|  sn= 6 | S(rot)=       0.01230888 Eh      7.72 kcal/mol|
|  sn= 7 | S(rot)=       0.01216333 Eh      7.63 kcal/mol|
|  sn= 8 | S(rot)=       0.01203725 Eh      7.55 kcal/mol|
|  sn= 9 | S(rot)=       0.01192605 Eh      7.48 kcal/mol|
|  sn=10 | S(rot)=       0.01182657 Eh      7.42 kcal/mol|
|  sn=11 | S(rot)=       0.01173658 Eh      7.36 kcal/mol|
|  sn=12 | S(rot)=       0.01165442 Eh      7.31 kcal/mol|
 linear molecules ---------------------------------------
|  Dinfh | S(rot)=       0.00900995 Eh      5.65 kcal/mol|
|  Cinfv | S(rot)=       0.00966441 Eh      6.06 kcal/mol|

                             ****ORCA TERMINATED NORMALLY****
TOTAL RUN TIME: 0 days 0 hours 5 minutes 8 seconds 775 msec
