                         Program Version 6.0.0  -   RELEASE  -
|  1> !TPSSh aug-cc-pVTZ d3 TightSCF SlowConv RIJCOSX defgrid2
|  2>
|  3> %pal
|  4> nprocs 4
|  5> end
|  6>
|  7> %scf
|  8> MaxIter 1500
|  9> end
| 10>
| 11> %maxcore 3000
| 12>
| 13> !CPCM
| 14> %cpcm smd true
| 15> SMDsolvent "MeCN"
| 16> surfacetype gepol_ses
| 17> rsolv 2.19
| 18> end
| 19>
| 20> * xyz -1 2
| 21> C          -1.37883091856119     -1.21517375011549     -0.00008867448001
| 22> C           0.00729805129085     -1.22295651486138     -0.00028940061097
| 23> C           0.72993387220770     -0.00000590382604     -0.00030312643494
| 24> C           0.00732184530524      1.22296016475999     -0.00010449796565
| 25> C          -1.37880870032056      1.21520147102756      0.00009142728977
| 26> C          -2.06946528458053      0.00001961491822      0.00010470343428
| 27> F          -3.42567015063122      0.00002957691106      0.00031309610633
| 28> H          -1.94941667505959      2.14990360317295      0.00023681861010
| 29> H           0.58443906920603      2.14816924945391     -0.00012002348132
| 30> N           2.11808314940451     -0.00002527989961     -0.00036226373716
| 31> O           2.72387695234489     -1.10771207139848      0.00040597823570
| 32> O           2.72391644246942      1.10763885175707      0.00056138155342
| 33> H           0.58439912932837     -2.14817284604861     -0.00044313878677
| 34> H          -1.94945738240393     -2.14986566585114     -0.00007967973278
| 35> *
| 36>
| 37>                          ****END OF INPUT****

CARTESIAN COORDINATES (ANGSTROEM)
---------------------------------
  C     -1.378831   -1.215174   -0.000089
  C      0.007298   -1.222957   -0.000289
  C      0.729934   -0.000006   -0.000303
  C      0.007322    1.222960   -0.000104
  C     -1.378809    1.215201    0.000091
  C     -2.069465    0.000020    0.000105
  F     -3.425670    0.000030    0.000313
  H     -1.949417    2.149904    0.000237
  H      0.584439    2.148169   -0.000120
  N      2.118083   -0.000025   -0.000362
  O      2.723877   -1.107712    0.000406
  O      2.723916    1.107639    0.000561
  H      0.584399   -2.148173   -0.000443
  H     -1.949457   -2.149866   -0.000080

 Total Charge           Charge          ....   -1
 Multiplicity           Mult            ....    2
 Number of Electrons    NEL             ....   73
 Basis Dimension        Dim             ....  552

ORBITAL ENERGIES
----------------
                 SPIN UP ORBITALS
  NO   OCC          E(Eh)            E(eV)
   0   1.0000     -24.606484      -669.5765
   1   1.0000     -19.003712      -517.1173
   2   1.0000     -19.003709      -517.1172
   3   1.0000     -14.375283      -391.1713
   4   1.0000     -10.180617      -277.0287
   5   1.0000     -10.131356      -275.6882
   6   1.0000     -10.112976      -275.1881
   7   1.0000     -10.112975      -275.1880
   8   1.0000     -10.109292      -275.0878
   9   1.0000     -10.109288      -275.0877
  10   1.0000      -1.193426       -32.4748
  11   1.0000      -1.103842       -30.0371
  12   1.0000      -0.934778       -25.4366
  13   1.0000      -0.832106       -22.6428
  14   1.0000      -0.750850       -20.4317
  15   1.0000      -0.724434       -19.7129
  16   1.0000      -0.647564       -17.6211
  17   1.0000      -0.589887       -16.0516
  18   1.0000      -0.548058       -14.9134
  19   1.0000      -0.514080       -13.9888
  20   1.0000      -0.473299       -12.8791
  21   1.0000      -0.462912       -12.5965
  22   1.0000      -0.452857       -12.3229
  23   1.0000      -0.440178       -11.9778
  24   1.0000      -0.417862       -11.3706
  25   1.0000      -0.416556       -11.3351
  26   1.0000      -0.397878       -10.8268
  27   1.0000      -0.379524       -10.3274
  28   1.0000      -0.366002        -9.9594
  29   1.0000      -0.335885        -9.1399
  30   1.0000      -0.310177        -8.4403
  31   1.0000      -0.252490        -6.8706
  32   1.0000      -0.241189        -6.5631
  33   1.0000      -0.234746        -6.3878
  34   1.0000      -0.231629        -6.3029
  35   1.0000      -0.207324        -5.6416
  36   1.0000      -0.105539        -2.8719
  37   0.0000      -0.021056        -0.5730
  38   0.0000      -0.000177        -0.0048
  39   0.0000       0.013130         0.3573
  40   0.0000       0.014472         0.3938
  41   0.0000       0.015444         0.4203

                 SPIN DOWN ORBITALS
  NO   OCC          E(Eh)            E(eV)
   0   1.0000     -24.605788      -669.5575
   1   1.0000     -18.998321      -516.9706
   2   1.0000     -18.998319      -516.9705
   3   1.0000     -14.367326      -390.9548
   4   1.0000     -10.177148      -276.9343
   5   1.0000     -10.131493      -275.6919
   6   1.0000     -10.114199      -275.2213
   7   1.0000     -10.114198      -275.2213
   8   1.0000     -10.107004      -275.0256
   9   1.0000     -10.107001      -275.0255
  10   1.0000      -1.191962       -32.4349
  11   1.0000      -1.092531       -29.7293
  12   1.0000      -0.925630       -25.1877
  13   1.0000      -0.829438       -22.5701
  14   1.0000      -0.744943       -20.2709
  15   1.0000      -0.722639       -19.6640
  16   1.0000      -0.638072       -17.3628
  17   1.0000      -0.588215       -16.0062
  18   1.0000      -0.544639       -14.8204
  19   1.0000      -0.512622       -13.9492
  20   1.0000      -0.466767       -12.7014
  21   1.0000      -0.461088       -12.5468
  22   1.0000      -0.435148       -11.8410
  23   1.0000      -0.417955       -11.3731
  24   1.0000      -0.415532       -11.3072
  25   1.0000      -0.412303       -11.2193
  26   1.0000      -0.397477       -10.8159
  27   1.0000      -0.377834       -10.2814
  28   1.0000      -0.365060        -9.9338
  29   1.0000      -0.327437        -8.9100
  30   1.0000      -0.309585        -8.4242
  31   1.0000      -0.242300        -6.5933
  32   1.0000      -0.231086        -6.2882
  33   1.0000      -0.219579        -5.9751
  34   1.0000      -0.212012        -5.7691
  35   1.0000      -0.203490        -5.5372
  36   0.0000      -0.049227        -1.3395
  37   0.0000      -0.015913        -0.4330
  38   0.0000       0.001679         0.0457
  39   0.0000       0.015843         0.4311
  40   0.0000       0.016864         0.4589

MULLIKEN ATOMIC CHARGES AND SPIN POPULATIONS
--------------------------------------------
   0 C :   -0.449105   -0.071441
   1 C :   -0.362714    0.182088
   2 C :    0.140914   -0.021881
   3 C :   -0.363093    0.182093
   4 C :   -0.449798   -0.071435
   5 C :    0.592271    0.165815
   6 F :   -0.511329    0.012273
   7 H :    0.213773   -0.001168
   8 H :    0.541052   -0.005643
   9 N :    0.812521    0.191875
  10 O :   -0.959400    0.222122
  11 O :   -0.959341    0.222122
  12 H :    0.540603   -0.005651
  13 H :    0.213646   -0.001169
Sum of atomic charges         :   -1.0000000

LOEWDIN ATOMIC CHARGES AND SPIN POPULATIONS
-------------------------------------------
   0 C :    0.150517    0.011720
   1 C :    0.155343    0.067741
   2 C :   -0.332244    0.060095
   3 C :    0.155345    0.067742
   4 C :    0.150516    0.011720
   5 C :   -0.562175    0.088224
   6 F :    0.497905    0.028062
   7 H :   -0.180982   -0.005453
   8 H :   -0.221442    0.016684
   9 N :   -0.869952    0.242797
  10 O :    0.229799    0.199718
  11 O :    0.229798    0.199719
  12 H :   -0.221448    0.016684
  13 H :   -0.180980   -0.005453

  Mayer bond orders larger than 0.100000
B(  0-C ,  1-C ) :   1.4558 B(  0-C ,  2-C ) :  -0.2882 B(  0-C ,  4-C ) :   0.1531
B(  0-C ,  5-C ) :   1.3401 B(  0-C ,  6-F ) :   0.2229 B(  0-C , 10-O ) :  -0.1029
B(  0-C , 13-H ) :   0.7463 B(  1-C ,  2-C ) :   1.0215 B(  1-C ,  3-C ) :   0.1794
B(  1-C ,  9-N ) :  -0.2056 B(  1-C , 12-H ) :   0.3172 B(  2-C ,  3-C ) :   1.0218
B(  2-C ,  4-C ) :  -0.2880 B(  2-C ,  9-N ) :   1.2993 B(  2-C , 10-O ) :   0.4415
B(  2-C , 11-O ) :   0.4409 B(  3-C ,  4-C ) :   1.4561 B(  3-C ,  8-H ) :   0.3160
B(  3-C ,  9-N ) :  -0.2058 B(  4-C ,  5-C ) :   1.3395 B(  4-C ,  6-F ) :   0.2229
B(  4-C ,  7-H ) :   0.7464 B(  4-C , 11-O ) :  -0.1030 B(  6-F ,  7-H ) :   0.1794
B(  6-F , 13-H ) :   0.1795 B(  9-N , 10-O ) :   0.5291 B(  9-N , 11-O ) :   0.5295
B( 10-O , 11-O ) :   0.1158

Dispersion correction           -0.016920051
FINAL SINGLE POINT ENERGY      -536.346317615734

DIPOLE MOMENT
-------------

Method             : SCF
Type of density    : Electron Density
Multiplicity       :   2
Irrep              :   0
Energy             :  -536.3293975643501881 Eh
Relativity type    :
Basis              : AO
                                X                 Y                 Z
Electronic contribution:     -4.407575450       0.000038517      -0.001091218
Nuclear contribution   :      0.705808692       0.000011450      -0.000838371
                        -----------------------------------------
Total Dipole Moment    :     -3.701766758       0.000049967      -0.001929590
                        -----------------------------------------
Magnitude (a.u.)       :      3.701767262
Magnitude (Debye)      :      9.409144622

Rotational constants in cm-1:             0.130395             0.026545             0.022055
Rotational constants in MHz :          3909.135354           795.801666           661.198337

                             ****ORCA TERMINATED NORMALLY****
TOTAL RUN TIME: 0 days 0 hours 6 minutes 16 seconds 637 msec
