                         Program Version 6.0.0  -   RELEASE  -
|  1> !r2SCANh aug-cc-pVTZ d3 TightSCF SlowConv RIJCOSX defgrid2
|  2>
|  3> %pal
|  4> nprocs 4
|  5> end
|  6>
|  7> %scf
|  8> MaxIter 1500
|  9> end
| 10>
| 11> %maxcore 3000
| 12>
| 13> !CPCM
| 14> %cpcm smd true
| 15> SMDsolvent "MeCN"
| 16> surfacetype gepol_ses
| 17> rsolv 2.19
| 18> end
| 19>
| 20> * xyz 0 1
| 21> C           2.39749463161436     -0.83149819893554      0.67669387485363
| 22> C           1.27172397639116     -0.40047992295486     -0.03969915484816
| 23> C           1.38259238776027      0.76303550152059     -0.81642324820039
| 24> C           2.58576374302039      1.45963699946448     -0.89073073539891
| 25> C           3.70030483512470      1.01412413753758     -0.17987702815859
| 26> C           3.60056124987950     -0.13306932613824      0.60654243714533
| 27> H           4.46466138277505     -0.48209902986176      1.17996120108222
| 28> H           4.64383968195764      1.56540648474814     -0.23276704782048
| 29> H           2.65415437190379      2.35888092106518     -1.51038356423303
| 30> H           0.51264382726920      1.11680700092055     -1.37721808377949
| 31> C          -0.00001123541006     -1.16417502511622     -0.00002273576044
| 32> C          -0.00001884782649     -2.50996676952303     -0.00003277235160
| 33> H          -0.93225135885572     -3.07886784376654      0.08064455143521
| 34> H           0.93220419630722     -3.07888213761201     -0.08071574786352
| 35> C          -1.27174210287451     -0.40047320911747      0.03966757754902
| 36> C          -2.39750985071673     -0.83146289450512     -0.67674719863415
| 37> C          -3.60057439169967     -0.13303092760862     -0.60657919634084
| 38> C          -3.70031659242385      1.01413981080717      0.17987332068473
| 39> C          -2.58577653905984      1.45962201354211      0.89074922577948
| 40> C          -1.38260956202413      0.76301589591316      0.81642903255360
| 41> H          -0.51266418903044      1.11676009652396      1.37724534040847
| 42> H          -2.65416367308445      2.35884547498639      1.51043035509866
| 43> H          -4.64384894904450      1.56542539828851      0.23277593005599
| 44> H          -4.46467229568686     -0.48204204645132     -1.18001194866167
| 45> H          -2.31694066862491     -1.71619568559047     -1.31480317865473
| 46> H           2.31692587235889     -1.71625071813661      1.31472229405965
| 47> *
| 48>
| 49>                          ****END OF INPUT****

CARTESIAN COORDINATES (ANGSTROEM)
---------------------------------
  C      2.397495   -0.831498    0.676694
  C      1.271724   -0.400480   -0.039699
  C      1.382592    0.763036   -0.816423
  C      2.585764    1.459637   -0.890731
  C      3.700305    1.014124   -0.179877
  C      3.600561   -0.133069    0.606542
  H      4.464661   -0.482099    1.179961
  H      4.643840    1.565406   -0.232767
  H      2.654154    2.358881   -1.510384
  H      0.512644    1.116807   -1.377218
  C     -0.000011   -1.164175   -0.000023
  C     -0.000019   -2.509967   -0.000033
  H     -0.932251   -3.078868    0.080645
  H      0.932204   -3.078882   -0.080716
  C     -1.271742   -0.400473    0.039668
  C     -2.397510   -0.831463   -0.676747
  C     -3.600574   -0.133031   -0.606579
  C     -3.700317    1.014140    0.179873
  C     -2.585777    1.459622    0.890749
  C     -1.382610    0.763016    0.816429
  H     -0.512664    1.116760    1.377245
  H     -2.654164    2.358845    1.510430
  H     -4.643849    1.565425    0.232776
  H     -4.464672   -0.482042   -1.180012
  H     -2.316941   -1.716196   -1.314803
  H      2.316926   -1.716251    1.314722

 Total Charge           Charge          ....    0
 Multiplicity           Mult            ....    1
 Number of Electrons    NEL             ....   96
 Basis Dimension        Dim             ....  920

ORBITAL ENERGIES
----------------

  NO   OCC          E(Eh)            E(eV)
   0   2.0000     -10.178780      -276.9787
   1   2.0000     -10.174900      -276.8731
   2   2.0000     -10.174894      -276.8729
   3   2.0000     -10.162741      -276.5422
   4   2.0000     -10.162718      -276.5416
   5   2.0000     -10.162529      -276.5365
   6   2.0000     -10.162524      -276.5363
   7   2.0000     -10.162199      -276.5275
   8   2.0000     -10.162196      -276.5274
   9   2.0000     -10.161966      -276.5212
  10   2.0000     -10.161964      -276.5211
  11   2.0000     -10.161543      -276.5096
  12   2.0000     -10.161536      -276.5095
  13   2.0000     -10.152190      -276.2551
  14   2.0000      -0.873768       -23.7764
  15   2.0000      -0.856940       -23.3185
  16   2.0000      -0.806575       -21.9480
  17   2.0000      -0.748649       -20.3718
  18   2.0000      -0.748573       -20.3697
  19   2.0000      -0.743229       -20.2243
  20   2.0000      -0.716846       -19.5064
  21   2.0000      -0.628071       -17.0907
  22   2.0000      -0.604426       -16.4473
  23   2.0000      -0.595926       -16.2160
  24   2.0000      -0.592957       -16.1352
  25   2.0000      -0.544240       -14.8095
  26   2.0000      -0.514794       -14.0083
  27   2.0000      -0.491052       -13.3622
  28   2.0000      -0.457915       -12.4605
  29   2.0000      -0.452220       -12.3055
  30   2.0000      -0.441747       -12.0205
  31   2.0000      -0.431454       -11.7405
  32   2.0000      -0.428206       -11.6521
  33   2.0000      -0.408477       -11.1152
  34   2.0000      -0.407942       -11.1007
  35   2.0000      -0.405390       -11.0312
  36   2.0000      -0.372930       -10.1479
  37   2.0000      -0.367819       -10.0089
  38   2.0000      -0.366369        -9.9694
  39   2.0000      -0.344012        -9.3611
  40   2.0000      -0.332729        -9.0540
  41   2.0000      -0.325075        -8.8457
  42   2.0000      -0.320124        -8.7110
  43   2.0000      -0.296691        -8.0734
  44   2.0000      -0.259360        -7.0576
  45   2.0000      -0.255339        -6.9481
  46   2.0000      -0.252585        -6.8732
  47   2.0000      -0.222794        -6.0625
  48   0.0000      -0.058571        -1.5938
  49   0.0000      -0.035130        -0.9559
  50   0.0000      -0.030763        -0.8371
  51   0.0000      -0.018298        -0.4979
  52   0.0000       0.007815         0.2126

MULLIKEN ATOMIC CHARGES
-----------------------
   0 C :   -1.231908
   1 C :    2.420423
   2 C :   -0.800134
   3 C :   -0.855826
   4 C :   -0.118245
   5 C :   -0.754742
   6 H :    0.492162
   7 H :    0.496992
   8 H :    0.469797
   9 H :   -0.018640
  10 C :    0.890686
  11 C :   -1.319592
  12 H :    0.223256
  13 H :    0.223421
  14 C :    2.421475
  15 C :   -1.235678
  16 C :   -0.755569
  17 C :   -0.116351
  18 C :   -0.850686
  19 C :   -0.793215
  20 H :   -0.019886
  21 H :    0.469090
  22 H :    0.477816
  23 H :    0.511975
  24 H :   -0.117879
  25 H :   -0.108742
Sum of atomic charges:   -0.0000000

LOEWDIN ATOMIC CHARGES
----------------------
   0 C :    0.204789
   1 C :   -0.151137
   2 C :    0.203179
   3 C :    0.197223
   4 C :    0.187115
   5 C :    0.195117
   6 H :   -0.169209
   7 H :   -0.170939
   8 H :   -0.168734
   9 H :   -0.161392
  10 C :   -0.151653
  11 C :    0.550752
  12 H :   -0.196329
  13 H :   -0.196321
  14 C :   -0.151100
  15 C :    0.204809
  16 C :    0.195138
  17 C :    0.187161
  18 C :    0.197276
  19 C :    0.203156
  20 H :   -0.161511
  21 H :   -0.168733
  22 H :   -0.170949
  23 H :   -0.169208
  24 H :   -0.169253
  25 H :   -0.169246

  Mayer bond orders larger than 0.100000
B(  0-C ,  1-C ) :  -0.1082 B(  0-C ,  2-C ) :  -0.7325 B(  0-C ,  3-C ) :   0.1016
B(  0-C ,  4-C ) :  -0.1683 B(  0-C ,  5-C ) :   1.3366 B(  0-C ,  6-H ) :  -0.1430
B(  0-C ,  9-H ) :   0.1262 B(  0-C , 10-C ) :   0.3178 B(  0-C , 25-H ) :   1.8338
B(  1-C ,  2-C ) :   0.2983 B(  1-C ,  4-C ) :  -0.1446 B(  1-C ,  9-H ) :  -0.1110
B(  1-C , 10-C ) :  -0.2404 B(  1-C , 11-C ) :  -0.3212 B(  1-C , 14-C ) :  -0.1725
B(  1-C , 25-H ) :  -0.1793 B(  2-C ,  3-C ) :   1.2848 B(  2-C ,  4-C ) :  -0.1297
B(  2-C ,  9-H ) :   1.5596 B(  2-C , 10-C ) :   0.2595 B(  2-C , 11-C ) :   0.1418
B(  2-C , 19-C ) :   0.1559 B(  3-C ,  4-C ) :   1.2005 B(  3-C ,  5-C ) :   0.2525
B(  3-C ,  8-H ) :   0.5282 B(  3-C , 25-H ) :  -0.1302 B(  4-C ,  5-C ) :   1.0674
B(  4-C ,  7-H ) :   0.5793 B(  4-C , 10-C ) :   0.2057 B(  5-C ,  6-H ) :   0.5317
B(  5-C ,  9-H ) :  -0.1097 B(  9-H , 25-H ) :   0.1977 B( 10-C , 11-C ) :   0.7412
B( 10-C , 14-C ) :  -0.2403 B( 10-C , 15-C ) :   0.3166 B( 10-C , 17-C ) :   0.2082
B( 10-C , 19-C ) :   0.2625 B( 10-C , 24-H ) :  -0.2232 B( 10-C , 25-H ) :  -0.2214
B( 11-C , 12-H ) :   1.0037 B( 11-C , 13-H ) :   1.0031 B( 11-C , 14-C ) :  -0.3235
B( 11-C , 19-C ) :   0.1403 B( 14-C , 15-C ) :  -0.1100 B( 14-C , 17-C ) :  -0.1387
B( 14-C , 19-C ) :   0.3023 B( 14-C , 20-H ) :  -0.1116 B( 14-C , 24-H ) :  -0.1850
B( 15-C , 16-C ) :   1.3378 B( 15-C , 17-C ) :  -0.1790 B( 15-C , 18-C ) :   0.1065
B( 15-C , 19-C ) :  -0.7351 B( 15-C , 20-H ) :   0.1300 B( 15-C , 22-H ) :   0.1012
B( 15-C , 23-H ) :  -0.1447 B( 15-C , 24-H ) :   1.8548 B( 16-C , 17-C ) :   1.0653
B( 16-C , 18-C ) :   0.2597 B( 16-C , 20-H ) :  -0.1137 B( 16-C , 23-H ) :   0.4949
B( 17-C , 18-C ) :   1.1891 B( 17-C , 19-C ) :  -0.1346 B( 17-C , 22-H ) :   0.6052
B( 18-C , 19-C ) :   1.2825 B( 18-C , 21-H ) :   0.5290 B( 18-C , 24-H ) :  -0.1270
B( 19-C , 20-H ) :   1.5569 B( 20-H , 24-H ) :   0.2018

Dispersion correction           -0.010817755
FINAL SINGLE POINT ENERGY      -540.569759164033

DIPOLE MOMENT
-------------

Method             : SCF
Type of density    : Electron Density
Multiplicity       :   1
Irrep              :   0
Energy             :  -540.5589414085817452 Eh
Relativity type    :
Basis              : AO
                                X                 Y                 Z
Electronic contribution:     -0.000764013       0.615607516      -0.000996048
Nuclear contribution   :     -0.000009105      -0.465365266       0.000012542
                        -----------------------------------------
Total Dipole Moment    :     -0.000773118       0.150242251      -0.000983505
                        -----------------------------------------
Magnitude (a.u.)       :      0.150247459
Magnitude (Debye)      :      0.381898691

Rotational constants in cm-1:             0.053104             0.013986             0.012201
Rotational constants in MHz :          1592.023360           419.285369           365.773053

                             ****ORCA TERMINATED NORMALLY****
TOTAL RUN TIME: 0 days 0 hours 14 minutes 43 seconds 378 msec
