                         Program Version 6.0.0  -   RELEASE  -
|  1> !TPSSh opt aug-cc-pVTZ d3 TightSCF SlowConv RIJCOSX defgrid2
|  2>
|  3> %pal
|  4> nprocs 8
|  5> end
|  6>
|  7> %scf
|  8> MaxIter 1500
|  9> end
| 10>
| 11> %maxcore 3500
| 12>
| 13> !CPCM
| 14> %cpcm smd true
| 15> SMDsolvent "MeCN"
| 16> surfacetype gepol_ses
| 17> rsolv 2.19
| 18> end
| 19>
| 20> * xyz 0 1
| 21> C          -0.22997754219743     -1.20609091856311     -0.00046087004095
| 22> C           1.16128384069195     -1.20031253591911      0.00041394587123
| 23> C           1.87254503831811     -0.00003037040882      0.00072012391754
| 24> C           1.16131377140118      1.20026930808148      0.00041360790641
| 25> C          -0.22994707632405      1.20608173416170     -0.00046177829750
| 26> C          -0.95218511536342      0.00000427823419     -0.00003761551285
| 27> N          -2.33340895991450      0.00002157595282      0.04653779431621
| 28> H          -2.79855452143895      0.84821355690402     -0.25483389378867
| 29> H          -2.79857532928795     -0.84816111010491     -0.25482834496791
| 30> H          -0.77344381556999      2.15676174884881      0.00298430668171
| 31> H           1.69817818740019      2.15419904894576     -0.00079679497611
| 32> H           2.96571339060225     -0.00004426352233      0.00028554339021
| 33> H           1.69812535441562     -2.15425546581862     -0.00079688995407
| 34> H          -0.77349762273302     -2.15675758679187      0.00298456545474
| 35> *
| 36>
| 37>                          ****END OF INPUT****
 Total Charge           Charge          ....    0
 Multiplicity           Mult            ....    1
 Number of Electrons    NEL             ....   50
Dispersion correction           -0.015270146
FINAL SINGLE POINT ENERGY      -287.755950497230
Dispersion correction             ... done (  0.0 sec)
Dispersion correction           -0.015296079
FINAL SINGLE POINT ENERGY      -287.756363617941
Dispersion correction             ... done (  0.1 sec)
Dispersion correction           -0.015298995
FINAL SINGLE POINT ENERGY      -287.756393769520
Dispersion correction             ... done (  0.1 sec)
Dispersion correction           -0.015303233
FINAL SINGLE POINT ENERGY      -287.756435781744
Dispersion correction             ... done (  0.1 sec)
Dispersion correction           -0.015302887
FINAL SINGLE POINT ENERGY      -287.756441207044
Dispersion correction             ... done (  0.1 sec)
                    ***********************HURRAY********************

CARTESIAN COORDINATES (ANGSTROEM)
---------------------------------
  C     -0.230239   -1.206268    0.003684
  C      1.159359   -1.199883    0.000567
  C      1.868842   -0.000030    0.000413
  C      1.159388    1.199841    0.000565
  C     -0.230209    1.206259    0.003682
  C     -0.946717    0.000004    0.006696
  N     -2.336320    0.000021    0.075929
  H     -2.784433    0.836460   -0.271357
  H     -2.784452   -0.836407   -0.271361
  H     -0.770829    2.146488    0.002762
  H      1.691204    2.144494   -0.004445
  H      2.951706   -0.000044   -0.003330
  H      1.691150   -2.144551   -0.004441
  H     -0.770881   -2.146484    0.002761

 Multiplicity           Mult            ....    1
 Number of Electrons    NEL             ....   50
 Basis Dimension        Dim             ....  483

ORBITAL ENERGIES
----------------

  NO   OCC          E(Eh)            E(eV)
   0   2.0000     -14.249176      -387.7398
   1   2.0000     -10.152411      -276.2611
   2   2.0000     -10.112227      -275.1677
   3   2.0000     -10.112212      -275.1673
   4   2.0000     -10.106503      -275.0119
   5   2.0000     -10.106499      -275.0118
   6   2.0000     -10.102621      -274.9063
   7   2.0000      -0.894299       -24.3351
   8   2.0000      -0.815087       -22.1796
   9   2.0000      -0.723381       -19.6842
  10   2.0000      -0.703335       -19.1387
  11   2.0000      -0.589911       -16.0523
  12   2.0000      -0.575620       -15.6634
  13   2.0000      -0.502463       -13.6727
  14   2.0000      -0.481273       -13.0961
  15   2.0000      -0.456010       -12.4087
  16   2.0000      -0.410435       -11.1685
  17   2.0000      -0.403317       -10.9748
  18   2.0000      -0.395700       -10.7676
  19   2.0000      -0.371179       -10.1003
  20   2.0000      -0.336702        -9.1621
  21   2.0000      -0.318730        -8.6731
  22   2.0000      -0.299693        -8.1551
  23   2.0000      -0.244005        -6.6397
  24   2.0000      -0.197665        -5.3787
  25   0.0000      -0.022017        -0.5991
  26   0.0000      -0.008166        -0.2222
  27   0.0000      -0.003202        -0.0871
  28   0.0000       0.009581         0.2607
  29   0.0000       0.014504         0.3947

MULLIKEN ATOMIC CHARGES
-----------------------
   0 C :   -0.694659
   1 C :   -0.233830
   2 C :   -0.468314
   3 C :   -0.233784
   4 C :   -0.694810
   5 C :    1.110397
   6 N :   -0.597400
   7 H :    0.021436
   8 H :    0.021004
   9 H :    0.383666
  10 H :    0.283286
  11 H :    0.436264
  12 H :    0.282935
  13 H :    0.383809
Sum of atomic charges:   -0.0000000

LOEWDIN ATOMIC CHARGES
----------------------
   0 C :    0.203893
   1 C :    0.167396
   2 C :    0.169265
   3 C :    0.167396
   4 C :    0.203894
   5 C :   -0.264820
   6 N :    0.856561
   7 H :   -0.292904
   8 H :   -0.292906
   9 H :   -0.178942
  10 H :   -0.183472
  11 H :   -0.192946
  12 H :   -0.183472
  13 H :   -0.178942

  Mayer bond orders larger than 0.100000
B(  0-C ,  1-C ) :   1.3883 B(  0-C ,  2-C ) :   0.2489 B(  0-C ,  4-C ) :   0.4122
B(  0-C ,  5-C ) :   0.8964 B(  0-C , 13-H ) :   0.4022 B(  1-C ,  2-C ) :   1.3199
B(  1-C ,  3-C ) :  -0.1139 B(  1-C ,  5-C ) :  -0.2578 B(  1-C , 12-H ) :   0.8254
B(  1-C , 13-H ) :   0.1017 B(  2-C ,  3-C ) :   1.3201 B(  2-C ,  4-C ) :   0.2488
B(  2-C , 11-H ) :   0.5011 B(  3-C ,  4-C ) :   1.3879 B(  3-C ,  5-C ) :  -0.2581
B(  3-C ,  9-H ) :   0.1016 B(  3-C , 10-H ) :   0.8255 B(  4-C ,  5-C ) :   0.8979
B(  4-C ,  9-H ) :   0.4025 B(  5-C ,  6-N ) :   0.3074 B(  5-C ,  9-H ) :   0.1511
B(  5-C , 13-H ) :   0.1511 B(  6-N ,  7-H ) :   1.0821 B(  6-N ,  8-H ) :   1.0828

Dispersion correction           -0.015302065
FINAL SINGLE POINT ENERGY      -287.756442687745

DIPOLE MOMENT
-------------

Method             : SCF
Type of density    : Electron Density
Multiplicity       :   1
Irrep              :   0
Energy             :  -287.7411406227487305 Eh
Relativity type    :
Basis              : AO
                                X                 Y                 Z
Electronic contribution:     -0.029954884       0.000003981       0.055639671
Nuclear contribution   :     -0.733495141       0.000007289      -0.564230430
                        -----------------------------------------
Total Dipole Moment    :     -0.763450025       0.000011270      -0.508590760
                        -----------------------------------------
Magnitude (a.u.)       :      0.917344265
Magnitude (Debye)      :      2.331703819

Rotational constants in cm-1:             0.187877             0.086746             0.059437
Rotational constants in MHz :          5632.409668          2600.575771          1781.873674

                             ****ORCA TERMINATED NORMALLY****
TOTAL RUN TIME: 0 days 0 hours 22 minutes 52 seconds 790 msec
