                         Program Version 6.0.0  -   RELEASE  -
|  1> !PBE0 def2-SV(p) Opt Freq d3 TightSCF SlowConv RIJCOSX defgrid2
|  2>
|  3> %pal
|  4> nprocs 4
|  5> end
|  6>
|  7> %scf
|  8> MaxIter 1500
|  9> end
| 10>
| 11> %maxcore 3000
| 12>
| 13>
| 14>
| 15> * xyz 0 1
| 16> C     0.4209184    1.0823877   -0.0000487
| 17> C    -0.9362526    1.3090402   -0.0000414
| 18> C    -1.8392663    0.2427007   -0.0000120
| 19> C    -1.3425803   -1.0560561   -0.0000188
| 20> C     0.0235811   -1.2705830   -0.0000158
| 21> C     0.9374628   -0.2173782   -0.0000195
| 22> C     2.3619372   -0.5169736    0.0000810
| 23> C     3.3688931    0.3543318   -0.0000950
| 24> C     4.8091706   -0.0314200    0.0001128
| 25> H     5.3075788    0.3785519    0.8787239
| 26> H     5.3076508    0.3778099   -0.8788037
| 27> H     4.9262001   -1.1123594    0.0005723
| 28> H     3.1806022    1.4190907   -0.0004033
| 29> H     2.5976951   -1.5752817    0.0003476
| 30> H     0.3900829   -2.2877433   -0.0000015
| 31> H    -2.0070232   -1.9058344   -0.0000185
| 32> O    -3.1613770    0.5794781    0.0000577
| 33> C    -4.1209727   -0.4540502   -0.0001139
| 34> H    -4.0347355   -1.0801729    0.8937041
| 35> H    -4.0346937   -1.0799097   -0.8941130
| 36> H    -5.0884777    0.0451497   -0.0000552
| 37> H    -1.3323783    2.3130152   -0.0000408
| 38> H     1.0897882    1.9287022   -0.0000546
| 39> *
| 40>
| 41>                          ****END OF INPUT****
 Total Charge           Charge          ....    0
 Multiplicity           Mult            ....    1
 Number of Electrons    NEL             ....   80
Dispersion correction           -0.019978839
FINAL SINGLE POINT ENERGY      -462.598289344173
Dispersion correction             ... done (  0.1 sec)
Dispersion correction           -0.019905979
FINAL SINGLE POINT ENERGY      -462.600906778190
Dispersion correction             ... done (  0.1 sec)
Dispersion correction           -0.019890333
FINAL SINGLE POINT ENERGY      -462.601025164125
Dispersion correction             ... done (  0.0 sec)
Dispersion correction           -0.019887158
FINAL SINGLE POINT ENERGY      -462.601064007799
Dispersion correction             ... done (  0.0 sec)
Dispersion correction           -0.019888839
FINAL SINGLE POINT ENERGY      -462.601066578705
Dispersion correction             ... done (  0.0 sec)
                    ***********************HURRAY********************

CARTESIAN COORDINATES (ANGSTROEM)
---------------------------------
  C      0.409351    1.088994    0.000004
  C     -0.954142    1.321824   -0.000055
  C     -1.861918    0.250590   -0.000045
  C     -1.367265   -1.056414    0.000030
  C      0.010949   -1.272063    0.000089
  C      0.932667   -0.218880    0.000071
  C      2.366846   -0.517675    0.000116
  C      3.388233    0.353488   -0.000020
  C      4.830647   -0.030042    0.000034
  H      5.355096    0.376014    0.885893
  H      5.355079    0.375697   -0.885979
  H      4.958991   -1.125767    0.000228
  H      3.177448    1.431410   -0.000194
  H      2.611152   -1.589071    0.000272
  H      0.382074   -2.302208    0.000145
  H     -2.040525   -1.915638    0.000045
  O     -3.170275    0.576564   -0.000112
  C     -4.119306   -0.449766   -0.000157
  H     -4.033337   -1.088188    0.900513
  H     -4.033194   -1.088237   -0.900777
  H     -5.106387    0.036501   -0.000248
  H     -1.355704    2.338329   -0.000109
  H      1.087323    1.947034   -0.000001

 Multiplicity           Mult            ....    1
 Number of Electrons    NEL             ....   80
 Basis Dimension        Dim             ....  178

ORBITAL ENERGIES
----------------

  NO   OCC          E(Eh)            E(eV)
   0   2.0000     -19.244383      -523.6663
   1   2.0000     -10.294806      -280.1359
   2   2.0000     -10.283854      -279.8379
   3   2.0000     -10.236895      -278.5601
   4   2.0000     -10.235336      -278.5177
   5   2.0000     -10.234501      -278.4949
   6   2.0000     -10.232668      -278.4450
   7   2.0000     -10.230872      -278.3962
   8   2.0000     -10.229277      -278.3528
   9   2.0000     -10.228356      -278.3277
  10   2.0000     -10.224088      -278.2116
  11   2.0000      -1.096129       -29.8272
  12   2.0000      -0.875922       -23.8351
  13   2.0000      -0.813861       -22.1463
  14   2.0000      -0.775179       -21.0937
  15   2.0000      -0.761347       -20.7173
  16   2.0000      -0.726050       -19.7568
  17   2.0000      -0.679099       -18.4792
  18   2.0000      -0.627729       -17.0814
  19   2.0000      -0.606999       -16.5173
  20   2.0000      -0.562693       -15.3117
  21   2.0000      -0.554327       -15.0840
  22   2.0000      -0.504024       -13.7152
  23   2.0000      -0.499879       -13.6024
  24   2.0000      -0.490716       -13.3531
  25   2.0000      -0.460799       -12.5390
  26   2.0000      -0.443134       -12.0583
  27   2.0000      -0.434209       -11.8154
  28   2.0000      -0.423374       -11.5206
  29   2.0000      -0.419503       -11.4152
  30   2.0000      -0.413133       -11.2419
  31   2.0000      -0.397278       -10.8105
  32   2.0000      -0.379683       -10.3317
  33   2.0000      -0.365886        -9.9563
  34   2.0000      -0.355133        -9.6637
  35   2.0000      -0.349150        -9.5009
  36   2.0000      -0.336231        -9.1493
  37   2.0000      -0.283297        -7.7089
  38   2.0000      -0.266257        -7.2452
  39   2.0000      -0.212246        -5.7755
  40   0.0000      -0.019598        -0.5333
  41   0.0000      -0.001019        -0.0277
  42   0.0000       0.072876         1.9831
  43   0.0000       0.073472         1.9993
  44   0.0000       0.086639         2.3576

MULLIKEN ATOMIC CHARGES
-----------------------
   0 C :   -0.144429
   1 C :   -0.134552
   2 C :    0.275190
   3 C :   -0.216520
   4 C :   -0.152836
   5 C :    0.110312
   6 C :   -0.116023
   7 C :   -0.175328
   8 C :   -0.311342
   9 H :    0.136331
  10 H :    0.136331
  11 H :    0.129592
  12 H :    0.108805
  13 H :    0.080073
  14 H :    0.084877
  15 H :    0.085451
  16 O :   -0.324946
  17 C :   -0.160180
  18 H :    0.130003
  19 H :    0.130003
  20 H :    0.148529
  21 H :    0.089847
  22 H :    0.090812
Sum of atomic charges:    0.0000000

LOEWDIN ATOMIC CHARGES
----------------------
   0 C :   -0.104139
   1 C :   -0.144702
   2 C :    0.039050
   3 C :   -0.183298
   4 C :   -0.109325
   5 C :   -0.064238
   6 C :   -0.136371
   7 C :   -0.147344
   8 C :   -0.337553
   9 H :    0.130051
  10 H :    0.130051
  11 H :    0.125692
  12 H :    0.121030
  13 H :    0.122560
  14 H :    0.127368
  15 H :    0.131657
  16 O :   -0.108748
  17 C :   -0.202549
  18 H :    0.110633
  19 H :    0.110634
  20 H :    0.124828
  21 H :    0.136098
  22 H :    0.128615

  Mayer bond orders larger than 0.100000
B(  0-C ,  1-C ) :   1.4357 B(  0-C ,  5-C ) :   1.3278 B(  0-C , 22-H ) :   0.9506
B(  1-C ,  2-C ) :   1.3388 B(  1-C , 21-H ) :   0.9620 B(  2-C ,  3-C ) :   1.3218
B(  2-C , 16-O ) :   1.1100 B(  3-C ,  4-C ) :   1.3589 B(  3-C , 15-H ) :   0.9604
B(  4-C ,  5-C ) :   1.3738 B(  4-C , 14-H ) :   0.9603 B(  5-C ,  6-C ) :   1.0950
B(  6-C ,  7-C ) :   1.8966 B(  6-C , 13-H ) :   0.9336 B(  7-C ,  8-C ) :   1.0837
B(  7-C , 12-H ) :   0.9142 B(  8-C ,  9-H ) :   0.9381 B(  8-C , 10-H ) :   0.9381
B(  8-C , 11-H ) :   0.9538 B( 16-O , 17-C ) :   0.9637 B( 17-C , 18-H ) :   0.9409
B( 17-C , 19-H ) :   0.9409 B( 17-C , 20-H ) :   0.9568

Dispersion correction           -0.019889950
FINAL SINGLE POINT ENERGY      -462.601066888550

DIPOLE MOMENT
-------------

Method             : SCF
Type of density    : Electron Density
Multiplicity       :   1
Irrep              :   0
Energy             :  -462.5811769380502483 Eh
Relativity type    :
Basis              : AO
                                X                 Y                 Z
Electronic contribution:     -6.236656981       2.085294418       0.000073407
Nuclear contribution   :      5.966707221      -2.452424409      -0.000108664
                        -----------------------------------------
Total Dipole Moment    :     -0.269949760      -0.367129991      -0.000035258
                        -----------------------------------------
Magnitude (a.u.)       :      0.455694310
Magnitude (Debye)      :      1.158282885

VIBRATIONAL FREQUENCIES
-----------------------

Scaling factor for frequencies =  1.000000000  (already applied!)

     0:       0.00 cm**-1
     1:       0.00 cm**-1
     2:       0.00 cm**-1
     3:       0.00 cm**-1
     4:       0.00 cm**-1
     5:       0.00 cm**-1
     6:      41.18 cm**-1
     7:      87.23 cm**-1
     8:     121.53 cm**-1
     9:     125.66 cm**-1
    10:     190.42 cm**-1
    11:     216.24 cm**-1
    12:     248.96 cm**-1
    13:     272.88 cm**-1
    14:     320.92 cm**-1
    15:     395.80 cm**-1
    16:     410.27 cm**-1
    17:     432.19 cm**-1
    18:     480.46 cm**-1
    19:     540.77 cm**-1
    20:     589.40 cm**-1
    21:     653.36 cm**-1
    22:     740.91 cm**-1
    23:     781.07 cm**-1
    24:     816.23 cm**-1
    25:     833.55 cm**-1
    26:     869.34 cm**-1
    27:     872.57 cm**-1
    28:     966.94 cm**-1
    29:     968.82 cm**-1
    30:     986.70 cm**-1
    31:    1005.98 cm**-1
    32:    1027.03 cm**-1
    33:    1063.20 cm**-1
    34:    1127.15 cm**-1
    35:    1129.98 cm**-1
    36:    1141.69 cm**-1
    37:    1185.07 cm**-1
    38:    1196.10 cm**-1
    39:    1217.66 cm**-1
    40:    1249.63 cm**-1
    41:    1321.52 cm**-1
    42:    1324.39 cm**-1
    43:    1343.34 cm**-1
    44:    1347.80 cm**-1
    45:    1400.01 cm**-1
    46:    1416.47 cm**-1
    47:    1461.04 cm**-1
    48:    1473.99 cm**-1
    49:    1480.33 cm**-1
    50:    1480.97 cm**-1
    51:    1484.76 cm**-1
    52:    1499.79 cm**-1
    53:    1580.22 cm**-1
    54:    1656.05 cm**-1
    55:    1709.65 cm**-1
    56:    1761.84 cm**-1
    57:    3008.70 cm**-1
    58:    3018.51 cm**-1
    59:    3086.81 cm**-1
    60:    3089.84 cm**-1
    61:    3128.98 cm**-1
    62:    3144.65 cm**-1
    63:    3161.83 cm**-1
    64:    3162.77 cm**-1
    65:    3190.78 cm**-1
    66:    3204.43 cm**-1
    67:    3223.86 cm**-1
    68:    3230.76 cm**-1

IR SPECTRUM
-----------

 Mode   freq       eps      Int      T**2         TX        TY        TZ
       cm**-1   L/(mol*cm) km/mol    a.u.
----------------------------------------------------------------------------
  6:     41.18   0.000161    0.82  0.001223  ( 0.000006  0.000002 -0.034973)
  7:     87.23   0.000363    1.83  0.001298  (-0.000002  0.000000 -0.036033)
  8:    121.53   0.000124    0.63  0.000318  ( 0.000004  0.000001 -0.017837)
  9:    125.66   0.000081    0.41  0.000200  (-0.002418 -0.013939  0.000001)
 10:    190.42   0.000651    3.29  0.001067  (-0.000004  0.000004  0.032668)
 11:    216.24   0.000076    0.39  0.000110  (-0.000005 -0.000000  0.010486)
 12:    248.96   0.000610    3.08  0.000764  ( 0.026555 -0.007690  0.000003)
 13:    272.88   0.000176    0.89  0.000201  (-0.000006  0.000001  0.014167)
 14:    320.92   0.000330    1.67  0.000321  ( 0.017494 -0.003846  0.000001)
 15:    395.80   0.000018    0.09  0.000014  ( 0.000002  0.000000  0.003793)
 16:    410.27   0.000134    0.68  0.000102  (-0.007968  0.006221  0.000001)
 17:    432.19   0.000004    0.02  0.000003  ( 0.000002  0.000002  0.001675)
 18:    480.46   0.000077    0.39  0.000050  (-0.006250 -0.003306 -0.000000)
 19:    540.77   0.001753    8.86  0.001012  ( 0.000002  0.000003 -0.031808)
 20:    589.40   0.003253   16.44  0.001722  (-0.039894  0.011429 -0.000005)
 21:    653.36   0.000430    2.17  0.000205  (-0.014026 -0.002930 -0.000001)
 22:    740.91   0.000396    2.00  0.000167  ( 0.000003 -0.000001 -0.012920)
 23:    781.07   0.001451    7.33  0.000580  (-0.021773  0.010273  0.000000)
 24:    816.23   0.004909   24.81  0.001877  ( 0.000000 -0.000002 -0.043323)
 25:    833.55   0.000532    2.69  0.000199  ( 0.000000 -0.000001 -0.014111)
 26:    869.34   0.000509    2.57  0.000183  (-0.009332  0.009783 -0.000041)
 27:    872.57   0.005237   26.47  0.001873  (-0.000013  0.000011  0.043280)
 28:    966.94   0.000289    1.46  0.000093  ( 0.000008  0.000004  0.009664)
 29:    968.82   0.004887   24.70  0.001574  ( 0.035936  0.016815  0.000000)
 30:    986.70   0.000544    2.75  0.000172  (-0.000003 -0.000002  0.013123)
 31:   1005.98   0.005228   26.42  0.001622  (-0.000004 -0.000004  0.040270)
 32:   1027.03   0.000034    0.17  0.000010  (-0.002371 -0.002196  0.000003)
 33:   1063.20   0.000013    0.06  0.000004  ( 0.000001 -0.000000 -0.001932)
 34:   1127.15   0.007932   40.08  0.002196  (-0.026189 -0.038860 -0.000000)
 35:   1129.98   0.002801   14.15  0.000773  ( 0.025471  0.011165  0.000002)
 36:   1141.69   0.000595    3.01  0.000163  ( 0.006219 -0.011137  0.000001)
 37:   1185.07   0.000110    0.56  0.000029  ( 0.000003  0.000001  0.005381)
 38:   1196.10   0.005452   27.55  0.001422  (-0.036627 -0.008993 -0.000000)
 39:   1217.66   0.000597    3.01  0.000153  ( 0.006756  0.010356 -0.000000)
 40:   1249.63   0.000271    1.37  0.000068  (-0.007799  0.002636 -0.000001)
 41:   1321.52   0.000778    3.93  0.000184  ( 0.011203 -0.007626  0.000000)
 42:   1324.39   0.000373    1.89  0.000088  ( 0.004542 -0.008207  0.000000)
 43:   1343.34   0.046950  237.26  0.010907  (-0.103914 -0.010412 -0.000003)
 44:   1347.80   0.020759  104.91  0.004806  (-0.069325 -0.000752 -0.000003)
 45:   1400.01   0.005552   28.06  0.001238  (-0.030446 -0.017625  0.000000)
 46:   1416.47   0.001937    9.79  0.000427  ( 0.020228  0.004190  0.000001)
 47:   1461.04   0.001945    9.83  0.000415  (-0.000000 -0.000000 -0.020381)
 48:   1473.99   0.002228   11.26  0.000472  (-0.009321  0.019616 -0.000003)
 49:   1480.33   0.000194    0.98  0.000041  (-0.003300 -0.005475  0.000053)
 50:   1480.97   0.001802    9.11  0.000380  ( 0.000031  0.000019  0.019485)
 51:   1484.76   0.007420   37.50  0.001560  (-0.039157 -0.005125  0.000009)
 52:   1499.79   0.007198   36.37  0.001498  (-0.038682  0.001155  0.000001)
 53:   1580.22   0.037285  188.42  0.007363  ( 0.085805 -0.000696  0.000003)
 54:   1656.05   0.002727   13.78  0.000514  ( 0.018643 -0.012897  0.000001)
 55:   1709.65   0.021578  109.05  0.003939  ( 0.062755 -0.000629  0.000003)
 56:   1761.84   0.000441    2.23  0.000078  (-0.007762  0.004229 -0.000001)
 57:   3008.70   0.014523   73.39  0.001506  (-0.033403 -0.019763  0.000000)
 58:   3018.51   0.008607   43.50  0.000890  ( 0.029830  0.000096 -0.000001)
 59:   3086.81   0.006534   33.02  0.000661  (-0.000001  0.000001  0.025702)
 60:   3089.84   0.002495   12.61  0.000252  ( 0.000002  0.000002  0.015874)
 61:   3128.98   0.001465    7.41  0.000146  ( 0.002113  0.011903 -0.000001)
 62:   3144.65   0.002682   13.56  0.000266  ( 0.011911 -0.011149  0.000002)
 63:   3161.83   0.004862   24.57  0.000480  ( 0.010393 -0.019282  0.000003)
 64:   3162.77   0.003543   17.91  0.000350  ( 0.017534 -0.006491  0.000001)
 65:   3190.78   0.002379   12.02  0.000233  ( 0.010566 -0.010999  0.000001)
 66:   3204.43   0.001198    6.05  0.000117  (-0.008672 -0.006435  0.000000)
 67:   3223.86   0.000915    4.62  0.000089  (-0.002784  0.008990 -0.000000)
 68:   3230.76   0.001640    8.29  0.000158  ( 0.010806  0.006457 -0.000000)

--------------------------
THERMOCHEMISTRY AT 298.15K
--------------------------

Temperature         ...   298.15 K
Pressure            ...     1.00 atm
Total Mass          ...   148.21 AMU
Quasi RRHO          ...     True
Cut-Off Frequency   ...     1.00 cm^-1

Throughout the following assumptions are being made:
  (1) The electronic state is orbitally nondegenerate
  (2) There are no thermally accessible electronically excited states
  (3) Hindered rotations indicated by low frequency modes are not
      treated as such but are treated as vibrations and this may
      cause some error
  (4) All equations used are the standard statistical mechanics
      equations for an ideal gas
  (5) All vibrations are strictly harmonic

freq.      41.18  E(vib)   ...       0.54
freq.      87.23  E(vib)   ...       0.48
freq.     121.53  E(vib)   ...       0.44
freq.     125.66  E(vib)   ...       0.43
freq.     190.42  E(vib)   ...       0.36
freq.     216.24  E(vib)   ...       0.34
freq.     248.96  E(vib)   ...       0.31
freq.     272.88  E(vib)   ...       0.29
freq.     320.92  E(vib)   ...       0.25
freq.     395.80  E(vib)   ...       0.20
freq.     410.27  E(vib)   ...       0.19
freq.     432.19  E(vib)   ...       0.18
freq.     480.46  E(vib)   ...       0.15
freq.     540.77  E(vib)   ...       0.12
freq.     589.40  E(vib)   ...       0.10
freq.     653.36  E(vib)   ...       0.08
freq.     740.91  E(vib)   ...       0.06
freq.     781.07  E(vib)   ...       0.05
freq.     816.23  E(vib)   ...       0.05
freq.     833.55  E(vib)   ...       0.04
freq.     869.34  E(vib)   ...       0.04
freq.     872.57  E(vib)   ...       0.04
freq.     966.94  E(vib)   ...       0.03
freq.     968.82  E(vib)   ...       0.03
freq.     986.70  E(vib)   ...       0.02
freq.    1005.98  E(vib)   ...       0.02
freq.    1027.03  E(vib)   ...       0.02
freq.    1063.20  E(vib)   ...       0.02
freq.    1127.15  E(vib)   ...       0.01
freq.    1129.98  E(vib)   ...       0.01
freq.    1141.69  E(vib)   ...       0.01
freq.    1185.07  E(vib)   ...       0.01
freq.    1196.10  E(vib)   ...       0.01
freq.    1217.66  E(vib)   ...       0.01
freq.    1249.63  E(vib)   ...       0.01
freq.    1321.52  E(vib)   ...       0.01
freq.    1324.39  E(vib)   ...       0.01
freq.    1343.34  E(vib)   ...       0.01
freq.    1347.80  E(vib)   ...       0.01
freq.    1400.01  E(vib)   ...       0.00
freq.    1416.47  E(vib)   ...       0.00
freq.    1461.04  E(vib)   ...       0.00
freq.    1473.99  E(vib)   ...       0.00
freq.    1480.33  E(vib)   ...       0.00
freq.    1480.97  E(vib)   ...       0.00
freq.    1484.76  E(vib)   ...       0.00
freq.    1499.79  E(vib)   ...       0.00
freq.    1580.22  E(vib)   ...       0.00
freq.    1656.05  E(vib)   ...       0.00
freq.    1709.65  E(vib)   ...       0.00
freq.    1761.84  E(vib)   ...       0.00
freq.    3008.70  E(vib)   ...       0.00
freq.    3018.51  E(vib)   ...       0.00
freq.    3086.81  E(vib)   ...       0.00
freq.    3089.84  E(vib)   ...       0.00
freq.    3128.98  E(vib)   ...       0.00
freq.    3144.65  E(vib)   ...       0.00
freq.    3161.83  E(vib)   ...       0.00
freq.    3162.77  E(vib)   ...       0.00
freq.    3190.78  E(vib)   ...       0.00
freq.    3204.43  E(vib)   ...       0.00
freq.    3223.86  E(vib)   ...       0.00
freq.    3230.76  E(vib)   ...       0.00

------------
INNER ENERGY
------------

The inner energy is: U= E(el) + E(ZPE) + E(vib) + E(rot) + E(trans)
    E(el)   - is the total energy from the electronic structure calculation
              = E(kin-el) + E(nuc-el) + E(el-el) + E(nuc-nuc)
    E(ZPE)  - the the zero temperature vibrational energy from the frequency calculation
    E(vib)  - the the finite temperature correction to E(ZPE) due to population
              of excited vibrational states
    E(rot)  - is the rotational thermal energy
    E(trans)- is the translational thermal energy

Summary of contributions to the inner energy U:
Electronic energy                ...   -462.60106689 Eh
Zero point energy                ...      0.19524126 Eh     122.52 kcal/mol
Thermal vibrational correction   ...      0.00795927 Eh       4.99 kcal/mol
Thermal rotational correction    ...      0.00141627 Eh       0.89 kcal/mol
Thermal translational correction ...      0.00141627 Eh       0.89 kcal/mol
-----------------------------------------------------------------------
Total thermal energy                   -462.39503382 Eh

Summary of corrections to the electronic energy:
(perhaps to be used in another calculation)
Total thermal correction                  0.01079181 Eh       6.77 kcal/mol
Non-thermal (ZPE) correction              0.19524126 Eh     122.52 kcal/mol
-----------------------------------------------------------------------
Total correction                          0.20603307 Eh     129.29 kcal/mol

--------
ENTHALPY
--------

The enthalpy is H = U + kB*T
                kB is Boltzmann's constant
Total thermal energy              ...   -462.39503382 Eh
Thermal Enthalpy correction       ...      0.00094421 Eh       0.59 kcal/mol
-----------------------------------------------------------------------
Total Enthalpy                    ...   -462.39408961 Eh

Note: Only C1 symmetry has been detected, increase convergence thresholds
      if your molecule has a higher symmetry. Symmetry factor of 1.0 is
      used for the rotational entropy correction.

Note: Rotational entropy computed according to Herzberg
Infrared and Raman Spectra, Chapter V,1, Van Nostrand Reinhold, 1945
Point Group:  C1, Symmetry Number:   1
Rotational constants in cm-1:     0.150473     0.015230     0.013903

Vibrational entropy computed according to the QRRHO of S. Grimme
Chem.Eur.J. 2012 18 9955 using a reference frequency of 100.0 cm-1

-------
ENTROPY
-------

The entropy contributions are T*S = T*(S(el)+S(vib)+S(rot)+S(trans))
     S(el)   - electronic entropy
     S(vib)  - vibrational entropy
     S(rot)  - rotational entropy
     S(trans)- translational entropy
The entropies will be listed as multiplied by the temperature to get
units of energy

Electronic entropy                ...      0.00000000 Eh      0.00 kcal/mol
Vibrational entropy               ...      0.01372802 Eh      8.61 kcal/mol
Rotational entropy                ...      0.01439888 Eh      9.04 kcal/mol
Translational entropy             ...      0.01942844 Eh     12.19 kcal/mol
-----------------------------------------------------------------------
Final entropy term                ...      0.04755534 Eh     29.84 kcal/mol

In case the symmetry of your molecule has not been determined correctly
or in case you have a reason to use a different symmetry number we print

                             ****ORCA TERMINATED NORMALLY****
TOTAL RUN TIME: 0 days 0 hours 8 minutes 40 seconds 678 msec
