                         Program Version 6.0.0  -   RELEASE  -
|  1> !r2SCANh aug-cc-pVTZ d3 TightSCF SlowConv RIJCOSX defgrid2
|  2>
|  3> %pal
|  4> nprocs 6
|  5> end
|  6>
|  7> %scf
|  8> MaxIter 1500
|  9> end
| 10>
| 11> %maxcore 3000
| 12>
| 13> !CPCM
| 14> %cpcm smd true
| 15> SMDsolvent "MeCN"
| 16> surfacetype gepol_ses
| 17> rsolv 2.19
| 18> end
| 19>
| 20> * xyz 0 1
| 21>   C          -3.63585826706225      2.04954257401693      0.47443381810844
| 22>   C          -4.87241983115698      1.42440470473132      0.35830383536464
| 23>   C          -2.46535713813143      1.38616628453744      0.08266169164053
| 24>   C          -2.55776657547918      0.09897886985960     -0.46306142975693
| 25>   C          -3.79978924952600     -0.51916986182258     -0.59803099874730
| 26>   C          -4.95599832971811      0.13746555345514     -0.17809343648610
| 27>   C          -1.17321606171113      2.13343259763450      0.18535792234855
| 28>   C           0.10741425373326      1.38186400208811      0.36860268391772
| 29>   C           1.28701662685068      1.98211173251186     -0.09199289471826
| 30>   C           2.51435831281490      1.35446088401070      0.08950879777202
| 31>   C           2.57960999330580      0.13076888041485      0.75971104026335
| 32>   C           1.41455681703054     -0.45984247248896      1.24776587112461
| 33>   C           0.18154991647772      0.15903136862244      1.04843910770257
| 34>   O          -1.16409607817297      3.34634804651925      0.11965758705371
| 35>   H          -3.86490029176021     -1.51883268544354     -1.03758855311185
| 36>   H          -5.92944194329363     -0.35260028721037     -0.27615452017651
| 37>   H          -3.54961418329670      3.06533225879298      0.86902811355696
| 38>   H          -5.77986414959084      1.94364611495317      0.68059448976304
| 39>   H          -1.65609565460764     -0.41312956350598     -0.80981363751728
| 40>   H          -0.72685535311036     -0.29990211983977      1.44815127666628
| 41>   H           3.54578493689968     -0.36081337126485      0.90876593254533
| 42>   H           1.46572642491924     -1.40813704309686      1.79081220626573
| 43>   H           1.21423966773037      2.95126688882692     -0.59239016424858
| 44>   H           3.42886668785525      1.82280543469765     -0.28640901233067
| 45> *
| 46>
| 47>                          ****END OF INPUT****

CARTESIAN COORDINATES (ANGSTROEM)
---------------------------------
  C     -3.635858    2.049543    0.474434
  C     -4.872420    1.424405    0.358304
  C     -2.465357    1.386166    0.082662
  C     -2.557767    0.098979   -0.463061
  C     -3.799789   -0.519170   -0.598031
  C     -4.955998    0.137466   -0.178093
  C     -1.173216    2.133433    0.185358
  C      0.107414    1.381864    0.368603
  C      1.287017    1.982112   -0.091993
  C      2.514358    1.354461    0.089509
  C      2.579610    0.130769    0.759711
  C      1.414557   -0.459842    1.247766
  C      0.181550    0.159031    1.048439
  O     -1.164096    3.346348    0.119658
  H     -3.864900   -1.518833   -1.037589
  H     -5.929442   -0.352600   -0.276155
  H     -3.549614    3.065332    0.869028
  H     -5.779864    1.943646    0.680594
  H     -1.656096   -0.413130   -0.809814
  H     -0.726855   -0.299902    1.448151
  H      3.545785   -0.360813    0.908766
  H      1.465726   -1.408137    1.790812
  H      1.214240    2.951267   -0.592390
  H      3.428867    1.822805   -0.286409

 Total Charge           Charge          ....    0
 Multiplicity           Mult            ....    1
 Number of Electrons    NEL             ....   96
 Basis Dimension        Dim             ....  874

ORBITAL ENERGIES
----------------

  NO   OCC          E(Eh)            E(eV)
   0   2.0000     -19.107994      -519.9549
   1   2.0000     -10.251413      -278.9551
   2   2.0000     -10.176253      -276.9099
   3   2.0000     -10.176236      -276.9094
   4   2.0000     -10.172513      -276.8082
   5   2.0000     -10.172470      -276.8070
   6   2.0000     -10.170112      -276.7428
   7   2.0000     -10.170086      -276.7421
   8   2.0000     -10.169482      -276.7257
   9   2.0000     -10.169470      -276.7253
  10   2.0000     -10.167108      -276.6611
  11   2.0000     -10.167081      -276.6603
  12   2.0000     -10.166864      -276.6544
  13   2.0000     -10.166834      -276.6536
  14   2.0000      -1.053496       -28.6671
  15   2.0000      -0.869514       -23.6607
  16   2.0000      -0.863666       -23.5016
  17   2.0000      -0.778446       -21.1826
  18   2.0000      -0.755855       -20.5679
  19   2.0000      -0.752882       -20.4870
  20   2.0000      -0.749124       -20.3847
  21   2.0000      -0.652416       -17.7531
  22   2.0000      -0.612697       -16.6723
  23   2.0000      -0.608003       -16.5446
  24   2.0000      -0.597141       -16.2490
  25   2.0000      -0.552360       -15.0305
  26   2.0000      -0.521791       -14.1986
  27   2.0000      -0.495579       -13.4854
  28   2.0000      -0.463622       -12.6158
  29   2.0000      -0.457459       -12.4481
  30   2.0000      -0.447993       -12.1905
  31   2.0000      -0.437248       -11.8981
  32   2.0000      -0.427160       -11.6236
  33   2.0000      -0.418574       -11.3900
  34   2.0000      -0.414902       -11.2901
  35   2.0000      -0.414601       -11.2819
  36   2.0000      -0.395824       -10.7709
  37   2.0000      -0.374272       -10.1845
  38   2.0000      -0.358814        -9.7638
  39   2.0000      -0.352797        -9.6001
  40   2.0000      -0.346549        -9.4301
  41   2.0000      -0.332828        -9.0567
  42   2.0000      -0.331493        -9.0204
  43   2.0000      -0.264816        -7.2060
  44   2.0000      -0.262600        -7.1457
  45   2.0000      -0.260960        -7.1011
  46   2.0000      -0.258862        -7.0440
  47   2.0000      -0.246297        -6.7021
  48   0.0000      -0.086540        -2.3549
  49   0.0000      -0.038466        -1.0467
  50   0.0000      -0.032905        -0.8954
  51   0.0000      -0.025391        -0.6909
  52   0.0000       0.007377         0.2007

MULLIKEN ATOMIC CHARGES
-----------------------
   0 C :   -1.297314
   1 C :   -0.474235
   2 C :    2.137860
   3 C :   -0.592565
   4 C :   -1.043485
   5 C :   -0.114129
   6 C :    0.735499
   7 C :    2.135704
   8 C :   -1.301670
   9 C :   -0.482012
  10 C :   -0.127979
  11 C :   -1.041150
  12 C :   -0.594867
  13 O :   -1.027226
  14 H :    0.441521
  15 H :    0.475296
  16 H :   -0.118162
  17 H :    0.541517
  18 H :    0.187851
  19 H :    0.183902
  20 H :    0.483724
  21 H :    0.443980
  22 H :   -0.123185
  23 H :    0.571125
Sum of atomic charges:    0.0000000

LOEWDIN ATOMIC CHARGES
----------------------
   0 C :    0.196449
   1 C :    0.204300
   2 C :   -0.141011
   3 C :    0.196991
   4 C :    0.209091
   5 C :    0.198946
   6 C :   -0.540274
   7 C :   -0.141006
   8 C :    0.196437
   9 C :    0.204303
  10 C :    0.198865
  11 C :    0.209080
  12 C :    0.197017
  13 O :    0.500270
  14 H :   -0.165584
  15 H :   -0.164964
  16 H :   -0.177484
  17 H :   -0.167174
  18 H :   -0.169528
  19 H :   -0.169377
  20 H :   -0.164979
  21 H :   -0.165569
  22 H :   -0.177652
  23 H :   -0.167145

  Mayer bond orders larger than 0.100000
B(  0-C ,  1-C ) :   1.1141 B(  0-C ,  2-C ) :  -0.3436 B(  0-C ,  3-C ) :  -0.5204
B(  0-C ,  4-C ) :   0.1553 B(  0-C ,  5-C ) :  -0.2140 B(  0-C ,  6-C ) :   0.3611
B(  0-C , 15-H ) :   0.1291 B(  0-C , 16-H ) :   1.5822 B(  0-C , 17-H ) :  -0.1496
B(  0-C , 18-H ) :   0.1005 B(  1-C ,  2-C ) :   0.1363 B(  1-C ,  3-C ) :  -0.1080
B(  1-C ,  4-C ) :   0.2032 B(  1-C ,  5-C ) :   1.0332 B(  1-C , 17-H ) :   0.4835
B(  1-C , 18-H ) :  -0.1331 B(  2-C ,  3-C ) :   0.4646 B(  2-C ,  4-C ) :  -0.1782
B(  2-C ,  6-C ) :   0.2680 B(  2-C ,  7-C ) :  -0.1324 B(  2-C , 16-H ) :  -0.2863
B(  3-C ,  4-C ) :   1.1795 B(  3-C ,  5-C ) :  -0.1239 B(  3-C ,  6-C ) :   0.2633
B(  3-C , 18-H ) :   1.3361 B(  3-C , 19-H ) :  -0.1109 B(  4-C ,  5-C ) :   1.2537
B(  4-C , 14-H ) :   0.5911 B(  5-C ,  6-C ) :   0.1566 B(  5-C , 15-H ) :   0.6256
B(  6-C ,  7-C ) :   0.2714 B(  6-C ,  8-C ) :   0.3499 B(  6-C , 10-C ) :   0.1516
B(  6-C , 12-C ) :   0.2596 B(  6-C , 13-O ) :   0.3625 B(  6-C , 16-H ) :  -0.1982
B(  6-C , 22-H ) :  -0.2017 B(  7-C ,  8-C ) :  -0.3385 B(  7-C ,  9-C ) :   0.1370
B(  7-C , 11-C ) :  -0.1706 B(  7-C , 12-C ) :   0.4694 B(  7-C , 22-H ) :  -0.2874
B(  8-C ,  9-C ) :   1.1319 B(  8-C , 10-C ) :  -0.2150 B(  8-C , 11-C ) :   0.1541
B(  8-C , 12-C ) :  -0.5196 B(  8-C , 19-H ) :   0.1030 B(  8-C , 20-H ) :   0.1298
B(  8-C , 22-H ) :   1.5975 B(  8-C , 23-H ) :  -0.1485 B(  9-C , 10-C ) :   1.0477
B(  9-C , 11-C ) :   0.2129 B(  9-C , 12-C ) :  -0.1139 B(  9-C , 19-H ) :  -0.1360
B(  9-C , 23-H ) :   0.4318 B( 10-C , 11-C ) :   1.2664 B( 10-C , 12-C ) :  -0.1238
B( 10-C , 20-H ) :   0.6108 B( 11-C , 12-C ) :   1.1733 B( 11-C , 21-H ) :   0.5824
B( 12-C , 18-H ) :  -0.1127 B( 12-C , 19-H ) :   1.3419 B( 13-O , 16-H ) :   0.2943
B( 13-O , 22-H ) :   0.2950 B( 16-H , 18-H ) :   0.1503 B( 19-H , 22-H ) :   0.1562

Dispersion correction           -0.009653059
FINAL SINGLE POINT ENERGY      -576.505302988101

DIPOLE MOMENT
-------------

Method             : SCF
Type of density    : Electron Density
Multiplicity       :   1
Irrep              :   0
Energy             :  -576.4956499287599172 Eh
Relativity type    :
Basis              : AO
                                X                 Y                 Z
Electronic contribution:      0.023392042       3.137023584      -0.164918919
Nuclear contribution   :     -0.036869412      -4.873128971       0.257597129
                        -----------------------------------------
Total Dipole Moment    :     -0.013477370      -1.736105387       0.092678210
                        -----------------------------------------
Magnitude (a.u.)       :      1.738629576
Magnitude (Debye)      :      4.419245180

Rotational constants in cm-1:             0.057049             0.013730             0.011699
Rotational constants in MHz :          1710.297566           411.601828           350.719713

                             ****ORCA TERMINATED NORMALLY****
TOTAL RUN TIME: 0 days 0 hours 6 minutes 28 seconds 575 msec
