                         Program Version 6.0.0  -   RELEASE  -
|  1> !r2SCANh freq aug-cc-pVTZ d3 TightSCF SlowConv RIJCOSX defgrid2
|  2>
|  3> %pal
|  4> nprocs 12
|  5> end
|  6>
|  7> %scf
|  8> MaxIter 1500
|  9> end
| 10>
| 11> %maxcore 5000
| 12>
| 13> !CPCM
| 14> %cpcm smd true
| 15> SMDsolvent "MeCN"
| 16> surfacetype gepol_ses
| 17> rsolv 2.19
| 18> end
| 19>
| 20> * xyz 1 2
| 21> C           1.35565965414634     -0.82702449870308      0.61795481559362
| 22> C           2.61786293488925     -1.37413943886316      0.63487598131611
| 23> C           3.69585593391163     -0.67822126887072      0.08377083216066
| 24> C           3.51618115853643      0.59409543276557     -0.46893556895484
| 25> C           2.26829918800555      1.16844399222909     -0.48252738333025
| 26> C           1.18950496098331      0.43706156067274      0.03227469090513
| 27> O           0.00006100559525      1.07216505110060     -0.00113422220020
| 28> C          -1.18944434116860      0.43690700599692     -0.03334562049957
| 29> C          -2.26790775912053      1.16823309276808      0.48210961353721
| 30> C          -3.51580015168097      0.59378226422693      0.46950992202245
| 31> C          -3.69589236547201     -0.67846778161349     -0.08313307905686
| 32> C          -2.61823534456393     -1.37439609409263     -0.63481252333289
| 33> C          -1.35602132292778     -0.82724734913146     -0.61860427060136
| 34> H          -0.52532133125803     -1.32504625221012     -1.09522887970439
| 35> H          -2.77735712633487     -2.33486169926040     -1.10233129126672
| 36> H          -4.68301029766956     -1.11686595338393     -0.10716542260888
| 37> H          -4.35803089017536      1.12709115390166      0.88486875289218
| 38> H          -2.08824652411231      2.14702125352818      0.90207488470306
| 39> H           2.08884633519443      2.14721821582017     -0.90260939000071
| 40> H           4.35872893824313      1.12749510159755     -0.88352181237540
| 41> H           4.68294730834989     -1.11664942868380      0.10834886521849
| 42> H           2.77677999402453     -2.33457228912105      1.10253049491264
| 43> H           0.52457084260424     -1.32426637067365      1.09449621067052
| 44> *
| 45>
| 46>                          ****END OF INPUT****

CARTESIAN COORDINATES (ANGSTROEM)
---------------------------------
  C      1.355660   -0.827024    0.617955
  C      2.617863   -1.374139    0.634876
  C      3.695856   -0.678221    0.083771
  C      3.516181    0.594095   -0.468936
  C      2.268299    1.168444   -0.482527
  C      1.189505    0.437062    0.032275
  O      0.000061    1.072165   -0.001134
  C     -1.189444    0.436907   -0.033346
  C     -2.267908    1.168233    0.482110
  C     -3.515800    0.593782    0.469510
  C     -3.695892   -0.678468   -0.083133
  C     -2.618235   -1.374396   -0.634813
  C     -1.356021   -0.827247   -0.618604
  H     -0.525321   -1.325046   -1.095229
  H     -2.777357   -2.334862   -1.102331
  H     -4.683010   -1.116866   -0.107165
  H     -4.358031    1.127091    0.884869
  H     -2.088247    2.147021    0.902075
  H      2.088846    2.147218   -0.902609
  H      4.358729    1.127495   -0.883522
  H      4.682947   -1.116649    0.108349
  H      2.776780   -2.334572    1.102530
  H      0.524571   -1.324266    1.094496

 Total Charge           Charge          ....    1
 Multiplicity           Mult            ....    2
 Number of Electrons    NEL             ....   89
 Basis Dimension        Dim             ....  828

ORBITAL ENERGIES
----------------
                 SPIN UP ORBITALS
  NO   OCC          E(Eh)            E(eV)
   0   1.0000     -19.252608      -523.8901
   1   1.0000     -10.276950      -279.6500
   2   1.0000     -10.276868      -279.6478
   3   1.0000     -10.200999      -277.5833
   4   1.0000     -10.200950      -277.5820
   5   1.0000     -10.199437      -277.5408
   6   1.0000     -10.199356      -277.5386
   7   1.0000     -10.196807      -277.4692
   8   1.0000     -10.196762      -277.4680
   9   1.0000     -10.189388      -277.2674
  10   1.0000     -10.189340      -277.2660
  11   1.0000     -10.189312      -277.2653
  12   1.0000     -10.189276      -277.2643
  13   1.0000      -1.176857       -32.0239
  14   1.0000      -0.910157       -24.7666
  15   1.0000      -0.891282       -24.2530
  16   1.0000      -0.814300       -22.1582
  17   1.0000      -0.792716       -21.5709
  18   1.0000      -0.785424       -21.3725
  19   1.0000      -0.762610       -20.7517
  20   1.0000      -0.685695       -18.6587
  21   1.0000      -0.654720       -17.8158
  22   1.0000      -0.634976       -17.2786
  23   1.0000      -0.610173       -16.6037
  24   1.0000      -0.579710       -15.7747
  25   1.0000      -0.535504       -14.5718
  26   1.0000      -0.518856       -14.1188
  27   1.0000      -0.517702       -14.0874
  28   1.0000      -0.509706       -13.8698
  29   1.0000      -0.466960       -12.7066
  30   1.0000      -0.463911       -12.6237
  31   1.0000      -0.450422       -12.2566
  32   1.0000      -0.449786       -12.2393
  33   1.0000      -0.440191       -11.9782
  34   1.0000      -0.435103       -11.8398
  35   1.0000      -0.403275       -10.9737
  36   1.0000      -0.387407       -10.5419
  37   1.0000      -0.386340       -10.5129
  38   1.0000      -0.377860       -10.2821
  39   1.0000      -0.360395        -9.8068
  40   1.0000      -0.358137        -9.7454
  41   1.0000      -0.296213        -8.0604
  42   1.0000      -0.291622        -7.9354
  43   1.0000      -0.287206        -7.8153
  44   1.0000      -0.264420        -7.1952
  45   0.0000      -0.070457        -1.9172
  46   0.0000      -0.057098        -1.5537
  47   0.0000      -0.050400        -1.3715
  48   0.0000      -0.043785        -1.1915
  49   0.0000       0.005914         0.1609

                 SPIN DOWN ORBITALS
  NO   OCC          E(Eh)            E(eV)
   0   1.0000     -19.243949      -523.6545
   1   1.0000     -10.276142      -279.6280
   2   1.0000     -10.276065      -279.6260
   3   1.0000     -10.198695      -277.5206
   4   1.0000     -10.198650      -277.5194
   5   1.0000     -10.195240      -277.4266
   6   1.0000     -10.195172      -277.4247
   7   1.0000     -10.194816      -277.4151
   8   1.0000     -10.194777      -277.4140
   9   1.0000     -10.190725      -277.3037
  10   1.0000     -10.190674      -277.3023
  11   1.0000     -10.190476      -277.2969
  12   1.0000     -10.190436      -277.2959
  13   1.0000      -1.163938       -31.6724
  14   1.0000      -0.905147       -24.6303
  15   1.0000      -0.885986       -24.1089
  16   1.0000      -0.809330       -22.0230
  17   1.0000      -0.790078       -21.4991
  18   1.0000      -0.783082       -21.3087
  19   1.0000      -0.752071       -20.4649
  20   1.0000      -0.679384       -18.4870
  21   1.0000      -0.652968       -17.7682
  22   1.0000      -0.631570       -17.1859
  23   1.0000      -0.606610       -16.5067
  24   1.0000      -0.577769       -15.7219
  25   1.0000      -0.532870       -14.5001
  26   1.0000      -0.514706       -14.0059
  27   1.0000      -0.509345       -13.8600
  28   1.0000      -0.498206       -13.5569
  29   1.0000      -0.462160       -12.5760
  30   1.0000      -0.461605       -12.5609
  31   1.0000      -0.448272       -12.1981
  32   1.0000      -0.447975       -12.1900
  33   1.0000      -0.435165       -11.8414
  34   1.0000      -0.428735       -11.6665
  35   1.0000      -0.392572       -10.6824
  36   1.0000      -0.386121       -10.5069
  37   1.0000      -0.377003       -10.2588
  38   1.0000      -0.371590       -10.1115
  39   1.0000      -0.355530        -9.6745
  40   1.0000      -0.354195        -9.6381
  41   1.0000      -0.287820        -7.8320
  42   1.0000      -0.282984        -7.7004
  43   1.0000      -0.270906        -7.3717
  44   0.0000      -0.212632        -5.7860
  45   0.0000      -0.056002        -1.5239
  46   0.0000      -0.048912        -1.3310
  47   0.0000      -0.041738        -1.1357
  48   0.0000      -0.024376        -0.6633

MULLIKEN ATOMIC CHARGES AND SPIN POPULATIONS
--------------------------------------------
   0 C :   -0.328025    0.127896
   1 C :   -0.673690   -0.101287
   2 C :   -0.466990    0.264549
   3 C :   -0.380493   -0.090186
   4 C :   -1.122437    0.107096
   5 C :    1.463690    0.064439
   6 O :   -0.733655    0.240299
   7 C :    1.463523    0.064101
   8 C :   -1.128698    0.106922
   9 C :   -0.375648   -0.089915
  10 C :   -0.464654    0.263879
  11 C :   -0.670727   -0.101234
  12 C :   -0.329628    0.127781
  13 H :    0.592294    0.007940
  14 H :    0.362933    0.000276
  15 H :    0.534859    0.006660
  16 H :    0.369536   -0.001518
  17 H :    0.512632   -0.005640
  18 H :    0.513557   -0.005557
  19 H :    0.370524   -0.001502
  20 H :    0.536297    0.006693
  21 H :    0.362056    0.000237
  22 H :    0.592744    0.008069
Sum of atomic charges         :    1.0000000

LOEWDIN ATOMIC CHARGES AND SPIN POPULATIONS
-------------------------------------------
   0 C :    0.249314    0.069871
   1 C :    0.251513    0.018284
   2 C :    0.258084    0.111612
   3 C :    0.243898    0.020730
   4 C :    0.259528    0.060894
   5 C :   -0.320430    0.083126
   6 O :    0.688749    0.190970
   7 C :   -0.320532    0.082871
   8 C :    0.259430    0.060726
   9 C :    0.243798    0.020678
  10 C :    0.257949    0.111285
  11 C :    0.251404    0.018203
  12 C :    0.249149    0.069714
  13 H :   -0.161823    0.013210
  14 H :   -0.156966   -0.005906
  15 H :   -0.155247    0.027609
  16 H :   -0.158990   -0.005207
  17 H :   -0.152945    0.010757
  18 H :   -0.152916    0.010785
  19 H :   -0.158966   -0.005224
  20 H :   -0.155202    0.027686
  21 H :   -0.156951   -0.005913
  22 H :   -0.161847    0.013238

  Mayer bond orders larger than 0.100000
B(  0-C ,  1-C ) :   1.1615 B(  0-C ,  2-C ) :   0.1351 B(  0-C ,  4-C ) :   0.2581
B(  0-C ,  5-C ) :   0.7006 B(  0-C , 12-C ) :   0.1875 B(  0-C , 13-H ) :  -0.1070
B(  0-C , 22-H ) :   0.3986 B(  1-C ,  2-C ) :   1.1795 B(  1-C ,  3-C ) :  -0.1394
B(  1-C ,  4-C ) :  -0.1533 B(  1-C ,  5-C ) :  -0.3436 B(  1-C , 21-H ) :   0.8400
B(  2-C ,  3-C ) :   1.0727 B(  2-C ,  4-C ) :   0.4066 B(  2-C ,  5-C ) :  -0.1606
B(  2-C , 20-H ) :   0.5118 B(  3-C ,  4-C ) :   1.3229 B(  3-C ,  5-C ) :  -0.3885
B(  3-C , 19-H ) :   0.8252 B(  4-C ,  5-C ) :   0.1473 B(  4-C ,  6-O ) :   0.2436
B(  4-C , 18-H ) :   0.3041 B(  5-C ,  6-O ) :   0.5993 B(  5-C ,  7-C ) :   0.1063
B(  6-O ,  7-C ) :   0.5990 B(  6-O ,  8-C ) :   0.2440 B(  7-C ,  8-C ) :   0.1483
B(  7-C ,  9-C ) :  -0.3879 B(  7-C , 10-C ) :  -0.1602 B(  7-C , 11-C ) :  -0.3427
B(  7-C , 12-C ) :   0.7007 B(  8-C ,  9-C ) :   1.3296 B(  8-C , 10-C ) :   0.4067
B(  8-C , 11-C ) :  -0.1531 B(  8-C , 12-C ) :   0.2582 B(  8-C , 17-H ) :   0.3057
B(  9-C , 10-C ) :   1.0717 B(  9-C , 11-C ) :  -0.1394 B(  9-C , 16-H ) :   0.8254
B( 10-C , 11-C ) :   1.1772 B( 10-C , 12-C ) :   0.1348 B( 10-C , 15-H ) :   0.5143
B( 11-C , 12-C ) :   1.1630 B( 11-C , 14-H ) :   0.8387 B( 12-C , 13-H ) :   0.4000
B( 12-C , 22-H ) :  -0.1081

Dispersion correction           -0.008652625
FINAL SINGLE POINT ENERGY      -538.178434900818

DIPOLE MOMENT
-------------

Method             : SCF
Type of density    : Electron Density
Multiplicity       :   2
Irrep              :   0
Energy             :  -538.1697822755771767 Eh
Relativity type    :
Basis              : AO
                                X                 Y                 Z
Electronic contribution:      0.004429255       2.188327669      -0.002351398
Nuclear contribution   :     -0.000176307      -2.679310721       0.002847585
                        -----------------------------------------
Total Dipole Moment    :      0.004252948      -0.490983052       0.000496188
                        -----------------------------------------
Magnitude (a.u.)       :      0.491001722
Magnitude (Debye)      :      1.248027195

VIBRATIONAL FREQUENCIES
-----------------------

Scaling factor for frequencies =  1.000000000  (already applied!)

     0:       0.00 cm**-1
     1:       0.00 cm**-1
     2:       0.00 cm**-1
     3:       0.00 cm**-1
     4:       0.00 cm**-1
     5:       0.00 cm**-1
     6:      12.41 cm**-1
     7:      40.03 cm**-1
     8:      91.50 cm**-1
     9:     213.24 cm**-1
    10:     227.07 cm**-1
    11:     317.88 cm**-1
    12:     361.18 cm**-1
    13:     391.62 cm**-1
    14:     411.02 cm**-1
    15:     471.57 cm**-1
    16:     473.77 cm**-1
    17:     554.79 cm**-1
    18:     587.56 cm**-1
    19:     602.47 cm**-1
    20:     639.83 cm**-1
    21:     667.10 cm**-1
    22:     668.58 cm**-1
    23:     774.58 cm**-1
    24:     779.03 cm**-1
    25:     812.32 cm**-1
    26:     814.08 cm**-1
    27:     828.97 cm**-1
    28:     894.36 cm**-1
    29:     942.94 cm**-1
    30:     951.60 cm**-1
    31:     988.39 cm**-1
    32:    1002.85 cm**-1
    33:    1004.33 cm**-1
    34:    1018.88 cm**-1
    35:    1021.35 cm**-1
    36:    1022.35 cm**-1
    37:    1029.69 cm**-1
    38:    1032.73 cm**-1
    39:    1068.55 cm**-1
    40:    1109.92 cm**-1
    41:    1115.55 cm**-1
    42:    1165.59 cm**-1
    43:    1166.84 cm**-1
    44:    1182.18 cm**-1
    45:    1215.39 cm**-1
    46:    1254.46 cm**-1
    47:    1329.16 cm**-1
    48:    1346.20 cm**-1
    49:    1395.43 cm**-1
    50:    1397.34 cm**-1
    51:    1471.99 cm**-1
    52:    1485.06 cm**-1
    53:    1496.59 cm**-1
    54:    1502.60 cm**-1
    55:    1563.83 cm**-1
    56:    1569.16 cm**-1
    57:    1585.54 cm**-1
    58:    1652.40 cm**-1
    59:    3214.14 cm**-1
    60:    3214.29 cm**-1
    61:    3221.60 cm**-1
    62:    3222.12 cm**-1
    63:    3226.13 cm**-1
    64:    3227.39 cm**-1
    65:    3232.75 cm**-1
    66:    3234.43 cm**-1
    67:    3235.69 cm**-1
    68:    3237.39 cm**-1

IR SPECTRUM
-----------

 Mode   freq       eps      Int      T**2         TX        TY        TZ
       cm**-1   L/(mol*cm) km/mol    a.u.
----------------------------------------------------------------------------
  6:     12.41   0.000030    0.15  0.000748  (-0.002781 -0.027207 -0.000315)
  7:     40.03   0.011064   55.91  0.086254  ( 0.289276 -0.000043  0.050733)
  8:     91.50   0.000051    0.26  0.000174  (-0.000094 -0.013204 -0.000000)
  9:    213.24   0.068545  346.40  0.100310  (-0.316455 -0.000013 -0.012872)
 10:    227.07   0.000003    0.01  0.000004  (-0.001668 -0.001055 -0.000056)
 11:    317.88   0.000134    0.68  0.000132  (-0.000327  0.011464 -0.000019)
 12:    361.18   0.032221  162.83  0.027840  ( 0.165543  0.000002  0.020861)
 13:    391.62   0.030516  154.22  0.024317  ( 0.155888  0.000010  0.003957)
 14:    411.02   0.000042    0.21  0.000032  (-0.000590  0.005623  0.000002)
 15:    471.57   0.001339    6.77  0.000886  (-0.004109  0.029482  0.000056)
 16:    473.77   0.209315  1057.79  0.137872  (-0.371188 -0.000368  0.009565)
 17:    554.79   0.115455  583.46  0.064942  (-0.253320  0.000025 -0.027775)
 18:    587.56   0.000157    0.79  0.000083  (-0.000268 -0.009126 -0.000097)
 19:    602.47   0.018844   95.23  0.009760  (-0.097163  0.000033 -0.017884)
 20:    639.83   0.000437    2.21  0.000213  ( 0.000059 -0.014602 -0.000060)
 21:    667.10   0.021512  108.71  0.010063  ( 0.013737 -0.001713 -0.099354)
 22:    668.58   0.005828   29.45  0.002720  ( 0.000268  0.052050 -0.003322)
 23:    774.58   0.001188    6.01  0.000479  (-0.000751  0.021861 -0.000526)
 24:    779.03   0.124906  631.22  0.050035  ( 0.196872  0.000085  0.106191)
 25:    812.32   0.005000   25.27  0.001921  ( 0.000035 -0.043825 -0.000028)
 26:    814.08   0.056446  285.25  0.021638  (-0.146500  0.000129  0.013241)
 27:    828.97   0.001400    7.08  0.000527  (-0.000517 -0.022954  0.000021)
 28:    894.36   0.101295  511.90  0.035344  ( 0.187981  0.000028  0.002673)
 29:    942.94   0.061345  310.01  0.020302  ( 0.139082 -0.000015  0.030953)
 30:    951.60   0.001240    6.27  0.000407  ( 0.000003 -0.020165 -0.000050)
 31:    988.39   0.706313  3569.42  0.223003  ( 0.472210  0.000017  0.004546)
 32:   1002.85   0.000006    0.03  0.000002  ( 0.000438 -0.000008  0.001307)
 33:   1004.33   0.000000    0.00  0.000000  (-0.000193 -0.000060  0.000030)
 34:   1018.88   0.000028    0.14  0.000009  (-0.000250  0.002934 -0.000022)
 35:   1021.35   0.000088    0.45  0.000027  (-0.000229 -0.005184  0.000125)
 36:   1022.35   0.000229    1.16  0.000070  ( 0.007163 -0.000172 -0.004298)
 37:   1029.69   0.019078   96.41  0.005782  (-0.076036  0.000021 -0.000775)
 38:   1032.73   0.000002    0.01  0.000001  ( 0.000735 -0.000357  0.000003)
 39:   1068.55   0.774275  3912.87  0.226123  (-0.475436 -0.000001 -0.009121)
 40:   1109.92   0.004333   21.90  0.001218  (-0.023648 -0.000053 -0.025670)
 41:   1115.55   0.006558   33.14  0.001834  ( 0.000072  0.042830 -0.000032)
 42:   1165.59   0.000138    0.70  0.000037  ( 0.000062 -0.006081 -0.000008)
 43:   1166.84   0.000334    1.69  0.000089  (-0.008684 -0.000029  0.003736)
 44:   1182.18   0.000201    1.02  0.000053  ( 0.000008  0.007291  0.000001)
 45:   1215.39   0.103532  523.21  0.026583  (-0.163019  0.000013 -0.002757)
 46:   1254.46   0.001444    7.30  0.000359  ( 0.000432  0.018951 -0.000005)
 47:   1329.16   0.000576    2.91  0.000135  (-0.011099  0.000005  0.003457)
 48:   1346.20   0.000548    2.77  0.000127  (-0.000039  0.011268  0.000003)
 49:   1395.43   0.019538   98.74  0.004369  ( 0.063653 -0.000754 -0.017809)
 50:   1397.34   0.007193   36.35  0.001607  (-0.001317 -0.040058  0.000371)
 51:   1471.99   0.047199  238.53  0.010006  (-0.099992 -0.000061  0.002798)
 52:   1485.06   0.001083    5.47  0.000228  ( 0.001644 -0.000061 -0.014998)
 53:   1496.59   0.000000    0.00  0.000000  ( 0.000187  0.000213  0.000063)
 54:   1502.60   0.010700   54.07  0.002222  (-0.000198  0.047140 -0.000047)
 55:   1563.83   0.076624  387.22  0.015290  (-0.123437 -0.000387  0.007306)
 56:   1569.16   0.002003   10.12  0.000398  (-0.002651  0.019783  0.000119)
 57:   1585.54   0.517839  2616.94  0.101920  ( 0.319055 -0.000020  0.011143)
 58:   1652.40   0.000081    0.41  0.000015  ( 0.000036 -0.003918  0.000001)
 59:   3214.14   0.000905    4.57  0.000088  (-0.009366 -0.000245  0.000289)
 60:   3214.29   0.000051    0.26  0.000005  ( 0.001875 -0.001215 -0.000063)
 61:   3221.60   0.001063    5.37  0.000103  (-0.007808  0.000457  0.006468)
 62:   3222.12   0.001435    7.25  0.000139  ( 0.000294  0.011781 -0.000258)
 63:   3226.13   0.000002    0.01  0.000000  (-0.000374  0.000092  0.000033)
 64:   3227.39   0.000697    3.52  0.000067  ( 0.000077  0.008210 -0.000000)
 65:   3232.75   0.005229   26.43  0.000505  (-0.022468  0.000024  0.000065)
 66:   3234.43   0.000300    1.52  0.000029  ( 0.000680  0.005340  0.000010)
 67:   3235.69   0.040151  202.91  0.003872  (-0.062211  0.000060 -0.001467)
 68:   3237.39   0.000007    0.04  0.000001  ( 0.000514  0.000644  0.000015)

--------------------------
THERMOCHEMISTRY AT 298.15K
--------------------------

Temperature         ...   298.15 K
Pressure            ...     1.00 atm
Total Mass          ...   170.21 AMU
Quasi RRHO          ...     True
Cut-Off Frequency   ...     1.00 cm^-1

Throughout the following assumptions are being made:
  (1) The electronic state is orbitally nondegenerate
      but the spin degeneracy is treated
  (2) There are no thermally accessible electronically excited states
  (3) Hindered rotations indicated by low frequency modes are not
      treated as such but are treated as vibrations and this may
      cause some error
  (4) All equations used are the standard statistical mechanics
      equations for an ideal gas
  (5) All vibrations are strictly harmonic

freq.      12.41  E(vib)   ...       0.57
freq.      40.03  E(vib)   ...       0.54
freq.      91.50  E(vib)   ...       0.47
freq.     213.24  E(vib)   ...       0.34
freq.     227.07  E(vib)   ...       0.33
freq.     317.88  E(vib)   ...       0.25
freq.     361.18  E(vib)   ...       0.22
freq.     391.62  E(vib)   ...       0.20
freq.     411.02  E(vib)   ...       0.19
freq.     471.57  E(vib)   ...       0.15
freq.     473.77  E(vib)   ...       0.15
freq.     554.79  E(vib)   ...       0.12
freq.     587.56  E(vib)   ...       0.10
freq.     602.47  E(vib)   ...       0.10
freq.     639.83  E(vib)   ...       0.09
freq.     667.10  E(vib)   ...       0.08
freq.     668.58  E(vib)   ...       0.08
freq.     774.58  E(vib)   ...       0.05
freq.     779.03  E(vib)   ...       0.05
freq.     812.32  E(vib)   ...       0.05
freq.     814.08  E(vib)   ...       0.05
freq.     828.97  E(vib)   ...       0.04
freq.     894.36  E(vib)   ...       0.03
freq.     942.94  E(vib)   ...       0.03
freq.     951.60  E(vib)   ...       0.03
freq.     988.39  E(vib)   ...       0.02
freq.    1002.85  E(vib)   ...       0.02
freq.    1004.33  E(vib)   ...       0.02
freq.    1018.88  E(vib)   ...       0.02
freq.    1021.35  E(vib)   ...       0.02
freq.    1022.35  E(vib)   ...       0.02
freq.    1029.69  E(vib)   ...       0.02
freq.    1032.73  E(vib)   ...       0.02
freq.    1068.55  E(vib)   ...       0.02
freq.    1109.92  E(vib)   ...       0.02
freq.    1115.55  E(vib)   ...       0.01
freq.    1165.59  E(vib)   ...       0.01
freq.    1166.84  E(vib)   ...       0.01
freq.    1182.18  E(vib)   ...       0.01
freq.    1215.39  E(vib)   ...       0.01
freq.    1254.46  E(vib)   ...       0.01
freq.    1329.16  E(vib)   ...       0.01
freq.    1346.20  E(vib)   ...       0.01
freq.    1395.43  E(vib)   ...       0.00
freq.    1397.34  E(vib)   ...       0.00
freq.    1471.99  E(vib)   ...       0.00
freq.    1485.06  E(vib)   ...       0.00
freq.    1496.59  E(vib)   ...       0.00
freq.    1502.60  E(vib)   ...       0.00
freq.    1563.83  E(vib)   ...       0.00
freq.    1569.16  E(vib)   ...       0.00
freq.    1585.54  E(vib)   ...       0.00
freq.    1652.40  E(vib)   ...       0.00
freq.    3214.14  E(vib)   ...       0.00
freq.    3214.29  E(vib)   ...       0.00
freq.    3221.60  E(vib)   ...       0.00
freq.    3222.12  E(vib)   ...       0.00
freq.    3226.13  E(vib)   ...       0.00
freq.    3227.39  E(vib)   ...       0.00
freq.    3232.75  E(vib)   ...       0.00
freq.    3234.43  E(vib)   ...       0.00
freq.    3235.69  E(vib)   ...       0.00
freq.    3237.39  E(vib)   ...       0.00

------------
INNER ENERGY
------------

The inner energy is: U= E(el) + E(ZPE) + E(vib) + E(rot) + E(trans)
    E(el)   - is the total energy from the electronic structure calculation
              = E(kin-el) + E(nuc-el) + E(el-el) + E(nuc-nuc)
    E(ZPE)  - the the zero temperature vibrational energy from the frequency calculation
    E(vib)  - the the finite temperature correction to E(ZPE) due to population
              of excited vibrational states
    E(rot)  - is the rotational thermal energy
    E(trans)- is the translational thermal energy

Summary of contributions to the inner energy U:
Electronic energy                ...   -538.17843490 Eh
Zero point energy                ...      0.18450832 Eh     115.78 kcal/mol
Thermal vibrational correction   ...      0.00738536 Eh       4.63 kcal/mol
Thermal rotational correction    ...      0.00141627 Eh       0.89 kcal/mol
Thermal translational correction ...      0.00141627 Eh       0.89 kcal/mol
-----------------------------------------------------------------------
Total thermal energy                   -537.98370868 Eh

Summary of corrections to the electronic energy:
(perhaps to be used in another calculation)
Total thermal correction                  0.01021790 Eh       6.41 kcal/mol
Non-thermal (ZPE) correction              0.18450832 Eh     115.78 kcal/mol
-----------------------------------------------------------------------
Total correction                          0.19472622 Eh     122.19 kcal/mol

--------
ENTHALPY
--------

The enthalpy is H = U + kB*T
                kB is Boltzmann's constant
Total thermal energy              ...   -537.98370868 Eh
Thermal Enthalpy correction       ...      0.00094421 Eh       0.59 kcal/mol
-----------------------------------------------------------------------
Total Enthalpy                    ...   -537.98276447 Eh

Note: Only C1 symmetry has been detected, increase convergence thresholds
      if your molecule has a higher symmetry. Symmetry factor of 1.0 is
      used for the rotational entropy correction.

Note: Rotational entropy computed according to Herzberg
Infrared and Raman Spectra, Chapter V,1, Van Nostrand Reinhold, 1945
Point Group:  C1, Symmetry Number:   1
Rotational constants in cm-1:     0.082632     0.014828     0.013328

Vibrational entropy computed according to the QRRHO of S. Grimme
Chem.Eur.J. 2012 18 9955 using a reference frequency of 100.0 cm-1

-------
ENTROPY
-------

The entropy contributions are T*S = T*(S(el)+S(vib)+S(rot)+S(trans))
     S(el)   - electronic entropy
     S(vib)  - vibrational entropy
     S(rot)  - rotational entropy
     S(trans)- translational entropy
The entropies will be listed as multiplied by the temperature to get
units of energy

Electronic entropy                ...      0.00065446 Eh      0.41 kcal/mol
Vibrational entropy               ...      0.01279138 Eh      8.03 kcal/mol
Rotational entropy                ...      0.01471444 Eh      9.23 kcal/mol
Translational entropy             ...      0.01962451 Eh     12.31 kcal/mol
-----------------------------------------------------------------------
Final entropy term                ...      0.04778479 Eh     29.99 kcal/mol

In case the symmetry of your molecule has not been determined correctly

                             ****ORCA TERMINATED NORMALLY****
TOTAL RUN TIME: 0 days 2 hours 25 minutes 49 seconds 503 msec
