                         Program Version 6.0.0  -   RELEASE  -
|  1> !B3LYP aug-cc-pVTZ d3 TightSCF SlowConv RIJCOSX defgrid2
|  2>
|  3> %pal
|  4> nprocs 4
|  5> end
|  6>
|  7> %scf
|  8> MaxIter 1500
|  9> end
| 10>
| 11> %maxcore 3000
| 12>
| 13> !CPCM
| 14> %cpcm smd true
| 15> SMDsolvent "MeCN"
| 16> surfacetype gepol_ses
| 17> rsolv 2.19
| 18> end
| 19>
| 20> * xyz 0 1
| 21> C           0.86930262577353     -1.20261880029345      0.00017105333715
| 22> C           1.23795362702926      0.14976029336823      0.00011888618076
| 23> C           0.20861669065532      1.10178711313028      0.00004997159606
| 24> C          -1.14266539481067      0.75277814049696     -0.00001496332606
| 25> C          -1.49510132454858     -0.61091836423424      0.00001993066330
| 26> C          -0.47134803669840     -1.56560486246111      0.00011663608289
| 27> H          -0.73825756953350     -2.62759517616832      0.00016986000597
| 28> C          -2.93561352812274     -1.03199819846802     -0.00003268925957
| 29> H          -3.03042597379354     -2.12984128685189      0.00005376751285
| 30> H          -3.47239583982485     -0.64683793793607     -0.88649052066934
| 31> H          -3.47250072897996     -0.64668878799144      0.88629702354134
| 32> C          -2.20261220725801      1.81656948866912     -0.00009254079027
| 33> H          -2.85825633400454      1.73802365829102      0.88648022833246
| 34> H          -2.85834169985167      1.73782693594634     -0.88658224699833
| 35> H          -1.75673523006564      2.82424393630291     -0.00022124376864
| 36> H           0.47747434540426      2.16407970597621      0.00002545328680
| 37> C           2.63224685704945      0.60848489545892      0.00012709034736
| 38> C           3.73948848691454     -0.14591897511127     -0.00036178438147
| 39> H           3.70645882304827     -1.24152951701146     -0.00086807767724
| 40> H           4.73244049250843      0.31559854639130     -0.00029313441000
| 41> H           2.75218557093434      1.69979268676539      0.00055539249904
| 42> H           1.63531784817470     -1.98284589426942      0.00029190789491
| 43> *
| 44>
| 45>                          ****END OF INPUT****

CARTESIAN COORDINATES (ANGSTROEM)
---------------------------------
  C      0.869303   -1.202619    0.000171
  C      1.237954    0.149760    0.000119
  C      0.208617    1.101787    0.000050
  C     -1.142665    0.752778   -0.000015
  C     -1.495101   -0.610918    0.000020
  C     -0.471348   -1.565605    0.000117
  H     -0.738258   -2.627595    0.000170
  C     -2.935614   -1.031998   -0.000033
  H     -3.030426   -2.129841    0.000054
  H     -3.472396   -0.646838   -0.886491
  H     -3.472501   -0.646689    0.886297
  C     -2.202612    1.816569   -0.000093
  H     -2.858256    1.738024    0.886480
  H     -2.858342    1.737827   -0.886582
  H     -1.756735    2.824244   -0.000221
  H      0.477474    2.164080    0.000025
  C      2.632247    0.608485    0.000127
  C      3.739488   -0.145919   -0.000362
  H      3.706459   -1.241530   -0.000868
  H      4.732440    0.315599   -0.000293
  H      2.752186    1.699793    0.000555
  H      1.635318   -1.982846    0.000292

 Total Charge           Charge          ....    0
 Multiplicity           Mult            ....    1
 Number of Electrons    NEL             ....   72
 Basis Dimension        Dim             ....  736

ORBITAL ENERGIES
----------------

  NO   OCC          E(Eh)            E(eV)
   0   2.0000     -10.181509      -277.0530
   1   2.0000     -10.180547      -277.0268
   2   2.0000     -10.179963      -277.0109
   3   2.0000     -10.178935      -276.9829
   4   2.0000     -10.171120      -276.7702
   5   2.0000     -10.170423      -276.7513
   6   2.0000     -10.170181      -276.7447
   7   2.0000     -10.166083      -276.6332
   8   2.0000     -10.162290      -276.5300
   9   2.0000     -10.162126      -276.5255
  10   2.0000      -0.862727       -23.4760
  11   2.0000      -0.799427       -21.7535
  12   2.0000      -0.761358       -20.7176
  13   2.0000      -0.743311       -20.2265
  14   2.0000      -0.692181       -18.8352
  15   2.0000      -0.664773       -18.0894
  16   2.0000      -0.599006       -16.2998
  17   2.0000      -0.593124       -16.1397
  18   2.0000      -0.537141       -14.6164
  19   2.0000      -0.493646       -13.4328
  20   2.0000      -0.476738       -12.9727
  21   2.0000      -0.445065       -12.1108
  22   2.0000      -0.428034       -11.6474
  23   2.0000      -0.425662       -11.5828
  24   2.0000      -0.411107       -11.1868
  25   2.0000      -0.403257       -10.9732
  26   2.0000      -0.389265       -10.5924
  27   2.0000      -0.376537       -10.2461
  28   2.0000      -0.375721       -10.2239
  29   2.0000      -0.364040        -9.9060
  30   2.0000      -0.355636        -9.6773
  31   2.0000      -0.333527        -9.0757
  32   2.0000      -0.327591        -8.9142
  33   2.0000      -0.294075        -8.0022
  34   2.0000      -0.248091        -6.7509
  35   2.0000      -0.221081        -6.0159
  36   0.0000      -0.042005        -1.1430
  37   0.0000      -0.010262        -0.2793
  38   0.0000      -0.003306        -0.0900
  39   0.0000       0.005948         0.1619
  40   0.0000       0.010381         0.2825

MULLIKEN ATOMIC CHARGES
-----------------------
   0 C :   -0.349361
   1 C :    2.039669
   2 C :   -1.194789
   3 C :    0.728057
   4 C :    0.909962
   5 C :   -1.263844
   6 H :    0.051398
   7 C :   -0.809907
   8 H :    0.113945
   9 H :    0.217016
  10 H :    0.216884
  11 C :   -0.806634
  12 H :    0.223366
  13 H :    0.222795
  14 H :    0.109420
  15 H :   -0.256709
  16 C :    0.011141
  17 C :   -0.994222
  18 H :    0.259836
  19 H :    0.273033
  20 H :    0.126546
  21 H :    0.172399
Sum of atomic charges:   -0.0000000

LOEWDIN ATOMIC CHARGES
----------------------
   0 C :    0.202407
   1 C :   -0.154664
   2 C :    0.218189
   3 C :   -0.107460
   4 C :   -0.112373
   5 C :    0.213546
   6 H :   -0.164994
   7 C :    0.565084
   8 H :   -0.164370
   9 H :   -0.152075
  10 H :   -0.152058
  11 C :    0.566730
  12 H :   -0.151836
  13 H :   -0.151844
  14 H :   -0.163960
  15 H :   -0.164553
  16 C :    0.156501
  17 C :    0.511958
  18 H :   -0.217800
  19 H :   -0.212624
  20 H :   -0.185416
  21 H :   -0.178389

  Mayer bond orders larger than 0.100000
B(  0-C ,  1-C ) :   0.2426 B(  0-C ,  2-C ) :  -0.8564 B(  0-C ,  3-C ) :  -0.1426
B(  0-C ,  5-C ) :   0.7603 B(  0-C , 11-C ) :   0.1021 B(  0-C , 16-C ) :   0.3856
B(  0-C , 21-H ) :   1.4611 B(  1-C ,  2-C ) :  -0.3490 B(  1-C ,  3-C ) :   0.4644
B(  1-C ,  4-C ) :  -0.3182 B(  1-C ,  7-C ) :   0.1137 B(  1-C , 15-H ) :  -0.4204
B(  1-C , 16-C ) :  -0.1169 B(  1-C , 21-H ) :  -0.1084 B(  2-C ,  3-C ) :   0.6375
B(  2-C ,  4-C ) :  -0.2906 B(  2-C ,  5-C ) :   0.2681 B(  2-C , 11-C ) :  -0.1968
B(  2-C , 15-H ) :   2.2437 B(  2-C , 16-C ) :   0.2199 B(  2-C , 20-H ) :  -0.1361
B(  3-C ,  4-C ) :   1.2171 B(  3-C ,  5-C ) :   0.2592 B(  3-C ,  7-C ) :   0.1432
B(  3-C , 12-H ) :  -0.1191 B(  3-C , 13-H ) :  -0.1182 B(  3-C , 15-H ) :  -0.2063
B(  3-C , 20-H ) :   0.1212 B(  3-C , 21-H ) :  -0.2219 B(  4-C ,  5-C ) :   0.5884
B(  4-C ,  7-C ) :   0.2386 B(  4-C ,  9-H ) :  -0.1055 B(  4-C , 10-H ) :  -0.1062
B(  4-C , 11-C ) :   0.4347 B(  4-C , 16-C ) :   0.1533 B(  4-C , 21-H ) :  -0.1155
B(  5-C ,  6-H ) :   1.2096 B(  5-C ,  7-C ) :  -0.1681 B(  5-C , 17-C ) :  -0.1332
B(  5-C , 21-H ) :  -0.1452 B(  7-C ,  8-H ) :   1.0436 B(  7-C ,  9-H ) :   1.0258
B(  7-C , 10-H ) :   1.0272 B( 11-C , 12-H ) :   1.0163 B( 11-C , 13-H ) :   1.0156
B( 11-C , 14-H ) :   1.0440 B( 15-H , 16-C ) :  -0.1414 B( 16-C , 17-C ) :   0.9541
B( 16-C , 20-H ) :   1.0802 B( 17-C , 18-H ) :   1.0951 B( 17-C , 19-H ) :   0.8774
B( 17-C , 20-H ) :  -0.1888

Dispersion correction           -0.039231386
FINAL SINGLE POINT ENERGY      -388.210002657369

DIPOLE MOMENT
-------------

Method             : SCF
Type of density    : Electron Density
Multiplicity       :   1
Irrep              :   0
Energy             :  -388.1707712718052790 Eh
Relativity type    :
Basis              : AO
                                X                 Y                 Z
Electronic contribution:      4.012998093      -1.065330277       0.000634836
Nuclear contribution   :     -4.612312787       1.157001157      -0.000599620
                        -----------------------------------------
Total Dipole Moment    :     -0.599314694       0.091670880       0.000035216
                        -----------------------------------------
Magnitude (a.u.)       :      0.606285126
Magnitude (Debye)      :      1.541054321

Rotational constants in cm-1:             0.097441             0.028572             0.022278
Rotational constants in MHz :          2921.210321           856.555703           667.890460

                             ****ORCA TERMINATED NORMALLY****
TOTAL RUN TIME: 0 days 0 hours 7 minutes 23 seconds 327 msec
