                         Program Version 6.0.0  -   RELEASE  -
|  1> !TPSSh aug-cc-pVTZ d3 TightSCF SlowConv RIJCOSX defgrid2
|  2>
|  3> %pal
|  4> nprocs 15
|  5> end
|  6>
|  7> %scf
|  8> MaxIter 1500
|  9> end
| 10>
| 11> %maxcore 3500
| 12>
| 13> !CPCM
| 14> %cpcm smd true
| 15> SMDsolvent "WATER"
| 16> surfacetype gepol_ses
| 17> rsolv 1.40
| 18> end
| 19>
| 20> * xyz -1 2
| 21> C          -0.03973046046840      0.10892812040704     -0.07338476870276
| 22> C          -1.16098921528207     -0.36942550235928      0.71209175660899
| 23> C           1.12950619870235      0.46906063473388      0.70766297682295
| 24> H          -2.06041411321376     -0.64988443685068      0.14997121109878
| 25> H           1.99092702988929      0.83408061571124      0.13293381113983
| 26> C          -1.11212024378879     -0.46999723963456      2.07962395432224
| 27> C           1.19382481607047      0.37407440355199      2.07622299159295
| 28> H          -1.97201412595405     -0.83453656930806      2.65522434724164
| 29> C           0.05609683638602     -0.10970890072807      2.85428687501407
| 30> O           0.10372480477544     -0.20102139334893      4.10562446305031
| 31> O          -0.07494807117445      0.20434515385365     -1.32351109494325
| 32> C           2.41507813745815      0.75326139926788      2.85674776584986
| 33> H           2.18096706491750      1.54375255830692      3.59412318045315
| 34> H           2.78389777303057     -0.10350094502541      3.45115835416892
| 35> H           3.22614155265174      1.10750873042238      2.19600586528230
| 36> *
| 37>
| 38>                          ****END OF INPUT****

CARTESIAN COORDINATES (ANGSTROEM)
---------------------------------
  C     -0.039730    0.108928   -0.073385
  C     -1.160989   -0.369426    0.712092
  C      1.129506    0.469061    0.707663
  H     -2.060414   -0.649884    0.149971
  H      1.990927    0.834081    0.132934
  C     -1.112120   -0.469997    2.079624
  C      1.193825    0.374074    2.076223
  H     -1.972014   -0.834537    2.655224
  C      0.056097   -0.109709    2.854287
  O      0.103725   -0.201021    4.105624
  O     -0.074948    0.204345   -1.323511
  C      2.415078    0.753261    2.856748
  H      2.180967    1.543753    3.594123
  H      2.783898   -0.103501    3.451158
  H      3.226142    1.107509    2.196006

 Total Charge           Charge          ....   -1
 Multiplicity           Mult            ....    2
 Number of Electrons    NEL             ....   65
 Basis Dimension        Dim             ....  552

ORBITAL ENERGIES
----------------
                 SPIN UP ORBITALS
  NO   OCC          E(Eh)            E(eV)
   0   1.0000     -19.016433      -517.4635
   1   1.0000     -19.016376      -517.4619
   2   1.0000     -10.162369      -276.5321
   3   1.0000     -10.160557      -276.4828
   4   1.0000     -10.115052      -275.2446
   5   1.0000     -10.107065      -275.0272
   6   1.0000     -10.106333      -275.0073
   7   1.0000     -10.102256      -274.8964
   8   1.0000     -10.101673      -274.8805
   9   1.0000      -0.985440       -26.8152
  10   1.0000      -0.983344       -26.7582
  11   1.0000      -0.802588       -21.8395
  12   1.0000      -0.741136       -20.1673
  13   1.0000      -0.676847       -18.4179
  14   1.0000      -0.643502       -17.5106
  15   1.0000      -0.569574       -15.4989
  16   1.0000      -0.533104       -14.5065
  17   1.0000      -0.456829       -12.4310
  18   1.0000      -0.450711       -12.2645
  19   1.0000      -0.422755       -11.5037
  20   1.0000      -0.408819       -11.1245
  21   1.0000      -0.389050       -10.5866
  22   1.0000      -0.382745       -10.4150
  23   1.0000      -0.375910       -10.2290
  24   1.0000      -0.368354       -10.0234
  25   1.0000      -0.357288        -9.7223
  26   1.0000      -0.345396        -9.3987
  27   1.0000      -0.332075        -9.0362
  28   1.0000      -0.271024        -7.3749
  29   1.0000      -0.239974        -6.5300
  30   1.0000      -0.231864        -6.3093
  31   1.0000      -0.223882        -6.0921
  32   1.0000      -0.155869        -4.2414
  33   0.0000      -0.017847        -0.4856
  34   0.0000       0.000243         0.0066
  35   0.0000       0.012437         0.3384
  36   0.0000       0.012531         0.3410
  37   0.0000       0.015672         0.4265

                 SPIN DOWN ORBITALS
  NO   OCC          E(Eh)            E(eV)
   0   1.0000     -19.009971      -517.2876
   1   1.0000     -19.009827      -517.2837
   2   1.0000     -10.160591      -276.4837
   3   1.0000     -10.158576      -276.4289
   4   1.0000     -10.113776      -275.2098
   5   1.0000     -10.105828      -274.9936
   6   1.0000     -10.104883      -274.9678
   7   1.0000     -10.101782      -274.8835
   8   1.0000     -10.101468      -274.8749
   9   1.0000      -0.974844       -26.5269
  10   1.0000      -0.972544       -26.4643
  11   1.0000      -0.796886       -21.6844
  12   1.0000      -0.738366       -20.0920
  13   1.0000      -0.671759       -18.2795
  14   1.0000      -0.636459       -17.3189
  15   1.0000      -0.565613       -15.3911
  16   1.0000      -0.528876       -14.3914
  17   1.0000      -0.455008       -12.3814
  18   1.0000      -0.446727       -12.1561
  19   1.0000      -0.418819       -11.3966
  20   1.0000      -0.397417       -10.8143
  21   1.0000      -0.386096       -10.5062
  22   1.0000      -0.380097       -10.3430
  23   1.0000      -0.366940        -9.9849
  24   1.0000      -0.359278        -9.7765
  25   1.0000      -0.343372        -9.3436
  26   1.0000      -0.334057        -9.0901
  27   1.0000      -0.330340        -8.9890
  28   1.0000      -0.244286        -6.6474
  29   1.0000      -0.230937        -6.2841
  30   1.0000      -0.227302        -6.1852
  31   1.0000      -0.219524        -5.9735
  32   0.0000      -0.104095        -2.8326
  33   0.0000      -0.003382        -0.0920
  34   0.0000       0.000992         0.0270
  35   0.0000       0.012936         0.3520
  36   0.0000       0.016218         0.4413

MULLIKEN ATOMIC CHARGES AND SPIN POPULATIONS
--------------------------------------------
   0 C :    1.103187    0.136427
   1 C :   -0.458765    0.090810
   2 C :   -0.660962    0.064245
   3 H :    0.331672   -0.004915
   4 H :    0.169460    0.000414
   5 C :   -0.535383    0.050577
   6 C :    0.563830    0.070755
   7 H :    0.356101   -0.000844
   8 C :    0.729923    0.139466
   9 O :   -1.279792    0.234341
  10 O :   -1.255264    0.224435
  11 C :   -0.373223   -0.015818
  12 H :    0.113049    0.005775
  13 H :    0.113340    0.005801
  14 H :    0.082827   -0.001469
Sum of atomic charges         :   -1.0000000

LOEWDIN ATOMIC CHARGES AND SPIN POPULATIONS
-------------------------------------------
   0 C :   -0.702121    0.124667
   1 C :    0.141850    0.084287
   2 C :    0.167007    0.061391
   3 H :   -0.196831    0.009506
   4 H :   -0.191559    0.005146
   5 C :    0.146631    0.079331
   6 C :   -0.176739    0.072679
   7 H :   -0.196232    0.007499
   8 C :   -0.669242    0.131930
   9 O :    0.344900    0.207963
  10 O :    0.308940    0.202871
  11 C :    0.530190    0.008286
  12 H :   -0.168388    0.002389
  13 H :   -0.168408    0.002391
  14 H :   -0.169999   -0.000333

  Mayer bond orders larger than 0.100000
B(  0-C ,  1-C ) :   1.0690 B(  0-C ,  2-C ) :   1.0322 B(  0-C ,  5-C ) :  -0.1097
B(  1-C ,  2-C ) :   0.2851 B(  1-C ,  3-H ) :   0.5143 B(  1-C ,  5-C ) :   1.5534
B(  1-C , 10-O ) :   0.1928 B(  2-C ,  4-H ) :   0.7269 B(  2-C ,  5-C ) :  -0.1165
B(  2-C ,  6-C ) :   1.0688 B(  2-C , 10-O ) :   0.1800 B(  4-H ,  6-C ) :   0.1051
B(  4-H , 10-O ) :   0.1263 B(  5-C ,  6-C ) :   0.2405 B(  5-C ,  7-H ) :   0.4711
B(  5-C ,  8-C ) :   1.2253 B(  5-C ,  9-O ) :   0.2202 B(  6-C ,  8-C ) :   1.0623
B(  6-C , 10-O ) :   0.1242 B(  6-C , 11-C ) :   0.6945 B(  8-C , 11-C ) :   0.2070
B( 11-C , 12-H ) :   0.9849 B( 11-C , 13-H ) :   0.9850 B( 11-C , 14-H ) :   1.0040

Dispersion correction           -0.017835798
FINAL SINGLE POINT ENERGY      -421.121843994190

DIPOLE MOMENT
-------------

Method             : SCF
Type of density    : Electron Density
Multiplicity       :   2
Irrep              :   0
Energy             :  -421.1040081966042408 Eh
Relativity type    :
Basis              : AO
                                X                 Y                 Z
Electronic contribution:     -3.369227066      -1.056418333      -2.029583793
Nuclear contribution   :      4.080055806       1.268229623       2.595706688
                        -----------------------------------------
Total Dipole Moment    :      0.710828741       0.211811290       0.566122895
                        -----------------------------------------
Magnitude (a.u.)       :      0.933079125
Magnitude (Debye)      :      2.371698653

Rotational constants in cm-1:             0.102982             0.046318             0.032139
Rotational constants in MHz :          3087.332210          1388.578907           963.495969

                             ****ORCA TERMINATED NORMALLY****
TOTAL RUN TIME: 0 days 0 hours 3 minutes 31 seconds 525 msec
