                         Program Version 6.0.0  -   RELEASE  -
|  1> !B3LYP aug-cc-pVTZ d3 TightSCF SlowConv RIJCOSX defgrid2
|  2>
|  3> %pal
|  4> nprocs 15
|  5> end
|  6>
|  7> %scf
|  8> MaxIter 1500
|  9> end
| 10>
| 11> %maxcore 3500
| 12>
| 13> !CPCM
| 14> %cpcm smd true
| 15> SMDsolvent "WATER"
| 16> surfacetype gepol_ses
| 17> rsolv 1.40
| 18> end
| 19>
| 20> * xyz 0 2
| 21> O           1.86556239468452      3.66778063685740      1.41934048443660
| 22> N           2.63911006242494      2.68933162619386      1.23001507884931
| 23> C           3.73080247656957      2.90535757443730      0.24181063762861
| 24> C           4.36093762959910      1.55921653542741     -0.15336987209592
| 25> C           4.63172810194409      0.70262118274796      1.05667158740786
| 26> C           3.37344672734739      0.39530870243854      1.82691342143050
| 27> C           2.68993700964555      1.68066650325082      2.32342254966252
| 28> C           4.79147854810668      3.83582820328657      0.84153155747969
| 29> C           3.10645949127391      3.55822382808877     -0.98811835641252
| 30> C           3.44599743934561      2.26113926142754      3.52426459340538
| 31> C           1.24931104144319      1.37171748445294      2.72213530312512
| 32> H           5.29854507645140      1.73380073454675     -0.70282077300820
| 33> H           3.66072621433755      1.01505886466252     -0.81307937183032
| 34> H           3.61014563723972     -0.25605158453535      2.68210471533816
| 35> H           2.67928631607287     -0.14191365883771      1.15513451843579
| 36> H           4.29973116397687      4.72680814583179      1.26491139664203
| 37> H           5.37961996772319      3.34202382093710      1.63164483429192
| 38> H           5.49413089896826      4.16049866008557      0.05546712960242
| 39> H           2.69205521882801      4.54458266598734     -0.73348635939669
| 40> H           2.28924200187458      2.93262822416028     -1.38514477797188
| 41> H           3.87286307615791      3.67858497187703     -1.77227016899908
| 42> H           3.04871559772316      3.26304759444425      3.75501562998363
| 43> H           4.52927071669545      2.33887771005461      3.33785198450762
| 44> H           3.30430449817939      1.61369753756705      4.40621306394055
| 45> H           0.75896130686192      2.26873651212742      3.12797736173082
| 46> H           0.67080790712862      1.02777195958958      1.84800524786398
| 47> H           1.24122074344172      0.57661748497107      3.48643408439020
| 48> O           5.73186456195476      0.33572713792153      1.38978502456186
| 49> *
| 50>
| 51>                          ****END OF INPUT****

CARTESIAN COORDINATES (ANGSTROEM)
---------------------------------
  O      1.865562    3.667781    1.419340
  N      2.639110    2.689332    1.230015
  C      3.730802    2.905358    0.241811
  C      4.360938    1.559217   -0.153370
  C      4.631728    0.702621    1.056672
  C      3.373447    0.395309    1.826913
  C      2.689937    1.680667    2.323423
  C      4.791479    3.835828    0.841532
  C      3.106459    3.558224   -0.988118
  C      3.445997    2.261139    3.524265
  C      1.249311    1.371717    2.722135
  H      5.298545    1.733801   -0.702821
  H      3.660726    1.015059   -0.813079
  H      3.610146   -0.256052    2.682105
  H      2.679286   -0.141914    1.155135
  H      4.299731    4.726808    1.264911
  H      5.379620    3.342024    1.631645
  H      5.494131    4.160499    0.055467
  H      2.692055    4.544583   -0.733486
  H      2.289242    2.932628   -1.385145
  H      3.872863    3.678585   -1.772270
  H      3.048716    3.263048    3.755016
  H      4.529271    2.338878    3.337852
  H      3.304304    1.613698    4.406213
  H      0.758961    2.268737    3.127977
  H      0.670808    1.027772    1.848005
  H      1.241221    0.576617    3.486434
  O      5.731865    0.335727    1.389785

 Total Charge           Charge          ....    0
 Multiplicity           Mult            ....    2
 Number of Electrons    NEL             ....   93
 Basis Dimension        Dim             ....  920

ORBITAL ENERGIES
----------------
                 SPIN UP ORBITALS
  NO   OCC          E(Eh)            E(eV)
   0   1.0000     -19.138208      -520.7771
   1   1.0000     -19.136278      -520.7246
   2   1.0000     -14.418309      -392.3421
   3   1.0000     -10.273022      -279.5431
   4   1.0000     -10.231969      -278.4260
   5   1.0000     -10.231954      -278.4256
   6   1.0000     -10.180653      -277.0297
   7   1.0000     -10.180623      -277.0288
   8   1.0000     -10.164435      -276.5883
   9   1.0000     -10.164413      -276.5878
  10   1.0000     -10.160919      -276.4927
  11   1.0000     -10.160915      -276.4926
  12   1.0000      -1.120902       -30.5013
  13   1.0000      -1.065644       -28.9977
  14   1.0000      -0.879974       -23.9453
  15   1.0000      -0.829619       -22.5751
  16   1.0000      -0.756730       -20.5917
  17   1.0000      -0.724880       -19.7250
  18   1.0000      -0.696881       -18.9631
  19   1.0000      -0.695051       -18.9133
  20   1.0000      -0.684955       -18.6386
  21   1.0000      -0.605186       -16.4679
  22   1.0000      -0.564271       -15.3546
  23   1.0000      -0.524681       -14.2773
  24   1.0000      -0.504910       -13.7393
  25   1.0000      -0.497656       -13.5419
  26   1.0000      -0.484475       -13.1832
  27   1.0000      -0.465684       -12.6719
  28   1.0000      -0.463577       -12.6146
  29   1.0000      -0.452239       -12.3060
  30   1.0000      -0.432541       -11.7700
  31   1.0000      -0.417538       -11.3618
  32   1.0000      -0.405442       -11.0326
  33   1.0000      -0.395837       -10.7713
  34   1.0000      -0.394802       -10.7431
  35   1.0000      -0.388677       -10.5764
  36   1.0000      -0.374954       -10.2030
  37   1.0000      -0.372654       -10.1404
  38   1.0000      -0.370477       -10.0812
  39   1.0000      -0.369414       -10.0523
  40   1.0000      -0.347187        -9.4474
  41   1.0000      -0.344013        -9.3611
  42   1.0000      -0.340104        -9.2547
  43   1.0000      -0.337729        -9.1901
  44   1.0000      -0.275366        -7.4931
  45   1.0000      -0.262312        -7.1379
  46   1.0000      -0.208337        -5.6691
  47   0.0000      -0.037066        -1.0086
  48   0.0000      -0.001774        -0.0483
  49   0.0000       0.010378         0.2824
  50   0.0000       0.014138         0.3847
  51   0.0000       0.015421         0.4196

                 SPIN DOWN ORBITALS
  NO   OCC          E(Eh)            E(eV)
   0   1.0000     -19.136247      -520.7238
   1   1.0000     -19.125397      -520.4285
   2   1.0000     -14.406041      -392.0083
   3   1.0000     -10.273031      -279.5434
   4   1.0000     -10.232328      -278.4358
   5   1.0000     -10.232313      -278.4354
   6   1.0000     -10.180598      -277.0282
   7   1.0000     -10.180567      -277.0273
   8   1.0000     -10.163801      -276.5711
   9   1.0000     -10.163782      -276.5706
  10   1.0000     -10.160714      -276.4871
  11   1.0000     -10.160710      -276.4870
  12   1.0000      -1.097625       -29.8679
  13   1.0000      -1.065542       -28.9949
  14   1.0000      -0.870142       -23.6778
  15   1.0000      -0.828355       -22.5407
  16   1.0000      -0.750811       -20.4306
  17   1.0000      -0.712246       -19.3812
  18   1.0000      -0.696545       -18.9539
  19   1.0000      -0.692797       -18.8520
  20   1.0000      -0.683743       -18.6056
  21   1.0000      -0.601844       -16.3770
  22   1.0000      -0.562222       -15.2988
  23   1.0000      -0.515217       -14.0198
  24   1.0000      -0.503237       -13.6938
  25   1.0000      -0.490982       -13.3603
  26   1.0000      -0.465969       -12.6797
  27   1.0000      -0.462691       -12.5905
  28   1.0000      -0.456919       -12.4334
  29   1.0000      -0.446242       -12.1429
  30   1.0000      -0.432274       -11.7628
  31   1.0000      -0.407762       -11.0958
  32   1.0000      -0.403266       -10.9734
  33   1.0000      -0.393871       -10.7178
  34   1.0000      -0.392532       -10.6813
  35   1.0000      -0.387613       -10.5475
  36   1.0000      -0.371582       -10.1113
  37   1.0000      -0.371324       -10.1043
  38   1.0000      -0.368458       -10.0263
  39   1.0000      -0.358997        -9.7688
  40   1.0000      -0.343200        -9.3389
  41   1.0000      -0.342689        -9.3250
  42   1.0000      -0.336417        -9.1544
  43   1.0000      -0.321006        -8.7350
  44   1.0000      -0.267412        -7.2766
  45   1.0000      -0.259698        -7.0667
  46   0.0000      -0.070824        -1.9272
  47   0.0000      -0.036210        -0.9853
  48   0.0000      -0.001488        -0.0405
  49   0.0000       0.010389         0.2827
  50   0.0000       0.014455         0.3933

MULLIKEN ATOMIC CHARGES AND SPIN POPULATIONS
--------------------------------------------
   0 O :   -1.137438    0.480317
   1 N :    0.302512    0.510079
   2 C :    2.663577   -0.043251
   3 C :   -0.743635   -0.000748
   4 C :    1.233563    0.004760
   5 C :   -0.750646   -0.000842
   6 C :    2.631868   -0.043431
   7 C :   -1.298689    0.033558
   8 C :   -1.463277    0.013836
   9 C :   -1.287015    0.033522
  10 C :   -1.466028    0.013710
  11 H :    0.166784   -0.001510
  12 H :    0.173104    0.001669
  13 H :    0.159938   -0.001541
  14 H :    0.181192    0.001598
  15 H :    0.182269    0.000635
  16 H :    0.211784   -0.000850
  17 H :    0.037606    0.004025
  18 H :    0.151277   -0.004633
  19 H :    0.202138   -0.000430
  20 H :    0.146353   -0.000655
  21 H :    0.179670    0.000782
  22 H :    0.204445   -0.000674
  23 H :    0.042824    0.003931
  24 H :    0.148507   -0.004561
  25 H :    0.194523   -0.000347
  26 H :    0.154967   -0.000645
  27 O :   -1.222173    0.001698
Sum of atomic charges         :   -0.0000000

LOEWDIN ATOMIC CHARGES AND SPIN POPULATIONS
-------------------------------------------
   0 O :    0.397146    0.443107
   1 N :   -0.106594    0.401534
   2 C :   -0.444834    0.040698
   3 C :    0.298794    0.002638
   4 C :   -0.520613    0.000599
   5 C :    0.298933    0.002606
   6 C :   -0.444364    0.040630
   7 C :    0.589158    0.019184
   8 C :    0.564514    0.003537
   9 C :    0.588910    0.019159
  10 C :    0.564412    0.003604
  11 H :   -0.123360   -0.000144
  12 H :   -0.115206    0.000989
  13 H :   -0.123023   -0.000148
  14 H :   -0.115418    0.000983
  15 H :   -0.145228    0.001836
  16 H :   -0.166154    0.001720
  17 H :   -0.133896    0.005482
  18 H :   -0.171105   -0.000219
  19 H :   -0.141334    0.000873
  20 H :   -0.137318    0.000358
  21 H :   -0.146003    0.001848
  22 H :   -0.165534    0.001727
  23 H :   -0.134031    0.005464
  24 H :   -0.170519   -0.000206
  25 H :   -0.141284    0.000881
  26 H :   -0.137684    0.000371
  27 O :    0.481635    0.000888

  Mayer bond orders larger than 0.100000
B(  0-O ,  1-N ) :   0.5289 B(  0-O ,  2-C ) :  -0.1329 B(  0-O ,  6-C ) :  -0.1145
B(  1-N ,  2-C ) :   0.5437 B(  1-N ,  3-C ) :   0.2455 B(  1-N ,  5-C ) :   0.2469
B(  1-N ,  6-C ) :   0.5320 B(  2-C ,  3-C ) :   0.2645 B(  2-C ,  4-C ) :   0.1076
B(  2-C ,  6-C ) :   0.1438 B(  2-C ,  8-C ) :  -0.3646 B(  2-C , 15-H ) :  -0.1137
B(  2-C , 17-H ) :  -0.1570 B(  2-C , 18-H ) :  -0.1431 B(  2-C , 19-H ) :  -0.1535
B(  2-C , 20-H ) :  -0.1079 B(  3-C ,  4-C ) :   0.9097 B(  3-C ,  5-C ) :   0.1317
B(  3-C ,  7-C ) :   0.1665 B(  3-C , 11-H ) :   0.9358 B(  3-C , 12-H ) :   1.0556
B(  3-C , 27-O ) :   0.2465 B(  4-C ,  5-C ) :   0.9048 B(  4-C ,  6-C ) :   0.1035
B(  4-C , 27-O ) :   0.1109 B(  5-C ,  6-C ) :   0.2512 B(  5-C ,  9-C ) :   0.1693
B(  5-C , 13-H ) :   0.9485 B(  5-C , 14-H ) :   1.0509 B(  5-C , 27-O ) :   0.2489
B(  6-C , 10-C ) :  -0.3489 B(  6-C , 21-H ) :  -0.1061 B(  6-C , 23-H ) :  -0.1541
B(  6-C , 24-H ) :  -0.1447 B(  6-C , 25-H ) :  -0.1551 B(  6-C , 26-H ) :  -0.1016
B(  7-C ,  8-C ) :   0.2309 B(  7-C , 15-H ) :   1.0678 B(  7-C , 16-H ) :   1.0320
B(  7-C , 17-H ) :   1.2462 B(  8-C , 18-H ) :   1.1329 B(  8-C , 19-H ) :   1.0959
B(  8-C , 20-H ) :   1.1206 B(  9-C , 10-C ) :   0.2200 B(  9-C , 21-H ) :   1.0707
B(  9-C , 22-H ) :   1.0404 B(  9-C , 23-H ) :   1.2352 B( 10-C , 24-H ) :   1.1357
B( 10-C , 25-H ) :   1.1108 B( 10-C , 26-H ) :   1.1065

Dispersion correction           -0.054051236
FINAL SINGLE POINT ENERGY      -557.659257711589

DIPOLE MOMENT
-------------

Method             : SCF
Type of density    : Electron Density
Multiplicity       :   2
Irrep              :   0
Energy             :  -557.6052064756668187 Eh
Relativity type    :
Basis              : AO
                                X                 Y                 Z
Electronic contribution:      1.996654781      -3.553552758      -1.099988689
Nuclear contribution   :     -2.339550433       2.955416228       0.579005487
                        -----------------------------------------
Total Dipole Moment    :     -0.342895653      -0.598136530      -0.520983202
                        -----------------------------------------
Magnitude (a.u.)       :      0.864157528
Magnitude (Debye)      :      2.196513878

Rotational constants in cm-1:             0.036094             0.035779             0.023697
Rotational constants in MHz :          1082.069740          1072.621338           710.415750

                             ****ORCA TERMINATED NORMALLY****
TOTAL RUN TIME: 0 days 0 hours 22 minutes 54 seconds 22 msec
