                         Program Version 6.0.0  -   RELEASE  -
|  1> !B3LYP opt aug-cc-pVTZ d3 TightSCF SlowConv RIJCOSX defgrid2
|  2>
|  3> %pal
|  4> nprocs 8
|  5> end
|  6>
|  7> %scf
|  8> MaxIter 1500
|  9> end
| 10>
| 11> %maxcore 3500
| 12>
| 13> !CPCM
| 14> %cpcm smd true
| 15> SMDsolvent "MeCN"
| 16> surfacetype gepol_ses
| 17> rsolv 2.19
| 18> end
| 19>
| 20> * xyz -1 2
| 21> C          -1.22535307927293     -0.03882807002799     -0.00002255469277
| 22> C          -1.22206264378164      1.41582015720061     -0.00002423880206
| 23> C           0.00004637420421      2.08121905033007     -0.00000415463824
| 24> C           1.22212161683371      1.41575862792076      0.00002170232485
| 25> C           1.22534433396412     -0.03888819251674      0.00002507087618
| 26> C          -0.00002135567409     -0.71608207495025      0.00000157424078
| 27> H          -0.00004774645346     -1.81053735349218      0.00000261550832
| 28> C           2.43402384370652     -0.77080587803239      0.00007579493229
| 29> N           3.44413671726320     -1.36247120639636      0.00011250089172
| 30> H           2.16848850432676      1.96074544120089      0.00003301965359
| 31> H           0.00007494156619      3.17901522614598     -0.00000842096167
| 32> H          -2.16840192148197      1.96085605610510     -0.00003754989011
| 33> C          -2.43406244869294     -0.77069683887805     -0.00005052688718
| 34> N          -3.44419623650770     -1.36232524460946     -0.00007393255569
| 35> *
| 36>
| 37>                          ****END OF INPUT****
 Total Charge           Charge          ....   -1
 Multiplicity           Mult            ....    2
 Number of Electrons    NEL             ....   67
Dispersion correction           -0.027870616
FINAL SINGLE POINT ENERGY      -416.769731496207
Dispersion correction             ... done (  0.1 sec)
Dispersion correction           -0.028002979
FINAL SINGLE POINT ENERGY      -416.770632477971
Dispersion correction             ... done (  0.1 sec)
Dispersion correction           -0.028026511
FINAL SINGLE POINT ENERGY      -416.770658738119
Dispersion correction             ... done (  0.1 sec)
Dispersion correction           -0.028030323
FINAL SINGLE POINT ENERGY      -416.770662835213
Dispersion correction             ... done (  0.1 sec)
                    ***********************HURRAY********************

CARTESIAN COORDINATES (ANGSTROEM)
---------------------------------
  C     -1.214244   -0.039433    0.000036
  C     -1.217062    1.412272   -0.000084
  C      0.000044    2.078415   -0.000004
  C      1.217119    1.412224    0.000081
  C      1.214247   -0.039482   -0.000024
  C     -0.000013   -0.725729    0.000004
  H     -0.000033   -1.807356    0.000000
  C      2.416617   -0.763032   -0.000098
  N      3.426541   -1.342689   -0.000165
  H      2.152892    1.950433    0.000655
  H      0.000068    3.162060   -0.000003
  H     -2.152814    1.950523   -0.000673
  C     -2.416655   -0.762915    0.000125
  N     -3.426614   -1.342511    0.000199

 Multiplicity           Mult            ....    2
 Number of Electrons    NEL             ....   67
 Basis Dimension        Dim             ....  552

ORBITAL ENERGIES
----------------
                 SPIN UP ORBITALS
  NO   OCC          E(Eh)            E(eV)
   0   1.0000     -14.296669      -389.0321
   1   1.0000     -14.296667      -389.0321
   2   1.0000     -10.199933      -277.5543
   3   1.0000     -10.199926      -277.5541
   4   1.0000     -10.186190      -277.1803
   5   1.0000     -10.183817      -277.1158
   6   1.0000     -10.183752      -277.1140
   7   1.0000     -10.162930      -276.5474
   8   1.0000     -10.155527      -276.3459
   9   1.0000     -10.155505      -276.3453
  10   1.0000      -0.897423       -24.4201
  11   1.0000      -0.894405       -24.3380
  12   1.0000      -0.847263       -23.0552
  13   1.0000      -0.761842       -20.7308
  14   1.0000      -0.751906       -20.4604
  15   1.0000      -0.637140       -17.3375
  16   1.0000      -0.624336       -16.9890
  17   1.0000      -0.558227       -15.1901
  18   1.0000      -0.480545       -13.0763
  19   1.0000      -0.469829       -12.7847
  20   1.0000      -0.447392       -12.1742
  21   1.0000      -0.421128       -11.4595
  22   1.0000      -0.397789       -10.8244
  23   1.0000      -0.371846       -10.1185
  24   1.0000      -0.369874       -10.0648
  25   1.0000      -0.365901        -9.9567
  26   1.0000      -0.355066        -9.6618
  27   1.0000      -0.353358        -9.6154
  28   1.0000      -0.326148        -8.8749
  29   1.0000      -0.321765        -8.7557
  30   1.0000      -0.317812        -8.6481
  31   1.0000      -0.259638        -7.0651
  32   1.0000      -0.249909        -6.8004
  33   1.0000      -0.102783        -2.7969
  34   0.0000      -0.031136        -0.8472
  35   0.0000      -0.001854        -0.0505
  36   0.0000       0.014682         0.3995
  37   0.0000       0.015681         0.4267
  38   0.0000       0.029263         0.7963

                 SPIN DOWN ORBITALS
  NO   OCC          E(Eh)            E(eV)
   0   1.0000     -14.294756      -388.9801
   1   1.0000     -14.294754      -388.9800
   2   1.0000     -10.199858      -277.5523
   3   1.0000     -10.199851      -277.5521
   4   1.0000     -10.186892      -277.1994
   5   1.0000     -10.182149      -277.0704
   6   1.0000     -10.182124      -277.0697
   7   1.0000     -10.164685      -276.5951
   8   1.0000     -10.150103      -276.1983
   9   1.0000     -10.150100      -276.1983
  10   1.0000      -0.894319       -24.3357
  11   1.0000      -0.891466       -24.2580
  12   1.0000      -0.842583       -22.9279
  13   1.0000      -0.754184       -20.5224
  14   1.0000      -0.747501       -20.3405
  15   1.0000      -0.624974       -17.0064
  16   1.0000      -0.622210       -16.9312
  17   1.0000      -0.557064       -15.1585
  18   1.0000      -0.475727       -12.9452
  19   1.0000      -0.467692       -12.7265
  20   1.0000      -0.444278       -12.0894
  21   1.0000      -0.420680       -11.4473
  22   1.0000      -0.386438       -10.5155
  23   1.0000      -0.368525       -10.0281
  24   1.0000      -0.366841        -9.9822
  25   1.0000      -0.355648        -9.6777
  26   1.0000      -0.352188        -9.5835
  27   1.0000      -0.351710        -9.5705
  28   1.0000      -0.320412        -8.7189
  29   1.0000      -0.316386        -8.6093
  30   1.0000      -0.313760        -8.5379
  31   1.0000      -0.249379        -6.7860
  32   1.0000      -0.223799        -6.0899
  33   0.0000      -0.033614        -0.9147
  34   0.0000      -0.026517        -0.7216
  35   0.0000      -0.001791        -0.0487
  36   0.0000       0.014643         0.3985
  37   0.0000       0.015417         0.4195

MULLIKEN ATOMIC CHARGES AND SPIN POPULATIONS
--------------------------------------------
   0 C :    1.388510    0.109880
   1 C :   -0.894182    0.420935
   2 C :   -0.508800   -0.119227
   3 C :   -0.893902    0.420945
   4 C :    1.386400    0.109856
   5 C :   -1.139882   -0.048821
   6 H :   -0.135382    0.009596
   7 C :    0.421948   -0.011453
   8 N :   -0.881338    0.096361
   9 H :    0.078497   -0.033401
  10 H :    0.559469   -0.006179
  11 H :    0.078152   -0.033399
  12 C :    0.421341   -0.011458
  13 N :   -0.880831    0.096365
Sum of atomic charges         :   -1.0000000

LOEWDIN ATOMIC CHARGES AND SPIN POPULATIONS
-------------------------------------------
   0 C :   -0.256512    0.102384
   1 C :    0.158991    0.195064
   2 C :    0.129621    0.061740
   3 C :    0.158991    0.195060
   4 C :   -0.256512    0.102384
   5 C :    0.147085    0.015572
   6 H :   -0.170634   -0.000936
   7 C :   -0.327485    0.046276
   8 N :    0.173885    0.074859
   9 H :   -0.207430    0.045900
  10 H :   -0.188979   -0.005336
  11 H :   -0.207426    0.045900
  12 C :   -0.327485    0.046275
  13 N :    0.173888    0.074858

  Mayer bond orders larger than 0.100000
B(  0-C ,  2-C ) :   0.1704 B(  0-C ,  4-C ) :   0.3600 B(  0-C ,  5-C ) :   0.3942
B(  0-C ,  6-H ) :  -0.2349 B(  0-C , 11-H ) :  -0.2447 B(  0-C , 12-C ) :   0.7162
B(  0-C , 13-N ) :   0.1679 B(  1-C ,  2-C ) :   1.1894 B(  1-C ,  3-C ) :  -0.1136
B(  1-C ,  5-C ) :  -0.2178 B(  1-C , 11-H ) :   1.3432 B(  1-C , 12-C ) :   0.3782
B(  2-C ,  3-C ) :   1.1901 B(  2-C ,  4-C ) :   0.1701 B(  2-C ,  9-H ) :  -0.1425
B(  2-C , 10-H ) :   0.5638 B(  2-C , 11-H ) :  -0.1420 B(  3-C ,  5-C ) :  -0.2180
B(  3-C ,  7-C ) :   0.3772 B(  3-C ,  9-H ) :   1.3432 B(  4-C ,  5-C ) :   0.3953
B(  4-C ,  6-H ) :  -0.2343 B(  4-C ,  7-C ) :   0.7177 B(  4-C ,  8-N ) :   0.1691
B(  4-C ,  9-H ) :  -0.2449 B(  5-C ,  6-H ) :   1.6197 B(  5-C ,  7-C ) :   0.1628
B(  5-C ,  9-H ) :   0.1164 B(  5-C , 11-H ) :   0.1162 B(  5-C , 12-C ) :   0.1634
B(  7-C ,  8-N ) :   1.5691 B(  7-C , 12-C ) :   0.2307 B( 12-C , 13-N ) :   1.5702

Dispersion correction           -0.028029733
FINAL SINGLE POINT ENERGY      -416.770664545957

DIPOLE MOMENT
-------------

Method             : SCF
Type of density    : Electron Density
Multiplicity       :   2
Irrep              :   0
Energy             :  -416.7426348133159877 Eh
Relativity type    :
Basis              : AO
                                X                 Y                 Z
Electronic contribution:     -0.000087376      -3.166173577       0.000016422
Nuclear contribution   :      0.000112888       4.957593843      -0.000045223
                        -----------------------------------------
Total Dipole Moment    :      0.000025512       1.791420267      -0.000028802
                        -----------------------------------------
Magnitude (a.u.)       :      1.791420267
Magnitude (Debye)      :      4.553428452

Rotational constants in cm-1:             0.087953             0.030675             0.022743
Rotational constants in MHz :          2636.777609           919.604769           681.814557

                             ****ORCA TERMINATED NORMALLY****
TOTAL RUN TIME: 0 days 0 hours 20 minutes 23 seconds 785 msec
