                         Program Version 6.0.0  -   RELEASE  -
|  1> !PBE0 aug-cc-pVTZ d3 TightSCF SlowConv RIJCOSX defgrid2
|  2>
|  3> %pal
|  4> nprocs 4
|  5> end
|  6>
|  7> %scf
|  8> MaxIter 1500
|  9> end
| 10>
| 11> %maxcore 3000
| 12>
| 13> !CPCM
| 14> %cpcm smd true
| 15> SMDsolvent "MeCN"
| 16> surfacetype gepol_ses
| 17> rsolv 2.19
| 18> end
| 19>
| 20> * xyz 1 2
| 21> C           1.38821397253669     -0.85710928094571      0.60741622632202
| 22> C           2.66653568645174     -1.38554775804107      0.62328529651635
| 23> C           3.74096697508373     -0.66019599701418      0.08285810563013
| 24> C           3.54023898785237      0.62233127623213     -0.45460571699329
| 25> C           2.27463505486006      1.17691753163962     -0.46404721541233
| 26> C           1.19493732351435      0.42049377974261      0.03782457404784
| 27> O          -0.00001161826735      1.03053434324458     -0.00007618077340
| 28> C          -1.19494650110222      0.42046263969238     -0.03791233087995
| 29> C          -2.27466316694698      1.17692889833622      0.46385316504035
| 30> C          -3.54025869091077      0.62232307991007      0.45446120210222
| 31> C          -3.74095306617908     -0.66026678297616     -0.08285951221376
| 32> C          -2.66650374430337     -1.38566766681220     -0.62318898600472
| 33> C          -1.38818943489976     -0.85721178830951     -0.60735323061330
| 34> H          -0.55743963132106     -1.38478510741341     -1.08197323083020
| 35> H          -2.84302940822415     -2.36075586477487     -1.08456370453300
| 36> H          -4.74708768097790     -1.08795510804427     -0.10418715284565
| 37> H          -4.38474494788350      1.18417342168211      0.86161853827017
| 38> H          -2.07820409834794      2.17105532289927      0.87220985478457
| 39> H           2.07815534201669      2.17098917949467     -0.87253031915770
| 40> H           4.38471105702739      1.18414197451138     -0.86184555829131
| 41> H           4.74710919235526     -1.08786907382573      0.10421696325696
| 42> H           2.84307759651065     -2.36058562840449      1.08475174308550
| 43> H           0.55748160115515     -1.38464569082344      1.08211306949251
| 44> *
| 45>
| 46>                          ****END OF INPUT****

CARTESIAN COORDINATES (ANGSTROEM)
---------------------------------
  C      1.388214   -0.857109    0.607416
  C      2.666536   -1.385548    0.623285
  C      3.740967   -0.660196    0.082858
  C      3.540239    0.622331   -0.454606
  C      2.274635    1.176918   -0.464047
  C      1.194937    0.420494    0.037825
  O     -0.000012    1.030534   -0.000076
  C     -1.194947    0.420463   -0.037912
  C     -2.274663    1.176929    0.463853
  C     -3.540259    0.622323    0.454461
  C     -3.740953   -0.660267   -0.082860
  C     -2.666504   -1.385668   -0.623189
  C     -1.388189   -0.857212   -0.607353
  H     -0.557440   -1.384785   -1.081973
  H     -2.843029   -2.360756   -1.084564
  H     -4.747088   -1.087955   -0.104187
  H     -4.384745    1.184173    0.861619
  H     -2.078204    2.171055    0.872210
  H      2.078155    2.170989   -0.872530
  H      4.384711    1.184142   -0.861846
  H      4.747109   -1.087869    0.104217
  H      2.843078   -2.360586    1.084752
  H      0.557482   -1.384646    1.082113

 Total Charge           Charge          ....    1
 Multiplicity           Mult            ....    2
 Number of Electrons    NEL             ....   89
 Basis Dimension        Dim             ....  828

ORBITAL ENERGIES
----------------
                 SPIN UP ORBITALS
  NO   OCC          E(Eh)            E(eV)
   0   1.0000     -19.347147      -526.4626
   1   1.0000     -10.349240      -281.6171
   2   1.0000     -10.349219      -281.6166
   3   1.0000     -10.274510      -279.5836
   4   1.0000     -10.274416      -279.5811
   5   1.0000     -10.272952      -279.5412
   6   1.0000     -10.272937      -279.5408
   7   1.0000     -10.270884      -279.4850
   8   1.0000     -10.270875      -279.4847
   9   1.0000     -10.262845      -279.2662
  10   1.0000     -10.262807      -279.2652
  11   1.0000     -10.262557      -279.2584
  12   1.0000     -10.262546      -279.2581
  13   1.0000      -1.207481       -32.8572
  14   1.0000      -0.933482       -25.4013
  15   1.0000      -0.912839       -24.8396
  16   1.0000      -0.840169       -22.8622
  17   1.0000      -0.813762       -22.1436
  18   1.0000      -0.806776       -21.9535
  19   1.0000      -0.783560       -21.3217
  20   1.0000      -0.711612       -19.3640
  21   1.0000      -0.677491       -18.4355
  22   1.0000      -0.656949       -17.8765
  23   1.0000      -0.631237       -17.1768
  24   1.0000      -0.602467       -16.3940
  25   1.0000      -0.556543       -15.1443
  26   1.0000      -0.545790       -14.8517
  27   1.0000      -0.542328       -14.7575
  28   1.0000      -0.531740       -14.4694
  29   1.0000      -0.489593       -13.3225
  30   1.0000      -0.484684       -13.1889
  31   1.0000      -0.471973       -12.8430
  32   1.0000      -0.469996       -12.7892
  33   1.0000      -0.461826       -12.5669
  34   1.0000      -0.457221       -12.4416
  35   1.0000      -0.422535       -11.4978
  36   1.0000      -0.409715       -11.1489
  37   1.0000      -0.405721       -11.0402
  38   1.0000      -0.400153       -10.8887
  39   1.0000      -0.381987       -10.3944
  40   1.0000      -0.379674       -10.3315
  41   1.0000      -0.310840        -8.4584
  42   1.0000      -0.306615        -8.3434
  43   1.0000      -0.302715        -8.2373
  44   1.0000      -0.278057        -7.5663
  45   0.0000      -0.057333        -1.5601
  46   0.0000      -0.044070        -1.1992
  47   0.0000      -0.037736        -1.0269
  48   0.0000      -0.029703        -0.8083
  49   0.0000      -0.002855        -0.0777

                 SPIN DOWN ORBITALS
  NO   OCC          E(Eh)            E(eV)
   0   1.0000     -19.339636      -526.2582
   1   1.0000     -10.348433      -281.5952
   2   1.0000     -10.348411      -281.5946
   3   1.0000     -10.272620      -279.5322
   4   1.0000     -10.272526      -279.5297
   5   1.0000     -10.269455      -279.4461
   6   1.0000     -10.269440      -279.4457
   7   1.0000     -10.269171      -279.4383
   8   1.0000     -10.269164      -279.4381
   9   1.0000     -10.263828      -279.2930
  10   1.0000     -10.263791      -279.2919
  11   1.0000     -10.263443      -279.2825
  12   1.0000     -10.263431      -279.2822
  13   1.0000      -1.193945       -32.4889
  14   1.0000      -0.928451       -25.2644
  15   1.0000      -0.907780       -24.7020
  16   1.0000      -0.835324       -22.7303
  17   1.0000      -0.811302       -22.0766
  18   1.0000      -0.804538       -21.8926
  19   1.0000      -0.774010       -21.0619
  20   1.0000      -0.705744       -19.2043
  21   1.0000      -0.675290       -18.3756
  22   1.0000      -0.653033       -17.7699
  23   1.0000      -0.627909       -17.0863
  24   1.0000      -0.600157       -16.3311
  25   1.0000      -0.553566       -15.0633
  26   1.0000      -0.539356       -14.6766
  27   1.0000      -0.531076       -14.4513
  28   1.0000      -0.522185       -14.2094
  29   1.0000      -0.483460       -13.1556
  30   1.0000      -0.482959       -13.1420
  31   1.0000      -0.468919       -12.7599
  32   1.0000      -0.468258       -12.7419
  33   1.0000      -0.458087       -12.4652
  34   1.0000      -0.451017       -12.2728
  35   1.0000      -0.411392       -11.1945
  36   1.0000      -0.408149       -11.1063
  37   1.0000      -0.399296       -10.8654
  38   1.0000      -0.390790       -10.6339
  39   1.0000      -0.376841       -10.2544
  40   1.0000      -0.373925       -10.1750
  41   1.0000      -0.302686        -8.2365
  42   1.0000      -0.298185        -8.1140
  43   1.0000      -0.282399        -7.6845
  44   0.0000      -0.201829        -5.4920
  45   0.0000      -0.044296        -1.2054
  46   0.0000      -0.036510        -0.9935
  47   0.0000      -0.028772        -0.7829
  48   0.0000      -0.011257        -0.3063

MULLIKEN ATOMIC CHARGES AND SPIN POPULATIONS
--------------------------------------------
   0 C :   -0.500172    0.103462
   1 C :   -0.703988   -0.058088
   2 C :   -0.573361    0.214417
   3 C :   -0.462305   -0.046986
   4 C :   -1.028998    0.082875
   5 C :    1.197228    0.093899
   6 O :   -0.680753    0.235621
   7 C :    1.193523    0.093740
   8 C :   -1.018408    0.082797
   9 C :   -0.479992   -0.046976
  10 C :   -0.579197    0.214351
  11 C :   -0.693986   -0.058246
  12 C :   -0.499687    0.103233
  13 H :    0.657370   -0.005955
  14 H :    0.544511    0.003450
  15 H :    0.618624    0.003888
  16 H :    0.528702    0.001214
  17 H :    0.564506   -0.009279
  18 H :    0.566000   -0.009457
  19 H :    0.529139    0.001185
  20 H :    0.619380    0.003688
  21 H :    0.540577    0.003574
  22 H :    0.661288   -0.006408
Sum of atomic charges         :    1.0000000

LOEWDIN ATOMIC CHARGES AND SPIN POPULATIONS
-------------------------------------------
   0 C :    0.242955    0.067196
   1 C :    0.240045    0.022482
   2 C :    0.246945    0.106840
   3 C :    0.232975    0.023899
   4 C :    0.252190    0.060588
   5 C :   -0.325213    0.085291
   6 O :    0.685968    0.190072
   7 C :   -0.325192    0.085241
   8 C :    0.252230    0.060603
   9 C :    0.232976    0.023876
  10 C :    0.246964    0.106830
  11 C :    0.240074    0.022483
  12 C :    0.242832    0.067202
  13 H :   -0.150980    0.011680
  14 H :   -0.146683   -0.004200
  15 H :   -0.144337    0.025178
  16 H :   -0.148384   -0.003899
  17 H :   -0.142572    0.009944
  18 H :   -0.142581    0.009937
  19 H :   -0.148396   -0.003892
  20 H :   -0.144336    0.025180
  21 H :   -0.146709   -0.004201
  22 H :   -0.150770    0.011671

  Mayer bond orders larger than 0.100000
B(  0-C ,  1-C ) :   1.3659 B(  0-C ,  4-C ) :   0.1996 B(  0-C ,  5-C ) :   0.8389
B(  0-C , 12-C ) :   0.1929 B(  0-C , 22-H ) :   0.3457 B(  1-C ,  2-C ) :   1.4017
B(  1-C ,  5-C ) :  -0.2998 B(  1-C , 21-H ) :   0.5704 B(  2-C ,  3-C ) :   1.3001
B(  2-C ,  4-C ) :   0.3198 B(  2-C , 20-H ) :   0.3873 B(  3-C ,  4-C ) :   1.5106
B(  3-C ,  5-C ) :  -0.3354 B(  3-C , 19-H ) :   0.5819 B(  4-C ,  5-C ) :   0.5225
B(  4-C ,  6-O ) :   0.2557 B(  4-C , 18-H ) :   0.2718 B(  5-C ,  6-O ) :   0.7623
B(  6-O ,  7-C ) :   0.7460 B(  6-O ,  8-C ) :   0.2645 B(  7-C ,  8-C ) :   0.5239
B(  7-C ,  9-C ) :  -0.3452 B(  7-C , 11-C ) :  -0.2930 B(  7-C , 12-C ) :   0.8419
B(  8-C ,  9-C ) :   1.4981 B(  8-C , 10-C ) :   0.3050 B(  8-C , 12-C ) :   0.1950
B(  8-C , 17-H ) :   0.2710 B(  9-C , 10-C ) :   1.3058 B(  9-C , 16-H ) :   0.5789
B( 10-C , 11-C ) :   1.3892 B( 10-C , 15-H ) :   0.3893 B( 11-C , 12-C ) :   1.3519
B( 11-C , 14-H ) :   0.5637 B( 12-C , 13-H ) :   0.3467

Dispersion correction           -0.023487676
FINAL SINGLE POINT ENERGY      -537.879436919755

DIPOLE MOMENT
-------------

Method             : SCF
Type of density    : Electron Density
Multiplicity       :   2
Irrep              :   0
Energy             :  -537.8559492432715388 Eh
Relativity type    :
Basis              : AO
                                X                 Y                 Z
Electronic contribution:     -0.000860950       2.135657557       0.001732969
Nuclear contribution   :      0.000026820      -2.597809167       0.000076640
                        -----------------------------------------
Total Dipole Moment    :     -0.000834130      -0.462151610       0.001809610
                        -----------------------------------------
Magnitude (a.u.)       :      0.462155906
Magnitude (Debye)      :      1.174706957

Rotational constants in cm-1:             0.082583             0.014544             0.013062
Rotational constants in MHz :          2475.769648           436.018937           391.587616

                             ****ORCA TERMINATED NORMALLY****
TOTAL RUN TIME: 0 days 0 hours 12 minutes 45 seconds 466 msec
