                         Program Version 6.0.0  -   RELEASE  -
|  1> !r2SCANh freq aug-cc-pVTZ d3 TightSCF SlowConv RIJCOSX defgrid2
|  2>
|  3> %pal
|  4> nprocs 12
|  5> end
|  6>
|  7> %scf
|  8> MaxIter 1500
|  9> end
| 10>
| 11> %maxcore 5000
| 12>
| 13> !CPCM
| 14> %cpcm smd true
| 15> SMDsolvent "MeCN"
| 16> surfacetype gepol_ses
| 17> rsolv 2.19
| 18> end
| 19>
| 20> * xyz 1 2
| 21> C           0.86875046985433     -1.42274282821881     -0.00075042261325
| 22> C           2.09458720891430     -0.72261662556549      0.00061144052522
| 23> C           2.16611887878942      0.67902134712328     -0.00028351028172
| 24> C           1.02627189216797      1.44555176889771     -0.00113391981612
| 25> C          -0.22076811966180      0.77074923844939     -0.00142002355015
| 26> C          -0.23984070508269     -0.64358733179872     -0.00225639976753
| 27> O          -1.54896509392116     -1.08546780108323     -0.00248422135808
| 28> C          -2.30551172260887      0.00132901971932     -0.00010457519747
| 29> C          -1.54833834217055      1.17894518142721      0.00032995116840
| 30> H          -1.95072383567244      2.17719598963001      0.00296323684549
| 31> H          -3.37244679482399     -0.14989197711142      0.00225541592403
| 32> H           1.06408124061735      2.52463209929186     -0.00161123017722
| 33> H           3.13610111621361      1.15266140919953      0.00048057717069
| 34> H           3.01050581300877     -1.29567141254507      0.00324733749861
| 35> H           0.82923949437577     -2.50114747741556      0.00022694362912
| 36> *
| 37>
| 38>                          ****END OF INPUT****

CARTESIAN COORDINATES (ANGSTROEM)
---------------------------------
  C      0.868750   -1.422743   -0.000750
  C      2.094587   -0.722617    0.000611
  C      2.166119    0.679021   -0.000284
  C      1.026272    1.445552   -0.001134
  C     -0.220768    0.770749   -0.001420
  C     -0.239841   -0.643587   -0.002256
  O     -1.548965   -1.085468   -0.002484
  C     -2.305512    0.001329   -0.000105
  C     -1.548338    1.178945    0.000330
  H     -1.950724    2.177196    0.002963
  H     -3.372447   -0.149892    0.002255
  H      1.064081    2.524632   -0.001611
  H      3.136101    1.152661    0.000481
  H      3.010506   -1.295671    0.003247
  H      0.829239   -2.501147    0.000227

 Total Charge           Charge          ....    1
 Multiplicity           Mult            ....    2
 Number of Electrons    NEL             ....   61
 Basis Dimension        Dim             ....  552

ORBITAL ENERGIES
----------------
                 SPIN UP ORBITALS
  NO   OCC          E(Eh)            E(eV)
   0   1.0000     -19.244933      -523.6812
   1   1.0000     -10.295468      -280.1539
   2   1.0000     -10.268062      -279.4082
   3   1.0000     -10.225284      -278.2441
   4   1.0000     -10.222460      -278.1673
   5   1.0000     -10.220299      -278.1085
   6   1.0000     -10.213508      -277.9237
   7   1.0000     -10.208146      -277.7778
   8   1.0000     -10.189783      -277.2781
   9   1.0000      -1.185058       -32.2471
  10   1.0000      -0.913832       -24.8666
  11   1.0000      -0.859203       -23.3801
  12   1.0000      -0.803010       -21.8510
  13   1.0000      -0.779100       -21.2004
  14   1.0000      -0.680682       -18.5223
  15   1.0000      -0.644594       -17.5403
  16   1.0000      -0.629616       -17.1327
  17   1.0000      -0.559183       -15.2161
  18   1.0000      -0.536458       -14.5978
  19   1.0000      -0.517784       -14.0896
  20   1.0000      -0.511282       -13.9127
  21   1.0000      -0.472066       -12.8456
  22   1.0000      -0.459456       -12.5024
  23   1.0000      -0.446625       -12.1533
  24   1.0000      -0.421030       -11.4568
  25   1.0000      -0.404069       -10.9953
  26   1.0000      -0.391248       -10.6464
  27   1.0000      -0.372274       -10.1301
  28   1.0000      -0.350766        -9.5448
  29   1.0000      -0.290625        -7.9083
  30   1.0000      -0.276611        -7.5270
  31   0.0000      -0.100103        -2.7239
  32   0.0000      -0.048131        -1.3097
  33   0.0000      -0.021590        -0.5875
  34   0.0000       0.008593         0.2338
  35   0.0000       0.020847         0.5673

                 SPIN DOWN ORBITALS
  NO   OCC          E(Eh)            E(eV)
   0   1.0000     -19.244394      -523.6666
   1   1.0000     -10.288965      -279.9770
   2   1.0000     -10.265922      -279.3499
   3   1.0000     -10.222659      -278.1727
   4   1.0000     -10.222052      -278.1562
   5   1.0000     -10.214418      -277.9485
   6   1.0000     -10.209286      -277.8088
   7   1.0000     -10.209007      -277.8012
   8   1.0000     -10.192263      -277.3456
   9   1.0000      -1.181541       -32.1514
  10   1.0000      -0.908085       -24.7103
  11   1.0000      -0.849790       -23.1240
  12   1.0000      -0.799523       -21.7561
  13   1.0000      -0.763262       -20.7694
  14   1.0000      -0.675764       -18.3885
  15   1.0000      -0.638618       -17.3777
  16   1.0000      -0.624174       -16.9846
  17   1.0000      -0.557225       -15.1629
  18   1.0000      -0.532103       -14.4793
  19   1.0000      -0.509358       -13.8603
  20   1.0000      -0.500361       -13.6155
  21   1.0000      -0.470883       -12.8134
  22   1.0000      -0.457083       -12.4379
  23   1.0000      -0.445095       -12.1117
  24   1.0000      -0.418529       -11.3888
  25   1.0000      -0.389912       -10.6100
  26   1.0000      -0.386626       -10.5206
  27   1.0000      -0.371048       -10.0967
  28   1.0000      -0.323939        -8.8148
  29   1.0000      -0.284588        -7.7440
  30   0.0000      -0.209248        -5.6939
  31   0.0000      -0.062677        -1.7055
  32   0.0000      -0.034669        -0.9434
  33   0.0000       0.006233         0.1696
  34   0.0000       0.010219         0.2781

MULLIKEN ATOMIC CHARGES AND SPIN POPULATIONS
--------------------------------------------
   0 C :   -0.893975   -0.047080
   1 C :   -0.096178    0.320213
   2 C :   -0.565386   -0.174436
   3 C :   -0.550729    0.249209
   4 C :    1.184147   -0.023146
   5 C :    0.407686    0.129480
   6 O :   -0.489273    0.006723
   7 C :   -0.379856    0.283550
   8 C :   -0.546512    0.197193
   9 H :    0.446741   -0.005551
  10 H :    0.637344    0.017447
  11 H :    0.146854    0.023031
  12 H :    0.678756   -0.000246
  13 H :    0.381358    0.024501
  14 H :    0.639023   -0.000888
Sum of atomic charges         :    1.0000000

LOEWDIN ATOMIC CHARGES AND SPIN POPULATIONS
-------------------------------------------
   0 C :    0.306164    0.041224
   1 C :    0.281808    0.155395
   2 C :    0.259449    0.014183
   3 C :    0.301407    0.112383
   4 C :   -0.105140    0.079790
   5 C :   -0.323506    0.061838
   6 O :    0.670421    0.057022
   7 C :    0.111927    0.223726
   8 C :    0.348260    0.147770
   9 H :   -0.130067    0.020114
  10 H :   -0.128051    0.039166
  11 H :   -0.141088    0.024407
  12 H :   -0.162650   -0.012565
  13 H :   -0.146196    0.037829
  14 H :   -0.142738   -0.002281

  Mayer bond orders larger than 0.100000
B(  0-C ,  1-C ) :   1.0901 B(  0-C ,  2-C ) :   0.3920 B(  0-C ,  4-C ) :   0.1028
B(  0-C ,  5-C ) :   1.2620 B(  0-C , 12-H ) :  -0.1057 B(  0-C , 13-H ) :   0.1007
B(  1-C ,  2-C ) :   1.0512 B(  1-C ,  3-C ) :  -0.3842 B(  1-C ,  5-C ) :  -0.6974
B(  1-C ,  7-C ) :   0.1086 B(  1-C ,  8-C ) :   0.1178 B(  1-C , 12-H ) :   0.1715
B(  1-C , 13-H ) :   0.7799 B(  1-C , 14-H ) :   0.1521 B(  2-C ,  3-C ) :   1.1412
B(  2-C ,  5-C ) :   0.1112 B(  2-C ,  8-C ) :   0.2190 B(  2-C , 12-H ) :   0.1645
B(  3-C ,  4-C ) :   0.6506 B(  3-C ,  5-C ) :  -0.7230 B(  3-C ,  9-H ) :   0.1414
B(  3-C , 11-H ) :   1.3701 B(  3-C , 12-H ) :  -0.1050 B(  3-C , 14-H ) :   0.1026
B(  4-C ,  5-C ) :   1.1793 B(  4-C ,  7-C ) :  -0.3641 B(  4-C ,  8-C ) :   0.6295
B(  4-C , 13-H ) :  -0.1325 B(  5-C ,  6-O ) :   0.5018 B(  5-C ,  8-C ) :   0.2800
B(  5-C , 11-H ) :   0.1913 B(  5-C , 13-H ) :   0.1390 B(  6-O ,  7-C ) :   1.3513
B(  7-C ,  8-C ) :   0.9149 B(  7-C , 10-H ) :   0.4780 B(  8-C ,  9-H ) :   0.7086
B(  8-C , 11-H ) :  -0.1225

Dispersion correction           -0.004777925
FINAL SINGLE POINT ENERGY      -383.377387667703

DIPOLE MOMENT
-------------

Method             : SCF
Type of density    : Electron Density
Multiplicity       :   2
Irrep              :   0
Energy             :  -383.3726097430478603 Eh
Relativity type    :
Basis              : AO
                                X                 Y                 Z
Electronic contribution:     -3.026837636      -1.151028798      -0.007660069
Nuclear contribution   :      2.522445336       1.773273589       0.011466023
                        -----------------------------------------
Total Dipole Moment    :     -0.504392301       0.622244792       0.003805954
                        -----------------------------------------
Magnitude (a.u.)       :      0.801008526
Magnitude (Debye)      :      2.036001870

VIBRATIONAL FREQUENCIES
-----------------------

Scaling factor for frequencies =  1.000000000  (already applied!)

     0:       0.00 cm**-1
     1:       0.00 cm**-1
     2:       0.00 cm**-1
     3:       0.00 cm**-1
     4:       0.00 cm**-1
     5:       0.00 cm**-1
     6:     179.68 cm**-1
     7:     228.45 cm**-1
     8:     387.46 cm**-1
     9:     405.65 cm**-1
    10:     487.41 cm**-1
    11:     521.14 cm**-1
    12:     539.31 cm**-1
    13:     619.27 cm**-1
    14:     722.57 cm**-1
    15:     772.92 cm**-1
    16:     775.50 cm**-1
    17:     817.18 cm**-1
    18:     870.18 cm**-1
    19:     879.96 cm**-1
    20:     893.42 cm**-1
    21:     922.04 cm**-1
    22:     972.98 cm**-1
    23:    1008.93 cm**-1
    24:    1011.85 cm**-1
    25:    1048.69 cm**-1
    26:    1111.87 cm**-1
    27:    1135.10 cm**-1
    28:    1158.37 cm**-1
    29:    1191.66 cm**-1
    30:    1264.47 cm**-1
    31:    1291.73 cm**-1
    32:    1382.31 cm**-1
    33:    1402.38 cm**-1
    34:    1455.51 cm**-1
    35:    1460.33 cm**-1
    36:    1513.57 cm**-1
    37:    1603.83 cm**-1
    38:    1677.60 cm**-1
    39:    3221.58 cm**-1
    40:    3230.17 cm**-1
    41:    3239.41 cm**-1
    42:    3243.77 cm**-1
    43:    3278.06 cm**-1
    44:    3290.71 cm**-1

IR SPECTRUM
-----------

 Mode   freq       eps      Int      T**2         TX        TY        TZ
       cm**-1   L/(mol*cm) km/mol    a.u.
----------------------------------------------------------------------------
  6:    179.68   0.003734   18.87  0.006485  (-0.000077 -0.000044  0.080527)
  7:    228.45   0.000009    0.05  0.000012  ( 0.000507  0.000236 -0.003474)
  8:    387.46   0.003069   15.51  0.002472  ( 0.000634 -0.000182 -0.049713)
  9:    405.65   0.004145   20.95  0.003189  ( 0.047987  0.029771  0.000021)
 10:    487.41   0.001600    8.09  0.001024  (-0.000579  0.000430 -0.031998)
 11:    521.14   0.000482    2.44  0.000289  ( 0.005373  0.016122  0.000190)
 12:    539.31   0.000138    0.70  0.000080  (-0.000639  0.000022 -0.008925)
 13:    619.27   0.001297    6.56  0.000654  ( 0.025414 -0.002781 -0.000234)
 14:    722.57   0.008380   42.35  0.003619  ( 0.000031 -0.000101  0.060159)
 15:    772.92   0.002236   11.30  0.000903  (-0.000262  0.000628  0.030037)
 16:    775.50   0.000612    3.09  0.000246  ( 0.007226 -0.013799  0.001876)
 17:    817.18   0.020766  104.94  0.007930  (-0.000355  0.000302  0.089049)
 18:    870.18   0.005240   26.48  0.001879  ( 0.015442  0.040506 -0.000378)
 19:    879.96   0.000430    2.17  0.000152  (-0.000104  0.000112 -0.012344)
 20:    893.42   0.006680   33.76  0.002333  ( 0.048045  0.005002  0.000129)
 21:    922.04   0.000268    1.36  0.000091  ( 0.000251  0.000304  0.009525)
 22:    972.98   0.001659    8.38  0.000532  (-0.000191  0.000153  0.023062)
 23:   1008.93   0.000221    1.12  0.000068  (-0.000011  0.000331  0.008263)
 24:   1011.85   0.002543   12.85  0.000784  ( 0.022994 -0.015982 -0.000294)
 25:   1048.69   0.000745    3.77  0.000222  ( 0.009720  0.011284  0.000030)
 26:   1111.87   0.004189   21.17  0.001176  (-0.026122  0.022213 -0.000115)
 27:   1135.10   0.012885   65.12  0.003542  (-0.058996  0.007867  0.000022)
 28:   1158.37   0.006890   34.82  0.001856  (-0.037922 -0.020450  0.000029)
 29:   1191.66   0.015621   78.94  0.004091  ( 0.037555  0.051772 -0.000001)
 30:   1264.47   0.028605  144.56  0.007060  ( 0.083261 -0.011273 -0.000080)
 31:   1291.73   0.000616    3.12  0.000149  ( 0.012196 -0.000436  0.000055)
 32:   1382.31   0.019018   96.11  0.004293  ( 0.038727 -0.052854 -0.000070)
 33:   1402.38   0.016814   84.97  0.003742  (-0.042584 -0.043912 -0.000013)
 34:   1455.51   0.057953  292.87  0.012425  ( 0.110560  0.014206  0.000008)
 35:   1460.33   0.017159   86.71  0.003667  ( 0.060392 -0.004413  0.000148)
 36:   1513.57   0.022443  113.42  0.004627  (-0.052056  0.043789 -0.000016)
 37:   1603.83   0.001098    5.55  0.000214  ( 0.011335 -0.009226  0.000019)
 38:   1677.60   0.036151  182.69  0.006725  (-0.073624  0.036113 -0.000083)
 39:   3221.58   0.000318    1.61  0.000031  ( 0.000285 -0.005542 -0.000045)
 40:   3230.17   0.000591    2.99  0.000057  (-0.006122  0.004429  0.000066)
 41:   3239.41   0.000359    1.81  0.000035  ( 0.005359 -0.002424 -0.000003)
 42:   3243.77   0.000425    2.15  0.000041  (-0.003881 -0.005077  0.000073)
 43:   3278.06   0.003854   19.48  0.000367  ( 0.011648  0.015205  0.000023)
 44:   3290.71   0.001386    7.00  0.000131  (-0.009700  0.006106  0.000175)

--------------------------
THERMOCHEMISTRY AT 298.15K
--------------------------

Temperature         ...   298.15 K
Pressure            ...     1.00 atm
Total Mass          ...   118.13 AMU
Quasi RRHO          ...     True
Cut-Off Frequency   ...     1.00 cm^-1

Throughout the following assumptions are being made:
  (1) The electronic state is orbitally nondegenerate
      but the spin degeneracy is treated
  (2) There are no thermally accessible electronically excited states
  (3) Hindered rotations indicated by low frequency modes are not
      treated as such but are treated as vibrations and this may
      cause some error
  (4) All equations used are the standard statistical mechanics
      equations for an ideal gas
  (5) All vibrations are strictly harmonic

freq.     179.68  E(vib)   ...       0.37
freq.     228.45  E(vib)   ...       0.32
freq.     387.46  E(vib)   ...       0.20
freq.     405.65  E(vib)   ...       0.19
freq.     487.41  E(vib)   ...       0.15
freq.     521.14  E(vib)   ...       0.13
freq.     539.31  E(vib)   ...       0.12
freq.     619.27  E(vib)   ...       0.09
freq.     722.57  E(vib)   ...       0.07
freq.     772.92  E(vib)   ...       0.05
freq.     775.50  E(vib)   ...       0.05
freq.     817.18  E(vib)   ...       0.05
freq.     870.18  E(vib)   ...       0.04
freq.     879.96  E(vib)   ...       0.04
freq.     893.42  E(vib)   ...       0.03
freq.     922.04  E(vib)   ...       0.03
freq.     972.98  E(vib)   ...       0.03
freq.    1008.93  E(vib)   ...       0.02
freq.    1011.85  E(vib)   ...       0.02
freq.    1048.69  E(vib)   ...       0.02
freq.    1111.87  E(vib)   ...       0.01
freq.    1135.10  E(vib)   ...       0.01
freq.    1158.37  E(vib)   ...       0.01
freq.    1191.66  E(vib)   ...       0.01
freq.    1264.47  E(vib)   ...       0.01
freq.    1291.73  E(vib)   ...       0.01
freq.    1382.31  E(vib)   ...       0.01
freq.    1402.38  E(vib)   ...       0.00
freq.    1455.51  E(vib)   ...       0.00
freq.    1460.33  E(vib)   ...       0.00
freq.    1513.57  E(vib)   ...       0.00
freq.    1603.83  E(vib)   ...       0.00
freq.    1677.60  E(vib)   ...       0.00
freq.    3221.58  E(vib)   ...       0.00
freq.    3230.17  E(vib)   ...       0.00
freq.    3239.41  E(vib)   ...       0.00
freq.    3243.77  E(vib)   ...       0.00
freq.    3278.06  E(vib)   ...       0.00
freq.    3290.71  E(vib)   ...       0.00

------------
INNER ENERGY
------------

The inner energy is: U= E(el) + E(ZPE) + E(vib) + E(rot) + E(trans)
    E(el)   - is the total energy from the electronic structure calculation
              = E(kin-el) + E(nuc-el) + E(el-el) + E(nuc-nuc)
    E(ZPE)  - the the zero temperature vibrational energy from the frequency calculation
    E(vib)  - the the finite temperature correction to E(ZPE) due to population
              of excited vibrational states
    E(rot)  - is the rotational thermal energy
    E(trans)- is the translational thermal energy

Summary of contributions to the inner energy U:
Electronic energy                ...   -383.37738767 Eh
Zero point energy                ...      0.11668094 Eh      73.22 kcal/mol
Thermal vibrational correction   ...      0.00338546 Eh       2.12 kcal/mol
Thermal rotational correction    ...      0.00141627 Eh       0.89 kcal/mol
Thermal translational correction ...      0.00141627 Eh       0.89 kcal/mol
-----------------------------------------------------------------------
Total thermal energy                   -383.25448872 Eh

Summary of corrections to the electronic energy:
(perhaps to be used in another calculation)
Total thermal correction                  0.00621800 Eh       3.90 kcal/mol
Non-thermal (ZPE) correction              0.11668094 Eh      73.22 kcal/mol
-----------------------------------------------------------------------
Total correction                          0.12289895 Eh      77.12 kcal/mol

--------
ENTHALPY
--------

The enthalpy is H = U + kB*T
                kB is Boltzmann's constant
Total thermal energy              ...   -383.25448872 Eh
Thermal Enthalpy correction       ...      0.00094421 Eh       0.59 kcal/mol
-----------------------------------------------------------------------
Total Enthalpy                    ...   -383.25354451 Eh

Note: Only C1 symmetry has been detected, increase convergence thresholds
      if your molecule has a higher symmetry. Symmetry factor of 1.0 is
      used for the rotational entropy correction.

Note: Rotational entropy computed according to Herzberg
Infrared and Raman Spectra, Chapter V,1, Van Nostrand Reinhold, 1945
Point Group:  C1, Symmetry Number:   1
Rotational constants in cm-1:     0.130320     0.056317     0.039324

Vibrational entropy computed according to the QRRHO of S. Grimme
Chem.Eur.J. 2012 18 9955 using a reference frequency of 100.0 cm-1

-------
ENTROPY
-------

The entropy contributions are T*S = T*(S(el)+S(vib)+S(rot)+S(trans))
     S(el)   - electronic entropy
     S(vib)  - vibrational entropy
     S(rot)  - rotational entropy
     S(trans)- translational entropy
The entropies will be listed as multiplied by the temperature to get
units of energy

Electronic entropy                ...      0.00065446 Eh      0.41 kcal/mol
Vibrational entropy               ...      0.00508085 Eh      3.19 kcal/mol
Rotational entropy                ...      0.01335856 Eh      8.38 kcal/mol
Translational entropy             ...      0.01910727 Eh     11.99 kcal/mol
-----------------------------------------------------------------------
Final entropy term                ...      0.03820114 Eh     23.97 kcal/mol

In case the symmetry of your molecule has not been determined correctly
or in case you have a reason to use a different symmetry number we print
out the resulting rotational entropy values for sn=1,12:

 non-linear molecules -----------------------------------
|  sn= 1 | S(rot)=       0.01335856 Eh      8.38 kcal/mol|
|  sn= 2 | S(rot)=       0.01270410 Eh      7.97 kcal/mol|
|  sn= 3 | S(rot)=       0.01232127 Eh      7.73 kcal/mol|
|  sn= 4 | S(rot)=       0.01204965 Eh      7.56 kcal/mol|
|  sn= 5 | S(rot)=       0.01183896 Eh      7.43 kcal/mol|
|  sn= 6 | S(rot)=       0.01166682 Eh      7.32 kcal/mol|
|  sn= 7 | S(rot)=       0.01152127 Eh      7.23 kcal/mol|
|  sn= 8 | S(rot)=       0.01139519 Eh      7.15 kcal/mol|
|  sn= 9 | S(rot)=       0.01128398 Eh      7.08 kcal/mol|
|  sn=10 | S(rot)=       0.01118450 Eh      7.02 kcal/mol|
|  sn=11 | S(rot)=       0.01109451 Eh      6.96 kcal/mol|
|  sn=12 | S(rot)=       0.01101236 Eh      6.91 kcal/mol|
 linear molecules ---------------------------------------
|  Dinfh | S(rot)=       0.00838111 Eh      5.26 kcal/mol|
|  Cinfv | S(rot)=       0.00903557 Eh      5.67 kcal/mol|
 --------------------------------------------------------

-------------------
GIBBS FREE ENERGY

                             ****ORCA TERMINATED NORMALLY****
TOTAL RUN TIME: 0 days 0 hours 47 minutes 12 seconds 608 msec
