                         Program Version 6.0.0  -   RELEASE  -
|  1> !r2SCANh aug-cc-pVTZ d3 TightSCF SlowConv RIJCOSX defgrid2
|  2>
|  3> %pal
|  4> nprocs 4
|  5> end
|  6>
|  7> %scf
|  8> MaxIter 1500
|  9> end
| 10>
| 11> %maxcore 3000
| 12>
| 13> !CPCM
| 14> %cpcm smd true
| 15> SMDsolvent "MeCN"
| 16> surfacetype gepol_ses
| 17> rsolv 2.19
| 18> end
| 19>
| 20> * xyz 0 1
| 21> C          -2.28943628984998     -1.08285381421457     -0.27215993229653
| 22> C          -1.22862023156136      0.01586077259453     -0.25601491731078
| 23> N           0.00661098110282     -0.50212633579045      0.31354199000874
| 24> H           0.04448546198884     -0.34374633262279      1.31992834627211
| 25> C           1.26761402703144     -0.16050590389698     -0.31641071653716
| 26> C           1.61227695016871      1.33248737268488     -0.33804198779464
| 27> H           1.67848646199772      1.73094232260326      0.69159025810039
| 28> H           0.85105477369420      1.91805645848033     -0.88142696576002
| 29> H           2.58358136031093      1.51068050094161     -0.83364819199688
| 30> C           2.37625730002657     -0.96447955561106      0.35107581249572
| 31> H           2.13332648923035     -2.03958118968627      0.33268241243102
| 32> H           3.34622361909672     -0.80670159196001     -0.15062911203137
| 33> H           2.49537611972548     -0.65946405577216      1.40819901441394
| 34> H           1.19295505843491     -0.50230950030642     -1.36701945226968
| 35> C          -1.75092025319689      1.26393539098600      0.45804448286514
| 36> H          -1.01077279835727      2.08120251713453      0.44660788818213
| 37> H          -1.98089959571268      1.02983730439430      1.51486395854639
| 38> H          -2.68129026142747      1.63712259892000     -0.00568309259664
| 39> H          -1.00714489185693      0.28572149795558     -1.30571438011138
| 40> H          -1.91525958204469     -1.96452646149950     -0.81800405837007
| 41> H          -2.52324219300596     -1.40342780976556      0.75957368070162
| 42> H          -3.22778530579547     -0.74080268556924     -0.74485933694205
| 43> *
| 44>
| 45>                          ****END OF INPUT****

CARTESIAN COORDINATES (ANGSTROEM)
---------------------------------
  C     -2.289436   -1.082854   -0.272160
  C     -1.228620    0.015861   -0.256015
  N      0.006611   -0.502126    0.313542
  H      0.044485   -0.343746    1.319928
  C      1.267614   -0.160506   -0.316411
  C      1.612277    1.332487   -0.338042
  H      1.678486    1.730942    0.691590
  H      0.851055    1.918056   -0.881427
  H      2.583581    1.510681   -0.833648
  C      2.376257   -0.964480    0.351076
  H      2.133326   -2.039581    0.332682
  H      3.346224   -0.806702   -0.150629
  H      2.495376   -0.659464    1.408199
  H      1.192955   -0.502310   -1.367019
  C     -1.750920    1.263935    0.458044
  H     -1.010773    2.081203    0.446608
  H     -1.980900    1.029837    1.514864
  H     -2.681290    1.637123   -0.005683
  H     -1.007145    0.285721   -1.305714
  H     -1.915260   -1.964526   -0.818004
  H     -2.523242   -1.403428    0.759574
  H     -3.227785   -0.740803   -0.744859

 Total Charge           Charge          ....    0
 Multiplicity           Mult            ....    1
 Number of Electrons    NEL             ....   58
 Basis Dimension        Dim             ....  667

ORBITAL ENERGIES
----------------

  NO   OCC          E(Eh)            E(eV)
   0   2.0000     -14.274263      -388.4224
   1   2.0000     -10.176944      -276.9287
   2   2.0000     -10.176376      -276.9133
   3   2.0000     -10.135233      -275.7937
   4   2.0000     -10.134832      -275.7828
   5   2.0000     -10.133248      -275.7397
   6   2.0000     -10.132717      -275.7252
   7   2.0000      -0.902941       -24.5703
   8   2.0000      -0.778940       -21.1960
   9   2.0000      -0.717516       -19.5246
  10   2.0000      -0.674186       -18.3455
  11   2.0000      -0.667769       -18.1709
  12   2.0000      -0.572469       -15.5777
  13   2.0000      -0.566838       -15.4244
  14   2.0000      -0.462732       -12.5916
  15   2.0000      -0.452183       -12.3045
  16   2.0000      -0.420396       -11.4396
  17   2.0000      -0.406233       -11.0542
  18   2.0000      -0.404618       -11.0102
  19   2.0000      -0.382695       -10.4137
  20   2.0000      -0.370486       -10.0814
  21   2.0000      -0.363089        -9.8801
  22   2.0000      -0.360059        -9.7977
  23   2.0000      -0.334991        -9.1156
  24   2.0000      -0.332261        -9.0413
  25   2.0000      -0.313281        -8.5248
  26   2.0000      -0.310122        -8.4389
  27   2.0000      -0.305823        -8.3219
  28   2.0000      -0.201152        -5.4736
  29   0.0000       0.013261         0.3608
  30   0.0000       0.025490         0.6936
  31   0.0000       0.027290         0.7426
  32   0.0000       0.027605         0.7512
  33   0.0000       0.045667         1.2427

MULLIKEN ATOMIC CHARGES
-----------------------
   0 C :   -1.252973
   1 C :    1.072692
   2 N :   -0.531940
   3 H :   -0.040823
   4 C :    0.891259
   5 C :   -0.816934
   6 H :    0.220720
   7 H :    0.172126
   8 H :    0.186785
   9 C :   -1.153334
  10 H :    0.170114
  11 H :    0.187976
  12 H :    0.201926
  13 H :    0.295052
  14 C :   -0.979987
  15 H :    0.238829
  16 H :    0.185682
  17 H :    0.171955
  18 H :    0.215752
  19 H :    0.161233
  20 H :    0.203241
  21 H :    0.200649
Sum of atomic charges:   -0.0000000

LOEWDIN ATOMIC CHARGES
----------------------
   0 C :    0.572010
   1 C :   -0.199590
   2 N :    0.571097
   3 H :   -0.282347
   4 C :   -0.204222
   5 C :    0.579635
   6 H :   -0.151335
   7 H :   -0.173789
   8 H :   -0.157483
   9 C :    0.569510
  10 H :   -0.163203
  11 H :   -0.157874
  12 H :   -0.154414
  13 H :   -0.126718
  14 C :    0.582011
  15 H :   -0.176378
  16 H :   -0.153211
  17 H :   -0.155637
  18 H :   -0.131933
  19 H :   -0.166372
  20 H :   -0.159724
  21 H :   -0.160034

  Mayer bond orders larger than 0.100000
B(  0-C ,  1-C ) :   0.2394 B(  0-C ,  2-N ) :   0.1594 B(  0-C , 14-C ) :   0.2104
B(  0-C , 19-H ) :   1.0766 B(  0-C , 20-H ) :   1.0192 B(  0-C , 21-H ) :   1.0362
B(  1-C ,  2-N ) :   0.8057 B(  1-C ,  4-C ) :   0.1431 B(  1-C , 14-C ) :   0.4948
B(  1-C , 18-H ) :   0.9350 B(  2-N ,  3-H ) :   0.9521 B(  2-N ,  4-C ) :   0.7173
B(  2-N ,  9-C ) :   0.1315 B(  2-N , 13-H ) :  -0.1270 B(  4-C ,  5-C ) :   0.6514
B(  4-C ,  9-C ) :   0.3994 B(  4-C , 13-H ) :   0.8866 B(  5-C ,  6-H ) :   0.9820
B(  5-C ,  7-H ) :   1.0136 B(  5-C ,  8-H ) :   0.9795 B(  5-C ,  9-C ) :   0.1892
B(  9-C , 10-H ) :   1.0358 B(  9-C , 11-H ) :   1.0692 B(  9-C , 12-H ) :   0.9982
B( 14-C , 15-H ) :   0.9497 B( 14-C , 16-H ) :   1.0194 B( 14-C , 17-H ) :   1.0350

Dispersion correction           -0.005757628
FINAL SINGLE POINT ENERGY      -292.345086672879

DIPOLE MOMENT
-------------

Method             : SCF
Type of density    : Electron Density
Multiplicity       :   1
Irrep              :   0
Energy             :  -292.3393290447393724 Eh
Relativity type    :
Basis              : AO
                                X                 Y                 Z
Electronic contribution:      0.076504692      -1.179010198      -0.290805415
Nuclear contribution   :     -0.008091156       1.682730653       0.307275943
                        -----------------------------------------
Total Dipole Moment    :      0.068413536       0.503720455       0.016470528
                        -----------------------------------------
Magnitude (a.u.)       :      0.508611823
Magnitude (Debye)      :      1.292788516

Rotational constants in cm-1:             0.137775             0.051485             0.041834
Rotational constants in MHz :          4130.376208          1543.470169          1254.154944

                             ****ORCA TERMINATED NORMALLY****
TOTAL RUN TIME: 0 days 0 hours 4 minutes 9 seconds 488 msec
