                         Program Version 6.0.0  -   RELEASE  -
|  1> !TPSSh aug-cc-pVTZ d3 TightSCF SlowConv RIJCOSX defgrid2
|  2>
|  3> %pal
|  4> nprocs 4
|  5> end
|  6>
|  7> %scf
|  8> MaxIter 1500
|  9> end
| 10>
| 11> %maxcore 3000
| 12>
| 13> !CPCM
| 14> %cpcm smd true
| 15> SMDsolvent "MeCN"
| 16> surfacetype gepol_ses
| 17> rsolv 2.19
| 18> end
| 19>
| 20> * xyz 1 2
| 21> C          -1.37570161970798      1.24248775146081      0.14964467519830
| 22> C          -2.72328606993136      1.33933244972942     -0.12972549489389
| 23> C          -3.50332136231250      0.18456023805622     -0.29662204383798
| 24> C          -2.90850381676726     -1.08060950224510     -0.17914577968731
| 25> C          -1.56009156673199     -1.19946806950118      0.08819160883999
| 26> C          -0.74929788406068     -0.03596298254245      0.25549211350325
| 27> N           0.58169156042701     -0.14755492533350      0.51923516368239
| 28> C           1.35906971560407     -1.35389965269269      0.28665855372844
| 29> H           1.88509976437755     -1.61600692768801      1.22001003582768
| 30> H           0.72298603517521     -2.19210005080425     -0.01631674285562
| 31> C           2.39456488415066     -1.05887336973135     -0.81777740540371
| 32> H           1.85949130432221     -0.86633084185637     -1.77045067834009
| 33> H           3.04102795891331     -1.94051290095387     -0.94478618718467
| 34> O           3.20182115584000      0.01450222304714     -0.46263444369679
| 35> C           2.47636872597331      1.18215324578846     -0.25260675546455
| 36> H           3.18364575605233      1.96931206906534      0.04942966335265
| 37> H           1.95240344881149      1.50557330797809     -1.17560901565404
| 38> C           1.44564375796760      0.96716490649827      0.86894476596378
| 39> H           0.87103596845838      1.87677062866973      1.07105968779003
| 40> H           1.98209056577574      0.68782297194295      1.79196599824839
| 41> H          -1.13914062593493     -2.19705534469310      0.21352347531936
| 42> H          -3.51569254322193     -1.98314623006578     -0.28645384104721
| 43> H          -4.57208793284479      0.27077776097684     -0.51046305441418
| 44> H          -3.18143391858996      2.32714955314318     -0.22534185944500
| 45> H          -0.79875706174547      2.16114869175120      0.25195876047079
| 46> *
| 47>
| 48>                          ****END OF INPUT****

CARTESIAN COORDINATES (ANGSTROEM)
---------------------------------
  C     -1.375702    1.242488    0.149645
  C     -2.723286    1.339332   -0.129725
  C     -3.503321    0.184560   -0.296622
  C     -2.908504   -1.080610   -0.179146
  C     -1.560092   -1.199468    0.088192
  C     -0.749298   -0.035963    0.255492
  N      0.581692   -0.147555    0.519235
  C      1.359070   -1.353900    0.286659
  H      1.885100   -1.616007    1.220010
  H      0.722986   -2.192100   -0.016317
  C      2.394565   -1.058873   -0.817777
  H      1.859491   -0.866331   -1.770451
  H      3.041028   -1.940513   -0.944786
  O      3.201821    0.014502   -0.462634
  C      2.476369    1.182153   -0.252607
  H      3.183646    1.969312    0.049430
  H      1.952403    1.505573   -1.175609
  C      1.445644    0.967165    0.868945
  H      0.871036    1.876771    1.071060
  H      1.982091    0.687823    1.791966
  H     -1.139141   -2.197055    0.213523
  H     -3.515693   -1.983146   -0.286454
  H     -4.572088    0.270778   -0.510463
  H     -3.181434    2.327150   -0.225342
  H     -0.798757    2.161149    0.251959

 Total Charge           Charge          ....    1
 Multiplicity           Mult            ....    2
 Number of Electrons    NEL             ....   87
 Basis Dimension        Dim             ....  851

ORBITAL ENERGIES
----------------
                 SPIN UP ORBITALS
  NO   OCC          E(Eh)            E(eV)
   0   1.0000     -19.085478      -519.3423
   1   1.0000     -14.365129      -390.8950
   2   1.0000     -10.205316      -277.7008
   3   1.0000     -10.182420      -277.0777
   4   1.0000     -10.181960      -277.0652
   5   1.0000     -10.175348      -276.8853
   6   1.0000     -10.174770      -276.8696
   7   1.0000     -10.154029      -276.3052
   8   1.0000     -10.153704      -276.2963
   9   1.0000     -10.151670      -276.2410
  10   1.0000     -10.142140      -275.9816
  11   1.0000     -10.141829      -275.9732
  12   1.0000      -1.060575       -28.8597
  13   1.0000      -0.997542       -27.1445
  14   1.0000      -0.861985       -23.4558
  15   1.0000      -0.786767       -21.4090
  16   1.0000      -0.774109       -21.0646
  17   1.0000      -0.758213       -20.6320
  18   1.0000      -0.700429       -19.0596
  19   1.0000      -0.676849       -18.4180
  20   1.0000      -0.626541       -17.0490
  21   1.0000      -0.608982       -16.5712
  22   1.0000      -0.576829       -15.6963
  23   1.0000      -0.552490       -15.0340
  24   1.0000      -0.504372       -13.7247
  25   1.0000      -0.499932       -13.6038
  26   1.0000      -0.485182       -13.2025
  27   1.0000      -0.482853       -13.1391
  28   1.0000      -0.473969       -12.8974
  29   1.0000      -0.454868       -12.3776
  30   1.0000      -0.442055       -12.0289
  31   1.0000      -0.434461       -11.8223
  32   1.0000      -0.431265       -11.7353
  33   1.0000      -0.399052       -10.8588
  34   1.0000      -0.392748       -10.6872
  35   1.0000      -0.378319       -10.2946
  36   1.0000      -0.368410       -10.0249
  37   1.0000      -0.364109        -9.9079
  38   1.0000      -0.347172        -9.4470
  39   1.0000      -0.340979        -9.2785
  40   1.0000      -0.313296        -8.5252
  41   1.0000      -0.279275        -7.5994
  42   1.0000      -0.273450        -7.4410
  43   1.0000      -0.233348        -6.3497
  44   0.0000      -0.050901        -1.3851
  45   0.0000      -0.047100        -1.2816
  46   0.0000      -0.007570        -0.2060
  47   0.0000       0.004468         0.1216
  48   0.0000       0.006703         0.1824

                 SPIN DOWN ORBITALS
  NO   OCC          E(Eh)            E(eV)
   0   1.0000     -19.084392      -519.3127
   1   1.0000     -14.354181      -390.5971
   2   1.0000     -10.206247      -277.7261
   3   1.0000     -10.181603      -277.0555
   4   1.0000     -10.181229      -277.0453
   5   1.0000     -10.175472      -276.8887
   6   1.0000     -10.174936      -276.8741
   7   1.0000     -10.150928      -276.2208
   8   1.0000     -10.150673      -276.2139
   9   1.0000     -10.147303      -276.1222
  10   1.0000     -10.143616      -276.0218
  11   1.0000     -10.143358      -276.0148
  12   1.0000      -1.058059       -28.7912
  13   1.0000      -0.982619       -26.7384
  14   1.0000      -0.857010       -23.3204
  15   1.0000      -0.784339       -21.3429
  16   1.0000      -0.770533       -20.9673
  17   1.0000      -0.755577       -20.5603
  18   1.0000      -0.691570       -18.8186
  19   1.0000      -0.675693       -18.3865
  20   1.0000      -0.622331       -16.9345
  21   1.0000      -0.606371       -16.5002
  22   1.0000      -0.573097       -15.5948
  23   1.0000      -0.549063       -14.9408
  24   1.0000      -0.499219       -13.5844
  25   1.0000      -0.496684       -13.5155
  26   1.0000      -0.483420       -13.1545
  27   1.0000      -0.475812       -12.9475
  28   1.0000      -0.470379       -12.7997
  29   1.0000      -0.448407       -12.2018
  30   1.0000      -0.439801       -11.9676
  31   1.0000      -0.433583       -11.7984
  32   1.0000      -0.425139       -11.5686
  33   1.0000      -0.395449       -10.7607
  34   1.0000      -0.383856       -10.4452
  35   1.0000      -0.376338       -10.2407
  36   1.0000      -0.366856        -9.9827
  37   1.0000      -0.361459        -9.8358
  38   1.0000      -0.342335        -9.3154
  39   1.0000      -0.327781        -8.9194
  40   1.0000      -0.304208        -8.2779
  41   1.0000      -0.271301        -7.3825
  42   1.0000      -0.264070        -7.1857
  43   0.0000      -0.174734        -4.7548
  44   0.0000      -0.042374        -1.1531
  45   0.0000      -0.030528        -0.8307
  46   0.0000      -0.006483        -0.1764
  47   0.0000       0.005685         0.1547

MULLIKEN ATOMIC CHARGES AND SPIN POPULATIONS
--------------------------------------------
   0 C :   -0.308155    0.172484
   1 C :   -0.598269   -0.089908
   2 C :   -0.441882    0.279230
   3 C :   -0.531059   -0.097077
   4 C :   -0.443597    0.178059
   5 C :    1.307345    0.030221
   6 N :    0.144776    0.439184
   7 C :   -0.221683   -0.039525
   8 H :    0.079645    0.017770
   9 H :    0.018101    0.003965
  10 C :    0.340261    0.045790
  11 H :    0.123852    0.002831
  12 H :    0.008284    0.005903
  13 O :   -0.653767    0.038419
  14 C :    0.326653    0.043604
  15 H :    0.027497    0.004730
  16 H :    0.125340    0.004766
  17 C :   -0.270010   -0.052780
  18 H :    0.005357   -0.000713
  19 H :    0.022741    0.031103
  20 H :    0.369007   -0.006007
  21 H :    0.383854   -0.003977
  22 H :    0.408870    0.008800
  23 H :    0.349204   -0.004026
  24 H :    0.427638   -0.012845
Sum of atomic charges         :    1.0000000

LOEWDIN ATOMIC CHARGES AND SPIN POPULATIONS
-------------------------------------------
   0 C :    0.273407    0.087847
   1 C :    0.240131    0.024583
   2 C :    0.244064    0.127121
   3 C :    0.239552    0.023669
   4 C :    0.274052    0.089221
   5 C :   -0.133018    0.082315
   6 N :    0.342514    0.287041
   7 C :    0.276066    0.048667
   8 H :   -0.096582    0.010783
   9 H :   -0.154219    0.002305
  10 C :    0.072456    0.027254
  11 H :   -0.120577    0.003076
  12 H :   -0.125568    0.005131
  13 O :    0.619153    0.032620
  14 C :    0.071650    0.025628
  15 H :   -0.125566    0.004492
  16 H :   -0.120918    0.003492
  17 C :    0.271886    0.048308
  18 H :   -0.149495    0.001963
  19 H :   -0.099068    0.012356
  20 H :   -0.171390    0.017972
  21 H :   -0.152588   -0.007279
  22 H :   -0.150820    0.030570
  23 H :   -0.152403   -0.006999
  24 H :   -0.172716    0.017866

  Mayer bond orders larger than 0.100000
B(  0-C ,  1-C ) :   1.5093 B(  0-C ,  2-C ) :   0.3215 B(  0-C ,  3-C ) :  -0.1135
B(  0-C ,  4-C ) :   0.2026 B(  0-C ,  5-C ) :   0.5816 B(  0-C ,  6-N ) :  -0.1382
B(  0-C , 23-H ) :   0.2063 B(  0-C , 24-H ) :   0.2845 B(  1-C ,  2-C ) :   1.3585
B(  1-C ,  4-C ) :  -0.1061 B(  1-C ,  5-C ) :  -0.4681 B(  1-C , 23-H ) :   0.6784
B(  2-C ,  3-C ) :   1.3534 B(  2-C ,  4-C ) :   0.3125 B(  2-C ,  5-C ) :  -0.1618
B(  2-C , 22-H ) :   0.4981 B(  3-C ,  4-C ) :   1.5820 B(  3-C ,  5-C ) :  -0.4002
B(  3-C , 21-H ) :   0.6320 B(  4-C ,  5-C ) :   0.4773 B(  4-C , 20-H ) :   0.3898
B(  4-C , 21-H ) :   0.1646 B(  5-C ,  6-N ) :   0.5259 B(  5-C , 24-H ) :   0.1058
B(  6-N ,  7-C ) :   1.1729 B(  6-N , 17-C ) :   1.1349 B(  7-C ,  8-H ) :   0.8957
B(  7-C ,  9-H ) :   0.9843 B(  7-C , 10-C ) :   1.0398 B(  7-C , 17-C ) :   0.1675
B( 10-C , 11-H ) :   0.9080 B( 10-C , 12-H ) :   1.0214 B( 10-C , 13-O ) :   0.8054
B( 10-C , 14-C ) :   0.1129 B( 13-O , 14-C ) :   0.8097 B( 14-C , 15-H ) :   1.0183
B( 14-C , 16-H ) :   0.9322 B( 14-C , 17-C ) :   1.0289 B( 17-C , 18-H ) :   0.9817
B( 17-C , 19-H ) :   0.9326

Dispersion correction           -0.032505295
FINAL SINGLE POINT ENERGY      -518.930418285563

DIPOLE MOMENT
-------------

Method             : SCF
Type of density    : Electron Density
Multiplicity       :   2
Irrep              :   0
Energy             :  -518.8979129904216734 Eh
Relativity type    :
Basis              : AO
                                X                 Y                 Z
Electronic contribution:     -2.685321646      -0.052240138       0.631288482
Nuclear contribution   :      2.207733299      -0.028342032      -0.256093747
                        -----------------------------------------
Total Dipole Moment    :     -0.477588347      -0.080582170       0.375194735
                        -----------------------------------------
Magnitude (a.u.)       :      0.612662390
Magnitude (Debye)      :      1.557264038

Rotational constants in cm-1:             0.077620             0.019238             0.016602
Rotational constants in MHz :          2326.988545           576.750143           497.725802

                             ****ORCA TERMINATED NORMALLY****
TOTAL RUN TIME: 0 days 0 hours 12 minutes 47 seconds 483 msec
