                         Program Version 6.0.0  -   RELEASE  -
|  1> !r2SCAN aug-cc-pVTZ d3 TightSCF SlowConv RIJCOSX defgrid2
|  2>
|  3> %pal
|  4> nprocs 4
|  5> end
|  6>
|  7> %scf
|  8> MaxIter 1500
|  9> end
| 10>
| 11> %maxcore 3000
| 12>
| 13> !CPCM
| 14> %cpcm smd true
| 15> SMDsolvent "MeCN"
| 16> surfacetype gepol_ses
| 17> rsolv 2.19
| 18> end
| 19>
| 20> * xyz 0 1
| 21> C          -2.35855566249028     -1.18298734946581      0.44746508492782
| 22> C          -3.63998601494038     -0.64494677752617      0.40531310745406
| 23> C          -3.85303233632332      0.64184728390947     -0.08922899701963
| 24> C          -2.76160264019232      1.37149847988341     -0.55944574759612
| 25> C          -1.47660109339583      0.83661893600173     -0.53774129143291
| 26> C          -1.25440681594945     -0.45059005524099     -0.02098393310126
| 27> N          -0.00000421351286     -1.04691099052655     -0.00000634656969
| 28> C           1.25440223898594     -0.45059921009457      0.02097107702327
| 29> C           1.47660100518815      0.83661344736755      0.53772022597142
| 30> C           2.76160709047823      1.37148092391060      0.55943972704073
| 31> C           3.85303807972459      0.64181530245744      0.08924769050056
| 32> C           3.63998848210222     -0.64498151368667     -0.40528711196994
| 33> C           2.35855298180034     -1.18301040091692     -0.44745622777963
| 34> H           2.19908895406864     -2.18668027905193     -0.85522438065874
| 35> H           4.48199840421952     -1.23797876876707     -0.77528111411611
| 36> H           4.85916686280388      1.06886680223861      0.11285453118115
| 37> H           2.91087680856629      2.37556477081901      0.96852154939093
| 38> H           0.64246040679070      1.40934002015136      0.94801182020360
| 39> H          -0.00000725820461     -2.05910419744794     -0.00000990999799
| 40> H          -0.64246082169541      1.40933334107559     -0.94805093043179
| 41> H          -2.91086965745103      2.37558015369041     -0.96853357662371
| 42> H          -4.85915726714274      1.06890811498503     -0.11281791601209
| 43> H          -4.48199557743319     -1.23793238163885      0.77532568830103
| 44> H          -2.19909265599709     -2.18665445212673      0.85523908131503
| 45> *
| 46>
| 47>                          ****END OF INPUT****

CARTESIAN COORDINATES (ANGSTROEM)
---------------------------------
  C     -2.358556   -1.182987    0.447465
  C     -3.639986   -0.644947    0.405313
  C     -3.853032    0.641847   -0.089229
  C     -2.761603    1.371498   -0.559446
  C     -1.476601    0.836619   -0.537741
  C     -1.254407   -0.450590   -0.020984
  N     -0.000004   -1.046911   -0.000006
  C      1.254402   -0.450599    0.020971
  C      1.476601    0.836613    0.537720
  C      2.761607    1.371481    0.559440
  C      3.853038    0.641815    0.089248
  C      3.639988   -0.644982   -0.405287
  C      2.358553   -1.183010   -0.447456
  H      2.199089   -2.186680   -0.855224
  H      4.481998   -1.237979   -0.775281
  H      4.859167    1.068867    0.112855
  H      2.910877    2.375565    0.968522
  H      0.642460    1.409340    0.948012
  H     -0.000007   -2.059104   -0.000010
  H     -0.642461    1.409333   -0.948051
  H     -2.910870    2.375580   -0.968534
  H     -4.859157    1.068908   -0.112818
  H     -4.481996   -1.237932    0.775326
  H     -2.199093   -2.186654    0.855239

 Total Charge           Charge          ....    0
 Multiplicity           Mult            ....    1
 Number of Electrons    NEL             ....   90
 Basis Dimension        Dim             ....  851

ORBITAL ENERGIES
----------------

  NO   OCC          E(Eh)            E(eV)
   0   2.0000     -14.190880      -386.1535
   1   2.0000     -10.085937      -274.4523
   2   2.0000     -10.085930      -274.4521
   3   2.0000     -10.040292      -273.2102
   4   2.0000     -10.040290      -273.2102
   5   2.0000     -10.040274      -273.2098
   6   2.0000     -10.040273      -273.2097
   7   2.0000     -10.036872      -273.1172
   8   2.0000     -10.036866      -273.1170
   9   2.0000     -10.036554      -273.1085
  10   2.0000     -10.036550      -273.1084
  11   2.0000     -10.032087      -272.9870
  12   2.0000     -10.032084      -272.9869
  13   2.0000      -0.922256       -25.0959
  14   2.0000      -0.824469       -22.4349
  15   2.0000      -0.804587       -21.8939
  16   2.0000      -0.726658       -19.7734
  17   2.0000      -0.716339       -19.4926
  18   2.0000      -0.710778       -19.3413
  19   2.0000      -0.681916       -18.5559
  20   2.0000      -0.592074       -16.1111
  21   2.0000      -0.590070       -16.0566
  22   2.0000      -0.566065       -15.4034
  23   2.0000      -0.548271       -14.9192
  24   2.0000      -0.501043       -13.6341
  25   2.0000      -0.492355       -13.3977
  26   2.0000      -0.462353       -12.5813
  27   2.0000      -0.442911       -12.0522
  28   2.0000      -0.420125       -11.4322
  29   2.0000      -0.412484       -11.2243
  30   2.0000      -0.398414       -10.8414
  31   2.0000      -0.394038       -10.7223
  32   2.0000      -0.385315       -10.4850
  33   2.0000      -0.384322       -10.4579
  34   2.0000      -0.368141       -10.0176
  35   2.0000      -0.347248        -9.4491
  36   2.0000      -0.332489        -9.0475
  37   2.0000      -0.320793        -8.7292
  38   2.0000      -0.311731        -8.4826
  39   2.0000      -0.307397        -8.3647
  40   2.0000      -0.295827        -8.0499
  41   2.0000      -0.241311        -6.5664
  42   2.0000      -0.240424        -6.5423
  43   2.0000      -0.238437        -6.4882
  44   2.0000      -0.178517        -4.8577
  45   0.0000      -0.043269        -1.1774
  46   0.0000      -0.039101        -1.0640
  47   0.0000      -0.035589        -0.9684
  48   0.0000      -0.006492        -0.1767
  49   0.0000       0.004830         0.1314

MULLIKEN ATOMIC CHARGES
-----------------------
   0 C :   -0.980654
   1 C :   -0.425628
   2 C :   -0.359402
   3 C :   -0.923315
   4 C :   -0.402422
   5 C :    1.150929
   6 N :   -0.568189
   7 C :    1.148969
   8 C :   -0.402059
   9 C :   -0.923132
  10 C :   -0.359303
  11 C :   -0.425738
  12 C :   -0.980609
  13 H :    0.423392
  14 H :    0.383113
  15 H :    0.507890
  16 H :    0.295658
  17 H :    0.644038
  18 H :   -0.056143
  19 H :    0.642612
  20 H :    0.295686
  21 H :    0.507854
  22 H :    0.383098
  23 H :    0.423354
Sum of atomic charges:   -0.0000000

LOEWDIN ATOMIC CHARGES
----------------------
   0 C :    0.213911
   1 C :    0.173060
   2 C :    0.171729
   3 C :    0.178203
   4 C :    0.203701
   5 C :   -0.222857
   6 N :    0.564513
   7 C :   -0.222872
   8 C :    0.203708
   9 C :    0.178199
  10 C :    0.171730
  11 C :    0.173061
  12 C :    0.213898
  13 H :   -0.163819
  14 H :   -0.172074
  15 H :   -0.180377
  16 H :   -0.171266
  17 H :   -0.182432
  18 H :   -0.260021
  19 H :   -0.182450
  20 H :   -0.171266
  21 H :   -0.180380
  22 H :   -0.172077
  23 H :   -0.163821

  Mayer bond orders larger than 0.100000
B(  0-C ,  1-C ) :   1.1507 B(  0-C ,  2-C ) :   0.1415 B(  0-C ,  3-C ) :  -0.1119
B(  0-C ,  4-C ) :   0.1227 B(  0-C ,  5-C ) :   0.2033 B(  0-C , 23-H ) :   0.5024
B(  1-C ,  2-C ) :   0.9926 B(  1-C ,  4-C ) :  -0.1427 B(  1-C ,  5-C ) :  -0.1378
B(  1-C , 22-H ) :   0.7296 B(  2-C ,  3-C ) :   1.1795 B(  2-C ,  4-C ) :   0.1761
B(  2-C , 21-H ) :   0.5453 B(  3-C ,  4-C ) :   1.1493 B(  3-C ,  5-C ) :  -0.3065
B(  3-C , 20-H ) :   0.8666 B(  4-C ,  5-C ) :   0.5032 B(  4-C ,  6-N ) :  -0.2335
B(  4-C ,  7-C ) :   0.2035 B(  4-C , 17-H ) :  -0.1344 B(  4-C , 19-H ) :   0.2873
B(  5-C ,  6-N ) :   0.5074 B(  5-C ,  8-C ) :   0.2032 B(  5-C , 17-H ) :  -0.1604
B(  5-C , 18-H ) :  -0.1038 B(  6-N ,  7-C ) :   0.5074 B(  6-N ,  8-C ) :  -0.2337
B(  6-N , 18-H ) :   1.3244 B(  7-C ,  8-C ) :   0.5047 B(  7-C ,  9-C ) :  -0.3065
B(  7-C , 11-C ) :  -0.1378 B(  7-C , 12-C ) :   0.2038 B(  7-C , 18-H ) :  -0.1037
B(  7-C , 19-H ) :  -0.1604 B(  8-C ,  9-C ) :   1.1486 B(  8-C , 10-C ) :   0.1758
B(  8-C , 11-C ) :  -0.1425 B(  8-C , 12-C ) :   0.1229 B(  8-C , 17-H ) :   0.2858
B(  8-C , 19-H ) :  -0.1339 B(  9-C , 10-C ) :   1.1794 B(  9-C , 12-C ) :  -0.1118
B(  9-C , 16-H ) :   0.8667 B( 10-C , 11-C ) :   0.9926 B( 10-C , 12-C ) :   0.1415
B( 10-C , 15-H ) :   0.5453 B( 11-C , 12-C ) :   1.1508 B( 11-C , 14-H ) :   0.7296
B( 12-C , 13-H ) :   0.5023

Dispersion correction           -0.008753963
FINAL SINGLE POINT ENERGY      -518.562969336054

DIPOLE MOMENT
-------------

Method             : SCF
Type of density    : Electron Density
Multiplicity       :   1
Irrep              :   0
Energy             :  -518.5542153728422363 Eh
Relativity type    :
Basis              : AO
                                X                 Y                 Z
Electronic contribution:     -0.000013818      -1.345031007       0.000552299
Nuclear contribution   :      0.000006870       0.752166841       0.000025965
                        -----------------------------------------
Total Dipole Moment    :     -0.000006948      -0.592864165       0.000578264
                        -----------------------------------------
Magnitude (a.u.)       :      0.592864447
Magnitude (Debye)      :      1.506941666

Rotational constants in cm-1:             0.084180             0.013733             0.012322
Rotational constants in MHz :          2523.650354           411.709672           369.402071

                             ****ORCA TERMINATED NORMALLY****
TOTAL RUN TIME: 0 days 0 hours 5 minutes 23 seconds 808 msec
