                         Program Version 6.0.0  -   RELEASE  -
|  1> !r2SCANh aug-cc-pVTZ d3 TightSCF SlowConv RIJCOSX defgrid2
|  2>
|  3> %pal
|  4> nprocs 4
|  5> end
|  6>
|  7> %scf
|  8> MaxIter 1500
|  9> end
| 10>
| 11> %maxcore 3000
| 12>
| 13> !CPCM
| 14> %cpcm smd true
| 15> SMDsolvent "MeCN"
| 16> surfacetype gepol_ses
| 17> rsolv 2.19
| 18> end
| 19>
| 20> * xyz 1 2
| 21> C           1.51758494546740     -1.23435025814247     -0.00000948537283
| 22> C           2.20770781647749      0.00001697777377     -0.00002575082433
| 23> C           1.51757870176219      1.23438133176831     -0.00002376652717
| 24> C           0.14399615849667      1.24528780380919     -0.00000994709932
| 25> C          -0.57050335234681      0.00000980865076      0.00000339046104
| 26> C           0.14400107382655     -1.24526565590726      0.00000274901341
| 27> H          -0.41918051446955     -2.18175157250380      0.00001235664707
| 28> C          -1.95875076928202      0.00001227638427      0.00003168049002
| 29> C          -3.18886914512795      0.00003850956088      0.00015576875982
| 30> H          -4.27093083747358      0.00004174929515      0.00024791741498
| 31> H          -0.41918961682318      2.18177237850725     -0.00001398172647
| 32> H           2.07968932476853      2.17184704992506     -0.00003742036749
| 33> H           3.30249892053071      0.00001489531919     -0.00004324082103
| 34> H           2.07970099419353     -2.17181369444030     -0.00001477004770
| 35> *
| 36>
| 37>                          ****END OF INPUT****

CARTESIAN COORDINATES (ANGSTROEM)
---------------------------------
  C      1.517585   -1.234350   -0.000009
  C      2.207708    0.000017   -0.000026
  C      1.517579    1.234381   -0.000024
  C      0.143996    1.245288   -0.000010
  C     -0.570503    0.000010    0.000003
  C      0.144001   -1.245266    0.000003
  H     -0.419181   -2.181752    0.000012
  C     -1.958751    0.000012    0.000032
  C     -3.188869    0.000039    0.000156
  H     -4.270931    0.000042    0.000248
  H     -0.419190    2.181772   -0.000014
  H      2.079689    2.171847   -0.000037
  H      3.302499    0.000015   -0.000043
  H      2.079701   -2.171814   -0.000015

 Total Charge           Charge          ....    1
 Multiplicity           Mult            ....    2
 Number of Electrons    NEL             ....   53
 Basis Dimension        Dim             ....  506

ORBITAL ENERGIES
----------------
                 SPIN UP ORBITALS
  NO   OCC          E(Eh)            E(eV)
   0   1.0000     -10.263074      -279.2724
   1   1.0000     -10.238445      -278.6023
   2   1.0000     -10.233557      -278.4692
   3   1.0000     -10.228870      -278.3417
   4   1.0000     -10.220989      -278.1273
   5   1.0000     -10.220987      -278.1272
   6   1.0000     -10.205920      -277.7172
   7   1.0000     -10.205919      -277.7172
   8   1.0000      -0.918652       -24.9978
   9   1.0000      -0.844213       -22.9722
  10   1.0000      -0.797040       -21.6886
  11   1.0000      -0.787146       -21.4193
  12   1.0000      -0.677159       -18.4264
  13   1.0000      -0.645182       -17.5563
  14   1.0000      -0.583723       -15.8839
  15   1.0000      -0.545854       -14.8535
  16   1.0000      -0.510025       -13.8785
  17   1.0000      -0.497330       -13.5330
  18   1.0000      -0.458891       -12.4871
  19   1.0000      -0.453573       -12.3423
  20   1.0000      -0.435470       -11.8497
  21   1.0000      -0.387434       -10.5426
  22   1.0000      -0.376984       -10.2583
  23   1.0000      -0.370019       -10.0687
  24   1.0000      -0.324963        -8.8427
  25   1.0000      -0.300787        -8.1848
  26   1.0000      -0.298519        -8.1231
  27   0.0000      -0.117802        -3.2056
  28   0.0000      -0.063422        -1.7258
  29   0.0000      -0.022954        -0.6246
  30   0.0000       0.006574         0.1789
  31   0.0000       0.011869         0.3230

                 SPIN DOWN ORBITALS
  NO   OCC          E(Eh)            E(eV)
   0   1.0000     -10.258810      -279.1564
   1   1.0000     -10.231235      -278.4060
   2   1.0000     -10.229267      -278.3525
   3   1.0000     -10.227555      -278.3059
   4   1.0000     -10.219488      -278.0864
   5   1.0000     -10.219487      -278.0864
   6   1.0000     -10.206860      -277.7428
   7   1.0000     -10.206859      -277.7427
   8   1.0000      -0.909990       -24.7621
   9   1.0000      -0.833880       -22.6910
  10   1.0000      -0.795772       -21.6540
  11   1.0000      -0.766042       -20.8451
  12   1.0000      -0.667847       -18.1730
  13   1.0000      -0.641770       -17.4635
  14   1.0000      -0.580132       -15.7862
  15   1.0000      -0.541599       -14.7377
  16   1.0000      -0.507151       -13.8003
  17   1.0000      -0.495662       -13.4877
  18   1.0000      -0.455985       -12.4080
  19   1.0000      -0.453768       -12.3477
  20   1.0000      -0.411127       -11.1873
  21   1.0000      -0.386607       -10.5201
  22   1.0000      -0.375597       -10.2205
  23   1.0000      -0.338394        -9.2082
  24   1.0000      -0.320720        -8.7272
  25   1.0000      -0.297346        -8.0912
  26   0.0000      -0.225873        -6.1463
  27   0.0000      -0.079178        -2.1546
  28   0.0000      -0.053874        -1.4660
  29   0.0000      -0.021536        -0.5860
  30   0.0000       0.007752         0.2110

MULLIKEN ATOMIC CHARGES AND SPIN POPULATIONS
--------------------------------------------
   0 C :   -0.471331   -0.065449
   1 C :    0.097176    0.322678
   2 C :   -0.471078   -0.065458
   3 C :   -1.095066    0.063719
   4 C :    1.474560    0.312431
   5 C :   -1.095172    0.063690
   6 H :   -0.261250    0.005313
   7 C :    1.530775   -0.091701
   8 C :   -0.353715    0.426591
   9 H :    0.379219    0.005282
  10 H :   -0.261110    0.005308
  11 H :    0.535612   -0.004441
  12 H :    0.455668    0.026474
  13 H :    0.535713   -0.004436
Sum of atomic charges         :    1.0000000

LOEWDIN ATOMIC CHARGES AND SPIN POPULATIONS
-------------------------------------------
   0 C :    0.274464    0.039724
   1 C :    0.295956    0.170199
   2 C :    0.274465    0.039723
   3 C :    0.270263    0.069360
   4 C :   -0.141131    0.139223
   5 C :    0.270265    0.069360
   6 H :   -0.134711    0.008763
   7 C :    0.092850    0.104136
   8 C :    0.556411    0.264510
   9 H :   -0.211689    0.054691
  10 H :   -0.134710    0.008763
  11 H :   -0.142302   -0.003204
  12 H :   -0.127831    0.037954
  13 H :   -0.142301   -0.003204

  Mayer bond orders larger than 0.100000
B(  0-C ,  1-C ) :   0.9623 B(  0-C ,  3-C ) :   0.1210 B(  0-C ,  4-C ) :   0.5347
B(  0-C ,  5-C ) :   1.4333 B(  0-C ,  6-H ) :  -0.1063 B(  0-C ,  7-C ) :  -0.2072
B(  0-C ,  8-C ) :  -0.1419 B(  0-C , 13-H ) :   0.5431 B(  1-C ,  2-C ) :   0.9621
B(  1-C ,  3-C ) :  -0.2946 B(  1-C ,  4-C ) :  -0.4913 B(  1-C ,  5-C ) :  -0.2944
B(  1-C ,  7-C ) :   0.5096 B(  1-C ,  8-C ) :   0.2394 B(  1-C , 12-H ) :   0.6737
B(  2-C ,  3-C ) :   1.4333 B(  2-C ,  4-C ) :   0.5356 B(  2-C ,  5-C ) :   0.1214
B(  2-C ,  7-C ) :  -0.2078 B(  2-C ,  8-C ) :  -0.1424 B(  2-C , 10-H ) :  -0.1062
B(  2-C , 11-H ) :   0.5430 B(  3-C ,  4-C ) :   0.3077 B(  3-C ,  5-C ) :  -0.4530
B(  3-C ,  6-H ) :   0.3339 B(  3-C ,  7-C ) :   0.2481 B(  3-C ,  8-C ) :  -0.2161
B(  3-C , 10-H ) :   2.1177 B(  3-C , 11-H ) :  -0.1836 B(  4-C ,  5-C ) :   0.3065
B(  4-C ,  6-H ) :   0.2273 B(  4-C ,  8-C ) :   0.9194 B(  4-C ,  9-H ) :   0.1067
B(  4-C , 10-H ) :   0.2270 B(  5-C ,  6-H ) :   2.1182 B(  5-C ,  7-C ) :   0.2484
B(  5-C ,  8-C ) :  -0.2153 B(  5-C , 10-H ) :   0.3341 B(  5-C , 13-H ) :  -0.1837
B(  6-H ,  7-C ) :  -0.5680 B(  6-H ,  8-C ) :  -0.5448 B(  6-H , 10-H ) :   0.4541
B(  6-H , 11-H ) :  -0.1052 B(  7-C ,  8-C ) :   2.2167 B(  7-C ,  9-H ) :  -0.2217
B(  7-C , 10-H ) :  -0.5674 B(  7-C , 11-H ) :   0.1848 B(  7-C , 13-H ) :   0.1846
B(  8-C ,  9-H ) :   1.1132 B(  8-C , 10-H ) :  -0.5443 B(  8-C , 11-H ) :   0.2375
B(  8-C , 13-H ) :   0.2372 B( 10-H , 13-H ) :  -0.1055

Dispersion correction           -0.004301652
FINAL SINGLE POINT ENERGY      -308.081711885144

DIPOLE MOMENT
-------------

Method             : SCF
Type of density    : Electron Density
Multiplicity       :   2
Irrep              :   0
Energy             :  -308.0774102326561774 Eh
Relativity type    :
Basis              : AO
                                X                 Y                 Z
Electronic contribution:     -2.455403370      -0.000003980      -0.000293408
Nuclear contribution   :      2.200402781       0.000011219       0.000050647
                        -----------------------------------------
Total Dipole Moment    :     -0.255000589       0.000007239      -0.000242762
                        -----------------------------------------
Magnitude (a.u.)       :      0.255000704
Magnitude (Debye)      :      0.648160281

Rotational constants in cm-1:             0.181347             0.051878             0.040338
Rotational constants in MHz :          5436.638218          1555.263096          1209.313806

                             ****ORCA TERMINATED NORMALLY****
TOTAL RUN TIME: 0 days 0 hours 5 minutes 11 seconds 684 msec
