                         Program Version 6.0.0  -   RELEASE  -
|  1> !PBE0 def2-SV(p) Opt Freq d3 TightSCF SlowConv RIJCOSX defgrid2
|  2>
|  3> %pal
|  4> nprocs 4
|  5> end
|  6>
|  7> %scf
|  8> MaxIter 1500
|  9> end
| 10>
| 11> %maxcore 3000
| 12>
| 13>
| 14>
| 15> * xyz 0 1
| 16> C     0.7337668   -1.1625640    0.2202960
| 17> C    -0.7336962   -1.1626089   -0.2203508
| 18> H    -1.2673393   -2.0118351    0.2073477
| 19> H    -0.7841481   -1.2053123   -1.3191725
| 20> O    -1.3941529   -0.0000456    0.2424650
| 21> C    -0.7337738    1.1625756   -0.2203171
| 22> C     0.7336953    1.1626175    0.2203232
| 23> H     1.2673399    2.0118379   -0.2073808
| 24> H     0.7841528    1.2053149    1.3191460
| 25> O     1.3941480    0.0000526   -0.2424969
| 26> H    -1.2674704    2.0117551    0.2074062
| 27> H    -0.7842308    1.2053019   -1.3191397
| 28> H     1.2674732   -2.0117443   -0.2074067
| 29> H     0.7842070   -1.2052678    1.3191130
| 30> *
| 31>
| 32>                          ****END OF INPUT****
 Total Charge           Charge          ....    0
 Multiplicity           Mult            ....    1
 Number of Electrons    NEL             ....   48
Dispersion correction           -0.008936584
FINAL SINGLE POINT ENERGY      -307.075856245991
Dispersion correction             ... done (  0.0 sec)
Dispersion correction           -0.008937199
FINAL SINGLE POINT ENERGY      -307.076916872088
Dispersion correction             ... done (  0.1 sec)
Dispersion correction           -0.008938711
FINAL SINGLE POINT ENERGY      -307.077036830884
Dispersion correction             ... done (  0.1 sec)
Dispersion correction           -0.008936588
FINAL SINGLE POINT ENERGY      -307.077062373273
Dispersion correction             ... done (  0.1 sec)
Dispersion correction           -0.008935322
FINAL SINGLE POINT ENERGY      -307.077064552150
Dispersion correction             ... done (  0.0 sec)
                    ***********************HURRAY********************

CARTESIAN COORDINATES (ANGSTROEM)
---------------------------------
  C      0.728469   -1.157840    0.214657
  C     -0.728389   -1.157892   -0.214711
  H     -1.265669   -2.022982    0.207838
  H     -0.782576   -1.216003   -1.323475
  O     -1.379315   -0.000041    0.242040
  C     -0.728473    1.157851   -0.214681
  C      0.728384    1.157903    0.214686
  H      1.265666    2.022992   -0.207862
  H      0.782571    1.216015    1.323450
  O      1.379311    0.000051   -0.242063
  H     -1.265801    2.022917    0.207864
  H     -0.782667    1.216020   -1.323445
  H      1.265798   -2.022906   -0.207886
  H      0.782662   -1.216008    1.323421

 Multiplicity           Mult            ....    1
 Number of Electrons    NEL             ....   48
 Basis Dimension        Dim             ....  100

ORBITAL ENERGIES
----------------

  NO   OCC          E(Eh)            E(eV)
   0   2.0000     -19.215253      -522.8736
   1   2.0000     -19.215186      -522.8718
   2   2.0000     -10.274718      -279.5893
   3   2.0000     -10.274709      -279.5890
   4   2.0000     -10.274572      -279.5853
   5   2.0000     -10.274559      -279.5850
   6   2.0000      -1.086774       -29.5726
   7   2.0000      -1.045108       -28.4388
   8   2.0000      -0.800682       -21.7877
   9   2.0000      -0.709347       -19.3023
  10   2.0000      -0.685247       -18.6465
  11   2.0000      -0.591462       -16.0945
  12   2.0000      -0.529803       -14.4167
  13   2.0000      -0.507352       -13.8057
  14   2.0000      -0.495228       -13.4758
  15   2.0000      -0.491686       -13.3795
  16   2.0000      -0.466362       -12.6904
  17   2.0000      -0.414991       -11.2925
  18   2.0000      -0.386028       -10.5044
  19   2.0000      -0.383716       -10.4414
  20   2.0000      -0.374415       -10.1883
  21   2.0000      -0.314013        -8.5447
  22   2.0000      -0.299660        -8.1542
  23   2.0000      -0.250941        -6.8284
  24   0.0000       0.077161         2.0996
  25   0.0000       0.088864         2.4181
  26   0.0000       0.098223         2.6728
  27   0.0000       0.118468         3.2237
  28   0.0000       0.125843         3.4244

MULLIKEN ATOMIC CHARGES
-----------------------
   0 C :   -0.022797
   1 C :   -0.022785
   2 H :    0.122496
   3 H :    0.097604
   4 O :   -0.394615
   5 C :   -0.022798
   6 C :   -0.022784
   7 H :    0.122496
   8 H :    0.097604
   9 O :   -0.394615
  10 H :    0.122495
  11 H :    0.097602
  12 H :    0.122495
  13 H :    0.097602
Sum of atomic charges:   -0.0000000

LOEWDIN ATOMIC CHARGES
----------------------
   0 C :   -0.127819
   1 C :   -0.127813
   2 H :    0.120677
   3 H :    0.103365
   4 O :   -0.192447
   5 C :   -0.127819
   6 C :   -0.127813
   7 H :    0.120677
   8 H :    0.103365
   9 O :   -0.192447
  10 H :    0.120675
  11 H :    0.103362
  12 H :    0.120675
  13 H :    0.103362

  Mayer bond orders larger than 0.100000
B(  0-C ,  1-C ) :   1.1016 B(  0-C ,  9-O ) :   0.9895 B(  0-C , 12-H ) :   0.9307
B(  0-C , 13-H ) :   0.9093 B(  1-C ,  2-H ) :   0.9307 B(  1-C ,  3-H ) :   0.9093
B(  1-C ,  4-O ) :   0.9894 B(  4-O ,  5-C ) :   0.9895 B(  5-C ,  6-C ) :   1.1016
B(  5-C , 10-H ) :   0.9307 B(  5-C , 11-H ) :   0.9093 B(  6-C ,  7-H ) :   0.9307
B(  6-C ,  8-H ) :   0.9093 B(  6-C ,  9-O ) :   0.9894

Dispersion correction           -0.008935115
FINAL SINGLE POINT ENERGY      -307.077064634091

DIPOLE MOMENT
-------------

Method             : SCF
Type of density    : Electron Density
Multiplicity       :   1
Irrep              :   0
Energy             :  -307.0681295193305687 Eh
Relativity type    :
Basis              : AO
                                X                 Y                 Z
Electronic contribution:     -0.000001051      -0.000000785      -0.000001681
Nuclear contribution   :      0.000000978       0.000001632       0.000000845
                        -----------------------------------------
Total Dipole Moment    :     -0.000000073       0.000000847      -0.000000835
                        -----------------------------------------
Magnitude (a.u.)       :      0.000001191
Magnitude (Debye)      :      0.000003029

VIBRATIONAL FREQUENCIES
-----------------------

Scaling factor for frequencies =  1.000000000  (already applied!)

     0:       0.00 cm**-1
     1:       0.00 cm**-1
     2:       0.00 cm**-1
     3:       0.00 cm**-1
     4:       0.00 cm**-1
     5:       0.00 cm**-1
     6:     256.97 cm**-1
     7:     277.68 cm**-1
     8:     431.04 cm**-1
     9:     442.87 cm**-1
    10:     497.58 cm**-1
    11:     621.03 cm**-1
    12:     881.96 cm**-1
    13:     884.05 cm**-1
    14:     919.59 cm**-1
    15:     938.16 cm**-1
    16:    1062.56 cm**-1
    17:    1086.74 cm**-1
    18:    1123.86 cm**-1
    19:    1159.00 cm**-1
    20:    1205.47 cm**-1
    21:    1214.45 cm**-1
    22:    1255.99 cm**-1
    23:    1303.54 cm**-1
    24:    1333.33 cm**-1
    25:    1342.18 cm**-1
    26:    1366.88 cm**-1
    27:    1410.64 cm**-1
    28:    1420.53 cm**-1
    29:    1444.10 cm**-1
    30:    1469.16 cm**-1
    31:    1471.25 cm**-1
    32:    1485.97 cm**-1
    33:    1491.17 cm**-1
    34:    2982.67 cm**-1
    35:    2988.15 cm**-1
    36:    2992.81 cm**-1
    37:    2997.42 cm**-1
    38:    3121.92 cm**-1
    39:    3122.54 cm**-1
    40:    3122.65 cm**-1
    41:    3124.16 cm**-1

IR SPECTRUM
-----------

 Mode   freq       eps      Int      T**2         TX        TY        TZ
       cm**-1   L/(mol*cm) km/mol    a.u.
----------------------------------------------------------------------------
  6:    256.97   0.000219    1.11  0.000266  (-0.000010 -0.016296 -0.000020)
  7:    277.68   0.003763   19.02  0.004229  ( 0.031638 -0.000006  0.056813)
  8:    431.04   0.000000    0.00  0.000000  (-0.000000  0.000000  0.000000)
  9:    442.87   0.000000    0.00  0.000000  ( 0.000000 -0.000000  0.000000)
 10:    497.58   0.000000    0.00  0.000000  (-0.000001  0.000000 -0.000000)
 11:    621.03   0.002262   11.43  0.001137  (-0.030817 -0.000000 -0.013669)
 12:    881.96   0.000000    0.00  0.000000  ( 0.000001 -0.000001 -0.000001)
 13:    884.05   0.000000    0.00  0.000000  ( 0.000000 -0.000000  0.000000)
 14:    919.59   0.003208   16.21  0.001089  (-0.000028  0.032996  0.000013)
 15:    938.16   0.014722   74.40  0.004897  ( 0.063419  0.000008 -0.029582)
 16:   1062.56   0.000000    0.00  0.000000  ( 0.000000  0.000000  0.000001)
 17:   1086.74   0.002368   11.97  0.000680  (-0.012125 -0.000008 -0.023084)
 18:   1123.86   0.000211    1.07  0.000059  ( 0.000001 -0.007659  0.000001)
 19:   1159.00   0.000000    0.00  0.000000  (-0.000000  0.000001 -0.000001)
 20:   1205.47   0.000000    0.00  0.000000  (-0.000000  0.000011 -0.000000)
 21:   1214.45   0.033514  169.37  0.008612  ( 0.000001 -0.092799  0.000001)
 22:   1255.99   0.000000    0.00  0.000000  ( 0.000000  0.000004 -0.000000)
 23:   1303.54   0.017238   87.12  0.004127  ( 0.000002 -0.064240 -0.000000)
 24:   1333.33   0.002345   11.85  0.000549  (-0.002458 -0.000009  0.023296)
 25:   1342.18   0.000000    0.00  0.000000  ( 0.000000 -0.000000 -0.000001)
 26:   1366.88   0.000000    0.00  0.000000  ( 0.000000 -0.000000 -0.000000)
 27:   1410.64   0.007915   40.00  0.001751  ( 0.000012 -0.041845 -0.000005)
 28:   1420.53   0.001193    6.03  0.000262  (-0.013247 -0.000036  0.009307)
 29:   1444.10   0.000000    0.00  0.000000  ( 0.000000  0.000000  0.000000)
 30:   1469.16   0.000000    0.00  0.000000  ( 0.000001  0.000003  0.000001)
 31:   1471.25   0.000173    0.88  0.000037  ( 0.000005  0.006063  0.000007)
 32:   1485.97   0.003392   17.14  0.000712  (-0.019017 -0.000006 -0.018727)
 33:   1491.17   0.000000    0.00  0.000000  (-0.000004 -0.000000 -0.000004)
 34:   2982.67   0.009493   47.98  0.000993  (-0.000016  0.031516 -0.000060)
 35:   2988.15   0.000000    0.00  0.000000  (-0.000001  0.000008 -0.000002)
 36:   2992.81   0.000000    0.00  0.000000  (-0.000004  0.000002 -0.000014)
 37:   2997.42   0.033066  167.10  0.003442  ( 0.015398  0.000031  0.056616)
 38:   3121.92   0.000000    0.00  0.000000  (-0.000003 -0.000024  0.000005)
 39:   3122.54   0.007781   39.32  0.000778  ( 0.015508 -0.006550 -0.022233)
 40:   3122.65   0.015147   76.55  0.001514  ( 0.002625  0.038635 -0.003767)
 41:   3124.16   0.000000    0.00  0.000000  (-0.000003 -0.000007  0.000004)

--------------------------
THERMOCHEMISTRY AT 298.15K
--------------------------

Temperature         ...   298.15 K
Pressure            ...     1.00 atm
Total Mass          ...    88.11 AMU
Quasi RRHO          ...     True
Cut-Off Frequency   ...     1.00 cm^-1

Throughout the following assumptions are being made:
  (1) The electronic state is orbitally nondegenerate
  (2) There are no thermally accessible electronically excited states
  (3) Hindered rotations indicated by low frequency modes are not
      treated as such but are treated as vibrations and this may
      cause some error
  (4) All equations used are the standard statistical mechanics
      equations for an ideal gas
  (5) All vibrations are strictly harmonic

freq.     256.97  E(vib)   ...       0.30
freq.     277.68  E(vib)   ...       0.28
freq.     431.04  E(vib)   ...       0.18
freq.     442.87  E(vib)   ...       0.17
freq.     497.58  E(vib)   ...       0.14
freq.     621.03  E(vib)   ...       0.09
freq.     881.96  E(vib)   ...       0.04
freq.     884.05  E(vib)   ...       0.04
freq.     919.59  E(vib)   ...       0.03
freq.     938.16  E(vib)   ...       0.03
freq.    1062.56  E(vib)   ...       0.02
freq.    1086.74  E(vib)   ...       0.02
freq.    1123.86  E(vib)   ...       0.01
freq.    1159.00  E(vib)   ...       0.01
freq.    1205.47  E(vib)   ...       0.01
freq.    1214.45  E(vib)   ...       0.01
freq.    1255.99  E(vib)   ...       0.01
freq.    1303.54  E(vib)   ...       0.01
freq.    1333.33  E(vib)   ...       0.01
freq.    1342.18  E(vib)   ...       0.01
freq.    1366.88  E(vib)   ...       0.01
freq.    1410.64  E(vib)   ...       0.00
freq.    1420.53  E(vib)   ...       0.00
freq.    1444.10  E(vib)   ...       0.00
freq.    1469.16  E(vib)   ...       0.00
freq.    1471.25  E(vib)   ...       0.00
freq.    1485.97  E(vib)   ...       0.00
freq.    1491.17  E(vib)   ...       0.00
freq.    2982.67  E(vib)   ...       0.00
freq.    2988.15  E(vib)   ...       0.00
freq.    2992.81  E(vib)   ...       0.00
freq.    2997.42  E(vib)   ...       0.00
freq.    3121.92  E(vib)   ...       0.00
freq.    3122.54  E(vib)   ...       0.00
freq.    3122.65  E(vib)   ...       0.00
freq.    3124.16  E(vib)   ...       0.00

------------
INNER ENERGY
------------

The inner energy is: U= E(el) + E(ZPE) + E(vib) + E(rot) + E(trans)
    E(el)   - is the total energy from the electronic structure calculation
              = E(kin-el) + E(nuc-el) + E(el-el) + E(nuc-nuc)
    E(ZPE)  - the the zero temperature vibrational energy from the frequency calculation
    E(vib)  - the the finite temperature correction to E(ZPE) due to population
              of excited vibrational states
    E(rot)  - is the rotational thermal energy
    E(trans)- is the translational thermal energy

Summary of contributions to the inner energy U:
Electronic energy                ...   -307.07706463 Eh
Zero point energy                ...      0.12359077 Eh      77.55 kcal/mol
Thermal vibrational correction   ...      0.00228621 Eh       1.43 kcal/mol
Thermal rotational correction    ...      0.00141627 Eh       0.89 kcal/mol
Thermal translational correction ...      0.00141627 Eh       0.89 kcal/mol
-----------------------------------------------------------------------
Total thermal energy                   -306.94835511 Eh

Summary of corrections to the electronic energy:
(perhaps to be used in another calculation)
Total thermal correction                  0.00511875 Eh       3.21 kcal/mol
Non-thermal (ZPE) correction              0.12359077 Eh      77.55 kcal/mol
-----------------------------------------------------------------------
Total correction                          0.12870952 Eh      80.77 kcal/mol

--------
ENTHALPY
--------

The enthalpy is H = U + kB*T
                kB is Boltzmann's constant
Total thermal energy              ...   -306.94835511 Eh
Thermal Enthalpy correction       ...      0.00094421 Eh       0.59 kcal/mol
-----------------------------------------------------------------------
Total Enthalpy                    ...   -306.94741091 Eh

Note: Rotational entropy computed according to Herzberg
Infrared and Raman Spectra, Chapter V,1, Van Nostrand Reinhold, 1945
Point Group:  C2h, Symmetry Number:   2
Rotational constants in cm-1:     0.171669     0.158105     0.092537

Vibrational entropy computed according to the QRRHO of S. Grimme
Chem.Eur.J. 2012 18 9955 using a reference frequency of 100.0 cm-1

-------
ENTROPY
-------

The entropy contributions are T*S = T*(S(el)+S(vib)+S(rot)+S(trans))
     S(el)   - electronic entropy
     S(vib)  - vibrational entropy
     S(rot)  - rotational entropy
     S(trans)- translational entropy
The entropies will be listed as multiplied by the temperature to get
units of energy

Electronic entropy                ...      0.00000000 Eh      0.00 kcal/mol
Vibrational entropy               ...      0.00337143 Eh      2.12 kcal/mol
Rotational entropy                ...      0.01168268 Eh      7.33 kcal/mol
Translational entropy             ...      0.01869190 Eh     11.73 kcal/mol
-----------------------------------------------------------------------
Final entropy term                ...      0.03374601 Eh     21.18 kcal/mol

In case the symmetry of your molecule has not been determined correctly
or in case you have a reason to use a different symmetry number we print
out the resulting rotational entropy values for sn=1,12:

 non-linear molecules -----------------------------------
|  sn= 1 | S(rot)=       0.01233714 Eh      7.74 kcal/mol|
|  sn= 2 | S(rot)=       0.01168268 Eh      7.33 kcal/mol|
|  sn= 3 | S(rot)=       0.01129985 Eh      7.09 kcal/mol|
|  sn= 4 | S(rot)=       0.01102822 Eh      6.92 kcal/mol|
|  sn= 5 | S(rot)=       0.01081753 Eh      6.79 kcal/mol|
|  sn= 6 | S(rot)=       0.01064539 Eh      6.68 kcal/mol|
|  sn= 7 | S(rot)=       0.01049984 Eh      6.59 kcal/mol|
|  sn= 8 | S(rot)=       0.01037377 Eh      6.51 kcal/mol|
|  sn= 9 | S(rot)=       0.01026256 Eh      6.44 kcal/mol|
|  sn=10 | S(rot)=       0.01016308 Eh      6.38 kcal/mol|
|  sn=11 | S(rot)=       0.01007309 Eh      6.32 kcal/mol|
|  sn=12 | S(rot)=       0.00999093 Eh      6.27 kcal/mol|
 linear molecules ---------------------------------------
|  Dinfh | S(rot)=       0.00757309 Eh      4.75 kcal/mol|
|  Cinfv | S(rot)=       0.00822755 Eh      5.16 kcal/mol|
 --------------------------------------------------------

-------------------
GIBBS FREE ENERGY
-------------------

The Gibbs free energy is G = H - T*S

Total enthalpy                    ...   -306.94741091 Eh
Total entropy correction          ...     -0.03374601 Eh    -21.18 kcal/mol
-----------------------------------------------------------------------
Final Gibbs free energy         ...   -306.98115691 Eh

                             ****ORCA TERMINATED NORMALLY****
TOTAL RUN TIME: 0 days 0 hours 5 minutes 14 seconds 306 msec
