                         Program Version 6.0.0  -   RELEASE  -
|  1> !B3LYP aug-cc-pVTZ d3 TightSCF SlowConv RIJCOSX defgrid2
|  2>
|  3> %pal
|  4> nprocs 4
|  5> end
|  6>
|  7> %scf
|  8> MaxIter 1500
|  9> end
| 10>
| 11> %maxcore 3000
| 12>
| 13> !CPCM
| 14> %cpcm smd true
| 15> SMDsolvent "MeCN"
| 16> surfacetype gepol_ses
| 17> rsolv 2.19
| 18> end
| 19>
| 20> * xyz -1 2
| 21> C          -0.04188476412109      1.20649591058260     -0.03059416435324
| 22> C          -1.42758997777244      1.20900092946328     -0.03204837740890
| 23> C          -2.18692767221781      0.02207756810286      0.00778089457379
| 24> C          -1.45245337452024     -1.19449457929778      0.04973241541109
| 25> C          -0.07593539048064     -1.21797796728122      0.05192894437349
| 26> C           0.70678686425334     -0.01719078736669      0.01222307749959
| 27> C           2.13722784115349     -0.10484845335572      0.01744599702996
| 28> O           2.77208408754572     -1.18919588733710      0.05436257040856
| 29> C           2.92761835814378      1.20197912887557     -0.02401472346093
| 30> H           3.99999527748817      0.94544780793909     -0.00555889368703
| 31> H           2.70732243738998      1.86415452535943      0.83824522074103
| 32> H           2.72299463114472      1.79839278568954     -0.93685074419013
| 33> H           0.47712353923980     -2.16170105523587      0.08479607463559
| 34> H          -2.00439456793065     -2.14494416213367      0.08164110604136
| 35> C          -3.68607504217989      0.02910769331193      0.00570061758528
| 36> H          -4.12174618431185     -0.45223229822142      0.90826315907933
| 37> H          -4.07802845542654      1.06256533456533     -0.02773326831382
| 38> H          -4.11993664787437     -0.50875039977053     -0.86531963898993
| 39> H          -1.95661019184379      2.17233863527966     -0.06580811854855
| 40> H           0.48615773232032      2.16549327083070     -0.06358124842653
| 41> *
| 42>
| 43>                          ****END OF INPUT****

CARTESIAN COORDINATES (ANGSTROEM)
---------------------------------
  C     -0.041885    1.206496   -0.030594
  C     -1.427590    1.209001   -0.032048
  C     -2.186928    0.022078    0.007781
  C     -1.452453   -1.194495    0.049732
  C     -0.075935   -1.217978    0.051929
  C      0.706787   -0.017191    0.012223
  C      2.137228   -0.104848    0.017446
  O      2.772084   -1.189196    0.054363
  C      2.927618    1.201979   -0.024015
  H      3.999995    0.945448   -0.005559
  H      2.707322    1.864155    0.838245
  H      2.722995    1.798393   -0.936851
  H      0.477124   -2.161701    0.084796
  H     -2.004395   -2.144944    0.081641
  C     -3.686075    0.029108    0.005701
  H     -4.121746   -0.452232    0.908263
  H     -4.078028    1.062565   -0.027733
  H     -4.119937   -0.508750   -0.865320
  H     -1.956610    2.172339   -0.065808
  H      0.486158    2.165493   -0.063581

 Total Charge           Charge          ....   -1
 Multiplicity           Mult            ....    2
 Number of Electrons    NEL             ....   73
 Basis Dimension        Dim             ....  690

ORBITAL ENERGIES
----------------
                 SPIN UP ORBITALS
  NO   OCC          E(Eh)            E(eV)
   0   1.0000     -19.045625      -518.2578
   1   1.0000     -10.183642      -277.1110
   2   1.0000     -10.152376      -276.2602
   3   1.0000     -10.148851      -276.1643
   4   1.0000     -10.148407      -276.1522
   5   1.0000     -10.147988      -276.1408
   6   1.0000     -10.145462      -276.0720
   7   1.0000     -10.142566      -275.9933
   8   1.0000     -10.140366      -275.9334
   9   1.0000     -10.136807      -275.8365
  10   1.0000      -0.962994       -26.2044
  11   1.0000      -0.825068       -22.4512
  12   1.0000      -0.750304       -20.4168
  13   1.0000      -0.718474       -19.5507
  14   1.0000      -0.698681       -19.0121
  15   1.0000      -0.658644       -17.9226
  16   1.0000      -0.579121       -15.7587
  17   1.0000      -0.569456       -15.4957
  18   1.0000      -0.514887       -14.0108
  19   1.0000      -0.457636       -12.4529
  20   1.0000      -0.436804       -11.8861
  21   1.0000      -0.418105       -11.3772
  22   1.0000      -0.403716       -10.9857
  23   1.0000      -0.402289       -10.9468
  24   1.0000      -0.396120       -10.7790
  25   1.0000      -0.388401       -10.5689
  26   1.0000      -0.374306       -10.1854
  27   1.0000      -0.352061        -9.5801
  28   1.0000      -0.348340        -9.4788
  29   1.0000      -0.340334        -9.2610
  30   1.0000      -0.326429        -8.8826
  31   1.0000      -0.310552        -8.4506
  32   1.0000      -0.298765        -8.1298
  33   1.0000      -0.240069        -6.5326
  34   1.0000      -0.224990        -6.1223
  35   1.0000      -0.206352        -5.6151
  36   1.0000      -0.088470        -2.4074
  37   0.0000      -0.001041        -0.0283
  38   0.0000       0.007331         0.1995
  39   0.0000       0.008782         0.2390
  40   0.0000       0.016505         0.4491
  41   0.0000       0.025079         0.6824

                 SPIN DOWN ORBITALS
  NO   OCC          E(Eh)            E(eV)
   0   1.0000     -19.040060      -518.1064
   1   1.0000     -10.179601      -277.0010
   2   1.0000     -10.152719      -276.2695
   3   1.0000     -10.149830      -276.1909
   4   1.0000     -10.149300      -276.1765
   5   1.0000     -10.143928      -276.0303
   6   1.0000     -10.143022      -276.0057
   7   1.0000     -10.140708      -275.9427
   8   1.0000     -10.140588      -275.9394
   9   1.0000     -10.135777      -275.8085
  10   1.0000      -0.952358       -25.9150
  11   1.0000      -0.820978       -22.3399
  12   1.0000      -0.744068       -20.2471
  13   1.0000      -0.715531       -19.4706
  14   1.0000      -0.694975       -18.9112
  15   1.0000      -0.657278       -17.8854
  16   1.0000      -0.571653       -15.5555
  17   1.0000      -0.567113       -15.4319
  18   1.0000      -0.511088       -13.9074
  19   1.0000      -0.453550       -12.3417
  20   1.0000      -0.434826       -11.8322
  21   1.0000      -0.414669       -11.2837
  22   1.0000      -0.401126       -10.9152
  23   1.0000      -0.394682       -10.7398
  24   1.0000      -0.389750       -10.6056
  25   1.0000      -0.387501       -10.5444
  26   1.0000      -0.371585       -10.1113
  27   1.0000      -0.349672        -9.5151
  28   1.0000      -0.346997        -9.4423
  29   1.0000      -0.331012        -9.0073
  30   1.0000      -0.324031        -8.8173
  31   1.0000      -0.297544        -8.0966
  32   1.0000      -0.288308        -7.8453
  33   1.0000      -0.231532        -6.3003
  34   1.0000      -0.204694        -5.5700
  35   1.0000      -0.201445        -5.4816
  36   0.0000      -0.018783        -0.5111
  37   0.0000      -0.001171        -0.0319
  38   0.0000       0.008605         0.2342
  39   0.0000       0.011234         0.3057
  40   0.0000       0.016113         0.4384

MULLIKEN ATOMIC CHARGES AND SPIN POPULATIONS
--------------------------------------------
   0 C :   -0.589242    0.223277
   1 C :   -0.922859   -0.085555
   2 C :    1.584187    0.288391
   3 C :   -1.082229   -0.059366
   4 C :   -1.448192    0.176574
   5 C :    1.974778    0.074408
   6 C :    0.600095    0.206941
   7 O :   -1.102676    0.215987
   8 C :   -0.640549   -0.020737
   9 H :    0.152480    0.000617
  10 H :    0.223854    0.012219
  11 H :    0.221435    0.012458
  12 H :   -0.124883   -0.021872
  13 H :    0.314816    0.001983
  14 C :   -0.861584   -0.033155
  15 H :    0.204858    0.014976
  16 H :    0.193315   -0.002509
  17 H :    0.206891    0.015084
  18 H :    0.110665    0.006296
  19 H :   -0.015160   -0.026018
Sum of atomic charges         :   -1.0000000

LOEWDIN ATOMIC CHARGES AND SPIN POPULATIONS
-------------------------------------------
   0 C :    0.147890    0.095642
   1 C :    0.150378    0.030598
   2 C :   -0.177106    0.128388
   3 C :    0.151593    0.026049
   4 C :    0.132527    0.077208
   5 C :   -0.212752    0.115634
   6 C :   -0.679862    0.184390
   7 O :    0.330861    0.198915
   8 C :    0.484010    0.035605
   9 H :   -0.203408   -0.000749
  10 H :   -0.178484    0.009239
  11 H :   -0.177725    0.009342
  12 H :   -0.215179    0.017254
  13 H :   -0.177897   -0.003352
  14 C :    0.516868    0.039140
  15 H :   -0.162996    0.009326
  16 H :   -0.178524    0.000730
  17 H :   -0.162873    0.009373
  18 H :   -0.181895   -0.003964
  19 H :   -0.205427    0.021233

  Mayer bond orders larger than 0.100000
B(  0-C ,  1-C ) :   1.2423 B(  0-C ,  3-C ) :  -0.2720 B(  0-C ,  4-C ) :  -0.6255
B(  0-C ,  6-C ) :   0.2941 B(  0-C , 19-H ) :   1.5232 B(  1-C ,  2-C ) :   0.5292
B(  1-C ,  4-C ) :   0.2763 B(  1-C ,  6-C ) :  -0.1182 B(  1-C , 12-H ) :  -0.1023
B(  1-C , 14-C ) :  -0.1449 B(  1-C , 18-H ) :   1.2077 B(  2-C ,  3-C ) :   0.5952
B(  2-C ,  6-C ) :   0.1749 B(  2-C , 12-H ) :  -0.1039 B(  2-C , 14-C ) :   0.1417
B(  2-C , 15-H ) :  -0.1276 B(  2-C , 17-H ) :  -0.1265 B(  3-C ,  4-C ) :   1.5700
B(  3-C , 13-H ) :   0.8839 B(  3-C , 14-C ) :   0.2524 B(  3-C , 19-H ) :  -0.1295
B(  4-C ,  5-C ) :  -0.2983 B(  4-C ,  6-C ) :   0.3672 B(  4-C , 12-H ) :   1.6477
B(  5-C ,  6-C ) :   0.4106 B(  5-C ,  7-O ) :   0.2939 B(  5-C , 12-H ) :  -0.2700
B(  5-C , 14-C ) :   0.1042 B(  5-C , 19-H ) :  -0.2917 B(  6-C ,  7-O ) :   0.4531
B(  6-C ,  8-C ) :   0.9394 B(  6-C , 12-H ) :  -0.1089 B(  6-C , 13-H ) :   0.1279
B(  7-O , 12-H ) :   0.1853 B(  8-C ,  9-H ) :   0.9780 B(  8-C , 10-H ) :   0.9701
B(  8-C , 11-H ) :   0.9721 B( 12-H , 19-H ) :   0.1054 B( 14-C , 15-H ) :   1.0293
B( 14-C , 16-H ) :   1.0059 B( 14-C , 17-H ) :   1.0266

Dispersion correction           -0.035011388
FINAL SINGLE POINT ENERGY      -424.229213680137

DIPOLE MOMENT
-------------

Method             : SCF
Type of density    : Electron Density
Multiplicity       :   2
Irrep              :   0
Energy             :  -424.1942022923797708 Eh
Relativity type    :
Basis              : AO
                                X                 Y                 Z
Electronic contribution:      3.091045344      -3.035442804       0.102858937
Nuclear contribution   :     -5.565601107       4.473854075      -0.154054051
                        -----------------------------------------
Total Dipole Moment    :     -2.474555763       1.438411271      -0.051195113
                        -----------------------------------------
Magnitude (a.u.)       :      2.862703992
Magnitude (Debye)      :      7.276415282

Rotational constants in cm-1:             0.119092             0.025902             0.021447
Rotational constants in MHz :          3570.280980           776.510270           642.950997

                             ****ORCA TERMINATED NORMALLY****
TOTAL RUN TIME: 0 days 0 hours 8 minutes 41 seconds 145 msec
