                         Program Version 6.0.0  -   RELEASE  -
|  1> !TPSSh opt aug-cc-pVTZ d3 TightSCF SlowConv RIJCOSX defgrid2
|  2>
|  3> %pal
|  4> nprocs 8
|  5> end
|  6>
|  7> %scf
|  8> MaxIter 1500
|  9> end
| 10>
| 11> %maxcore 3500
| 12>
| 13> !CPCM
| 14> %cpcm smd true
| 15> SMDsolvent "MeCN"
| 16> surfacetype gepol_ses
| 17> rsolv 2.19
| 18> end
| 19>
| 20> * xyz 1 2
| 21> C           1.36337197862367      0.00925782782262      0.00042331345329
| 22> C           0.74822645901465      1.29296895528656      0.00038316234352
| 23> C          -0.61529602246028      1.39626207073000      0.00023060917101
| 24> C          -1.42835414240665      0.22289484643639      0.00009324782531
| 25> C          -0.81975705014986     -1.06228254929373      0.00009847310954
| 26> C           0.54832834357610     -1.16073135173507      0.00023403456932
| 27> H           1.01965556748509     -2.14817388841103      0.00023835116044
| 28> H          -1.42717703035162     -1.96898347753981      0.00000365697629
| 29> O          -2.71426815111900      0.42982708435483     -0.00003024655139
| 30> C          -3.65743877124361     -0.63904368121668     -0.00016458675956
| 31> H          -4.64491010243250     -0.16049105257969     -0.00025717007063
| 32> H          -3.53752517507174     -1.25276547158578     -0.90821236062697
| 33> H          -3.53771725035146     -1.25281703649443      0.90787613291043
| 34> H          -1.11664261012245      2.36720004312394      0.00019734665612
| 35> H           1.36186872975284      2.19800021241604      0.00046058429736
| 36> S           3.05618464536732     -0.23274264105176      0.00049319565771
| 37> H           3.42654608188951      1.07420050973759     -0.00198104412179
| 38> *
| 39>
| 40>                          ****END OF INPUT****
 Total Charge           Charge          ....    1
 Multiplicity           Mult            ....    2
 Number of Electrons    NEL             ....   73
Dispersion correction           -0.021397116
FINAL SINGLE POINT ENERGY      -744.979056476075
Dispersion correction             ... done (  0.1 sec)
Dispersion correction           -0.021462018
FINAL SINGLE POINT ENERGY      -744.980310485316
Dispersion correction             ... done (  0.1 sec)
Dispersion correction           -0.021491590
FINAL SINGLE POINT ENERGY      -744.980520641430
Dispersion correction             ... done (  0.1 sec)
FINAL SINGLE POINT ENERGY      -744.980531835717
FINAL SINGLE POINT ENERGY      -744.980581077933
Dispersion correction             ... done (  0.1 sec)
Dispersion correction           -0.021492132
FINAL SINGLE POINT ENERGY      -744.980585793044
Dispersion correction             ... done (  0.1 sec)
Dispersion correction           -0.021491411
FINAL SINGLE POINT ENERGY      -744.980586870798
Dispersion correction             ... done (  0.1 sec)
                    ***********************HURRAY********************

CARTESIAN COORDINATES (ANGSTROEM)
---------------------------------
  C      1.337484    0.000249   -0.001536
  C      0.749557    1.290549   -0.004033
  C     -0.608473    1.408477   -0.002979
  C     -1.421380    0.242070   -0.001026
  C     -0.837973   -1.049202   -0.003372
  C      0.524029   -1.162949   -0.002919
  H      0.985132   -2.142120   -0.003142
  H     -1.455804   -1.934435   -0.003508
  O     -2.720214    0.460673    0.002984
  C     -3.641089   -0.662760    0.002792
  H     -4.627345   -0.210869    0.005827
  H     -3.491363   -1.255875   -0.898102
  H     -3.487832   -1.260061    0.900435
  H     -1.089795    2.377016   -0.002818
  H      1.378099    2.170779   -0.006927
  S      3.039781   -0.231721    0.005966
  H      3.392282    1.072758    0.012445

 Multiplicity           Mult            ....    2
 Number of Electrons    NEL             ....   73
 Basis Dimension        Dim             ....  602

ORBITAL ENERGIES
----------------
                 SPIN UP ORBITALS
  NO   OCC          E(Eh)            E(eV)
   0   1.0000     -88.814870     -2416.7755
   1   1.0000     -19.148992      -521.0706
   2   1.0000     -10.237660      -278.5809
   3   1.0000     -10.213042      -277.9110
   4   1.0000     -10.179582      -277.0005
   5   1.0000     -10.168874      -276.7091
   6   1.0000     -10.164965      -276.6028
   7   1.0000     -10.160425      -276.4792
   8   1.0000     -10.160406      -276.4787
   9   1.0000      -7.939929      -216.0565
  10   1.0000      -5.890015      -160.2755
  11   1.0000      -5.886700      -160.1853
  12   1.0000      -5.885666      -160.1571
  13   1.0000      -1.105961       -30.0947
  14   1.0000      -0.895493       -24.3676
  15   1.0000      -0.822883       -22.3918
  16   1.0000      -0.783375       -21.3167
  17   1.0000      -0.748597       -20.3704
  18   1.0000      -0.697230       -18.9726
  19   1.0000      -0.640312       -17.4238
  20   1.0000      -0.608247       -16.5512
  21   1.0000      -0.553089       -15.0503
  22   1.0000      -0.521521       -14.1913
  23   1.0000      -0.497733       -13.5440
  24   1.0000      -0.491586       -13.3767
  25   1.0000      -0.463996       -12.6260
  26   1.0000      -0.451293       -12.2803
  27   1.0000      -0.437813       -11.9135
  28   1.0000      -0.420160       -11.4331
  29   1.0000      -0.414923       -11.2906
  30   1.0000      -0.385274       -10.4838
  31   1.0000      -0.379437       -10.3250
  32   1.0000      -0.374442       -10.1891
  33   1.0000      -0.347720        -9.4619
  34   1.0000      -0.318773        -8.6743
  35   1.0000      -0.295846        -8.0504
  36   1.0000      -0.244603        -6.6560
  37   0.0000      -0.070308        -1.9132
  38   0.0000      -0.063631        -1.7315
  39   0.0000      -0.030751        -0.8368
  40   0.0000      -0.005206        -0.1417
  41   0.0000      -0.001708        -0.0465

                 SPIN DOWN ORBITALS
  NO   OCC          E(Eh)            E(eV)
   0   1.0000     -88.813185     -2416.7296
   1   1.0000     -19.143949      -520.9333
   2   1.0000     -10.234873      -278.5051
   3   1.0000     -10.209104      -277.8038
   4   1.0000     -10.179741      -277.0048
   5   1.0000     -10.168168      -276.6899
   6   1.0000     -10.164916      -276.6014
   7   1.0000     -10.159683      -276.4590
   8   1.0000     -10.159267      -276.4477
   9   1.0000      -7.938345      -216.0134
  10   1.0000      -5.889112      -160.2509
  11   1.0000      -5.884841      -160.1347
  12   1.0000      -5.881318      -160.0388
  13   1.0000      -1.097509       -29.8647
  14   1.0000      -0.889004       -24.1910
  15   1.0000      -0.815400       -22.1882
  16   1.0000      -0.781397       -21.2629
  17   1.0000      -0.744348       -20.2547
  18   1.0000      -0.690200       -18.7813
  19   1.0000      -0.636753       -17.3269
  20   1.0000      -0.603821       -16.4308
  21   1.0000      -0.550667       -14.9844
  22   1.0000      -0.519822       -14.1451
  23   1.0000      -0.494887       -13.4666
  24   1.0000      -0.476609       -12.9692
  25   1.0000      -0.461559       -12.5596
  26   1.0000      -0.450522       -12.2593
  27   1.0000      -0.435782       -11.8582
  28   1.0000      -0.413485       -11.2515
  29   1.0000      -0.405069       -11.0225
  30   1.0000      -0.383743       -10.4422
  31   1.0000      -0.370417       -10.0796
  32   1.0000      -0.361418        -9.8347
  33   1.0000      -0.345269        -9.3952
  34   1.0000      -0.294941        -8.0257
  35   1.0000      -0.289498        -7.8777
  36   0.0000      -0.195285        -5.3140
  37   0.0000      -0.054456        -1.4818
  38   0.0000      -0.045588        -1.2405
  39   0.0000      -0.027990        -0.7616
  40   0.0000      -0.003759        -0.1023

MULLIKEN ATOMIC CHARGES AND SPIN POPULATIONS
--------------------------------------------
   0 C :    0.503696    0.194184
   1 C :   -0.383377   -0.014938
   2 C :   -0.550244    0.047367
   3 C :    0.990518    0.181196
   4 C :   -0.126636    0.040802
   5 C :   -0.508693    0.050542
   6 H :    0.427962   -0.002236
   7 H :    0.354887    0.008797
   8 O :   -0.639512    0.161570
   9 C :   -0.257962   -0.012878
  10 H :    0.070251    0.001342
  11 H :    0.230294    0.007122
  12 H :    0.230129    0.007148
  13 H :    0.463940    0.001867
  14 H :    0.321005    0.000292
  15 S :   -0.247042    0.355854
  16 H :    0.120785   -0.028029
Sum of atomic charges         :    1.0000000

LOEWDIN ATOMIC CHARGES AND SPIN POPULATIONS
-------------------------------------------
   0 C :   -0.531684    0.165163
   1 C :    0.181943    0.044731
   2 C :    0.264926    0.064727
   3 C :   -0.341740    0.131083
   4 C :    0.266174    0.063106
   5 C :    0.168869    0.060778
   6 H :   -0.167004    0.003548
   7 H :   -0.170419    0.006360
   8 O :    0.655984    0.146711
   9 C :    0.448957    0.015268
  10 H :   -0.164533   -0.000337
  11 H :   -0.156723    0.003902
  12 H :   -0.156561    0.003894
  13 H :   -0.151175    0.007020
  14 H :   -0.170330    0.000148
  15 S :    1.499356    0.246976
  16 H :   -0.476039    0.036922

  Mayer bond orders larger than 0.100000
B(  0-C ,  1-C ) :   0.9770 B(  0-C ,  5-C ) :   1.1700 B(  0-C , 15-S ) :   0.6733
B(  1-C ,  2-C ) :   1.7147 B(  1-C ,  3-C ) :  -0.2162 B(  1-C , 13-H ) :   0.1347
B(  1-C , 14-H ) :   0.6602 B(  2-C ,  3-C ) :   0.8402 B(  2-C ,  8-O ) :   0.3331
B(  2-C , 13-H ) :   0.4064 B(  2-C , 14-H ) :   0.1043 B(  3-C ,  4-C ) :   0.9954
B(  3-C ,  5-C ) :  -0.1758 B(  3-C ,  8-O ) :   0.3498 B(  3-C ,  9-C ) :   0.1174
B(  4-C ,  5-C ) :   1.3927 B(  4-C ,  7-H ) :   0.5547 B(  4-C ,  8-O ) :  -0.1586
B(  5-C ,  6-H ) :   0.6281 B(  6-H , 15-S ) :  -0.1175 B(  8-O ,  9-C ) :   0.9217
B(  9-C , 10-H ) :   1.0669 B(  9-C , 11-H ) :   0.9055 B(  9-C , 12-H ) :   0.9055
B( 15-S , 16-H ) :   1.0362

Dispersion correction           -0.021491863
FINAL SINGLE POINT ENERGY      -744.980584976970

DIPOLE MOMENT
-------------

Method             : SCF
Type of density    : Electron Density
Multiplicity       :   2
Irrep              :   0
Energy             :  -744.9590931135027176 Eh
Relativity type    :
Basis              : AO
                                X                 Y                 Z
Electronic contribution:      7.608965605       0.907537771       0.000729274
Nuclear contribution   :     -7.933817371      -1.071954592      -0.000787005
                        -----------------------------------------
Total Dipole Moment    :     -0.324851766      -0.164416820      -0.000057731
                        -----------------------------------------
Magnitude (a.u.)       :      0.364090050
Magnitude (Debye)      :      0.925443360

Rotational constants in cm-1:             0.154289             0.023806             0.020707
Rotational constants in MHz :          4625.468143           713.685900           620.766612

                             ****ORCA TERMINATED NORMALLY****
TOTAL RUN TIME: 0 days 0 hours 39 minutes 50 seconds 195 msec
