                         Program Version 6.0.0  -   RELEASE  -
|  1> !TPSSh freq aug-cc-pVTZ d3 TightSCF SlowConv RIJCOSX defgrid2
|  2>
|  3> %pal
|  4> nprocs 12
|  5> end
|  6>
|  7> %scf
|  8> MaxIter 1500
|  9> end
| 10>
| 11> %maxcore 5000
| 12>
| 13> !CPCM
| 14> %cpcm smd true
| 15> SMDsolvent "MeCN"
| 16> surfacetype gepol_ses
| 17> rsolv 2.19
| 18> end
| 19>
| 20> * xyz 1 2
| 21> C           2.43948973044866     -0.69354482645600     -0.00009831991932
| 22> C           2.43950791032828      0.69348751693080     -0.00023231402098
| 23> C           1.22908539255824      1.39779010726385     -0.00023821004942
| 24> C           0.00001144938187      0.71267156990425      0.00000625423646
| 25> C          -1.22904510635867      1.39781956808295      0.00024640529632
| 26> C          -2.43948431647736      0.69354890738834      0.00024965613298
| 27> C          -2.43950584900051     -0.69348277752848      0.00011844527196
| 28> C          -1.22908523070711     -1.39779032251601      0.00012309113767
| 29> C          -0.00000796764836     -0.71267716897200     -0.00000136306398
| 30> C           1.22905201721561     -1.39782105306064     -0.00012763100260
| 31> H           1.23362022869672     -2.48049849840068     -0.00006949428948
| 32> H          -1.23368049399585     -2.48046817678231      0.00004315771080
| 33> H          -3.37400516915866     -1.23791443394389     -0.00034784598614
| 34> H          -3.37396191196151      1.23801076257406     -0.00012768021743
| 35> H          -1.23360596788021      2.48049848025221      0.00024128839505
| 36> H           1.23367131022804      2.48047087034648     -0.00024704775034
| 37> H           3.37400283014809      1.23792388063986      0.00014788556728
| 38> H           3.37397214418272     -1.23800240572280      0.00039032255115
| 39> *
| 40>
| 41>                          ****END OF INPUT****

CARTESIAN COORDINATES (ANGSTROEM)
---------------------------------
  C      2.439490   -0.693545   -0.000098
  C      2.439508    0.693488   -0.000232
  C      1.229085    1.397790   -0.000238
  C      0.000011    0.712672    0.000006
  C     -1.229045    1.397820    0.000246
  C     -2.439484    0.693549    0.000250
  C     -2.439506   -0.693483    0.000118
  C     -1.229085   -1.397790    0.000123
  C     -0.000008   -0.712677   -0.000001
  C      1.229052   -1.397821   -0.000128
  H      1.233620   -2.480498   -0.000069
  H     -1.233680   -2.480468    0.000043
  H     -3.374005   -1.237914   -0.000348
  H     -3.373962    1.238011   -0.000128
  H     -1.233606    2.480498    0.000241
  H      1.233671    2.480471   -0.000247
  H      3.374003    1.237924    0.000148
  H      3.373972   -1.238002    0.000390

 Total Charge           Charge          ....    1
 Multiplicity           Mult            ....    2
 Number of Electrons    NEL             ....   67
 Basis Dimension        Dim             ....  644

ORBITAL ENERGIES
----------------
                 SPIN UP ORBITALS
  NO   OCC          E(Eh)            E(eV)
   0   1.0000     -10.172130      -276.7977
   1   1.0000     -10.172116      -276.7973
   2   1.0000     -10.172109      -276.7972
   3   1.0000     -10.172099      -276.7969
   4   1.0000     -10.160029      -276.4684
   5   1.0000     -10.159641      -276.4579
   6   1.0000     -10.157270      -276.3934
   7   1.0000     -10.157270      -276.3934
   8   1.0000     -10.156749      -276.3792
   9   1.0000     -10.156740      -276.3790
  10   1.0000      -0.898663       -24.4539
  11   1.0000      -0.844611       -22.9830
  12   1.0000      -0.798863       -21.7382
  13   1.0000      -0.762700       -20.7541
  14   1.0000      -0.740544       -20.1512
  15   1.0000      -0.650234       -17.6938
  16   1.0000      -0.628958       -17.1148
  17   1.0000      -0.616327       -16.7711
  18   1.0000      -0.531781       -14.4705
  19   1.0000      -0.527335       -14.3495
  20   1.0000      -0.510819       -13.9001
  21   1.0000      -0.464208       -12.6317
  22   1.0000      -0.459105       -12.4929
  23   1.0000      -0.435382       -11.8474
  24   1.0000      -0.434498       -11.8233
  25   1.0000      -0.423195       -11.5157
  26   1.0000      -0.410458       -11.1691
  27   1.0000      -0.388986       -10.5848
  28   1.0000      -0.361302        -9.8315
  29   1.0000      -0.354146        -9.6368
  30   1.0000      -0.349315        -9.5053
  31   1.0000      -0.325124        -8.8471
  32   1.0000      -0.277609        -7.5541
  33   1.0000      -0.257591        -7.0094
  34   0.0000      -0.109693        -2.9849
  35   0.0000      -0.060178        -1.6375
  36   0.0000      -0.038362        -1.0439
  37   0.0000      -0.006368        -0.1733
  38   0.0000       0.005511         0.1500

                 SPIN DOWN ORBITALS
  NO   OCC          E(Eh)            E(eV)
   0   1.0000     -10.168214      -276.6912
   1   1.0000     -10.168197      -276.6907
   2   1.0000     -10.168193      -276.6906
   3   1.0000     -10.168180      -276.6902
   4   1.0000     -10.161084      -276.4971
   5   1.0000     -10.160697      -276.4866
   6   1.0000     -10.156631      -276.3760
   7   1.0000     -10.156630      -276.3760
   8   1.0000     -10.156105      -276.3617
   9   1.0000     -10.156097      -276.3614
  10   1.0000      -0.894544       -24.3418
  11   1.0000      -0.838611       -22.8198
  12   1.0000      -0.790924       -21.5221
  13   1.0000      -0.762145       -20.7390
  14   1.0000      -0.729467       -19.8498
  15   1.0000      -0.645619       -17.5682
  16   1.0000      -0.625983       -17.0339
  17   1.0000      -0.612105       -16.6562
  18   1.0000      -0.529290       -14.4027
  19   1.0000      -0.523424       -14.2431
  20   1.0000      -0.509053       -13.8520
  21   1.0000      -0.462449       -12.5839
  22   1.0000      -0.458306       -12.4711
  23   1.0000      -0.433520       -11.7967
  24   1.0000      -0.432133       -11.7589
  25   1.0000      -0.410808       -11.1787
  26   1.0000      -0.408046       -11.1035
  27   1.0000      -0.388155       -10.5622
  28   1.0000      -0.352069        -9.5803
  29   1.0000      -0.348713        -9.4890
  30   1.0000      -0.343451        -9.3458
  31   1.0000      -0.299580        -8.1520
  32   1.0000      -0.275948        -7.5089
  33   0.0000      -0.207407        -5.6438
  34   0.0000      -0.084625        -2.3028
  35   0.0000      -0.053001        -1.4422
  36   0.0000      -0.021236        -0.5779
  37   0.0000      -0.005450        -0.1483

MULLIKEN ATOMIC CHARGES AND SPIN POPULATIONS
--------------------------------------------
   0 C :   -0.266377    0.027877
   1 C :   -0.264637    0.027856
   2 C :   -0.771229    0.267905
   3 C :    1.303911   -0.095486
   4 C :   -0.771848    0.267914
   5 C :   -0.265707    0.027875
   6 C :   -0.263833    0.027868
   7 C :   -0.770481    0.267907
   8 C :    1.303954   -0.095549
   9 C :   -0.771885    0.267914
  10 H :    0.021556    0.003611
  11 H :    0.018450    0.003627
  12 H :    0.614728   -0.001639
  13 H :    0.611343   -0.001620
  14 H :    0.025782    0.003609
  15 H :    0.017390    0.003620
  16 H :    0.617583   -0.001653
  17 H :    0.611297   -0.001633
Sum of atomic charges         :    1.0000000

LOEWDIN ATOMIC CHARGES AND SPIN POPULATIONS
-------------------------------------------
   0 C :    0.282582    0.072190
   1 C :    0.282585    0.072189
   2 C :    0.303240    0.130398
   3 C :   -0.088198    0.030656
   4 C :    0.303241    0.130397
   5 C :    0.282581    0.072189
   6 C :    0.282584    0.072190
   7 C :    0.303244    0.130399
   8 C :   -0.088192    0.030655
   9 C :    0.303244    0.130398
  10 H :   -0.139167    0.025122
  11 H :   -0.139168    0.025122
  12 H :   -0.152559    0.006963
  13 H :   -0.152563    0.006963
  14 H :   -0.139165    0.025122
  15 H :   -0.139166    0.025122
  16 H :   -0.152561    0.006963
  17 H :   -0.152561    0.006963

  Mayer bond orders larger than 0.100000
B(  0-C ,  1-C ) :   1.4085 B(  0-C ,  3-C ) :  -0.2108 B(  0-C ,  9-C ) :   1.3710
B(  0-C , 16-H ) :   0.1682 B(  0-C , 17-H ) :   0.2775 B(  1-C ,  2-C ) :   1.3686
B(  1-C ,  8-C ) :  -0.2166 B(  1-C , 16-H ) :   0.2666 B(  1-C , 17-H ) :   0.1709
B(  2-C ,  3-C ) :   0.3408 B(  2-C ,  4-C ) :   0.3063 B(  2-C ,  8-C ) :  -0.2568
B(  2-C ,  9-C ) :   0.1093 B(  2-C , 15-H ) :   1.1733 B(  2-C , 16-H ) :  -0.1179
B(  3-C ,  4-C ) :   0.3396 B(  3-C ,  6-C ) :  -0.2158 B(  3-C ,  7-C ) :  -0.2569
B(  3-C ,  8-C ) :   1.2045 B(  3-C ,  9-C ) :  -0.2531 B(  4-C ,  5-C ) :   1.3707
B(  4-C ,  7-C ) :   0.1074 B(  4-C ,  8-C ) :  -0.2531 B(  4-C , 13-H ) :  -0.1171
B(  4-C , 14-H ) :   1.1603 B(  5-C ,  6-C ) :   1.4067 B(  5-C ,  8-C ) :  -0.2120
B(  5-C , 12-H ) :   0.1686 B(  5-C , 13-H ) :   0.2767 B(  6-C ,  7-C ) :   1.3688
B(  6-C , 12-H ) :   0.2720 B(  6-C , 13-H ) :   0.1696 B(  7-C ,  8-C ) :   0.3424
B(  7-C ,  9-C ) :   0.3045 B(  7-C , 11-H ) :   1.1729 B(  7-C , 12-H ) :  -0.1186
B(  8-C ,  9-C ) :   0.3412 B(  9-C , 10-H ) :   1.1662 B(  9-C , 17-H ) :  -0.1171
B( 12-H , 13-H ) :   0.1208 B( 16-H , 17-H ) :   0.1220

Dispersion correction           -0.024756929
FINAL SINGLE POINT ENERGY      -385.878318553783

DIPOLE MOMENT
-------------

Method             : SCF
Type of density    : Electron Density
Multiplicity       :   2
Irrep              :   0
Energy             :  -385.8535616243079858 Eh
Relativity type    :
Basis              : AO
                                X                 Y                 Z
Electronic contribution:      0.000012683      -0.000035027       0.000003240
Nuclear contribution   :     -0.000001278       0.000016934      -0.000005473
                        -----------------------------------------
Total Dipole Moment    :      0.000011405      -0.000018093      -0.000002233
                        -----------------------------------------
Magnitude (a.u.)       :      0.000021504
Magnitude (Debye)      :      0.000054658

VIBRATIONAL FREQUENCIES
-----------------------

Scaling factor for frequencies =  1.000000000  (already applied!)

     0:       0.00 cm**-1
     1:       0.00 cm**-1
     2:       0.00 cm**-1
     3:       0.00 cm**-1
     4:       0.00 cm**-1
     5:       0.00 cm**-1
     6:     142.76 cm**-1
     7:     159.15 cm**-1
     8:     338.17 cm**-1
     9:     363.18 cm**-1
    10:     403.49 cm**-1
    11:     414.89 cm**-1
    12:     436.52 cm**-1
    13:     465.51 cm**-1
    14:     507.14 cm**-1
    15:     589.57 cm**-1
    16:     731.75 cm**-1
    17:     735.92 cm**-1
    18:     755.62 cm**-1
    19:     771.07 cm**-1
    20:     802.77 cm**-1
    21:     859.41 cm**-1
    22:     930.60 cm**-1
    23:     936.72 cm**-1
    24:     973.88 cm**-1
    25:     997.63 cm**-1
    26:    1011.06 cm**-1
    27:    1017.07 cm**-1
    28:    1034.36 cm**-1
    29:    1053.50 cm**-1
    30:    1107.46 cm**-1
    31:    1109.74 cm**-1
    32:    1164.33 cm**-1
    33:    1167.87 cm**-1
    34:    1221.86 cm**-1
    35:    1252.34 cm**-1
    36:    1295.12 cm**-1
    37:    1416.74 cm**-1
    38:    1417.90 cm**-1
    39:    1419.76 cm**-1
    40:    1453.43 cm**-1
    41:    1490.52 cm**-1
    42:    1510.28 cm**-1
    43:    1541.82 cm**-1
    44:    1556.85 cm**-1
    45:    1618.67 cm**-1
    46:    3187.66 cm**-1
    47:    3189.03 cm**-1
    48:    3191.84 cm**-1
    49:    3192.40 cm**-1
    50:    3201.63 cm**-1
    51:    3201.85 cm**-1
    52:    3212.23 cm**-1
    53:    3212.85 cm**-1

IR SPECTRUM
-----------

 Mode   freq       eps      Int      T**2         TX        TY        TZ
       cm**-1   L/(mol*cm) km/mol    a.u.
----------------------------------------------------------------------------
  6:    142.76   0.000819    4.14  0.001791  (-0.001679  0.000003 -0.042283)
  7:    159.15   0.000000    0.00  0.000000  ( 0.000005 -0.000386  0.000022)
  8:    338.17   0.000234    1.18  0.000216  ( 0.000000 -0.014710 -0.000004)
  9:    363.18   0.000000    0.00  0.000000  (-0.000006  0.000007 -0.000004)
 10:    403.49   0.007693   38.88  0.005950  (-0.000077  0.000005  0.077136)
 11:    414.89   0.000000    0.00  0.000000  ( 0.000233 -0.000002  0.000320)
 12:    436.52   0.000000    0.00  0.000000  (-0.000010  0.000416 -0.000025)
 13:    465.51   0.000000    0.00  0.000000  (-0.000003  0.000000 -0.000008)
 14:    507.14   0.000000    0.00  0.000000  (-0.000002 -0.000001 -0.000000)
 15:    589.57   0.005131   25.93  0.002716  (-0.052112  0.000002 -0.000111)
 16:    731.75   0.000000    0.00  0.000000  ( 0.000004  0.000006 -0.000019)
 17:    735.92   0.000000    0.00  0.000000  (-0.000105 -0.000001 -0.000158)
 18:    755.62   0.032805  165.78  0.013548  (-0.000331 -0.000002 -0.116395)
 19:    771.07   0.000000    0.00  0.000000  ( 0.000001 -0.000002  0.000009)
 20:    802.77   0.000220    1.11  0.000085  ( 0.000005  0.009239 -0.000002)
 21:    859.41   0.000000    0.00  0.000000  (-0.000001  0.000279  0.000005)
 22:    930.60   0.000000    0.00  0.000000  (-0.000060 -0.000001  0.000037)
 23:    936.72   0.000000    0.00  0.000000  (-0.000000 -0.000001 -0.000007)
 24:    973.88   0.000000    0.00  0.000000  (-0.000003  0.000009 -0.000000)
 25:    997.63   0.000847    4.28  0.000265  (-0.000285  0.000004  0.016270)
 26:   1011.06   0.000000    0.00  0.000000  (-0.000006  0.000202  0.000003)
 27:   1017.07   0.000000    0.00  0.000000  (-0.000023 -0.000002 -0.000038)
 28:   1034.36   0.001409    7.12  0.000425  ( 0.020619 -0.000001 -0.000257)
 29:   1053.50   0.000000    0.00  0.000000  (-0.000002 -0.000001 -0.000000)
 30:   1107.46   0.001234    6.24  0.000348  (-0.000016 -0.018647  0.000000)
 31:   1109.74   0.000000    0.00  0.000000  ( 0.000006 -0.000017  0.000000)
 32:   1164.33   0.006930   35.02  0.001857  ( 0.043098 -0.000000 -0.000022)
 33:   1167.87   0.000000    0.00  0.000000  (-0.000192  0.000002 -0.000000)
 34:   1221.86   0.112053  566.27  0.028618  (-0.169169  0.000001 -0.000013)
 35:   1252.34   0.000000    0.00  0.000000  (-0.000024  0.000001  0.000009)
 36:   1295.12   0.001917    9.69  0.000462  ( 0.000009 -0.021492  0.000000)
 37:   1416.74   0.008710   44.02  0.001919  ( 0.043801  0.000126 -0.000091)
 38:   1417.90   0.000000    0.00  0.000000  ( 0.000045  0.000111 -0.000000)
 39:   1419.76   0.010997   55.58  0.002417  (-0.000120  0.049165  0.000000)
 40:   1453.43   0.000000    0.00  0.000000  ( 0.000003 -0.000005  0.000007)
 41:   1490.52   0.000000    0.00  0.000000  (-0.000006  0.000000  0.000001)
 42:   1510.28   0.000000    0.00  0.000000  (-0.000008  0.000011  0.000003)
 43:   1541.82   0.033170  167.63  0.006714  ( 0.000012 -0.081937 -0.000000)
 44:   1556.85   0.031489  159.13  0.006312  (-0.079447 -0.000016  0.000085)
 45:   1618.67   0.000000    0.00  0.000000  (-0.000004 -0.000002 -0.000001)
 46:   3187.66   0.000000    0.00  0.000000  (-0.000016 -0.000041 -0.000000)
 47:   3189.03   0.000457    2.31  0.000045  (-0.000002  0.006689 -0.000000)
 48:   3191.84   0.000300    1.52  0.000029  (-0.005419 -0.000001 -0.000038)
 49:   3192.40   0.000000    0.00  0.000000  (-0.000029  0.000018  0.000000)
 50:   3201.63   0.000002    0.01  0.000000  (-0.000019  0.000473 -0.000001)
 51:   3201.85   0.002699   13.64  0.000263  (-0.000018 -0.016220 -0.000000)
 52:   3212.23   0.005629   28.45  0.000547  ( 0.023385 -0.000010 -0.000157)
 53:   3212.85   0.000002    0.01  0.000000  ( 0.000457 -0.000001 -0.000003)

--------------------------
THERMOCHEMISTRY AT 298.15K
--------------------------

Temperature         ...   298.15 K
Pressure            ...     1.00 atm
Total Mass          ...   128.17 AMU
Quasi RRHO          ...     True
Cut-Off Frequency   ...     1.00 cm^-1

Throughout the following assumptions are being made:
  (1) The electronic state is orbitally nondegenerate
      but the spin degeneracy is treated
  (2) There are no thermally accessible electronically excited states
  (3) Hindered rotations indicated by low frequency modes are not
      treated as such but are treated as vibrations and this may
      cause some error
  (4) All equations used are the standard statistical mechanics
      equations for an ideal gas
  (5) All vibrations are strictly harmonic

freq.     142.76  E(vib)   ...       0.41
freq.     159.15  E(vib)   ...       0.39
freq.     338.17  E(vib)   ...       0.24
freq.     363.18  E(vib)   ...       0.22
freq.     403.49  E(vib)   ...       0.19
freq.     414.89  E(vib)   ...       0.19
freq.     436.52  E(vib)   ...       0.17
freq.     465.51  E(vib)   ...       0.16
freq.     507.14  E(vib)   ...       0.14
freq.     589.57  E(vib)   ...       0.10
freq.     731.75  E(vib)   ...       0.06
freq.     735.92  E(vib)   ...       0.06
freq.     755.62  E(vib)   ...       0.06
freq.     771.07  E(vib)   ...       0.05
freq.     802.77  E(vib)   ...       0.05
freq.     859.41  E(vib)   ...       0.04
freq.     930.60  E(vib)   ...       0.03
freq.     936.72  E(vib)   ...       0.03
freq.     973.88  E(vib)   ...       0.03
freq.     997.63  E(vib)   ...       0.02
freq.    1011.06  E(vib)   ...       0.02
freq.    1017.07  E(vib)   ...       0.02
freq.    1034.36  E(vib)   ...       0.02
freq.    1053.50  E(vib)   ...       0.02
freq.    1107.46  E(vib)   ...       0.02
freq.    1109.74  E(vib)   ...       0.02
freq.    1164.33  E(vib)   ...       0.01
freq.    1167.87  E(vib)   ...       0.01
freq.    1221.86  E(vib)   ...       0.01
freq.    1252.34  E(vib)   ...       0.01
freq.    1295.12  E(vib)   ...       0.01
freq.    1416.74  E(vib)   ...       0.00
freq.    1417.90  E(vib)   ...       0.00
freq.    1419.76  E(vib)   ...       0.00
freq.    1453.43  E(vib)   ...       0.00
freq.    1490.52  E(vib)   ...       0.00
freq.    1510.28  E(vib)   ...       0.00
freq.    1541.82  E(vib)   ...       0.00
freq.    1556.85  E(vib)   ...       0.00
freq.    1618.67  E(vib)   ...       0.00
freq.    3187.66  E(vib)   ...       0.00
freq.    3189.03  E(vib)   ...       0.00
freq.    3191.84  E(vib)   ...       0.00
freq.    3192.40  E(vib)   ...       0.00
freq.    3201.63  E(vib)   ...       0.00
freq.    3201.85  E(vib)   ...       0.00
freq.    3212.23  E(vib)   ...       0.00
freq.    3212.85  E(vib)   ...       0.00

------------
INNER ENERGY
------------

The inner energy is: U= E(el) + E(ZPE) + E(vib) + E(rot) + E(trans)
    E(el)   - is the total energy from the electronic structure calculation
              = E(kin-el) + E(nuc-el) + E(el-el) + E(nuc-nuc)
    E(ZPE)  - the the zero temperature vibrational energy from the frequency calculation
    E(vib)  - the the finite temperature correction to E(ZPE) due to population
              of excited vibrational states
    E(rot)  - is the rotational thermal energy
    E(trans)- is the translational thermal energy

Summary of contributions to the inner energy U:
Electronic energy                ...   -385.87831855 Eh
Zero point energy                ...      0.14526942 Eh      91.16 kcal/mol
Thermal vibrational correction   ...      0.00451637 Eh       2.83 kcal/mol
Thermal rotational correction    ...      0.00141627 Eh       0.89 kcal/mol
Thermal translational correction ...      0.00141627 Eh       0.89 kcal/mol
-----------------------------------------------------------------------
Total thermal energy                   -385.72570022 Eh

Summary of corrections to the electronic energy:
(perhaps to be used in another calculation)
Total thermal correction                  0.00734891 Eh       4.61 kcal/mol
Non-thermal (ZPE) correction              0.14526942 Eh      91.16 kcal/mol
-----------------------------------------------------------------------
Total correction                          0.15261833 Eh      95.77 kcal/mol

--------
ENTHALPY
--------

The enthalpy is H = U + kB*T
                kB is Boltzmann's constant
Total thermal energy              ...   -385.72570022 Eh
Thermal Enthalpy correction       ...      0.00094421 Eh       0.59 kcal/mol
-----------------------------------------------------------------------
Total Enthalpy                    ...   -385.72475601 Eh

Note: Rotational entropy computed according to Herzberg
Infrared and Raman Spectra, Chapter V,1, Van Nostrand Reinhold, 1945
Point Group:  C2, Symmetry Number:   2
Rotational constants in cm-1:     0.105250     0.041063     0.029539

Vibrational entropy computed according to the QRRHO of S. Grimme
Chem.Eur.J. 2012 18 9955 using a reference frequency of 100.0 cm-1

-------
ENTROPY
-------

The entropy contributions are T*S = T*(S(el)+S(vib)+S(rot)+S(trans))
     S(el)   - electronic entropy
     S(vib)  - vibrational entropy
     S(rot)  - rotational entropy
     S(trans)- translational entropy
The entropies will be listed as multiplied by the temperature to get
units of energy

Electronic entropy                ...      0.00065446 Eh      0.41 kcal/mol
Vibrational entropy               ...      0.00700467 Eh      4.40 kcal/mol
Rotational entropy                ...      0.01308917 Eh      8.21 kcal/mol
Translational entropy             ...      0.01922279 Eh     12.06 kcal/mol
-----------------------------------------------------------------------
Final entropy term                ...      0.03997108 Eh     25.08 kcal/mol

In case the symmetry of your molecule has not been determined correctly
or in case you have a reason to use a different symmetry number we print
out the resulting rotational entropy values for sn=1,12:

 non-linear molecules -----------------------------------
|  sn= 1 | S(rot)=       0.01374362 Eh      8.62 kcal/mol|
|  sn= 2 | S(rot)=       0.01308917 Eh      8.21 kcal/mol|
|  sn= 3 | S(rot)=       0.01270633 Eh      7.97 kcal/mol|
|  sn= 4 | S(rot)=       0.01243471 Eh      7.80 kcal/mol|
|  sn= 5 | S(rot)=       0.01222402 Eh      7.67 kcal/mol|
|  sn= 6 | S(rot)=       0.01205188 Eh      7.56 kcal/mol|
|  sn= 7 | S(rot)=       0.01190633 Eh      7.47 kcal/mol|
|  sn= 8 | S(rot)=       0.01178025 Eh      7.39 kcal/mol|
|  sn= 9 | S(rot)=       0.01166904 Eh      7.32 kcal/mol|
|  sn=10 | S(rot)=       0.01156956 Eh      7.26 kcal/mol|
|  sn=11 | S(rot)=       0.01147957 Eh      7.20 kcal/mol|
|  sn=12 | S(rot)=       0.01139742 Eh      7.15 kcal/mol|
 linear molecules ---------------------------------------
|  Dinfh | S(rot)=       0.00865126 Eh      5.43 kcal/mol|
|  Cinfv | S(rot)=       0.00930572 Eh      5.84 kcal/mol|
 --------------------------------------------------------

                             ****ORCA TERMINATED NORMALLY****
TOTAL RUN TIME: 0 days 1 hours 33 minutes 40 seconds 191 msec
