                         Program Version 6.0.0  -   RELEASE  -
|  1> !r2SCAN opt aug-cc-pVTZ d3 TightSCF SlowConv RIJCOSX defgrid2
|  2>
|  3> %pal
|  4> nprocs 8
|  5> end
|  6>
|  7> %scf
|  8> MaxIter 1500
|  9> end
| 10>
| 11> %maxcore 3500
| 12>
| 13> !CPCM
| 14> %cpcm smd true
| 15> SMDsolvent "MeCN"
| 16> surfacetype gepol_ses
| 17> rsolv 2.19
| 18> end
| 19>
| 20> * xyz -1 2
| 21> C           0.68315502285048     -1.23058998559791     -0.00197785400563
| 22> C          -0.69097039389614     -1.22820808682412     -0.00110778792906
| 23> C          -1.39878915837568      0.00192561974512      0.00006123035750
| 24> C          -0.67088260295619      1.21697689217912      0.00034729291936
| 25> C           0.70599002665524      1.19710781410292     -0.00056169847882
| 26> C           1.43890972865005     -0.02356673016238     -0.00174160392592
| 27> C           2.88835051512998     -0.09555430971111     -0.00265662366589
| 28> O           3.51113560358604     -1.16132419888811     -0.00429988492646
| 29> C           3.67215429347512      1.21312233920081     -0.00319382492201
| 30> H           3.44490427270519      1.82862721041062      0.88658626511100
| 31> H           4.74564035342603      0.96713680695522     -0.00513239151038
| 32> H           3.44193148262032      1.82994436135706     -0.89128425723845
| 33> H           1.24130264942652      2.15210104681416     -0.00032125400509
| 34> H          -1.23634900308120      2.15002194871812      0.00128004669295
| 35> N          -2.79949677516438      0.01738261553575      0.00104508920787
| 36> O          -3.38660343043673      1.11542368371417      0.00320409549424
| 37> O          -3.41030224545591     -1.06695584054066      0.00182719273433
| 38> H          -1.27295707729704     -2.15125183977829     -0.00128101747157
| 39> H           1.24384223813830     -2.16976914723049     -0.00287851443797
| 40> *
| 41>
| 42>                          ****END OF INPUT****
 Total Charge           Charge          ....   -1
 Multiplicity           Mult            ....    2
 Number of Electrons    NEL             ....   87
Dispersion correction           -0.006323474
FINAL SINGLE POINT ENERGY      -589.464603851541
Dispersion correction             ... done (  0.0 sec)
Dispersion correction           -0.006332230
FINAL SINGLE POINT ENERGY      -589.466708865951
Dispersion correction             ... done (  0.0 sec)
Dispersion correction           -0.006335906
FINAL SINGLE POINT ENERGY      -589.467016011553
Dispersion correction             ... done (  0.1 sec)
FINAL SINGLE POINT ENERGY      -589.466991967794
Dispersion correction             ... done (  0.1 sec)
Dispersion correction           -0.006335471
FINAL SINGLE POINT ENERGY      -589.467071701399
Dispersion correction             ... done (  0.1 sec)
Dispersion correction           -0.006335265
FINAL SINGLE POINT ENERGY      -589.467072597614
Dispersion correction             ... done (  0.1 sec)
                    ***********************HURRAY********************

CARTESIAN COORDINATES (ANGSTROEM)
---------------------------------
  C      0.684336   -1.229610   -0.002390
  C     -0.688741   -1.224988   -0.001136
  C     -1.387880    0.003827    0.000060
  C     -0.662216    1.214969   -0.000917
  C      0.714022    1.190416   -0.002188
  C      1.432610   -0.027839   -0.002778
  C      2.890056   -0.083540   -0.003819
  O      3.499738   -1.163448   -0.005276
  C      3.664423    1.213597   -0.001981
  H      3.426351    1.817073    0.878019
  H      4.730235    0.992823   -0.004178
  H      3.423722    1.821310   -0.878241
  H      1.248225    2.132721   -0.003067
  H     -1.204704    2.149855   -0.000486
  N     -2.782114    0.019145    0.002334
  O     -3.391541    1.135359    0.003918
  O     -3.416107   -1.083427    0.004014
  H     -1.253808   -2.146707   -0.000896
  H      1.224359   -2.168989   -0.003077

 Multiplicity           Mult            ....    2
 Number of Electrons    NEL             ....   87
 Basis Dimension        Dim             ....  713

ORBITAL ENERGIES
----------------
                 SPIN UP ORBITALS
  NO   OCC          E(Eh)            E(eV)
   0   1.0000     -18.925700      -514.9945
   1   1.0000     -18.925514      -514.9894
   2   1.0000     -18.916864      -514.7540
   3   1.0000     -14.318782      -389.6339
   4   1.0000     -10.097573      -274.7689
   5   1.0000     -10.065243      -273.8892
   6   1.0000     -10.034237      -273.0455
   7   1.0000     -10.031597      -272.9736
   8   1.0000     -10.031309      -272.9658
   9   1.0000     -10.030976      -272.9567
  10   1.0000     -10.030573      -272.9458
  11   1.0000     -10.015786      -272.5434
  12   1.0000      -1.105806       -30.0905
  13   1.0000      -0.973226       -26.4828
  14   1.0000      -0.935399       -25.4535
  15   1.0000      -0.824754       -22.4427
  16   1.0000      -0.754881       -20.5414
  17   1.0000      -0.713218       -19.4076
  18   1.0000      -0.694855       -18.9080
  19   1.0000      -0.647486       -17.6190
  20   1.0000      -0.564916       -15.3722
  21   1.0000      -0.551194       -14.9988
  22   1.0000      -0.508193       -13.8286
  23   1.0000      -0.475789       -12.9469
  24   1.0000      -0.449038       -12.2190
  25   1.0000      -0.441201       -12.0057
  26   1.0000      -0.427930       -11.6446
  27   1.0000      -0.405173       -11.0253
  28   1.0000      -0.402232       -10.9453
  29   1.0000      -0.397615       -10.8197
  30   1.0000      -0.382751       -10.4152
  31   1.0000      -0.362479        -9.8636
  32   1.0000      -0.359259        -9.7759
  33   1.0000      -0.340809        -9.2739
  34   1.0000      -0.329163        -8.9570
  35   1.0000      -0.311392        -8.4734
  36   1.0000      -0.295688        -8.0461
  37   1.0000      -0.248710        -6.7677
  38   1.0000      -0.238134        -6.4799
  39   1.0000      -0.235855        -6.4179
  40   1.0000      -0.235729        -6.4145
  41   1.0000      -0.206034        -5.6065
  42   1.0000      -0.202791        -5.5182
  43   1.0000      -0.120069        -3.2672
  44   0.0000      -0.055748        -1.5170
  45   0.0000      -0.029698        -0.8081
  46   0.0000       0.005150         0.1401
  47   0.0000       0.019552         0.5320
  48   0.0000       0.023719         0.6454

                 SPIN DOWN ORBITALS
  NO   OCC          E(Eh)            E(eV)
   0   1.0000     -18.920576      -514.8551
   1   1.0000     -18.920473      -514.8523
   2   1.0000     -18.913801      -514.6707
   3   1.0000     -14.312992      -389.4763
   4   1.0000     -10.096514      -274.7401
   5   1.0000     -10.064077      -273.8575
   6   1.0000     -10.034610      -273.0556
   7   1.0000     -10.031168      -272.9619
   8   1.0000     -10.030146      -272.9341
   9   1.0000     -10.029830      -272.9255
  10   1.0000     -10.028216      -272.8816
  11   1.0000     -10.015871      -272.5457
  12   1.0000      -1.097499       -29.8645
  13   1.0000      -0.968490       -26.3539
  14   1.0000      -0.927912       -25.2498
  15   1.0000      -0.821275       -22.3480
  16   1.0000      -0.748139       -20.3579
  17   1.0000      -0.710658       -19.3380
  18   1.0000      -0.691479       -18.8161
  19   1.0000      -0.640790       -17.4368
  20   1.0000      -0.564302       -15.3555
  21   1.0000      -0.546244       -14.8641
  22   1.0000      -0.506033       -13.7699
  23   1.0000      -0.470406       -12.8004
  24   1.0000      -0.437998       -11.9185
  25   1.0000      -0.425707       -11.5841
  26   1.0000      -0.424025       -11.5383
  27   1.0000      -0.402579       -10.9547
  28   1.0000      -0.400519       -10.8987
  29   1.0000      -0.391795       -10.6613
  30   1.0000      -0.382138       -10.3985
  31   1.0000      -0.360929        -9.8214
  32   1.0000      -0.358418        -9.7530
  33   1.0000      -0.333744        -9.0816
  34   1.0000      -0.327832        -8.9208
  35   1.0000      -0.301794        -8.2122
  36   1.0000      -0.295091        -8.0298
  37   1.0000      -0.236135        -6.4256
  38   1.0000      -0.231376        -6.2960
  39   1.0000      -0.223317        -6.0768
  40   1.0000      -0.218886        -5.9562
  41   1.0000      -0.201784        -5.4908
  42   1.0000      -0.199911        -5.4399
  43   0.0000      -0.093761        -2.5514
  44   0.0000      -0.035321        -0.9611
  45   0.0000      -0.026321        -0.7162
  46   0.0000       0.006612         0.1799
  47   0.0000       0.020735         0.5642

MULLIKEN ATOMIC CHARGES AND SPIN POPULATIONS
--------------------------------------------
   0 C :   -0.892204   -0.038068
   1 C :   -0.348047    0.109967
   2 C :    0.480927   -0.009565
   3 C :   -0.633349    0.122747
   4 C :   -0.340648   -0.039026
   5 C :    1.322644    0.209329
   6 C :    0.690810    0.052743
   7 O :   -1.026533    0.102258
   8 C :   -0.540797   -0.020529
   9 H :    0.225206    0.007520
  10 H :    0.150632   -0.002379
  11 H :    0.224513    0.007500
  12 H :   -0.086333   -0.006793
  13 H :    0.412068    0.003147
  14 N :    0.541266    0.152823
  15 O :   -0.807004    0.177750
  16 O :   -0.807190    0.180526
  17 H :    0.481489    0.000594
  18 H :   -0.047450   -0.010544
Sum of atomic charges         :   -1.0000000

LOEWDIN ATOMIC CHARGES AND SPIN POPULATIONS
-------------------------------------------
   0 C :    0.176465    0.025337
   1 C :    0.182187    0.047848
   2 C :   -0.308271    0.070892
   3 C :    0.186963    0.053894
   4 C :    0.187450    0.027694
   5 C :   -0.161973    0.086950
   6 C :   -0.587964    0.070157
   7 O :    0.428615    0.085641
   8 C :    0.555719    0.010078
   9 H :   -0.171724    0.002387
  10 H :   -0.191607   -0.000138
  11 H :   -0.172028    0.002380
  12 H :   -0.194465   -0.000077
  13 H :   -0.217038    0.010885
  14 N :   -0.816868    0.179362
  15 O :    0.261702    0.157636
  16 O :    0.261852    0.159835
  17 H :   -0.217726    0.009400
  18 H :   -0.201287   -0.000160

  Mayer bond orders larger than 0.100000
B(  0-C ,  1-C ) :   1.3862 B(  0-C ,  2-C ) :  -0.3838 B(  0-C ,  3-C ) :  -0.1208
B(  0-C ,  4-C ) :  -0.5041 B(  0-C ,  6-C ) :   0.3046 B(  0-C , 12-H ) :   0.1059
B(  0-C , 16-O ) :  -0.1482 B(  0-C , 18-H ) :   1.3242 B(  1-C ,  2-C ) :   0.7611
B(  1-C ,  3-C ) :   0.1998 B(  1-C ,  4-C ) :  -0.2501 B(  1-C ,  5-C ) :   0.2719
B(  1-C , 14-N ) :  -0.1737 B(  1-C , 16-O ) :  -0.1017 B(  1-C , 17-H ) :   0.3489
B(  2-C ,  3-C ) :   0.5872 B(  2-C ,  4-C ) :  -0.3140 B(  2-C , 14-N ) :   1.3704
B(  2-C , 15-O ) :   0.4197 B(  2-C , 16-O ) :   0.4504 B(  3-C ,  4-C ) :   0.8954
B(  3-C ,  5-C ) :   0.3003 B(  3-C , 13-H ) :   0.4496 B(  3-C , 14-N ) :  -0.2452
B(  4-C ,  5-C ) :   0.3421 B(  4-C ,  6-C ) :   0.1694 B(  4-C , 12-H ) :   1.5209
B(  4-C , 15-O ) :  -0.1303 B(  5-C ,  6-C ) :   0.3328 B(  5-C ,  7-O ) :   0.2768
B(  5-C , 12-H ) :  -0.2957 B(  5-C , 18-H ) :  -0.1869 B(  6-C ,  7-O ) :   0.7068
B(  6-C ,  8-C ) :   0.9014 B(  7-O , 18-H ) :   0.1638 B(  8-C ,  9-H ) :   0.9806
B(  8-C , 10-H ) :   0.9504 B(  8-C , 11-H ) :   0.9814 B( 12-H , 18-H ) :   0.1080
B( 14-N , 15-O ) :   0.8467 B( 14-N , 16-O ) :   0.8402 B( 15-O , 16-O ) :   0.1187

Dispersion correction           -0.006335082
FINAL SINGLE POINT ENERGY      -589.467074767930

DIPOLE MOMENT
-------------

Method             : SCF
Type of density    : Electron Density
Multiplicity       :   2
Irrep              :   0
Energy             :  -589.4607396861458710 Eh
Relativity type    :
Basis              : AO
                                X                 Y                 Z
Electronic contribution:     -7.860291817      -2.957216670       0.003071352
Nuclear contribution   :     10.828268237       4.304955823      -0.006376201
                        -----------------------------------------
Total Dipole Moment    :      2.967976419       1.347739153      -0.003304850
                        -----------------------------------------
Magnitude (a.u.)       :      3.259646572
Magnitude (Debye)      :      8.285363136

Rotational constants in cm-1:             0.094901             0.015887             0.013643
Rotational constants in MHz :          2845.070816           476.278070           409.006981

                             ****ORCA TERMINATED NORMALLY****
TOTAL RUN TIME: 0 days 0 hours 23 minutes 44 seconds 561 msec
