                         Program Version 6.0.0  -   RELEASE  -
|  1> !PBE0 aug-cc-pVTZ d3 TightSCF SlowConv RIJCOSX defgrid2
|  2>
|  3> %pal
|  4> nprocs 10
|  5> end
|  6>
|  7> %scf
|  8> MaxIter 1500
|  9> end
| 10>
| 11> %maxcore 3500
| 12>
| 13> !CPCM
| 14> %cpcm smd true
| 15> SMDsolvent "WATER"
| 16> surfacetype gepol_ses
| 17> rsolv 1.40
| 18> end
| 19>
| 20> * xyz 0 2
| 21>   C          -0.11609874427787     -0.00549833146305     -1.09166051828012
| 22>   C          -0.06011683134759     -0.95278509536638     -0.14629559883637
| 23>   C          -0.12471069310473     -0.40669924924484      1.24362311758038
| 24>   N          -0.22754435037957      1.03434271135506      0.95079797263953
| 25>   C          -0.23150406587531      1.38042585937059     -0.48840792759055
| 26>   H           0.02559760749994     -2.01735042488152     -0.37607502307243
| 27>   O          -0.30719725434603      1.90352542466580      1.84763502630721
| 28>   C          -0.06026175824533     -0.38808249649150     -2.53546561747586
| 29>   O           0.04263596012876     -1.54903384399020     -2.88061155377649
| 30>   C          -1.54909261101230      2.09648655652139     -0.80036124124277
| 31>   H          -1.58247082249827      2.48576443460033     -1.83190594119848
| 32>   H          -2.40467570485958      1.41531605976659     -0.65984133217838
| 33>   H          -1.65709970518172      2.94563669192758     -0.10515427072988
| 34>   C           0.97137748294183      2.28793540378461     -0.76183532174647
| 35>   H           0.92403797538752      3.14845181915781     -0.07373708321239
| 36>   H           1.91466513722241      1.74585954892844     -0.58293263501816
| 37>   H           0.98323354337203      2.66940679234643     -1.79662980647134
| 38>   C           1.14603484773707     -0.67849930031598      2.05108178091850
| 39>   H           1.22944818447998     -1.74985812098869      2.29970024784929
| 40>   H           2.04188216597692     -0.37745827941083      1.48284498269252
| 41>   H           1.11122089200302     -0.09513329178683      2.98649209630369
| 42>   C          -1.36731121460930     -0.86517254295167      2.00958246948541
| 43>   H          -2.27834603550156     -0.69741684096779      1.41130352571173
| 44>   H          -1.30032457043791     -1.93784209757345      2.25766668368952
| 45>   H          -1.44837094192206     -0.28492100112544      2.94388101584222
| 46>   N          -0.12913367845321      0.62854904476097     -3.43820730517209
| 47>   H          -0.22721159511714      1.59778561337663     -3.17267086489660
| 48>   H          -0.09811273057999      0.38459799799591     -4.42137771112161
| 49> *
| 50>
| 51>                          ****END OF INPUT****

CARTESIAN COORDINATES (ANGSTROEM)
---------------------------------
  C     -0.116099   -0.005498   -1.091661
  C     -0.060117   -0.952785   -0.146296
  C     -0.124711   -0.406699    1.243623
  N     -0.227544    1.034343    0.950798
  C     -0.231504    1.380426   -0.488408
  H      0.025598   -2.017350   -0.376075
  O     -0.307197    1.903525    1.847635
  C     -0.060262   -0.388082   -2.535466
  O      0.042636   -1.549034   -2.880612
  C     -1.549093    2.096487   -0.800361
  H     -1.582471    2.485764   -1.831906
  H     -2.404676    1.415316   -0.659841
  H     -1.657100    2.945637   -0.105154
  C      0.971377    2.287935   -0.761835
  H      0.924038    3.148452   -0.073737
  H      1.914665    1.745860   -0.582933
  H      0.983234    2.669407   -1.796630
  C      1.146035   -0.678499    2.051082
  H      1.229448   -1.749858    2.299700
  H      2.041882   -0.377458    1.482845
  H      1.111221   -0.095133    2.986492
  C     -1.367311   -0.865173    2.009582
  H     -2.278346   -0.697417    1.411304
  H     -1.300325   -1.937842    2.257667
  H     -1.448371   -0.284921    2.943881
  N     -0.129134    0.628549   -3.438207
  H     -0.227212    1.597786   -3.172671
  H     -0.098113    0.384598   -4.421378

 Total Charge           Charge          ....    0
 Multiplicity           Mult            ....    2
 Number of Electrons    NEL             ....   99
 Basis Dimension        Dim             ....  943

ORBITAL ENERGIES
----------------
                 SPIN UP ORBITALS
  NO   OCC          E(Eh)            E(eV)
   0   1.0000     -19.226142      -523.1699
   1   1.0000     -19.189673      -522.1776
   2   1.0000     -14.489669      -394.2839
   3   1.0000     -14.410824      -392.1385
   4   1.0000     -10.345008      -281.5020
   5   1.0000     -10.290543      -280.0199
   6   1.0000     -10.285294      -279.8771
   7   1.0000     -10.249991      -278.9164
   8   1.0000     -10.247780      -278.8563
   9   1.0000     -10.221104      -278.1304
  10   1.0000     -10.220903      -278.1249
  11   1.0000     -10.219149      -278.0772
  12   1.0000     -10.219137      -278.0769
  13   1.0000      -1.158709       -31.5301
  14   1.0000      -1.087937       -29.6043
  15   1.0000      -0.943079       -25.6625
  16   1.0000      -0.932469       -25.3738
  17   1.0000      -0.845963       -23.0198
  18   1.0000      -0.788575       -21.4582
  19   1.0000      -0.750021       -20.4091
  20   1.0000      -0.719802       -19.5868
  21   1.0000      -0.710437       -19.3320
  22   1.0000      -0.673154       -18.3174
  23   1.0000      -0.629443       -17.1280
  24   1.0000      -0.594505       -16.1773
  25   1.0000      -0.581732       -15.8297
  26   1.0000      -0.551316       -15.0021
  27   1.0000      -0.516114       -14.0442
  28   1.0000      -0.510113       -13.8809
  29   1.0000      -0.501366       -13.6429
  30   1.0000      -0.472157       -12.8480
  31   1.0000      -0.464162       -12.6305
  32   1.0000      -0.455319       -12.3899
  33   1.0000      -0.450081       -12.2473
  34   1.0000      -0.443913       -12.0795
  35   1.0000      -0.427127       -11.6227
  36   1.0000      -0.423920       -11.5355
  37   1.0000      -0.414719       -11.2851
  38   1.0000      -0.399666       -10.8755
  39   1.0000      -0.391792       -10.6612
  40   1.0000      -0.389489       -10.5985
  41   1.0000      -0.366743        -9.9796
  42   1.0000      -0.365706        -9.9514
  43   1.0000      -0.360991        -9.8231
  44   1.0000      -0.355718        -9.6796
  45   1.0000      -0.300854        -8.1867
  46   1.0000      -0.298768        -8.1299
  47   1.0000      -0.289409        -7.8752
  48   1.0000      -0.282919        -7.6986
  49   1.0000      -0.216407        -5.8887
  50   0.0000      -0.044950        -1.2231
  51   0.0000       0.000325         0.0088
  52   0.0000       0.011990         0.3263
  53   0.0000       0.015892         0.4324
  54   0.0000       0.018642         0.5073

                 SPIN DOWN ORBITALS
  NO   OCC          E(Eh)            E(eV)
   0   1.0000     -19.213156      -522.8165
   1   1.0000     -19.189682      -522.1778
   2   1.0000     -14.476160      -393.9163
   3   1.0000     -14.410823      -392.1384
   4   1.0000     -10.345030      -281.5026
   5   1.0000     -10.291230      -280.0386
   6   1.0000     -10.285979      -279.8957
   7   1.0000     -10.249991      -278.9164
   8   1.0000     -10.247767      -278.8559
   9   1.0000     -10.220557      -278.1155
  10   1.0000     -10.220356      -278.1100
  11   1.0000     -10.218571      -278.0615
  12   1.0000     -10.218559      -278.0611
  13   1.0000      -1.133633       -30.8477
  14   1.0000      -1.087943       -29.6044
  15   1.0000      -0.939766       -25.5723
  16   1.0000      -0.925166       -25.1751
  17   1.0000      -0.844502       -22.9801
  18   1.0000      -0.782988       -21.3062
  19   1.0000      -0.737770       -20.0757
  20   1.0000      -0.716803       -19.5052
  21   1.0000      -0.708952       -19.2916
  22   1.0000      -0.671636       -18.2761
  23   1.0000      -0.626745       -17.0546
  24   1.0000      -0.593365       -16.1463
  25   1.0000      -0.572460       -15.5774
  26   1.0000      -0.550643       -14.9838
  27   1.0000      -0.507764       -13.8170
  28   1.0000      -0.495735       -13.4896
  29   1.0000      -0.480989       -13.0884
  30   1.0000      -0.469179       -12.7670
  31   1.0000      -0.463495       -12.6123
  32   1.0000      -0.450158       -12.2494
  33   1.0000      -0.448778       -12.2119
  34   1.0000      -0.443377       -12.0649
  35   1.0000      -0.424920       -11.5627
  36   1.0000      -0.411451       -11.1961
  37   1.0000      -0.410150       -11.1608
  38   1.0000      -0.399161       -10.8617
  39   1.0000      -0.388476       -10.5710
  40   1.0000      -0.376335       -10.2406
  41   1.0000      -0.364957        -9.9310
  42   1.0000      -0.359972        -9.7953
  43   1.0000      -0.354997        -9.6600
  44   1.0000      -0.344823        -9.3831
  45   1.0000      -0.299167        -8.1408
  46   1.0000      -0.298637        -8.1263
  47   1.0000      -0.281135        -7.6501
  48   1.0000      -0.279823        -7.6144
  49   0.0000      -0.055232        -1.5029
  50   0.0000      -0.043388        -1.1806
  51   0.0000       0.000676         0.0184
  52   0.0000       0.012357         0.3362
  53   0.0000       0.016544         0.4502

MULLIKEN ATOMIC CHARGES AND SPIN POPULATIONS
--------------------------------------------
   0 C :    1.177263    0.010026
   1 C :   -0.976636    0.009160
   2 C :    0.903766   -0.096800
   3 N :    0.901068    0.555888
   4 C :    1.137709   -0.073529
   5 H :    0.476528   -0.002083
   6 O :   -1.126460    0.468148
   7 C :    0.330715    0.001394
   8 O :   -1.024791   -0.000244
   9 C :   -1.106076    0.019991
  10 H :    0.257535    0.005452
  11 H :    0.241333   -0.000236
  12 H :    0.192553    0.004960
  13 C :   -1.110056    0.020146
  14 H :    0.183104    0.004847
  15 H :    0.229131   -0.000454
  16 H :    0.268345    0.005241
  17 C :   -1.193147    0.027628
  18 H :    0.221255    0.004129
  19 H :    0.258118   -0.000551
  20 H :    0.210042    0.003015
  21 C :   -1.186544    0.028137
  22 H :    0.252442   -0.000898
  23 H :    0.219741    0.004166
  24 H :    0.218833    0.003172
  25 N :   -0.210004   -0.000521
  26 H :    0.145371   -0.000257
  27 H :    0.108864    0.000073
Sum of atomic charges         :    0.0000000

LOEWDIN ATOMIC CHARGES AND SPIN POPULATIONS
-------------------------------------------
   0 C :   -0.079929    0.001949
   1 C :    0.257129    0.002463
   2 C :   -0.468463    0.042149
   3 N :   -0.163892    0.403699
   4 C :   -0.450641    0.040932
   5 H :   -0.130971   -0.000267
   6 O :    0.377495    0.434843
   7 C :   -0.702670   -0.000363
   8 O :    0.421140   -0.000295
   9 C :    0.598685    0.013025
  10 H :   -0.151941    0.003464
  11 H :   -0.136296    0.001639
  12 H :   -0.155911    0.000352
  13 C :    0.598048    0.012971
  14 H :   -0.155379    0.000359
  15 H :   -0.136695    0.001633
  16 H :   -0.151895    0.003444
  17 C :    0.596019    0.013313
  18 H :   -0.138213    0.003384
  19 H :   -0.142537    0.001623
  20 H :   -0.153951    0.000621
  21 C :    0.596202    0.013387
  22 H :   -0.142609    0.001629
  23 H :   -0.138109    0.003411
  24 H :   -0.154204    0.000627
  25 N :    0.886287    0.000051
  26 H :   -0.325888   -0.000050
  27 H :   -0.250809    0.000008

  Mayer bond orders larger than 0.100000
B(  0-C ,  1-C ) :   0.6567 B(  0-C ,  2-C ) :   0.1417 B(  0-C ,  3-N ) :  -0.2258
B(  0-C ,  4-C ) :   0.7955 B(  0-C ,  7-C ) :  -0.3164 B(  0-C ,  8-O ) :   0.6781
B(  0-C , 25-N ) :  -0.3012 B(  1-C ,  2-C ) :   1.1546 B(  1-C ,  3-N ) :  -0.3646
B(  1-C ,  4-C ) :  -0.1218 B(  1-C ,  5-H ) :   0.7644 B(  1-C ,  7-C ) :   0.4132
B(  2-C ,  3-N ) :   1.1467 B(  2-C ,  4-C ) :  -0.1782 B(  2-C ,  6-O ) :  -0.2544
B(  2-C ,  7-C ) :  -0.1610 B(  2-C , 17-C ) :   0.5751 B(  2-C , 21-C ) :   0.5884
B(  3-N ,  4-C ) :   1.2511 B(  3-N ,  6-O ) :   0.3821 B(  4-C ,  5-H ) :   0.1228
B(  4-C ,  7-C ) :   0.3666 B(  4-C ,  9-C ) :   0.6057 B(  4-C , 13-C ) :   0.5887
B(  4-C , 25-N ) :  -0.1694 B(  5-H ,  8-O ) :   0.1038 B(  7-C ,  8-O ) :   0.3766
B(  7-C , 25-N ) :   1.2699 B(  9-C , 10-H ) :   0.9093 B(  9-C , 11-H ) :   0.9766
B(  9-C , 12-H ) :   1.0225 B( 13-C , 14-H ) :   1.0329 B( 13-C , 15-H ) :   0.9940
B( 13-C , 16-H ) :   0.8983 B( 17-C , 18-H ) :   0.9953 B( 17-C , 19-H ) :   0.9569
B( 17-C , 20-H ) :   1.0275 B( 17-C , 21-C ) :   0.1939 B( 21-C , 22-H ) :   0.9655
B( 21-C , 23-H ) :   0.9967 B( 21-C , 24-H ) :   1.0129 B( 25-N , 26-H ) :   0.9831
B( 25-N , 27-H ) :   1.0098

Dispersion correction           -0.028641835
FINAL SINGLE POINT ENERGY      -611.450572756568

DIPOLE MOMENT
-------------

Method             : SCF
Type of density    : Electron Density
Multiplicity       :   2
Irrep              :   0
Energy             :  -611.4219309214338409 Eh
Relativity type    :
Basis              : AO
                                X                 Y                 Z
Electronic contribution:      0.312868220      -2.695509669      -5.503088078
Nuclear contribution   :     -0.388237367       3.445340699       4.719558355
                        -----------------------------------------
Total Dipole Moment    :     -0.075369147       0.749831030      -0.783529723
                        -----------------------------------------
Magnitude (a.u.)       :      1.087127366
Magnitude (Debye)      :      2.763258164

Rotational constants in cm-1:             0.040199             0.022321             0.017613
Rotational constants in MHz :          1205.148589           669.171544           528.030747

                             ****ORCA TERMINATED NORMALLY****
TOTAL RUN TIME: 0 days 0 hours 9 minutes 15 seconds 462 msec
