                         Program Version 6.0.0  -   RELEASE  -
|  1> !TPSSh aug-cc-pVTZ d3 TightSCF SlowConv RIJCOSX defgrid2
|  2>
|  3> %pal
|  4> nprocs 4
|  5> end
|  6>
|  7> %scf
|  8> MaxIter 1500
|  9> end
| 10>
| 11> %maxcore 3000
| 12>
| 13> !CPCM
| 14> %cpcm smd true
| 15> SMDsolvent "MeCN"
| 16> surfacetype gepol_ses
| 17> rsolv 2.19
| 18> end
| 19>
| 20> * xyz 1 2
| 21> C          -0.91447665052191     -0.47212024963727      0.00305742174444
| 22> C          -2.18959675934569      0.11971421337046      0.01409102309685
| 23> C          -2.29388700864009      1.49579494614513      0.03719397935039
| 24> C          -1.14208865599825      2.32820910625960      0.04995116881801
| 25> C           0.10947335768495      1.76881259512950      0.03960538148135
| 26> C           0.28212991065801      0.35726166855364      0.01600485453252
| 27> C           1.54760711026767     -0.28724291022231      0.00423169337063
| 28> C           2.77332093532235      0.34213760096678      0.01571595747138
| 29> C           4.06622172347746     -0.36316154066438      0.00304916339958
| 30> H           3.96002045066298     -1.45844987469069     -0.01793750531576
| 31> H           4.66637612050733     -0.03672280648830     -0.86953860101039
| 32> H           4.66526755704250     -0.07044112617912      0.88830060381995
| 33> H           2.81784562071465      1.43840343521638      0.03577451797111
| 34> H           1.53655051969215     -1.38139322639124     -0.01527207677871
| 35> H           0.98749423584764      2.41741461359963      0.04936131634716
| 36> H          -1.26152864583437      3.41417242331339      0.06788229194881
| 37> H          -3.28641699296290      1.95584755491465      0.04577091193408
| 38> H          -3.08960840973113     -0.49602884724601      0.00463129800869
| 39> O          -0.70644499866046     -1.76403981031241     -0.01892493742312
| 40> C          -1.78404812347373     -2.69340134662684     -0.03465822668874
| 41> H          -2.39834499922984     -2.55118103918316     -0.93925561775505
| 42> H          -2.39845270509497     -2.58207749303523      0.87418511117935
| 43> H          -1.31890279238437     -3.68732048679220     -0.05153622950254
| 44> *
| 45>
| 46>                          ****END OF INPUT****

CARTESIAN COORDINATES (ANGSTROEM)
---------------------------------
  C     -0.914477   -0.472120    0.003057
  C     -2.189597    0.119714    0.014091
  C     -2.293887    1.495795    0.037194
  C     -1.142089    2.328209    0.049951
  C      0.109473    1.768813    0.039605
  C      0.282130    0.357262    0.016005
  C      1.547607   -0.287243    0.004232
  C      2.773321    0.342138    0.015716
  C      4.066222   -0.363162    0.003049
  H      3.960020   -1.458450   -0.017938
  H      4.666376   -0.036723   -0.869539
  H      4.665268   -0.070441    0.888301
  H      2.817846    1.438403    0.035775
  H      1.536551   -1.381393   -0.015272
  H      0.987494    2.417415    0.049361
  H     -1.261529    3.414172    0.067882
  H     -3.286417    1.955848    0.045771
  H     -3.089608   -0.496029    0.004631
  O     -0.706445   -1.764040   -0.018925
  C     -1.784048   -2.693401   -0.034658
  H     -2.398345   -2.551181   -0.939256
  H     -2.398453   -2.582077    0.874185
  H     -1.318903   -3.687320   -0.051536

 Total Charge           Charge          ....    1
 Multiplicity           Mult            ....    2
 Number of Electrons    NEL             ....   79
 Basis Dimension        Dim             ....  782

ORBITAL ENERGIES
----------------
                 SPIN UP ORBITALS
  NO   OCC          E(Eh)            E(eV)
   0   1.0000     -19.140885      -520.8500
   1   1.0000     -10.233060      -278.4557
   2   1.0000     -10.180806      -277.0338
   3   1.0000     -10.179815      -277.0068
   4   1.0000     -10.175930      -276.9011
   5   1.0000     -10.162026      -276.5228
   6   1.0000     -10.158207      -276.4189
   7   1.0000     -10.150262      -276.2027
   8   1.0000     -10.148255      -276.1481
   9   1.0000     -10.144339      -276.0415
  10   1.0000     -10.125996      -275.5424
  11   1.0000      -1.108331       -30.1592
  12   1.0000      -0.875949       -23.8358
  13   1.0000      -0.821966       -22.3668
  14   1.0000      -0.775903       -21.1134
  15   1.0000      -0.763881       -20.7862
  16   1.0000      -0.713157       -19.4060
  17   1.0000      -0.686443       -18.6791
  18   1.0000      -0.630929       -17.1685
  19   1.0000      -0.599379       -16.3099
  20   1.0000      -0.563710       -15.3393
  21   1.0000      -0.545416       -14.8415
  22   1.0000      -0.509414       -13.8619
  23   1.0000      -0.496689       -13.5156
  24   1.0000      -0.489748       -13.3267
  25   1.0000      -0.459273       -12.4975
  26   1.0000      -0.448100       -12.1934
  27   1.0000      -0.432851       -11.7785
  28   1.0000      -0.418820       -11.3967
  29   1.0000      -0.416433       -11.3317
  30   1.0000      -0.402554       -10.9540
  31   1.0000      -0.394735       -10.7413
  32   1.0000      -0.378012       -10.2862
  33   1.0000      -0.374344       -10.1864
  34   1.0000      -0.351527        -9.5655
  35   1.0000      -0.349904        -9.5214
  36   1.0000      -0.335684        -9.1344
  37   1.0000      -0.326158        -8.8752
  38   1.0000      -0.263894        -7.1809
  39   1.0000      -0.240754        -6.5512
  40   0.0000      -0.098590        -2.6828
  41   0.0000      -0.044246        -1.2040
  42   0.0000      -0.007470        -0.2033
  43   0.0000      -0.005827        -0.1586
  44   0.0000       0.002197         0.0598

                 SPIN DOWN ORBITALS
  NO   OCC          E(Eh)            E(eV)
   0   1.0000     -19.137212      -520.7500
   1   1.0000     -10.230728      -278.3923
   2   1.0000     -10.179941      -277.0103
   3   1.0000     -10.177531      -276.9447
   4   1.0000     -10.170223      -276.7458
   5   1.0000     -10.159700      -276.4595
   6   1.0000     -10.158172      -276.4179
   7   1.0000     -10.150733      -276.2155
   8   1.0000     -10.146943      -276.1124
   9   1.0000     -10.145175      -276.0642
  10   1.0000     -10.126252      -275.5493
  11   1.0000      -1.102169       -29.9915
  12   1.0000      -0.870217       -23.6798
  13   1.0000      -0.814893       -22.1744
  14   1.0000      -0.769799       -20.9473
  15   1.0000      -0.761178       -20.7127
  16   1.0000      -0.711951       -19.3732
  17   1.0000      -0.682078       -18.5603
  18   1.0000      -0.626237       -17.0408
  19   1.0000      -0.595913       -16.2156
  20   1.0000      -0.559443       -15.2232
  21   1.0000      -0.543326       -14.7846
  22   1.0000      -0.507706       -13.8154
  23   1.0000      -0.494577       -13.4581
  24   1.0000      -0.477755       -13.0004
  25   1.0000      -0.457085       -12.4379
  26   1.0000      -0.446682       -12.1548
  27   1.0000      -0.431595       -11.7443
  28   1.0000      -0.414822       -11.2879
  29   1.0000      -0.406829       -11.0704
  30   1.0000      -0.392778       -10.6880
  31   1.0000      -0.391893       -10.6640
  32   1.0000      -0.376784       -10.2528
  33   1.0000      -0.373072       -10.1518
  34   1.0000      -0.350001        -9.5240
  35   1.0000      -0.338167        -9.2020
  36   1.0000      -0.333956        -9.0874
  37   1.0000      -0.310146        -8.4395
  38   1.0000      -0.255092        -6.9414
  39   0.0000      -0.190941        -5.1958
  40   0.0000      -0.075861        -2.0643
  41   0.0000      -0.031554        -0.8586
  42   0.0000      -0.006830        -0.1859
  43   0.0000       0.002845         0.0774

MULLIKEN ATOMIC CHARGES AND SPIN POPULATIONS
--------------------------------------------
   0 C :    0.622346    0.158210
   1 C :   -0.511254   -0.087160
   2 C :   -0.096319    0.157349
   3 C :   -0.472948    0.096066
   4 C :   -0.488594   -0.074752
   5 C :    0.986474    0.230402
   6 C :    0.402147    0.028615
   7 C :   -0.347478    0.376475
   8 C :   -0.342540   -0.062892
   9 H :    0.140648   -0.005187
  10 H :    0.143265    0.027060
  11 H :    0.144449    0.027093
  12 H :    0.154912   -0.010879
  13 H :    0.093172    0.006084
  14 H :   -0.103803    0.002431
  15 H :    0.552135    0.003063
  16 H :    0.304036    0.003120
  17 H :    0.405806    0.007488
  18 O :   -0.806808    0.113839
  19 C :   -0.310532   -0.012934
  20 H :    0.254507    0.007977
  21 H :    0.254875    0.007983
  22 H :    0.021504    0.000548
Sum of atomic charges         :    1.0000000

LOEWDIN ATOMIC CHARGES AND SPIN POPULATIONS
-------------------------------------------
   0 C :   -0.326914    0.111848
   1 C :    0.255929    0.022742
   2 C :    0.254058    0.088016
   3 C :    0.253054    0.067222
   4 C :    0.247920    0.027000
   5 C :   -0.064127    0.125401
   6 C :    0.270494    0.090099
   7 C :    0.294647    0.193344
   8 C :    0.604309    0.060891
   9 H :   -0.156432    0.001219
  10 H :   -0.141898    0.014043
  11 H :   -0.141883    0.014068
  12 H :   -0.152743    0.032825
  13 H :   -0.185895    0.003016
  14 H :   -0.166563   -0.003563
  15 H :   -0.150602    0.010950
  16 H :   -0.141574    0.017110
  17 H :   -0.169688   -0.004076
  18 O :    0.651194    0.107520
  19 C :    0.415695    0.013174
  20 H :   -0.146970    0.003634
  21 H :   -0.147013    0.003629
  22 H :   -0.154999   -0.000112

  Mayer bond orders larger than 0.100000
B(  0-C ,  1-C ) :   1.4229 B(  0-C ,  2-C ) :  -0.2887 B(  0-C ,  3-C ) :   0.2159
B(  0-C ,  4-C ) :  -0.6549 B(  0-C ,  5-C ) :   0.5432 B(  0-C ,  7-C ) :   0.1646
B(  0-C , 16-H ) :   0.1594 B(  0-C , 17-H ) :  -0.1037 B(  0-C , 18-O ) :   0.3897
B(  0-C , 19-C ) :   0.1343 B(  1-C ,  2-C ) :   1.2145 B(  1-C ,  3-C ) :   0.1744
B(  1-C , 14-H ) :  -0.1139 B(  1-C , 17-H ) :   0.3306 B(  1-C , 18-O ) :  -0.1066
B(  2-C ,  3-C ) :   1.1613 B(  2-C ,  4-C ) :  -0.1271 B(  2-C ,  5-C ) :  -0.2150
B(  2-C ,  6-C ) :   0.1575 B(  2-C , 15-H ) :   0.1056 B(  2-C , 16-H ) :   0.7091
B(  2-C , 17-H ) :   0.1886 B(  3-C ,  4-C ) :   1.4747 B(  3-C , 15-H ) :   0.2876
B(  3-C , 17-H ) :  -0.1182 B(  4-C ,  5-C ) :   0.7737 B(  4-C , 14-H ) :   1.4556
B(  4-C , 17-H ) :   0.1081 B(  5-C ,  6-C ) :   0.4681 B(  5-C , 12-H ) :  -0.1069
B(  5-C , 17-H ) :   0.1989 B(  5-C , 18-O ) :   0.2072 B(  6-C ,  7-C ) :   0.7040
B(  6-C , 13-H ) :   0.9998 B(  7-C ,  8-C ) :   1.1666 B(  7-C ,  9-H ) :   0.1156
B(  7-C , 12-H ) :   1.0311 B(  8-C ,  9-H ) :   0.9266 B(  8-C , 10-H ) :   0.9383
B(  8-C , 11-H ) :   0.9364 B( 14-H , 15-H ) :  -0.1035 B( 14-H , 16-H ) :   0.1165
B( 14-H , 17-H ) :  -0.1007 B( 18-O , 19-C ) :   1.0955 B( 19-C , 20-H ) :   0.8763
B( 19-C , 21-H ) :   0.8756 B( 19-C , 22-H ) :   1.0985

Dispersion correction           -0.027012039
FINAL SINGLE POINT ENERGY      -463.524592042816

DIPOLE MOMENT
-------------

Method             : SCF
Type of density    : Electron Density
Multiplicity       :   2
Irrep              :   0
Energy             :  -463.4975800041702882 Eh
Relativity type    :
Basis              : AO
                                X                 Y                 Z
Electronic contribution:     -4.573358177       2.814582273       0.049382777
Nuclear contribution   :      4.638279725      -2.868122594      -0.050338921
                        -----------------------------------------
Total Dipole Moment    :      0.064921548      -0.053540321      -0.000956144
                        -----------------------------------------
Magnitude (a.u.)       :      0.084156328
Magnitude (Debye)      :      0.213908387

Rotational constants in cm-1:             0.050628             0.027043             0.017747
Rotational constants in MHz :          1517.785345           810.742847           532.038071

                             ****ORCA TERMINATED NORMALLY****
TOTAL RUN TIME: 0 days 0 hours 13 minutes 20 seconds 785 msec
