                         Program Version 6.0.0  -   RELEASE  -
|  1> !PBE0 aug-cc-pVTZ d3 TightSCF SlowConv RIJCOSX defgrid2
|  2>
|  3> %pal
|  4> nprocs 4
|  5> end
|  6>
|  7> %scf
|  8> MaxIter 1500
|  9> end
| 10>
| 11> %maxcore 3000
| 12>
| 13> !CPCM
| 14> %cpcm smd true
| 15> SMDsolvent "MeCN"
| 16> surfacetype gepol_ses
| 17> rsolv 2.19
| 18> end
| 19>
| 20> * xyz 1 2
| 21> C           0.40691282511463     -1.70325741551343      0.00016490908038
| 22> C          -0.96671189262499     -1.83667983985275      0.00018183586636
| 23> C          -1.68805707115252     -0.64261847572794      0.00008964722041
| 24> C          -1.04965590853916      0.63174029183313     -0.00002815696193
| 25> C           0.31128268883802      0.76926444998310     -0.00006174051828
| 26> C           1.07563281783288     -0.42742383238868      0.00003976058398
| 27> C           2.50697376337741     -0.44842167152090      0.00002305530846
| 28> C           3.33194801420144      0.64326709175403     -0.00015920562991
| 29> C           4.80599658250123      0.57741183606312     -0.00011946162688
| 30> H           5.18832353952918     -0.45487585344274     -0.00025429959810
| 31> H           5.21029428249422      1.11436451749660     -0.88040742471441
| 32> H           5.21019265645541      1.11403585874487      0.88042635965306
| 33> H           2.89207932946336      1.64904733647115     -0.00030687813280
| 34> H           2.97508026944189     -1.43956967985044      0.00016270833927
| 35> H           0.76741616602726      1.75937954473271     -0.00014274226054
| 36> O          -1.99397501474410      1.57230653765351     -0.00008671930137
| 37> C          -3.25136220491207      0.93015345618164     -0.00001294315373
| 38> H          -3.81339036666005      1.19156590903578     -0.91179779853392
| 39> H          -3.81336621741767      1.19172534012324      0.91174226589655
| 40> O          -2.99199983018881     -0.47270763267778      0.00010157254283
| 41> H          -1.46695007676095     -2.80656600519405      0.00027477962737
| 42> H           1.02699584772340     -2.60385336390417      0.00024457631318
| 43> *
| 44>
| 45>                          ****END OF INPUT****

CARTESIAN COORDINATES (ANGSTROEM)
---------------------------------
  C      0.406913   -1.703257    0.000165
  C     -0.966712   -1.836680    0.000182
  C     -1.688057   -0.642618    0.000090
  C     -1.049656    0.631740   -0.000028
  C      0.311283    0.769264   -0.000062
  C      1.075633   -0.427424    0.000040
  C      2.506974   -0.448422    0.000023
  C      3.331948    0.643267   -0.000159
  C      4.805997    0.577412   -0.000119
  H      5.188324   -0.454876   -0.000254
  H      5.210294    1.114365   -0.880407
  H      5.210193    1.114036    0.880426
  H      2.892079    1.649047   -0.000307
  H      2.975080   -1.439570    0.000163
  H      0.767416    1.759380   -0.000143
  O     -1.993975    1.572307   -0.000087
  C     -3.251362    0.930153   -0.000013
  H     -3.813390    1.191566   -0.911798
  H     -3.813366    1.191725    0.911742
  O     -2.992000   -0.472708    0.000102
  H     -1.466950   -2.806566    0.000275
  H      1.026996   -2.603853    0.000245

 Total Charge           Charge          ....    1
 Multiplicity           Mult            ....    2
 Number of Electrons    NEL             ....   85
 Basis Dimension        Dim             ....  782

ORBITAL ENERGIES
----------------
                 SPIN UP ORBITALS
  NO   OCC          E(Eh)            E(eV)
   0   1.0000     -19.324002      -525.8328
   1   1.0000     -19.307569      -525.3857
   2   1.0000     -10.369896      -282.1792
   3   1.0000     -10.356700      -281.8201
   4   1.0000     -10.342740      -281.4403
   5   1.0000     -10.298924      -280.2480
   6   1.0000     -10.282653      -279.8052
   7   1.0000     -10.279935      -279.7313
   8   1.0000     -10.272378      -279.5256
   9   1.0000     -10.266434      -279.3639
  10   1.0000     -10.261069      -279.2179
  11   1.0000     -10.231672      -278.4179
  12   1.0000      -1.231010       -33.4975
  13   1.0000      -1.136430       -30.9238
  14   1.0000      -0.936041       -25.4710
  15   1.0000      -0.868174       -23.6242
  16   1.0000      -0.827401       -22.5147
  17   1.0000      -0.816801       -22.2263
  18   1.0000      -0.757035       -20.6000
  19   1.0000      -0.718757       -19.5584
  20   1.0000      -0.691148       -18.8071
  21   1.0000      -0.680873       -18.5275
  22   1.0000      -0.609124       -16.5751
  23   1.0000      -0.585023       -15.9193
  24   1.0000      -0.584981       -15.9182
  25   1.0000      -0.573070       -15.5940
  26   1.0000      -0.543168       -14.7804
  27   1.0000      -0.499382       -13.5889
  28   1.0000      -0.490075       -13.3356
  29   1.0000      -0.482836       -13.1386
  30   1.0000      -0.463378       -12.6091
  31   1.0000      -0.454934       -12.3794
  32   1.0000      -0.451798       -12.2940
  33   1.0000      -0.441740       -12.0204
  34   1.0000      -0.439850       -11.9689
  35   1.0000      -0.439209       -11.9515
  36   1.0000      -0.405006       -11.0208
  37   1.0000      -0.394846       -10.7443
  38   1.0000      -0.391536       -10.6542
  39   1.0000      -0.380163       -10.3448
  40   1.0000      -0.326443        -8.8830
  41   1.0000      -0.287502        -7.8233
  42   1.0000      -0.252713        -6.8767
  43   0.0000      -0.078001        -2.1225
  44   0.0000      -0.038524        -1.0483
  45   0.0000      -0.002231        -0.0607
  46   0.0000       0.007115         0.1936
  47   0.0000       0.011549         0.3143

                 SPIN DOWN ORBITALS
  NO   OCC          E(Eh)            E(eV)
   0   1.0000     -19.319468      -525.7095
   1   1.0000     -19.305296      -525.3238
   2   1.0000     -10.370086      -282.1844
   3   1.0000     -10.352970      -281.7186
   4   1.0000     -10.341413      -281.4042
   5   1.0000     -10.296089      -280.1708
   6   1.0000     -10.280066      -279.7348
   7   1.0000     -10.275112      -279.6000
   8   1.0000     -10.273058      -279.5441
   9   1.0000     -10.267676      -279.3977
  10   1.0000     -10.261864      -279.2395
  11   1.0000     -10.231864      -278.4232
  12   1.0000      -1.225084       -33.3362
  13   1.0000      -1.129883       -30.7457
  14   1.0000      -0.929979       -25.3060
  15   1.0000      -0.861066       -23.4308
  16   1.0000      -0.823666       -22.4131
  17   1.0000      -0.811017       -22.0689
  18   1.0000      -0.755695       -20.5635
  19   1.0000      -0.712173       -19.3792
  20   1.0000      -0.687791       -18.7157
  21   1.0000      -0.676643       -18.4124
  22   1.0000      -0.604931       -16.4610
  23   1.0000      -0.582917       -15.8620
  24   1.0000      -0.572829       -15.5875
  25   1.0000      -0.570547       -15.5254
  26   1.0000      -0.540238       -14.7006
  27   1.0000      -0.496935       -13.5223
  28   1.0000      -0.489470       -13.3192
  29   1.0000      -0.479735       -13.0543
  30   1.0000      -0.449350       -12.2274
  31   1.0000      -0.442733       -12.0474
  32   1.0000      -0.441548       -12.0151
  33   1.0000      -0.439376       -11.9560
  34   1.0000      -0.437308       -11.8997
  35   1.0000      -0.429299       -11.6818
  36   1.0000      -0.403330       -10.9752
  37   1.0000      -0.393074       -10.6961
  38   1.0000      -0.378508       -10.2997
  39   1.0000      -0.373576       -10.1655
  40   1.0000      -0.311977        -8.4893
  41   1.0000      -0.275220        -7.4891
  42   0.0000      -0.172551        -4.6953
  43   0.0000      -0.053244        -1.4488
  44   0.0000      -0.023354        -0.6355
  45   0.0000      -0.001635        -0.0445
  46   0.0000       0.007647         0.2081

MULLIKEN ATOMIC CHARGES AND SPIN POPULATIONS
--------------------------------------------
   0 C :   -0.902501    0.138973
   1 C :   -0.620575   -0.047320
   2 C :    0.787681    0.208486
   3 C :    0.861673    0.090578
   4 C :   -0.539045   -0.097476
   5 C :    1.098285    0.200048
   6 C :   -0.321056   -0.011730
   7 C :   -0.286327    0.309544
   8 C :   -0.795848   -0.031163
   9 H :    0.282415   -0.005322
  10 H :    0.250465    0.020931
  11 H :    0.251083    0.021127
  12 H :    0.238035   -0.027377
  13 H :    0.194116    0.002620
  14 H :    0.159064    0.011412
  15 O :   -0.591261    0.069297
  16 C :   -0.121200   -0.025352
  17 H :    0.313573    0.017466
  18 H :    0.312392    0.017450
  19 O :   -0.580378    0.142403
  20 H :    0.656092   -0.000110
  21 H :    0.353315   -0.004483
Sum of atomic charges         :    1.0000000

LOEWDIN ATOMIC CHARGES AND SPIN POPULATIONS
-------------------------------------------
   0 C :    0.263731    0.107040
   1 C :    0.291464    0.040949
   2 C :   -0.348428    0.141491
   3 C :   -0.347978    0.070500
   4 C :    0.279849   -0.004504
   5 C :   -0.097016    0.101290
   6 C :    0.254526    0.052293
   7 C :    0.267685    0.156112
   8 C :    0.589018    0.050644
   9 H :   -0.157495    0.001080
  10 H :   -0.144323    0.010909
  11 H :   -0.144305    0.010917
  12 H :   -0.153578    0.028674
  13 H :   -0.162436   -0.003299
  14 H :   -0.155021   -0.007678
  15 O :    0.661974    0.062731
  16 C :   -0.059784    0.020213
  17 H :   -0.117700    0.007193
  18 H :   -0.117703    0.007193
  19 O :    0.676596    0.131192
  20 H :   -0.137781   -0.002915
  21 H :   -0.141294    0.017976

  Mayer bond orders larger than 0.100000
B(  0-C ,  1-C ) :   1.5189 B(  0-C ,  2-C ) :  -0.2532 B(  0-C ,  3-C ) :  -0.1224
B(  0-C ,  4-C ) :  -0.1558 B(  0-C ,  5-C ) :   0.6807 B(  0-C ,  6-C ) :  -0.1178
B(  0-C ,  7-C ) :   0.2453 B(  0-C , 21-H ) :   0.8463 B(  1-C ,  2-C ) :   0.7593
B(  1-C , 20-H ) :   0.2344 B(  2-C ,  3-C ) :   1.1400 B(  2-C ,  4-C ) :  -0.1320
B(  2-C ,  6-C ) :   0.1594 B(  2-C , 19-O ) :   0.5034 B(  2-C , 20-H ) :   0.1043
B(  3-C ,  4-C ) :   0.6233 B(  3-C ,  5-C ) :   0.2635 B(  3-C , 14-H ) :  -0.1048
B(  3-C , 15-O ) :   0.2605 B(  3-C , 19-O ) :   0.1430 B(  4-C ,  5-C ) :   0.6364
B(  4-C ,  7-C ) :  -0.1111 B(  4-C , 12-H ) :  -0.1464 B(  4-C , 14-H ) :   1.1778
B(  4-C , 15-O ) :   0.2519 B(  5-C ,  6-C ) :   0.2707 B(  5-C ,  7-C ) :  -0.1512
B(  5-C , 12-H ) :  -0.1324 B(  6-C ,  7-C ) :   0.9677 B(  6-C , 12-H ) :   0.1290
B(  6-C , 13-H ) :   1.1057 B(  7-C ,  8-C ) :   0.8174 B(  7-C , 12-H ) :   1.1647
B(  8-C ,  9-H ) :   0.9128 B(  8-C , 10-H ) :   0.9478 B(  8-C , 11-H ) :   0.9473
B( 14-H , 15-O ) :   0.1053 B( 15-O , 16-C ) :   0.9095 B( 16-C , 17-H ) :   0.8618
B( 16-C , 18-H ) :   0.8634 B( 16-C , 19-O ) :   0.8862

Dispersion correction           -0.019881133
FINAL SINGLE POINT ENERGY      -536.907769468030

DIPOLE MOMENT
-------------

Method             : SCF
Type of density    : Electron Density
Multiplicity       :   2
Irrep              :   0
Energy             :  -536.8878883354618665 Eh
Relativity type    :
Basis              : AO
                                X                 Y                 Z
Electronic contribution:    -13.008100977      -0.695398156      -0.000059027
Nuclear contribution   :     13.204705509       0.674639604      -0.000147023
                        -----------------------------------------
Total Dipole Moment    :      0.196604532      -0.020758552      -0.000206051
                        -----------------------------------------
Magnitude (a.u.)       :      0.197697501
Magnitude (Debye)      :      0.502507114

Rotational constants in cm-1:             0.088323             0.016345             0.013866
Rotational constants in MHz :          2647.863415           489.996572           415.683402

                             ****ORCA TERMINATED NORMALLY****
TOTAL RUN TIME: 0 days 0 hours 11 minutes 42 seconds 772 msec
