                         Program Version 6.0.0  -   RELEASE  -
|  1> !r2SCANh aug-cc-pVTZ d3 TightSCF SlowConv RIJCOSX defgrid2
|  2>
|  3> %pal
|  4> nprocs 4
|  5> end
|  6>
|  7> %scf
|  8> MaxIter 1500
|  9> end
| 10>
| 11> %maxcore 3000
| 12>
| 13> !CPCM
| 14> %cpcm smd true
| 15> SMDsolvent "MeCN"
| 16> surfacetype gepol_ses
| 17> rsolv 2.19
| 18> end
| 19>
| 20> * xyz 1 1
| 21> S          -0.00010944424839      1.35688622383581     -0.00045588940143
| 22> C          -1.36031372365063      0.28664543166242     -0.00546340006884
| 23> C          -2.62476671337193      0.84705677005335     -0.00971453464717
| 24> C          -3.78353785154568      0.02886102280580     -0.01423429397565
| 25> C          -3.60107018284620     -1.39624179093014     -0.01297231605589
| 26> C          -2.35199681392559     -1.94146658195771     -0.00876136479511
| 27> H          -2.20685076914384     -3.02424367637830     -0.00793305758699
| 28> C          -1.17128315978886     -1.13818915246922     -0.00497020504615
| 29> N          -0.00001727096531     -1.76076243632930     -0.00102819010967
| 30> C           1.17121135470124     -1.13812134734186      0.00317013049378
| 31> C           2.35197256200709     -1.94133049036071      0.00663254829317
| 32> C           3.60101296929016     -1.39603417388084      0.01111542619478
| 33> C           3.78339829568492      0.02907907789014      0.01307239629264
| 34> C           2.62457944996628      0.84720769458296      0.00871634184597
| 35> C           1.36015864778127      0.28672353397519      0.00420556171077
| 36> H           2.71641587399496      1.93353835850929      0.00870793171486
| 37> N           5.01788004531514      0.56609746843354      0.01833544940540
| 38> C           5.18814133491822      2.00584377316990      0.01634403450098
| 39> H           4.74542942133653      2.46193420678108     -0.88734870267485
| 40> H           4.72786575445769      2.46596005134639      0.90894953027437
| 41> H           6.25942535209398      2.24475285672826      0.02662709311567
| 42> C           6.19613286716415     -0.28271908536379      0.01876057872020
| 43> H           7.09315770451857      0.34984666853403      0.03069035539786
| 44> H           6.22593666634906     -0.93099154946415      0.91190332484387
| 45> H           6.23822191663831     -0.91632293624570     -0.88458991452958
| 46> H           4.46615171425756     -2.05841324252657      0.01286181646995
| 47> H           2.20688865714732     -3.02411577980646      0.00525686441104
| 48> H          -4.46616949026249     -2.05867393830664     -0.01518022916305
| 49> N          -5.01805188093167      0.56580837981430     -0.01910492853996
| 50> C          -6.19625511800718     -0.28307615883811     -0.01957513903852
| 51> H          -6.23708281763836     -0.91821943273873      0.88272679402223
| 52> H          -6.22732906825129     -0.92976319747341     -0.91384668889601
| 53> H          -7.09331253060909      0.34948868396873     -0.02891629923048
| 54> C          -5.18838315405153      2.00554867169595     -0.01756056694950
| 55> H          -4.74545392382641      2.46196127570139      0.88586029063703
| 56> H          -4.72835954265605      2.46538730377880     -0.91044348638837
| 57> H          -6.25968060226678      2.24440376590571     -0.02761767922995
| 58> H          -2.71666652963520      1.93338075123861     -0.00930728201738
| 59> *
| 60>
| 61>                          ****END OF INPUT****

CARTESIAN COORDINATES (ANGSTROEM)
---------------------------------
  S     -0.000109    1.356886   -0.000456
  C     -1.360314    0.286645   -0.005463
  C     -2.624767    0.847057   -0.009715
  C     -3.783538    0.028861   -0.014234
  C     -3.601070   -1.396242   -0.012972
  C     -2.351997   -1.941467   -0.008761
  H     -2.206851   -3.024244   -0.007933
  C     -1.171283   -1.138189   -0.004970
  N     -0.000017   -1.760762   -0.001028
  C      1.171211   -1.138121    0.003170
  C      2.351973   -1.941330    0.006633
  C      3.601013   -1.396034    0.011115
  C      3.783398    0.029079    0.013072
  C      2.624579    0.847208    0.008716
  C      1.360159    0.286724    0.004206
  H      2.716416    1.933538    0.008708
  N      5.017880    0.566097    0.018335
  C      5.188141    2.005844    0.016344
  H      4.745429    2.461934   -0.887349
  H      4.727866    2.465960    0.908950
  H      6.259425    2.244753    0.026627
  C      6.196133   -0.282719    0.018761
  H      7.093158    0.349847    0.030690
  H      6.225937   -0.930992    0.911903
  H      6.238222   -0.916323   -0.884590
  H      4.466152   -2.058413    0.012862
  H      2.206889   -3.024116    0.005257
  H     -4.466169   -2.058674   -0.015180
  N     -5.018052    0.565808   -0.019105
  C     -6.196255   -0.283076   -0.019575
  H     -6.237083   -0.918219    0.882727
  H     -6.227329   -0.929763   -0.913847
  H     -7.093313    0.349489   -0.028916
  C     -5.188383    2.005549   -0.017561
  H     -4.745454    2.461961    0.885860
  H     -4.728360    2.465387   -0.910443
  H     -6.259681    2.244404   -0.027618
  H     -2.716667    1.933381   -0.009307

 Total Charge           Charge          ....    1
 Multiplicity           Mult            ....    1
 Number of Electrons    NEL             ....  150
 Basis Dimension        Dim             .... 1338

ORBITAL ENERGIES
----------------

  NO   OCC          E(Eh)            E(eV)
   0   2.0000     -88.961198     -2420.7573
   1   2.0000     -14.368352      -390.9827
   2   2.0000     -14.368351      -390.9827
   3   2.0000     -14.339193      -390.1893
   4   2.0000     -10.237584      -278.5788
   5   2.0000     -10.237558      -278.5781
   6   2.0000     -10.234445      -278.4934
   7   2.0000     -10.234407      -278.4924
   8   2.0000     -10.224461      -278.2217
   9   2.0000     -10.224456      -278.2216
  10   2.0000     -10.190262      -277.2911
  11   2.0000     -10.190254      -277.2909
  12   2.0000     -10.190218      -277.2899
  13   2.0000     -10.190187      -277.2891
  14   2.0000     -10.185425      -277.1595
  15   2.0000     -10.185408      -277.1590
  16   2.0000     -10.182891      -277.0905
  17   2.0000     -10.182811      -277.0884
  18   2.0000     -10.181517      -277.0532
  19   2.0000     -10.181505      -277.0528
  20   2.0000      -8.026462      -218.4111
  21   2.0000      -5.947377      -161.8364
  22   2.0000      -5.943684      -161.7359
  23   2.0000      -5.941296      -161.6709
  24   2.0000      -0.989967       -26.9384
  25   2.0000      -0.988332       -26.8939
  26   2.0000      -0.980789       -26.6886
  27   2.0000      -0.880685       -23.9647
  28   2.0000      -0.876747       -23.8575
  29   2.0000      -0.831063       -22.6144
  30   2.0000      -0.787361       -21.4252
  31   2.0000      -0.778420       -21.1819
  32   2.0000      -0.757095       -20.6016
  33   2.0000      -0.733715       -19.9654
  34   2.0000      -0.732146       -19.9227
  35   2.0000      -0.706822       -19.2336
  36   2.0000      -0.693795       -18.8791
  37   2.0000      -0.650701       -17.7065
  38   2.0000      -0.626284       -17.0421
  39   2.0000      -0.623563       -16.9680
  40   2.0000      -0.602396       -16.3920
  41   2.0000      -0.562101       -15.2955
  42   2.0000      -0.557863       -15.1802
  43   2.0000      -0.524133       -14.2624
  44   2.0000      -0.518596       -14.1117
  45   2.0000      -0.515988       -14.0407
  46   2.0000      -0.491227       -13.3670
  47   2.0000      -0.474736       -12.9182
  48   2.0000      -0.473667       -12.8891
  49   2.0000      -0.463470       -12.6117
  50   2.0000      -0.449219       -12.2239
  51   2.0000      -0.447718       -12.1830
  52   2.0000      -0.444684       -12.1005
  53   2.0000      -0.440616       -11.9898
  54   2.0000      -0.429085       -11.6760
  55   2.0000      -0.426340       -11.6013
  56   2.0000      -0.401458       -10.9242
  57   2.0000      -0.401309       -10.9202
  58   2.0000      -0.400457       -10.8970
  59   2.0000      -0.400445       -10.8967
  60   2.0000      -0.391406       -10.6507
  61   2.0000      -0.390655       -10.6303
  62   2.0000      -0.389976       -10.6118
  63   2.0000      -0.373091       -10.1523
  64   2.0000      -0.367253        -9.9935
  65   2.0000      -0.361895        -9.8477
  66   2.0000      -0.354740        -9.6530
  67   2.0000      -0.346771        -9.4361
  68   2.0000      -0.344508        -9.3746
  69   2.0000      -0.310042        -8.4367
  70   2.0000      -0.288605        -7.8533
  71   2.0000      -0.277030        -7.5384
  72   2.0000      -0.266338        -7.2474
  73   2.0000      -0.229914        -6.2563
  74   2.0000      -0.209180        -5.6921
  75   0.0000      -0.135583        -3.6894
  76   0.0000      -0.057329        -1.5600
  77   0.0000      -0.045021        -1.2251
  78   0.0000      -0.033003        -0.8981
  79   0.0000      -0.005818        -0.1583

MULLIKEN ATOMIC CHARGES
-----------------------
   0 S :    0.054627
   1 C :    1.022094
   2 C :   -0.988834
   3 C :    1.481950
   4 C :    0.039244
   5 C :   -0.943076
   6 H :    0.272065
   7 C :    0.593746
   8 N :   -0.996400
   9 C :    0.591532
  10 C :   -0.932000
  11 C :    0.053839
  12 C :    1.423430
  13 C :   -0.996706
  14 C :    1.048867
  15 H :   -0.124377
  16 N :   -0.295821
  17 C :   -0.933981
  18 H :    0.263779
  19 H :    0.263204
  20 H :    0.303355
  21 C :   -0.910893
  22 H :    0.316806
  23 H :    0.236146
  24 H :    0.239483
  25 H :    0.154941
  26 H :    0.275005
  27 H :    0.130095
  28 N :   -0.300367
  29 C :   -0.899862
  30 H :    0.238590
  31 H :    0.236331
  32 H :    0.316751
  33 C :   -0.936035
  34 H :    0.264334
  35 H :    0.263017
  36 H :    0.303396
  37 H :   -0.128273
Sum of atomic charges:    1.0000000

LOEWDIN ATOMIC CHARGES
----------------------
   0 S :    1.418260
   1 C :   -0.457178
   2 C :    0.165255
   3 C :   -0.193433
   4 C :    0.258403
   5 C :    0.230122
   6 H :   -0.156200
   7 C :   -0.346445
   8 N :    0.397790
   9 C :   -0.346568
  10 C :    0.230099
  11 C :    0.258415
  12 C :   -0.193454
  13 C :    0.165017
  14 C :   -0.457486
  15 H :   -0.200856
  16 N :    0.264038
  17 C :    0.523636
  18 H :   -0.131595
  19 H :   -0.132531
  20 H :   -0.154719
  21 C :    0.524980
  22 H :   -0.155735
  23 H :   -0.133572
  24 H :   -0.132327
  25 H :   -0.179636
  26 H :   -0.156181
  27 H :   -0.179648
  28 N :    0.264056
  29 C :    0.524973
  30 H :   -0.132443
  31 H :   -0.133426
  32 H :   -0.155756
  33 C :    0.523661
  34 H :   -0.131626
  35 H :   -0.132514
  36 H :   -0.154694
  37 H :   -0.200687

  Mayer bond orders larger than 0.100000
B(  0-S ,  1-C ) :   0.1587 B(  0-S ,  2-C ) :   0.1464 B(  0-S ,  7-C ) :   0.3622
B(  0-S ,  8-N ) :  -0.1971 B(  0-S ,  9-C ) :   0.3601 B(  0-S , 13-C ) :   0.1489
B(  0-S , 14-C ) :   0.1514 B(  1-C ,  4-C ) :  -0.3878 B(  1-C ,  7-C ) :   0.5467
B(  1-C , 13-C ) :   0.2163 B(  1-C , 14-C ) :  -0.4568 B(  1-C , 28-N ) :   0.3330
B(  1-C , 33-C ) :   0.1758 B(  2-C ,  5-C ) :  -0.2593 B(  2-C ,  7-C ) :   0.4563
B(  2-C ,  9-C ) :  -0.2153 B(  2-C , 14-C ) :   0.2328 B(  2-C , 27-H ) :   0.1208
B(  2-C , 28-N ) :  -0.5526 B(  2-C , 29-C ) :   0.1869 B(  2-C , 33-C ) :  -0.2959
B(  2-C , 37-H ) :   1.4291 B(  3-C ,  4-C ) :   0.3722 B(  3-C ,  5-C ) :  -0.2645
B(  3-C ,  6-H ) :   0.1138 B(  3-C ,  9-C ) :  -0.1094 B(  3-C , 27-H ) :  -0.2166
B(  3-C , 28-N ) :  -0.1450 B(  3-C , 29-C ) :  -0.2129 B(  3-C , 33-C ) :  -0.2546
B(  3-C , 37-H ) :  -0.1936 B(  4-C ,  5-C ) :   0.9744 B(  4-C ,  7-C ) :   0.5345
B(  4-C ,  8-N ) :   0.1404 B(  4-C , 27-H ) :   1.0320 B(  4-C , 28-N ) :  -0.6128
B(  4-C , 29-C ) :  -0.2183 B(  5-C ,  6-H ) :   0.7998 B(  5-C ,  7-C ) :  -0.6207
B(  5-C ,  8-N ) :   0.3929 B(  5-C ,  9-C ) :   0.4004 B(  5-C , 28-N ) :   0.1081
B(  6-H ,  8-N ) :   0.2494 B(  6-H ,  9-C ) :  -0.1900 B(  7-C ,  9-C ) :   0.7046
B(  7-C , 10-C ) :   0.4659 B(  7-C , 12-C ) :  -0.1804 B(  7-C , 13-C ) :  -0.1905
B(  7-C , 26-H ) :  -0.1434 B(  7-C , 28-N ) :  -0.2034 B(  7-C , 37-H ) :  -0.1026
B(  8-N , 10-C ) :   0.4045 B(  8-N , 11-C ) :   0.1426 B(  8-N , 14-C ) :  -0.1088
B(  8-N , 26-H ) :   0.2639 B(  9-C , 10-C ) :  -0.6097 B(  9-C , 11-C ) :   0.5327
B(  9-C , 13-C ) :   0.4477 B(  9-C , 14-C ) :   0.5409 B(  9-C , 15-H ) :  -0.1065
B(  9-C , 16-N ) :  -0.2032 B( 10-C , 11-C ) :   0.9601 B( 10-C , 12-C ) :  -0.2422
B( 10-C , 13-C ) :  -0.2853 B( 10-C , 16-N ) :   0.1026 B( 10-C , 26-H ) :   0.7989
B( 11-C , 12-C ) :   0.4335 B( 11-C , 14-C ) :  -0.4015 B( 11-C , 16-N ) :  -0.6309
B( 11-C , 21-C ) :  -0.2340 B( 11-C , 25-H ) :   1.0218 B( 12-C , 15-H ) :  -0.1914
B( 12-C , 16-N ) :  -0.1401 B( 12-C , 17-C ) :  -0.2140 B( 12-C , 21-C ) :  -0.2062
B( 12-C , 25-H ) :  -0.1979 B( 12-C , 26-H ) :   0.1126 B( 13-C , 15-H ) :   1.4304
B( 13-C , 16-N ) :  -0.5449 B( 13-C , 17-C ) :  -0.3237 B( 13-C , 21-C ) :   0.2148
B( 13-C , 25-H ) :   0.1052 B( 14-C , 16-N ) :   0.3257 B( 14-C , 17-C ) :   0.1672
B( 15-H , 17-C ) :  -0.1633 B( 16-N , 17-C ) :   1.3097 B( 16-N , 21-C ) :   1.3457
B( 17-C , 18-H ) :   0.9513 B( 17-C , 19-H ) :   0.9523 B( 17-C , 20-H ) :   0.8784
B( 21-C , 22-H ) :   0.8197 B( 21-C , 23-H ) :   0.9986 B( 21-C , 24-H ) :   0.9961
B( 21-C , 25-H ) :  -0.2333 B( 27-H , 29-C ) :  -0.2258 B( 28-N , 29-C ) :   1.3402
B( 28-N , 33-C ) :   1.3151 B( 29-C , 30-H ) :   0.9957 B( 29-C , 31-H ) :   0.9965
B( 29-C , 32-H ) :   0.8194 B( 33-C , 34-H ) :   0.9510 B( 33-C , 35-H ) :   0.9525
B( 33-C , 36-H ) :   0.8763 B( 33-C , 37-H ) :  -0.1570

Dispersion correction           -0.016898772
FINAL SINGLE POINT ENERGY     -1182.644337563409

DIPOLE MOMENT
-------------

Method             : SCF
Type of density    : Electron Density
Multiplicity       :   1
Irrep              :   0
Energy             : -1182.6274387911666963 Eh
Relativity type    :
Basis              : AO
                                X                 Y                 Z
Electronic contribution:     -0.003398565      -3.274528059       0.000109294
Nuclear contribution   :     -0.000160838       4.600849614       0.000182721
                        -----------------------------------------
Total Dipole Moment    :     -0.003559404       1.326321556       0.000292015
                        -----------------------------------------
Magnitude (a.u.)       :      1.326326364
Magnitude (Debye)      :      3.371253699

Rotational constants in cm-1:             0.035338             0.004431             0.003949
Rotational constants in MHz :          1059.419573           132.841416           118.400139

                             ****ORCA TERMINATED NORMALLY****
TOTAL RUN TIME: 0 days 0 hours 25 minutes 58 seconds 790 msec
