                         Program Version 6.0.0  -   RELEASE  -
|  1> !B3LYP freq aug-cc-pVTZ d3 TightSCF SlowConv RIJCOSX defgrid2
|  2>
|  3> %pal
|  4> nprocs 12
|  5>
|  6> end
|  7>
|  8> %scf
|  9> MaxIter 1500
| 10> end
| 11>
| 12> %maxcore 5000
| 13>
| 14> !CPCM
| 15> %cpcm smd true
| 16> SMDsolvent "MeCN"
| 17> surfacetype gepol_ses
| 18> rsolv 2.19
| 19> end
| 20>
| 21> * xyz 0 1
| 22>   C           1.35821049213431     -0.62327790711215      0.83554893418770
| 23>   C           2.60315178052265     -1.23804770896613      0.88771912789819
| 24>   C           3.67667188589932     -0.72639502443761      0.16489585397957
| 25>   C           3.49870505307558      0.41195476534920     -0.61444135888492
| 26>   C           2.25625042640762      1.03191097375520     -0.68033624321242
| 27>   C           1.19274942542265      0.50875628212645      0.04407094302126
| 28>   O          -0.00001144786084      1.20167851872690      0.00045448294005
| 29>   C          -1.19270996016932      0.50873340398764     -0.04359375759666
| 30>   C          -2.25654139632050      1.03200234917770      0.68024362731457
| 31>   C          -3.49898247753180      0.41209882047716      0.61384242763151
| 32>   C          -3.67666267777456     -0.72636093489590     -0.16539747826554
| 33>   C          -2.60285487125428     -1.23812940984238     -0.88769342104579
| 34>   C          -1.35791705188946     -0.62341297496121     -0.83496048345489
| 35>   H          -0.52671130702580     -1.01764912206328     -1.40157491228212
| 36>   H          -2.73280014068850     -2.11864504503846     -1.50236850003124
| 37>   H          -4.64273039341844     -1.20963023124312     -0.21184255883912
| 38>   H          -4.32680379174802      0.81916508629302      1.17846868076635
| 39>   H          -2.10348212548609      1.91483606072708      1.28526558778028
| 40>   H           2.10294534027966      1.91470692328312     -1.28534922338916
| 41>   H           4.32629997450633      0.81889818165728     -1.17950531495171
| 42>   H           4.64274946676829     -1.20968205774686      0.21101303831457
| 43>   H           2.73335328092413     -2.11853494829120      1.50238998823907
| 44>   H           0.52716881522715     -1.01722020096243      1.40261025988044
| 45> *
| 46>
| 47>                          ****END OF INPUT****

CARTESIAN COORDINATES (ANGSTROEM)
---------------------------------
  C      1.358210   -0.623278    0.835549
  C      2.603152   -1.238048    0.887719
  C      3.676672   -0.726395    0.164896
  C      3.498705    0.411955   -0.614441
  C      2.256250    1.031911   -0.680336
  C      1.192749    0.508756    0.044071
  O     -0.000011    1.201679    0.000454
  C     -1.192710    0.508733   -0.043594
  C     -2.256541    1.032002    0.680244
  C     -3.498982    0.412099    0.613842
  C     -3.676663   -0.726361   -0.165397
  C     -2.602855   -1.238129   -0.887693
  C     -1.357917   -0.623413   -0.834960
  H     -0.526711   -1.017649   -1.401575
  H     -2.732800   -2.118645   -1.502369
  H     -4.642730   -1.209630   -0.211843
  H     -4.326804    0.819165    1.178469
  H     -2.103482    1.914836    1.285266
  H      2.102945    1.914707   -1.285349
  H      4.326300    0.818898   -1.179505
  H      4.642749   -1.209682    0.211013
  H      2.733353   -2.118535    1.502390
  H      0.527169   -1.017220    1.402610

 Total Charge           Charge          ....    0
 Multiplicity           Mult            ....    1
 Number of Electrons    NEL             ....   90
 Basis Dimension        Dim             ....  828

ORBITAL ENERGIES
----------------

  NO   OCC          E(Eh)            E(eV)
   0   2.0000     -19.170299      -521.6504
   1   2.0000     -10.238725      -278.6099
   2   2.0000     -10.238715      -278.6096
   3   2.0000     -10.177452      -276.9426
   4   2.0000     -10.177446      -276.9424
   5   2.0000     -10.177198      -276.9356
   6   2.0000     -10.177193      -276.9355
   7   2.0000     -10.175517      -276.8899
   8   2.0000     -10.175482      -276.8890
   9   2.0000     -10.174244      -276.8553
  10   2.0000     -10.174230      -276.8549
  11   2.0000     -10.170979      -276.7664
  12   2.0000     -10.170972      -276.7662
  13   2.0000      -1.082899       -29.4672
  14   2.0000      -0.866097       -23.5677
  15   2.0000      -0.851968       -23.1832
  16   2.0000      -0.766994       -20.8710
  17   2.0000      -0.753401       -20.5011
  18   2.0000      -0.749876       -20.4052
  19   2.0000      -0.726549       -19.7704
  20   2.0000      -0.637093       -17.3362
  21   2.0000      -0.618863       -16.8401
  22   2.0000      -0.608499       -16.5581
  23   2.0000      -0.581480       -15.8229
  24   2.0000      -0.548055       -14.9133
  25   2.0000      -0.510013       -13.8782
  26   2.0000      -0.486684       -13.2433
  27   2.0000      -0.479035       -13.0352
  28   2.0000      -0.472079       -12.8459
  29   2.0000      -0.444535       -12.0964
  30   2.0000      -0.440410       -11.9842
  31   2.0000      -0.425376       -11.5751
  32   2.0000      -0.424649       -11.5553
  33   2.0000      -0.408956       -11.1283
  34   2.0000      -0.398870       -10.8538
  35   2.0000      -0.371921       -10.1205
  36   2.0000      -0.364679        -9.9234
  37   2.0000      -0.360438        -9.8080
  38   2.0000      -0.356559        -9.7025
  39   2.0000      -0.339959        -9.2508
  40   2.0000      -0.330724        -8.9995
  41   2.0000      -0.265259        -7.2181
  42   2.0000      -0.258636        -7.0378
  43   2.0000      -0.256479        -6.9791
  44   2.0000      -0.226410        -6.1609
  45   0.0000      -0.024976        -0.6796
  46   0.0000      -0.017476        -0.4755
  47   0.0000      -0.009023        -0.2455
  48   0.0000      -0.003368        -0.0916
  49   0.0000      -0.000727        -0.0198

MULLIKEN ATOMIC CHARGES
-----------------------
   0 C :   -0.516102
   1 C :   -0.598551
   2 C :   -0.555343
   3 C :   -0.390075
   4 C :   -1.230971
   5 C :    1.513009
   6 O :   -0.864789
   7 C :    1.517954
   8 C :   -1.238898
   9 C :   -0.391683
  10 C :   -0.552584
  11 C :   -0.596815
  12 C :   -0.518870
  13 H :    0.497286
  14 H :    0.392299
  15 H :    0.449320
  16 H :    0.423450
  17 H :    0.451671
  18 H :    0.449665
  19 H :    0.428191
  20 H :    0.439809
  21 H :    0.395905
  22 H :    0.496122
Sum of atomic charges:   -0.0000000

LOEWDIN ATOMIC CHARGES
----------------------
   0 C :    0.199731
   1 C :    0.191025
   2 C :    0.186122
   3 C :    0.184704
   4 C :    0.203026
   5 C :   -0.397527
   6 O :    0.621004
   7 C :   -0.397448
   8 C :    0.203050
   9 C :    0.184703
  10 C :    0.186123
  11 C :    0.191032
  12 C :    0.199650
  13 H :   -0.170868
  14 H :   -0.174838
  15 H :   -0.181612
  16 H :   -0.176173
  17 H :   -0.174179
  18 H :   -0.174182
  19 H :   -0.176163
  20 H :   -0.181609
  21 H :   -0.174846
  22 H :   -0.170725

  Mayer bond orders larger than 0.100000
B(  0-C ,  1-C ) :   1.1624 B(  0-C ,  4-C ) :   0.3271 B(  0-C ,  5-C ) :   0.8607
B(  0-C ,  7-C ) :  -0.1270 B(  0-C , 12-C ) :   0.2832 B(  0-C , 22-H ) :   0.4985
B(  1-C ,  2-C ) :   1.2535 B(  1-C ,  4-C ) :  -0.1302 B(  1-C ,  5-C ) :  -0.3006
B(  1-C , 21-H ) :   0.7883 B(  2-C ,  3-C ) :   1.2899 B(  2-C ,  4-C ) :   0.3855
B(  2-C , 20-H ) :   0.6721 B(  3-C ,  4-C ) :   1.2697 B(  3-C ,  5-C ) :  -0.3525
B(  3-C , 19-H ) :   0.7368 B(  4-C ,  5-C ) :   0.1773 B(  4-C ,  6-O ) :   0.2014
B(  4-C , 18-H ) :   0.4425 B(  5-C ,  6-O ) :   0.4554 B(  5-C , 12-C ) :  -0.1288
B(  6-O ,  7-C ) :   0.4610 B(  6-O ,  8-C ) :   0.1998 B(  7-C ,  8-C ) :   0.1746
B(  7-C ,  9-C ) :  -0.3558 B(  7-C , 10-C ) :  -0.1039 B(  7-C , 11-C ) :  -0.3032
B(  7-C , 12-C ) :   0.8610 B(  8-C ,  9-C ) :   1.2763 B(  8-C , 10-C ) :   0.3955
B(  8-C , 11-C ) :  -0.1285 B(  8-C , 12-C ) :   0.3288 B(  8-C , 17-H ) :   0.4376
B(  9-C , 10-C ) :   1.2927 B(  9-C , 16-H ) :   0.7428 B( 10-C , 11-C ) :   1.2496
B( 10-C , 15-H ) :   0.6558 B( 11-C , 12-C ) :   1.1678 B( 11-C , 14-H ) :   0.7950
B( 12-C , 13-H ) :   0.4972

Dispersion correction           -0.046009727
FINAL SINGLE POINT ENERGY      -538.436844222965

DIPOLE MOMENT
-------------

Method             : SCF
Type of density    : Electron Density
Multiplicity       :   1
Irrep              :   0
Energy             :  -538.3908344961582770 Eh
Relativity type    :
Basis              : AO
                                X                 Y                 Z
Electronic contribution:     -0.000160839       2.488053980       0.002204258
Nuclear contribution   :     -0.000046492      -3.046434218      -0.001115231
                        -----------------------------------------
Total Dipole Moment    :     -0.000207331      -0.558380238       0.001089027
                        -----------------------------------------
Magnitude (a.u.)       :      0.558381338
Magnitude (Debye)      :      1.419292569

VIBRATIONAL FREQUENCIES
-----------------------

Scaling factor for frequencies =  1.000000000  (already applied!)

     0:       0.00 cm**-1
     1:       0.00 cm**-1
     2:       0.00 cm**-1
     3:       0.00 cm**-1
     4:       0.00 cm**-1
     5:       0.00 cm**-1
     6:     -43.98 cm**-1 ***imaginary mode***
     7:     -26.99 cm**-1 ***imaginary mode***
     8:      78.26 cm**-1
     9:     210.27 cm**-1
    10:     234.77 cm**-1
    11:     313.70 cm**-1
    12:     386.88 cm**-1
    13:     418.15 cm**-1
    14:     421.69 cm**-1
    15:     483.01 cm**-1
    16:     507.12 cm**-1
    17:     576.43 cm**-1
    18:     614.37 cm**-1
    19:     626.44 cm**-1
    20:     633.36 cm**-1
    21:     703.42 cm**-1
    22:     705.83 cm**-1
    23:     761.72 cm**-1
    24:     767.69 cm**-1
    25:     810.08 cm**-1
    26:     837.54 cm**-1
    27:     837.70 cm**-1
    28:     882.67 cm**-1
    29:     919.40 cm**-1
    30:     925.95 cm**-1
    31:     989.00 cm**-1
    32:     989.38 cm**-1
    33:    1010.17 cm**-1
    34:    1010.73 cm**-1
    35:    1017.99 cm**-1
    36:    1018.06 cm**-1
    37:    1038.08 cm**-1
    38:    1038.51 cm**-1
    39:    1090.21 cm**-1
    40:    1092.73 cm**-1
    41:    1162.12 cm**-1
    42:    1162.70 cm**-1
    43:    1172.91 cm**-1
    44:    1173.52 cm**-1
    45:    1213.71 cm**-1
    46:    1243.85 cm**-1
    47:    1310.61 cm**-1
    48:    1331.78 cm**-1
    49:    1345.46 cm**-1
    50:    1347.09 cm**-1
    51:    1477.22 cm**-1
    52:    1486.20 cm**-1
    53:    1509.75 cm**-1
    54:    1519.35 cm**-1
    55:    1620.35 cm**-1
    56:    1623.98 cm**-1
    57:    1630.22 cm**-1
    58:    1640.73 cm**-1
    59:    3168.90 cm**-1
    60:    3169.04 cm**-1
    61:    3176.51 cm**-1
    62:    3176.60 cm**-1
    63:    3187.09 cm**-1
    64:    3187.20 cm**-1
    65:    3193.84 cm**-1
    66:    3194.03 cm**-1
    67:    3197.84 cm**-1
    68:    3198.05 cm**-1

IR SPECTRUM
-----------

 Mode   freq       eps      Int      T**2         TX        TY        TZ
       cm**-1   L/(mol*cm) km/mol    a.u.
----------------------------------------------------------------------------
  8:     78.26   0.000086    0.43  0.000341  ( 0.000012 -0.018466 -0.000009)
  9:    210.27   0.000437    2.21  0.000648  ( 0.025092 -0.000035  0.004290)
 10:    234.77   0.000021    0.10  0.000028  (-0.000071 -0.005247 -0.000055)
 11:    313.70   0.000171    0.86  0.000170  (-0.000013  0.013038  0.000003)
 12:    386.88   0.001623    8.20  0.001309  (-0.033779 -0.000016  0.012971)
 13:    418.15   0.000210    1.06  0.000157  (-0.011752  0.000011 -0.004293)
 14:    421.69   0.000001    0.01  0.000001  ( 0.000113  0.000874  0.000058)
 15:    483.01   0.004254   21.50  0.002748  ( 0.000058  0.052422  0.000070)
 16:    507.12   0.008620   43.56  0.005305  ( 0.048574 -0.000047  0.054269)
 17:    576.43   0.000168    0.85  0.000091  ( 0.003008  0.000002 -0.009035)
 18:    614.37   0.000204    1.03  0.000104  ( 0.000014 -0.010187 -0.000003)
 19:    626.44   0.000257    1.30  0.000128  ( 0.006175  0.000036 -0.009493)
 20:    633.36   0.000517    2.61  0.000255  ( 0.000018 -0.015960  0.000020)
 21:    703.42   0.017660   89.25  0.007835  ( 0.035879  0.000801  0.080913)
 22:    705.83   0.010340   52.25  0.004571  (-0.000389  0.067603 -0.001053)
 23:    761.72   0.002411   12.18  0.000988  ( 0.000003 -0.031428  0.000119)
 24:    767.69   0.027272  137.82  0.011086  (-0.009333 -0.000076 -0.104875)
 25:    810.08   0.008202   41.45  0.003160  ( 0.000012  0.056211  0.000035)
 26:    837.54   0.000168    0.85  0.000062  (-0.005676  0.004972 -0.002345)
 27:    837.70   0.000166    0.84  0.000062  ( 0.005661  0.004941  0.002303)
 28:    882.67   0.016135   81.54  0.005705  ( 0.075522 -0.000007  0.001015)
 29:    919.40   0.002950   14.91  0.001001  ( 0.012527 -0.000276  0.029056)
 30:    925.95   0.001979   10.00  0.000667  (-0.000129 -0.025825 -0.000344)
 31:    989.00   0.000040    0.20  0.000013  (-0.001602 -0.000058  0.003153)
 32:    989.38   0.000012    0.06  0.000004  ( 0.000007  0.001971  0.000034)
 33:   1010.17   0.000105    0.53  0.000032  ( 0.004054  0.000567  0.003948)
 34:   1010.73   0.000030    0.15  0.000009  (-0.000776  0.002881 -0.000699)
 35:   1017.99   0.000088    0.44  0.000027  ( 0.000003  0.005184 -0.000098)
 36:   1018.06   0.000007    0.04  0.000002  (-0.000022 -0.001425 -0.000442)
 37:   1038.08   0.000592    2.99  0.000178  ( 0.001055 -0.013303  0.000028)
 38:   1038.51   0.005430   27.44  0.001632  ( 0.040289  0.000343  0.002881)
 39:   1090.21   0.004722   23.87  0.001352  ( 0.013127  0.000310 -0.034342)
 40:   1092.73   0.004345   21.96  0.001241  (-0.000087  0.035223  0.000378)
 41:   1162.12   0.000127    0.64  0.000034  (-0.000103 -0.000072 -0.005847)
 42:   1162.70   0.000217    1.10  0.000058  ( 0.000010  0.007631 -0.000034)
 43:   1172.91   0.001077    5.44  0.000287  (-0.000365  0.016927 -0.000085)
 44:   1173.52   0.009648   48.76  0.002566  (-0.050627 -0.000113  0.001595)
 45:   1213.71   0.002756   13.93  0.000709  (-0.000100  0.026619  0.000023)
 46:   1243.85   0.178046  899.77  0.044669  ( 0.211289  0.000025  0.005106)
 47:   1310.61   0.000185    0.93  0.000044  ( 0.006617 -0.000015  0.000449)
 48:   1331.78   0.000130    0.66  0.000031  ( 0.000010  0.005523 -0.000060)
 49:   1345.46   0.003158   15.96  0.000733  ( 0.026400  0.000030 -0.005967)
 50:   1347.09   0.000204    1.03  0.000047  ( 0.000246 -0.006863  0.000005)
 51:   1477.22   0.000487    2.46  0.000103  (-0.006632  0.000030 -0.007668)
 52:   1486.20   0.000308    1.55  0.000065  ( 0.000050 -0.008036 -0.000024)
 53:   1509.75   0.070660  357.09  0.014605  (-0.120716  0.000030 -0.005756)
 54:   1519.35   0.005309   26.83  0.001091  (-0.000158 -0.033022 -0.000064)
 55:   1620.35   0.022679  114.61  0.004368  ( 0.064548 -0.000038  0.014193)
 56:   1623.98   0.018401   92.99  0.003536  (-0.056693  0.000011  0.017939)
 57:   1630.22   0.005543   28.01  0.001061  (-0.000135 -0.032575 -0.000086)
 58:   1640.73   0.000283    1.43  0.000054  ( 0.000130  0.007338  0.000023)
 59:   3168.90   0.000431    2.18  0.000042  ( 0.006005 -0.000884  0.002375)
 60:   3169.04   0.000182    0.92  0.000018  ( 0.001395  0.003958  0.000571)
 61:   3176.51   0.002522   12.74  0.000248  (-0.008282 -0.004815  0.012488)
 62:   3176.60   0.002091   10.57  0.000205  (-0.002966  0.013282  0.004496)
 63:   3187.09   0.007637   38.60  0.000748  ( 0.026499  0.000724  0.006716)
 64:   3187.20   0.004236   21.41  0.000415  (-0.000932  0.020343 -0.000234)
 65:   3193.84   0.005140   25.97  0.000502  ( 0.017896  0.000474 -0.013480)
 66:   3194.03   0.001160    5.86  0.000113  ( 0.000921 -0.010587 -0.000626)
 67:   3197.84   0.000563    2.84  0.000055  (-0.006932  0.000513 -0.002571)
 68:   3198.05   0.000221    1.12  0.000022  (-0.000798 -0.004562 -0.000310)

--------------------------
THERMOCHEMISTRY AT 298.15K
--------------------------

Temperature         ...   298.15 K
Pressure            ...     1.00 atm
Total Mass          ...   170.21 AMU
Quasi RRHO          ...     True
Cut-Off Frequency   ...     1.00 cm^-1

Throughout the following assumptions are being made:
  (1) The electronic state is orbitally nondegenerate
  (2) There are no thermally accessible electronically excited states
  (3) Hindered rotations indicated by low frequency modes are not
      treated as such but are treated as vibrations and this may
      cause some error
  (4) All equations used are the standard statistical mechanics
      equations for an ideal gas
  (5) All vibrations are strictly harmonic

freq.      78.26  E(vib)   ...       0.49
freq.     210.27  E(vib)   ...       0.34
freq.     234.77  E(vib)   ...       0.32
freq.     313.70  E(vib)   ...       0.25
freq.     386.88  E(vib)   ...       0.20
freq.     418.15  E(vib)   ...       0.18
freq.     421.69  E(vib)   ...       0.18
freq.     483.01  E(vib)   ...       0.15
freq.     507.12  E(vib)   ...       0.14
freq.     576.43  E(vib)   ...       0.11
freq.     614.37  E(vib)   ...       0.10
freq.     626.44  E(vib)   ...       0.09
freq.     633.36  E(vib)   ...       0.09
freq.     703.42  E(vib)   ...       0.07
freq.     705.83  E(vib)   ...       0.07
freq.     761.72  E(vib)   ...       0.06
freq.     767.69  E(vib)   ...       0.06
freq.     810.08  E(vib)   ...       0.05
freq.     837.54  E(vib)   ...       0.04
freq.     837.70  E(vib)   ...       0.04
freq.     882.67  E(vib)   ...       0.04
freq.     919.40  E(vib)   ...       0.03
freq.     925.95  E(vib)   ...       0.03
freq.     989.00  E(vib)   ...       0.02
freq.     989.38  E(vib)   ...       0.02
freq.    1010.17  E(vib)   ...       0.02
freq.    1010.73  E(vib)   ...       0.02
freq.    1017.99  E(vib)   ...       0.02
freq.    1018.06  E(vib)   ...       0.02
freq.    1038.08  E(vib)   ...       0.02
freq.    1038.51  E(vib)   ...       0.02
freq.    1090.21  E(vib)   ...       0.02
freq.    1092.73  E(vib)   ...       0.02
freq.    1162.12  E(vib)   ...       0.01
freq.    1162.70  E(vib)   ...       0.01
freq.    1172.91  E(vib)   ...       0.01
freq.    1173.52  E(vib)   ...       0.01
freq.    1213.71  E(vib)   ...       0.01
freq.    1243.85  E(vib)   ...       0.01
freq.    1310.61  E(vib)   ...       0.01
freq.    1331.78  E(vib)   ...       0.01
freq.    1345.46  E(vib)   ...       0.01
freq.    1347.09  E(vib)   ...       0.01
freq.    1477.22  E(vib)   ...       0.00
freq.    1486.20  E(vib)   ...       0.00
freq.    1509.75  E(vib)   ...       0.00
freq.    1519.35  E(vib)   ...       0.00
freq.    1620.35  E(vib)   ...       0.00
freq.    1623.98  E(vib)   ...       0.00
freq.    1630.22  E(vib)   ...       0.00
freq.    1640.73  E(vib)   ...       0.00
freq.    3168.90  E(vib)   ...       0.00
freq.    3169.04  E(vib)   ...       0.00
freq.    3176.51  E(vib)   ...       0.00
freq.    3176.60  E(vib)   ...       0.00
freq.    3187.09  E(vib)   ...       0.00
freq.    3187.20  E(vib)   ...       0.00
freq.    3193.84  E(vib)   ...       0.00
freq.    3194.03  E(vib)   ...       0.00
freq.    3197.84  E(vib)   ...       0.00
freq.    3198.05  E(vib)   ...       0.00

------------
INNER ENERGY
------------

The inner energy is: U= E(el) + E(ZPE) + E(vib) + E(rot) + E(trans)
    E(el)   - is the total energy from the electronic structure calculation
              = E(kin-el) + E(nuc-el) + E(el-el) + E(nuc-nuc)
    E(ZPE)  - the the zero temperature vibrational energy from the frequency calculation
    E(vib)  - the the finite temperature correction to E(ZPE) due to population
              of excited vibrational states
    E(rot)  - is the rotational thermal energy
    E(trans)- is the translational thermal energy

Summary of contributions to the inner energy U:
Electronic energy                ...   -538.43684422 Eh
Zero point energy                ...      0.18401206 Eh     115.47 kcal/mol
Thermal vibrational correction   ...      0.00548386 Eh       3.44 kcal/mol
Thermal rotational correction    ...      0.00141627 Eh       0.89 kcal/mol
Thermal translational correction ...      0.00141627 Eh       0.89 kcal/mol
-----------------------------------------------------------------------
Total thermal energy                   -538.24451576 Eh

Summary of corrections to the electronic energy:
(perhaps to be used in another calculation)
Total thermal correction                  0.00831640 Eh       5.22 kcal/mol
Non-thermal (ZPE) correction              0.18401206 Eh     115.47 kcal/mol
-----------------------------------------------------------------------
Total correction                          0.19232847 Eh     120.69 kcal/mol

--------
ENTHALPY
--------

The enthalpy is H = U + kB*T
                kB is Boltzmann's constant
Total thermal energy              ...   -538.24451576 Eh
Thermal Enthalpy correction       ...      0.00094421 Eh       0.59 kcal/mol
-----------------------------------------------------------------------
Total Enthalpy                    ...   -538.24357155 Eh

Note: Only C1 symmetry has been detected, increase convergence thresholds
      if your molecule has a higher symmetry. Symmetry factor of 1.0 is
      used for the rotational entropy correction.

Note: Rotational entropy computed according to Herzberg
Infrared and Raman Spectra, Chapter V,1, Van Nostrand Reinhold, 1945
Point Group:  C1, Symmetry Number:   1
Rotational constants in cm-1:     0.079553     0.014540     0.013719

Vibrational entropy computed according to the QRRHO of S. Grimme
Chem.Eur.J. 2012 18 9955 using a reference frequency of 100.0 cm-1

-------
ENTROPY
-------

The entropy contributions are T*S = T*(S(el)+S(vib)+S(rot)+S(trans))
     S(el)   - electronic entropy
     S(vib)  - vibrational entropy
     S(rot)  - rotational entropy
     S(trans)- translational entropy
The entropies will be listed as multiplied by the temperature to get
units of energy

Electronic entropy                ...      0.00000000 Eh      0.00 kcal/mol
Vibrational entropy               ...      0.00843164 Eh      5.29 kcal/mol
Rotational entropy                ...      0.01472794 Eh      9.24 kcal/mol
Translational entropy             ...      0.01962451 Eh     12.31 kcal/mol
-----------------------------------------------------------------------
Final entropy term                ...      0.04278409 Eh     26.85 kcal/mol

In case the symmetry of your molecule has not been determined correctly
or in case you have a reason to use a different symmetry number we print
out the resulting rotational entropy values for sn=1,12:

                             ****ORCA TERMINATED NORMALLY****
TOTAL RUN TIME: 0 days 1 hours 0 minutes 11 seconds 791 msec
