                         Program Version 6.0.0  -   RELEASE  -
|  1> !PBE0 freq def2-SV(p) d3 TightSCF SlowConv RIJCOSX defgrid2
|  2>
|  3> %pal
|  4> nprocs 12
|  5> end
|  6>
|  7> %scf
|  8> MaxIter 1500
|  9> end
| 10>
| 11> %maxcore 5000
| 12>
| 13> !CPCM
| 14> %cpcm smd true
| 15> SMDsolvent "MeCN"
| 16> surfacetype gepol_ses
| 17> rsolv 2.19
| 18> end
| 19>
| 20> * xyz 0 1
| 21> C           0.94830834594704     -1.28124384849405     -0.00020945252784
| 22> C           2.32029535851131     -1.03135366464973     -0.00028871267651
| 23> C           2.79148866727895      0.28136322484745     -0.00006877066584
| 24> C           1.88295437495823      1.34514036942634      0.00029423549943
| 25> C           0.51451848804171      1.09905951956838      0.00032347235064
| 26> C           0.03043989310606     -0.22075314252002      0.00002551195402
| 27> C          -1.40163792639989     -0.52201927942399      0.00012397253272
| 28> N          -2.27963755307826      0.40561113504313     -0.00085929065235
| 29> O          -3.55260412242595     -0.07866643372676     -0.00029269476416
| 30> H          -4.11663410613260      0.71536957570321     -0.00045695876578
| 31> H          -1.71349371650894     -1.57813323056317      0.00147349643070
| 32> H          -0.19812455722450      1.92823327407152      0.00065946582163
| 33> H           2.24875387825095      2.37647316687378      0.00009060896045
| 34> H           3.86767858997433      0.47894331742636     -0.00030874313980
| 35> H           3.02496371531977     -1.86840289703672     -0.00044786859415
| 36> H           0.58042507038180     -2.31221938654574      0.00014912823683
| 37> *
| 38>
| 39>                          ****END OF INPUT****

CARTESIAN COORDINATES (ANGSTROEM)
---------------------------------
  C      0.948308   -1.281244   -0.000209
  C      2.320295   -1.031354   -0.000289
  C      2.791489    0.281363   -0.000069
  C      1.882954    1.345140    0.000294
  C      0.514518    1.099060    0.000323
  C      0.030440   -0.220753    0.000026
  C     -1.401638   -0.522019    0.000124
  N     -2.279638    0.405611   -0.000859
  O     -3.552604   -0.078666   -0.000293
  H     -4.116634    0.715370   -0.000457
  H     -1.713494   -1.578133    0.001473
  H     -0.198125    1.928233    0.000659
  H      2.248754    2.376473    0.000091
  H      3.867679    0.478943   -0.000309
  H      3.024964   -1.868403   -0.000448
  H      0.580425   -2.312219    0.000149

 Total Charge           Charge          ....    0
 Multiplicity           Mult            ....    1
 Number of Electrons    NEL             ....   64
 Basis Dimension        Dim             ....  140

ORBITAL ENERGIES
----------------

  NO   OCC          E(Eh)            E(eV)
   0   2.0000     -19.251650      -523.8640
   1   2.0000     -14.443344      -393.0234
   2   2.0000     -10.266543      -279.3668
   3   2.0000     -10.253638      -279.0157
   4   2.0000     -10.241479      -278.6848
   5   2.0000     -10.239775      -278.6384
   6   2.0000     -10.239541      -278.6321
   7   2.0000     -10.239079      -278.6195
   8   2.0000     -10.238913      -278.6150
   9   2.0000      -1.120861       -30.5002
  10   2.0000      -0.899987       -24.4899
  11   2.0000      -0.866775       -23.5862
  12   2.0000      -0.773057       -21.0360
  13   2.0000      -0.765116       -20.8199
  14   2.0000      -0.655864       -17.8470
  15   2.0000      -0.625778       -17.0283
  16   2.0000      -0.585974       -15.9452
  17   2.0000      -0.549434       -14.9509
  18   2.0000      -0.530637       -14.4394
  19   2.0000      -0.486367       -13.2347
  20   2.0000      -0.468934       -12.7603
  21   2.0000      -0.452364       -12.3094
  22   2.0000      -0.445842       -12.1320
  23   2.0000      -0.435823       -11.8593
  24   2.0000      -0.426471       -11.6049
  25   2.0000      -0.394934       -10.7467
  26   2.0000      -0.365219        -9.9381
  27   2.0000      -0.357064        -9.7162
  28   2.0000      -0.313100        -8.5199
  29   2.0000      -0.294777        -8.0213
  30   2.0000      -0.273971        -7.4551
  31   2.0000      -0.243269        -6.6197
  32   0.0000      -0.044870        -1.2210
  33   0.0000      -0.007950        -0.2163
  34   0.0000       0.051140         1.3916
  35   0.0000       0.079428         2.1613
  36   0.0000       0.089202         2.4273

MULLIKEN ATOMIC CHARGES
-----------------------
   0 C :   -0.156021
   1 C :   -0.114473
   2 C :   -0.114683
   3 C :   -0.111617
   4 C :   -0.148453
   5 C :    0.044548
   6 C :   -0.075793
   7 N :   -0.046731
   8 O :   -0.390106
   9 H :    0.367143
  10 H :    0.121140
  11 H :    0.114164
  12 H :    0.127919
  13 H :    0.129685
  14 H :    0.128419
  15 H :    0.124857
Sum of atomic charges:   -0.0000000

LOEWDIN ATOMIC CHARGES
----------------------
   0 C :   -0.123447
   1 C :   -0.135177
   2 C :   -0.132860
   3 C :   -0.133470
   4 C :   -0.119552
   5 C :   -0.072804
   6 C :   -0.111645
   7 N :   -0.049866
   8 O :   -0.277192
   9 H :    0.312959
  10 H :    0.127225
  11 H :    0.139265
  12 H :    0.143842
  13 H :    0.143647
  14 H :    0.144211
  15 H :    0.144862

  Mayer bond orders larger than 0.100000
B(  0-C ,  1-C ) :   1.3820 B(  0-C ,  5-C ) :   1.3574 B(  0-C , 15-H ) :   0.9626
B(  1-C ,  2-C ) :   1.3874 B(  1-C , 14-H ) :   0.9628 B(  2-C ,  3-C ) :   1.3578
B(  2-C , 13-H ) :   0.9633 B(  3-C ,  4-C ) :   1.4039 B(  3-C , 12-H ) :   0.9637
B(  4-C ,  5-C ) :   1.3464 B(  4-C , 11-H ) :   0.9581 B(  5-C ,  6-C ) :   1.0588
B(  6-C ,  7-N ) :   1.8822 B(  6-C , 10-H ) :   0.9303 B(  7-N ,  8-O ) :   0.9894
B(  8-O ,  9-H ) :   0.8270

Dispersion correction           -0.013814976
FINAL SINGLE POINT ENERGY      -400.125720852277

DIPOLE MOMENT
-------------

Method             : SCF
Type of density    : Electron Density
Multiplicity       :   1
Irrep              :   0
Energy             :  -400.1119058760003782 Eh
Relativity type    :
Basis              : AO
                                X                 Y                 Z
Electronic contribution:     -3.239935339       0.237568675      -0.001065534
Nuclear contribution   :      3.396401723      -0.253467191       0.001793243
                        -----------------------------------------
Total Dipole Moment    :      0.156466384      -0.015898516       0.000727709
                        -----------------------------------------
Magnitude (a.u.)       :      0.157273716
Magnitude (Debye)      :      0.399758017

VIBRATIONAL FREQUENCIES
-----------------------

Scaling factor for frequencies =  1.000000000  (already applied!)

     0:       0.00 cm**-1
     1:       0.00 cm**-1
     2:       0.00 cm**-1
     3:       0.00 cm**-1
     4:       0.00 cm**-1
     5:       0.00 cm**-1
     6:      85.21 cm**-1
     7:     154.13 cm**-1
     8:     159.03 cm**-1
     9:     313.55 cm**-1
    10:     383.11 cm**-1
    11:     417.08 cm**-1
    12:     443.46 cm**-1
    13:     448.13 cm**-1
    14:     533.38 cm**-1
    15:     627.62 cm**-1
    16:     658.22 cm**-1
    17:     717.26 cm**-1
    18:     787.55 cm**-1
    19:     868.35 cm**-1
    20:     891.51 cm**-1
    21:     946.90 cm**-1
    22:     985.07 cm**-1
    23:    1011.31 cm**-1
    24:    1015.51 cm**-1
    25:    1034.07 cm**-1
    26:    1055.92 cm**-1
    27:    1077.04 cm**-1
    28:    1104.77 cm**-1
    29:    1152.31 cm**-1
    30:    1174.49 cm**-1
    31:    1251.14 cm**-1
    32:    1316.36 cm**-1
    33:    1335.60 cm**-1
    34:    1401.94 cm**-1
    35:    1466.30 cm**-1
    36:    1491.70 cm**-1
    37:    1547.74 cm**-1
    38:    1661.38 cm**-1
    39:    1690.27 cm**-1
    40:    1755.95 cm**-1
    41:    3132.95 cm**-1
    42:    3196.11 cm**-1
    43:    3202.41 cm**-1
    44:    3210.90 cm**-1
    45:    3219.88 cm**-1
    46:    3225.45 cm**-1
    47:    3628.56 cm**-1

IR SPECTRUM
-----------

 Mode   freq       eps      Int      T**2         TX        TY        TZ
       cm**-1   L/(mol*cm) km/mol    a.u.
----------------------------------------------------------------------------
  6:     85.21   0.000127    0.64  0.000465  (-0.000344  0.000028 -0.021553)
  7:    154.13   0.000506    2.56  0.001024  (-0.030032  0.011004  0.000969)
  8:    159.03   0.000136    0.69  0.000267  (-0.004157  0.001510 -0.015722)
  9:    313.55   0.000071    0.36  0.000071  (-0.000179 -0.000046  0.008403)
 10:    383.11   0.000402    2.03  0.000327  (-0.015061 -0.009712  0.002449)
 11:    417.08   0.000999    5.05  0.000748  ( 0.000063 -0.000285  0.027340)
 12:    443.46   0.004767   24.09  0.003355  ( 0.020620 -0.007850  0.053554)
 13:    448.13   0.034257  173.12  0.023855  ( 0.008156 -0.002617 -0.154214)
 14:    533.38   0.002258   11.41  0.001321  (-0.000005  0.000261 -0.036347)
 15:    627.62   0.000006    0.03  0.000003  (-0.000945 -0.001372 -0.000004)
 16:    658.22   0.008668   43.81  0.004110  (-0.063512 -0.008701 -0.000455)
 17:    717.26   0.014034   70.92  0.006106  (-0.000076 -0.000268  0.078141)
 18:    787.55   0.007108   35.92  0.002816  (-0.000002 -0.000052  0.053069)
 19:    868.35   0.000001    0.00  0.000000  ( 0.000002 -0.000141 -0.000544)
 20:    891.51   0.005419   27.39  0.001897  ( 0.042498  0.009529  0.000212)
 21:    946.90   0.000000    0.00  0.000000  (-0.000153  0.000118 -0.000158)
 22:    985.07   0.004188   21.16  0.001327  (-0.000017 -0.000440  0.036421)
 23:   1011.31   0.000003    0.01  0.000001  (-0.000056 -0.000421  0.000777)
 24:   1015.51   0.000110    0.56  0.000034  (-0.005821  0.000134  0.000101)
 25:   1034.07   0.000111    0.56  0.000033  (-0.000186  0.000062  0.005782)
 26:   1055.92   0.006595   33.33  0.001949  ( 0.044141  0.000765 -0.000029)
 27:   1077.04   0.061599  311.30  0.017848  ( 0.127671 -0.039344  0.000136)
 28:   1104.77   0.010300   52.05  0.002909  (-0.051035 -0.017459 -0.000028)
 29:   1152.31   0.000001    0.01  0.000000  (-0.000146  0.000571 -0.000012)
 30:   1174.49   0.000011    0.06  0.000003  ( 0.001255  0.001182  0.000009)
 31:   1251.14   0.009661   48.82  0.002410  (-0.046876  0.014571 -0.000002)
 32:   1316.36   0.026210  132.45  0.006213  ( 0.071252  0.033713  0.000294)
 33:   1335.60   0.000336    1.70  0.000078  (-0.008854  0.000156 -0.000055)
 34:   1401.94   0.000103    0.52  0.000023  (-0.002938 -0.003785 -0.000042)
 35:   1466.30   0.004185   21.15  0.000891  (-0.028413  0.009131 -0.000222)
 36:   1491.70   0.003293   16.64  0.000689  ( 0.008678  0.024773  0.000066)
 37:   1547.74   0.003984   20.13  0.000803  (-0.028309 -0.001338 -0.000050)
 38:   1661.38   0.000218    1.10  0.000041  ( 0.003203 -0.005532 -0.000001)
 39:   1690.27   0.000065    0.33  0.000012  ( 0.003107 -0.001544  0.000005)
 40:   1755.95   0.000419    2.12  0.000074  ( 0.007971  0.003310 -0.000034)
 41:   3132.95   0.005203   26.29  0.000518  ( 0.014537  0.017520  0.000046)
 42:   3196.11   0.000909    4.59  0.000089  (-0.007371 -0.005863 -0.000054)
 43:   3202.41   0.000142    0.72  0.000014  (-0.003691 -0.000477 -0.000002)
 44:   3210.90   0.003076   15.54  0.000299  ( 0.005782  0.016294  0.000059)
 45:   3219.88   0.003331   16.83  0.000323  ( 0.013124 -0.012271 -0.000008)
 46:   3225.45   0.001824    9.22  0.000176  (-0.011315 -0.006961 -0.000011)
 47:   3628.56   0.081753  413.15  0.007031  (-0.072970  0.041307 -0.000013)

--------------------------
THERMOCHEMISTRY AT 298.15K
--------------------------

Temperature         ...   298.15 K
Pressure            ...     1.00 atm
Total Mass          ...   121.14 AMU
Quasi RRHO          ...     True
Cut-Off Frequency   ...     1.00 cm^-1

Throughout the following assumptions are being made:
  (1) The electronic state is orbitally nondegenerate
  (2) There are no thermally accessible electronically excited states
  (3) Hindered rotations indicated by low frequency modes are not
      treated as such but are treated as vibrations and this may
      cause some error
  (4) All equations used are the standard statistical mechanics
      equations for an ideal gas
  (5) All vibrations are strictly harmonic

freq.      85.21  E(vib)   ...       0.48
freq.     154.13  E(vib)   ...       0.40
freq.     159.03  E(vib)   ...       0.39
freq.     313.55  E(vib)   ...       0.25
freq.     383.11  E(vib)   ...       0.20
freq.     417.08  E(vib)   ...       0.18
freq.     443.46  E(vib)   ...       0.17
freq.     448.13  E(vib)   ...       0.17
freq.     533.38  E(vib)   ...       0.13
freq.     627.62  E(vib)   ...       0.09
freq.     658.22  E(vib)   ...       0.08
freq.     717.26  E(vib)   ...       0.07
freq.     787.55  E(vib)   ...       0.05
freq.     868.35  E(vib)   ...       0.04
freq.     891.51  E(vib)   ...       0.03
freq.     946.90  E(vib)   ...       0.03
freq.     985.07  E(vib)   ...       0.02
freq.    1011.31  E(vib)   ...       0.02
freq.    1015.51  E(vib)   ...       0.02
freq.    1034.07  E(vib)   ...       0.02
freq.    1055.92  E(vib)   ...       0.02
freq.    1077.04  E(vib)   ...       0.02
freq.    1104.77  E(vib)   ...       0.02
freq.    1152.31  E(vib)   ...       0.01
freq.    1174.49  E(vib)   ...       0.01
freq.    1251.14  E(vib)   ...       0.01
freq.    1316.36  E(vib)   ...       0.01
freq.    1335.60  E(vib)   ...       0.01
freq.    1401.94  E(vib)   ...       0.00
freq.    1466.30  E(vib)   ...       0.00
freq.    1491.70  E(vib)   ...       0.00
freq.    1547.74  E(vib)   ...       0.00
freq.    1661.38  E(vib)   ...       0.00
freq.    1690.27  E(vib)   ...       0.00
freq.    1755.95  E(vib)   ...       0.00
freq.    3132.95  E(vib)   ...       0.00
freq.    3196.11  E(vib)   ...       0.00
freq.    3202.41  E(vib)   ...       0.00
freq.    3210.90  E(vib)   ...       0.00
freq.    3219.88  E(vib)   ...       0.00
freq.    3225.45  E(vib)   ...       0.00
freq.    3628.56  E(vib)   ...       0.00

------------
INNER ENERGY
------------

The inner energy is: U= E(el) + E(ZPE) + E(vib) + E(rot) + E(trans)
    E(el)   - is the total energy from the electronic structure calculation
              = E(kin-el) + E(nuc-el) + E(el-el) + E(nuc-nuc)
    E(ZPE)  - the the zero temperature vibrational energy from the frequency calculation
    E(vib)  - the the finite temperature correction to E(ZPE) due to population
              of excited vibrational states
    E(rot)  - is the rotational thermal energy
    E(trans)- is the translational thermal energy

Summary of contributions to the inner energy U:
Electronic energy                ...   -400.12572085 Eh
Zero point energy                ...      0.12707537 Eh      79.74 kcal/mol
Thermal vibrational correction   ...      0.00473528 Eh       2.97 kcal/mol
Thermal rotational correction    ...      0.00141627 Eh       0.89 kcal/mol
Thermal translational correction ...      0.00141627 Eh       0.89 kcal/mol
-----------------------------------------------------------------------
Total thermal energy                   -399.99107766 Eh

Summary of corrections to the electronic energy:
(perhaps to be used in another calculation)
Total thermal correction                  0.00756782 Eh       4.75 kcal/mol
Non-thermal (ZPE) correction              0.12707537 Eh      79.74 kcal/mol
-----------------------------------------------------------------------
Total correction                          0.13464319 Eh      84.49 kcal/mol

--------
ENTHALPY
--------

The enthalpy is H = U + kB*T
                kB is Boltzmann's constant
Total thermal energy              ...   -399.99107766 Eh
Thermal Enthalpy correction       ...      0.00094421 Eh       0.59 kcal/mol
-----------------------------------------------------------------------
Total Enthalpy                    ...   -399.99013345 Eh

Note: Only C1 symmetry has been detected, increase convergence thresholds
      if your molecule has a higher symmetry. Symmetry factor of 1.0 is
      used for the rotational entropy correction.

Note: Rotational entropy computed according to Herzberg
Infrared and Raman Spectra, Chapter V,1, Van Nostrand Reinhold, 1945
Point Group:  C1, Symmetry Number:   1
Rotational constants in cm-1:     0.172842     0.029943     0.025522

Vibrational entropy computed according to the QRRHO of S. Grimme
Chem.Eur.J. 2012 18 9955 using a reference frequency of 100.0 cm-1

-------
ENTROPY
-------

The entropy contributions are T*S = T*(S(el)+S(vib)+S(rot)+S(trans))
     S(el)   - electronic entropy
     S(vib)  - vibrational entropy
     S(rot)  - rotational entropy
     S(trans)- translational entropy
The entropies will be listed as multiplied by the temperature to get
units of energy

Electronic entropy                ...      0.00000000 Eh      0.00 kcal/mol
Vibrational entropy               ...      0.00778393 Eh      4.88 kcal/mol
Rotational entropy                ...      0.01372755 Eh      8.61 kcal/mol
Translational entropy             ...      0.01914284 Eh     12.01 kcal/mol
-----------------------------------------------------------------------
Final entropy term                ...      0.04065431 Eh     25.51 kcal/mol

In case the symmetry of your molecule has not been determined correctly
or in case you have a reason to use a different symmetry number we print
out the resulting rotational entropy values for sn=1,12:

 non-linear molecules -----------------------------------
|  sn= 1 | S(rot)=       0.01372755 Eh      8.61 kcal/mol|
|  sn= 2 | S(rot)=       0.01307309 Eh      8.20 kcal/mol|
|  sn= 3 | S(rot)=       0.01269026 Eh      7.96 kcal/mol|
|  sn= 4 | S(rot)=       0.01241864 Eh      7.79 kcal/mol|
|  sn= 5 | S(rot)=       0.01220795 Eh      7.66 kcal/mol|
|  sn= 6 | S(rot)=       0.01203580 Eh      7.55 kcal/mol|
|  sn= 7 | S(rot)=       0.01189026 Eh      7.46 kcal/mol|
|  sn= 8 | S(rot)=       0.01176418 Eh      7.38 kcal/mol|
|  sn= 9 | S(rot)=       0.01165297 Eh      7.31 kcal/mol|
|  sn=10 | S(rot)=       0.01155349 Eh      7.25 kcal/mol|
|  sn=11 | S(rot)=       0.01146350 Eh      7.19 kcal/mol|
|  sn=12 | S(rot)=       0.01138135 Eh      7.14 kcal/mol|
 linear molecules ---------------------------------------
|  Dinfh | S(rot)=       0.00878927 Eh      5.52 kcal/mol|
|  Cinfv | S(rot)=       0.00944373 Eh      5.93 kcal/mol|
 --------------------------------------------------------

                             ****ORCA TERMINATED NORMALLY****
TOTAL RUN TIME: 0 days 0 hours 5 minutes 27 seconds 319 msec
