                         Program Version 6.0.0  -   RELEASE  -
|  1> !r2SCANh aug-cc-pVTZ d3 TightSCF SlowConv RIJCOSX defgrid2
|  2>
|  3> %pal
|  4> nprocs 4
|  5> end
|  6>
|  7> %scf
|  8> MaxIter 1500
|  9> end
| 10>
| 11> %maxcore 3000
| 12>
| 13> !CPCM
| 14> %cpcm smd true
| 15> SMDsolvent "MeCN"
| 16> surfacetype gepol_ses
| 17> rsolv 2.19
| 18> end
| 19>
| 20> * xyz 0 1
| 21> C           0.86930262577353     -1.20261880029345      0.00017105333715
| 22> C           1.23795362702926      0.14976029336823      0.00011888618076
| 23> C           0.20861669065532      1.10178711313028      0.00004997159606
| 24> C          -1.14266539481067      0.75277814049696     -0.00001496332606
| 25> C          -1.49510132454858     -0.61091836423424      0.00001993066330
| 26> C          -0.47134803669840     -1.56560486246111      0.00011663608289
| 27> H          -0.73825756953350     -2.62759517616832      0.00016986000597
| 28> C          -2.93561352812274     -1.03199819846802     -0.00003268925957
| 29> H          -3.03042597379354     -2.12984128685189      0.00005376751285
| 30> H          -3.47239583982485     -0.64683793793607     -0.88649052066934
| 31> H          -3.47250072897996     -0.64668878799144      0.88629702354134
| 32> C          -2.20261220725801      1.81656948866912     -0.00009254079027
| 33> H          -2.85825633400454      1.73802365829102      0.88648022833246
| 34> H          -2.85834169985167      1.73782693594634     -0.88658224699833
| 35> H          -1.75673523006564      2.82424393630291     -0.00022124376864
| 36> H           0.47747434540426      2.16407970597621      0.00002545328680
| 37> C           2.63224685704945      0.60848489545892      0.00012709034736
| 38> C           3.73948848691454     -0.14591897511127     -0.00036178438147
| 39> H           3.70645882304827     -1.24152951701146     -0.00086807767724
| 40> H           4.73244049250843      0.31559854639130     -0.00029313441000
| 41> H           2.75218557093434      1.69979268676539      0.00055539249904
| 42> H           1.63531784817470     -1.98284589426942      0.00029190789491
| 43> *
| 44>
| 45>                          ****END OF INPUT****

CARTESIAN COORDINATES (ANGSTROEM)
---------------------------------
  C      0.869303   -1.202619    0.000171
  C      1.237954    0.149760    0.000119
  C      0.208617    1.101787    0.000050
  C     -1.142665    0.752778   -0.000015
  C     -1.495101   -0.610918    0.000020
  C     -0.471348   -1.565605    0.000117
  H     -0.738258   -2.627595    0.000170
  C     -2.935614   -1.031998   -0.000033
  H     -3.030426   -2.129841    0.000054
  H     -3.472396   -0.646838   -0.886491
  H     -3.472501   -0.646689    0.886297
  C     -2.202612    1.816569   -0.000093
  H     -2.858256    1.738024    0.886480
  H     -2.858342    1.737827   -0.886582
  H     -1.756735    2.824244   -0.000221
  H      0.477474    2.164080    0.000025
  C      2.632247    0.608485    0.000127
  C      3.739488   -0.145919   -0.000362
  H      3.706459   -1.241530   -0.000868
  H      4.732440    0.315599   -0.000293
  H      2.752186    1.699793    0.000555
  H      1.635318   -1.982846    0.000292

 Total Charge           Charge          ....    0
 Multiplicity           Mult            ....    1
 Number of Electrons    NEL             ....   72
 Basis Dimension        Dim             ....  736

ORBITAL ENERGIES
----------------

  NO   OCC          E(Eh)            E(eV)
   0   2.0000     -10.168525      -276.6996
   1   2.0000     -10.167786      -276.6795
   2   2.0000     -10.167302      -276.6663
   3   2.0000     -10.164829      -276.5991
   4   2.0000     -10.157091      -276.3885
   5   2.0000     -10.156492      -276.3722
   6   2.0000     -10.156170      -276.3634
   7   2.0000     -10.150939      -276.2211
   8   2.0000     -10.147152      -276.1180
   9   2.0000     -10.146976      -276.1133
  10   2.0000      -0.866273       -23.5725
  11   2.0000      -0.801791       -21.8178
  12   2.0000      -0.763117       -20.7655
  13   2.0000      -0.744286       -20.2531
  14   2.0000      -0.692294       -18.8383
  15   2.0000      -0.663954       -18.0671
  16   2.0000      -0.596486       -16.2312
  17   2.0000      -0.590346       -16.0641
  18   2.0000      -0.532971       -14.5029
  19   2.0000      -0.487011       -13.2523
  20   2.0000      -0.469601       -12.7785
  21   2.0000      -0.438266       -11.9258
  22   2.0000      -0.421992       -11.4830
  23   2.0000      -0.417547       -11.3620
  24   2.0000      -0.401888       -10.9359
  25   2.0000      -0.394554       -10.7364
  26   2.0000      -0.381777       -10.3887
  27   2.0000      -0.367539       -10.0012
  28   2.0000      -0.366274        -9.9668
  29   2.0000      -0.359775        -9.7900
  30   2.0000      -0.345318        -9.3966
  31   2.0000      -0.322566        -8.7775
  32   2.0000      -0.316124        -8.6022
  33   2.0000      -0.289882        -7.8881
  34   2.0000      -0.244983        -6.6663
  35   2.0000      -0.217736        -5.9249
  36   0.0000      -0.054090        -1.4719
  37   0.0000      -0.021336        -0.5806
  38   0.0000       0.009698         0.2639
  39   0.0000       0.019803         0.5389
  40   0.0000       0.023485         0.6391

MULLIKEN ATOMIC CHARGES
-----------------------
   0 C :   -0.288713
   1 C :    2.182852
   2 C :   -1.250309
   3 C :    0.823830
   4 C :    1.023583
   5 C :   -1.264577
   6 H :   -0.036400
   7 C :   -0.792384
   8 H :    0.090830
   9 H :    0.209603
  10 H :    0.209144
  11 C :   -0.781855
  12 H :    0.208043
  13 H :    0.207282
  14 H :    0.097409
  15 H :   -0.388020
  16 C :    0.083756
  17 C :   -0.964493
  18 H :    0.187201
  19 H :    0.301341
  20 H :    0.054069
  21 H :    0.087806
Sum of atomic charges:    0.0000000

LOEWDIN ATOMIC CHARGES
----------------------
   0 C :    0.203749
   1 C :   -0.157897
   2 C :    0.219083
   3 C :   -0.110461
   4 C :   -0.115282
   5 C :    0.215359
   6 H :   -0.167041
   7 C :    0.575286
   8 H :   -0.166245
   9 H :   -0.153778
  10 H :   -0.153762
  11 C :    0.576858
  12 H :   -0.153558
  13 H :   -0.153566
  14 H :   -0.165871
  15 H :   -0.166944
  16 C :    0.157911
  17 C :    0.519010
  18 H :   -0.219982
  19 H :   -0.214123
  20 H :   -0.188156
  21 H :   -0.180590

  Mayer bond orders larger than 0.100000
B(  0-C ,  2-C ) :  -0.8783 B(  0-C ,  3-C ) :  -0.2163 B(  0-C ,  4-C ) :   0.1082
B(  0-C ,  5-C ) :   0.5663 B(  0-C ,  6-H ) :  -0.1501 B(  0-C , 16-C ) :   0.2942
B(  0-C , 18-H ) :  -0.1372 B(  0-C , 21-H ) :   1.5970 B(  1-C ,  2-C ) :  -0.6501
B(  1-C ,  3-C ) :   0.5100 B(  1-C ,  4-C ) :  -0.2883 B(  1-C ,  7-C ) :   0.1074
B(  1-C , 15-H ) :  -0.5509 B(  1-C , 21-H ) :  -0.1841 B(  2-C ,  3-C ) :   0.5326
B(  2-C ,  4-C ) :  -0.3209 B(  2-C ,  5-C ) :   0.2109 B(  2-C , 11-C ) :  -0.2111
B(  2-C , 15-H ) :   2.4584 B(  2-C , 16-C ) :   0.2317 B(  2-C , 17-C ) :   0.1075
B(  2-C , 20-H ) :  -0.1484 B(  3-C ,  4-C ) :   1.1983 B(  3-C ,  5-C ) :   0.1851
B(  3-C ,  7-C ) :   0.1639 B(  3-C , 11-C ) :  -0.1328 B(  3-C , 12-H ) :  -0.1142
B(  3-C , 13-H ) :  -0.1138 B(  3-C , 15-H ) :  -0.2571 B(  3-C , 20-H ) :   0.1186
B(  3-C , 21-H ) :  -0.2143 B(  4-C ,  5-C ) :   0.5037 B(  4-C ,  7-C ) :   0.1644
B(  4-C , 11-C ) :   0.4409 B(  4-C , 15-H ) :  -0.1085 B(  4-C , 16-C ) :   0.1303
B(  4-C , 21-H ) :  -0.1152 B(  5-C ,  6-H ) :   1.3801 B(  5-C ,  7-C ) :  -0.1797
B(  5-C , 17-C ) :  -0.1405 B(  5-C , 21-H ) :  -0.1619 B(  7-C ,  8-H ) :   1.0732
B(  7-C ,  9-H ) :   1.0163 B(  7-C , 10-H ) :   1.0170 B( 11-C , 12-H ) :   1.0216
B( 11-C , 13-H ) :   1.0217 B( 11-C , 14-H ) :   1.0507 B( 15-H , 16-C ) :  -0.1961
B( 15-H , 20-H ) :  -0.1014 B( 16-C , 17-C ) :   0.8225 B( 16-C , 20-H ) :   1.1433
B( 17-C , 18-H ) :   1.2012 B( 17-C , 19-H ) :   0.8143 B( 17-C , 20-H ) :  -0.1959

Dispersion correction           -0.007346542
FINAL SINGLE POINT ENERGY      -388.181444744613

DIPOLE MOMENT
-------------

Method             : SCF
Type of density    : Electron Density
Multiplicity       :   1
Irrep              :   0
Energy             :  -388.1740982029970723 Eh
Relativity type    :
Basis              : AO
                                X                 Y                 Z
Electronic contribution:      3.986317707      -1.063355730       0.000624205
Nuclear contribution   :     -4.612312787       1.157001157      -0.000599620
                        -----------------------------------------
Total Dipole Moment    :     -0.625995080       0.093645427       0.000024585
                        -----------------------------------------
Magnitude (a.u.)       :      0.632960747
Magnitude (Debye)      :      1.608858360

Rotational constants in cm-1:             0.097441             0.028572             0.022278
Rotational constants in MHz :          2921.210321           856.555703           667.890460

                             ****ORCA TERMINATED NORMALLY****
TOTAL RUN TIME: 0 days 0 hours 8 minutes 19 seconds 290 msec
