                         Program Version 6.0.0  -   RELEASE  -
|  1> !TPSSh aug-cc-pVTZ d3 TightSCF SlowConv RIJCOSX defgrid2
|  2>
|  3> %pal
|  4> nprocs 4
|  5> end
|  6>
|  7> %scf
|  8> MaxIter 1500
|  9> end
| 10>
| 11> %maxcore 3000
| 12>
| 13> !CPCM
| 14> %cpcm smd true
| 15> SMDsolvent "MeCN"
| 16> surfacetype gepol_ses
| 17> rsolv 2.19
| 18> end
| 19>
| 20> * xyz -1 2
| 21> C          -0.46059128201799      1.20494017119812      0.00001211596921
| 22> C           0.92271322931352      1.21537673965483      0.00007247103149
| 23> C           1.63885056458078      0.00584757553838      0.00005340465348
| 24> C           0.94016898670995     -1.22082416695804     -0.00001729460884
| 25> C          -0.43745517805739     -1.22871797254679     -0.00008369129513
| 26> C          -1.21082253995963     -0.01928165729328     -0.00007938241516
| 27> C          -2.64176417107169     -0.09933130049804     -0.00014945388498
| 28> O          -3.27680801972250     -1.18193238288940     -0.00022292736286
| 29> C          -3.42795564044194      1.21049531549301     -0.00017211433464
| 30> H          -3.21403956731584      1.83831096883377      0.88847865430575
| 31> H          -3.21389493669869      1.83838205326155     -0.88873743958169
| 32> H          -4.50069805080380      0.95600695488766     -0.00026718717856
| 33> H          -0.99549954367814     -2.16941515727402     -0.00014058350972
| 34> H           1.50562929532190     -2.15884116459823     -0.00002292839518
| 35> Cl          3.39541668285857      0.02068681811563      0.00014426998260
| 36> H           1.47138203008123      2.16312523531408      0.00014024216876
| 37> H          -0.98755245909833      2.16458456976078      0.00003664445548
| 38> *
| 39>
| 40>                          ****END OF INPUT****

CARTESIAN COORDINATES (ANGSTROEM)
---------------------------------
  C     -0.460591    1.204940    0.000012
  C      0.922713    1.215377    0.000072
  C      1.638851    0.005848    0.000053
  C      0.940169   -1.220824   -0.000017
  C     -0.437455   -1.228718   -0.000084
  C     -1.210823   -0.019282   -0.000079
  C     -2.641764   -0.099331   -0.000149
  O     -3.276808   -1.181932   -0.000223
  C     -3.427956    1.210495   -0.000172
  H     -3.214040    1.838311    0.888479
  H     -3.213895    1.838382   -0.888737
  H     -4.500698    0.956007   -0.000267
  H     -0.995500   -2.169415   -0.000141
  H      1.505629   -2.158841   -0.000023
  Cl     3.395417    0.020687    0.000144
  H      1.471382    2.163125    0.000140
  H     -0.987552    2.164585    0.000037

 Total Charge           Charge          ....   -1
 Multiplicity           Mult            ....    2
 Number of Electrons    NEL             ....   81
 Basis Dimension        Dim             ....  625

ORBITAL ENERGIES
----------------
                 SPIN UP ORBITALS
  NO   OCC          E(Eh)            E(eV)
   0   1.0000    -101.394812     -2759.0931
   1   1.0000     -18.977243      -516.3970
   2   1.0000     -10.142216      -275.9837
   3   1.0000     -10.128794      -275.6185
   4   1.0000     -10.103460      -274.9291
   5   1.0000     -10.103310      -274.9250
   6   1.0000     -10.097399      -274.7642
   7   1.0000     -10.092313      -274.6258
   8   1.0000     -10.086326      -274.4629
   9   1.0000     -10.083964      -274.3986
  10   1.0000      -9.373177      -255.0571
  11   1.0000      -7.121722      -193.7919
  12   1.0000      -7.113456      -193.5670
  13   1.0000      -7.113184      -193.5596
  14   1.0000      -0.944870       -25.7112
  15   1.0000      -0.843032       -22.9401
  16   1.0000      -0.789564       -21.4851
  17   1.0000      -0.713611       -19.4183
  18   1.0000      -0.706281       -19.2189
  19   1.0000      -0.666292       -18.1307
  20   1.0000      -0.578302       -15.7364
  21   1.0000      -0.565291       -15.3824
  22   1.0000      -0.505938       -13.7673
  23   1.0000      -0.456166       -12.4129
  24   1.0000      -0.423910       -11.5352
  25   1.0000      -0.411998       -11.2110
  26   1.0000      -0.398826       -10.8526
  27   1.0000      -0.390694       -10.6313
  28   1.0000      -0.385261       -10.4835
  29   1.0000      -0.362355        -9.8602
  30   1.0000      -0.352957        -9.6044
  31   1.0000      -0.348497        -9.4831
  32   1.0000      -0.322470        -8.7749
  33   1.0000      -0.318408        -8.6643
  34   1.0000      -0.302360        -8.2276
  35   1.0000      -0.291217        -7.9244
  36   1.0000      -0.282596        -7.6898
  37   1.0000      -0.238656        -6.4942
  38   1.0000      -0.218180        -5.9370
  39   1.0000      -0.190777        -5.1913
  40   1.0000      -0.087166        -2.3719
  41   0.0000      -0.010612        -0.2888
  42   0.0000      -0.003858        -0.1050
  43   0.0000       0.007192         0.1957
  44   0.0000       0.012804         0.3484
  45   0.0000       0.016605         0.4518

                 SPIN DOWN ORBITALS
  NO   OCC          E(Eh)            E(eV)
   0   1.0000    -101.394728     -2759.0908
   1   1.0000     -18.971750      -516.2476
   2   1.0000     -10.137073      -275.8438
   3   1.0000     -10.124872      -275.5118
   4   1.0000     -10.104581      -274.9596
   5   1.0000     -10.104351      -274.9534
   6   1.0000     -10.095185      -274.7039
   7   1.0000     -10.089987      -274.5625
   8   1.0000     -10.086683      -274.4726
   9   1.0000     -10.082440      -274.3571
  10   1.0000      -9.373097      -255.0549
  11   1.0000      -7.121877      -193.7961
  12   1.0000      -7.113141      -193.5584
  13   1.0000      -7.112985      -193.5542
  14   1.0000      -0.935394       -25.4534
  15   1.0000      -0.839324       -22.8392
  16   1.0000      -0.786776       -21.4093
  17   1.0000      -0.710298       -19.3282
  18   1.0000      -0.701459       -19.0877
  19   1.0000      -0.664340       -18.0776
  20   1.0000      -0.570121       -15.5138
  21   1.0000      -0.563310       -15.3284
  22   1.0000      -0.502456       -13.6725
  23   1.0000      -0.452115       -12.3027
  24   1.0000      -0.422098       -11.4859
  25   1.0000      -0.408647       -11.1199
  26   1.0000      -0.397544       -10.8177
  27   1.0000      -0.384781       -10.4704
  28   1.0000      -0.380453       -10.3526
  29   1.0000      -0.352348        -9.5879
  30   1.0000      -0.349685        -9.5154
  31   1.0000      -0.347277        -9.4499
  32   1.0000      -0.320341        -8.7169
  33   1.0000      -0.306260        -8.3338
  34   1.0000      -0.301356        -8.2003
  35   1.0000      -0.282261        -7.6807
  36   1.0000      -0.274512        -7.4698
  37   1.0000      -0.230171        -6.2633
  38   1.0000      -0.199678        -5.4335
  39   1.0000      -0.187023        -5.0891
  40   0.0000      -0.036016        -0.9801
  41   0.0000      -0.005859        -0.1594
  42   0.0000      -0.001666        -0.0453
  43   0.0000       0.009095         0.2475
  44   0.0000       0.015343         0.4175

MULLIKEN ATOMIC CHARGES AND SPIN POPULATIONS
--------------------------------------------
   0 C :   -0.331039    0.202499
   1 C :   -0.751150   -0.056887
   2 C :    0.307847    0.253889
   3 C :   -0.572692   -0.059682
   4 C :   -0.720017    0.205326
   5 C :    1.356227    0.053459
   6 C :    0.622725    0.214340
   7 O :   -1.175103    0.209982
   8 C :   -0.324763   -0.026000
   9 H :    0.169833    0.009047
  10 H :    0.170785    0.009030
  11 H :   -0.053914   -0.000550
  12 H :    0.089426   -0.019177
  13 H :    0.328146   -0.006587
  14 Cl:   -0.521819    0.021405
  15 H :    0.291349   -0.003684
  16 H :    0.114159   -0.006409
Sum of atomic charges         :   -1.0000000

LOEWDIN ATOMIC CHARGES AND SPIN POPULATIONS
-------------------------------------------
   0 C :    0.144279    0.086475
   1 C :    0.050445    0.033923
   2 C :   -0.814669    0.145485
   3 C :    0.050195    0.032158
   4 C :    0.129617    0.086420
   5 C :   -0.207475    0.123085
   6 C :   -0.669506    0.176286
   7 O :    0.347382    0.189055
   8 C :    0.497204    0.032029
   9 H :   -0.178702    0.008289
  10 H :   -0.178735    0.008288
  11 H :   -0.203451   -0.000733
  12 H :   -0.214833    0.018366
  13 H :   -0.208359   -0.003078
  14 Cl:    0.866848    0.048603
  15 H :   -0.207293   -0.002420
  16 H :   -0.202946    0.017769

  Mayer bond orders larger than 0.100000
B(  0-C ,  1-C ) :   1.4134 B(  0-C ,  4-C ) :  -0.3185 B(  0-C ,  5-C ) :   0.3242
B(  0-C ,  6-C ) :   0.1086 B(  0-C , 16-H ) :   1.1048 B(  1-C ,  2-C ) :   1.3395
B(  1-C ,  3-C ) :   0.1391 B(  1-C , 14-Cl) :   0.1438 B(  1-C , 15-H ) :   0.6849
B(  2-C ,  3-C ) :   1.3486 B(  2-C , 14-Cl) :   0.2640 B(  3-C ,  4-C ) :   1.6283
B(  3-C ,  5-C ) :  -0.1325 B(  3-C ,  6-C ) :   0.1055 B(  3-C , 13-H ) :   0.6794
B(  3-C , 14-Cl) :   0.1573 B(  4-C ,  5-C ) :   0.2872 B(  4-C ,  6-C ) :   0.2758
B(  4-C , 12-H ) :   0.9765 B(  5-C ,  6-C ) :   0.5487 B(  5-C ,  7-O ) :   0.3044
B(  6-C ,  7-O ) :   0.2642 B(  6-C ,  8-C ) :   1.0557 B(  7-O , 12-H ) :   0.1262
B(  8-C ,  9-H ) :   0.9517 B(  8-C , 10-H ) :   0.9514 B(  8-C , 11-H ) :   1.0543

Dispersion correction           -0.022716544
FINAL SINGLE POINT ENERGY      -844.809332442414

DIPOLE MOMENT
-------------

Method             : SCF
Type of density    : Electron Density
Multiplicity       :   2
Irrep              :   0
Energy             :  -844.7866158983023297 Eh
Relativity type    :
Basis              : AO
                                X                 Y                 Z
Electronic contribution:     16.002589992      -2.912250534       0.001223392
Nuclear contribution   :    -13.986086072       4.323351945      -0.000564645
                        -----------------------------------------
Total Dipole Moment    :      2.016503920       1.411101411       0.000658748
                        -----------------------------------------
Magnitude (a.u.)       :      2.461198018
Magnitude (Debye)      :      6.255868200

Rotational constants in cm-1:             0.120838             0.018120             0.015805
Rotational constants in MHz :          3622.634829           543.238146           473.808861

                             ****ORCA TERMINATED NORMALLY****
TOTAL RUN TIME: 0 days 0 hours 7 minutes 31 seconds 453 msec
