                         Program Version 6.0.0  -   RELEASE  -
|  1> !B3LYP aug-cc-pVTZ d3 TightSCF SlowConv RIJCOSX defgrid2
|  2>
|  3> %pal
|  4> nprocs 4
|  5> end
|  6>
|  7> %scf
|  8> MaxIter 1500
|  9> end
| 10>
| 11> %maxcore 3000
| 12>
| 13> !CPCM
| 14> %cpcm smd true
| 15> SMDsolvent "MeCN"
| 16> surfacetype gepol_ses
| 17> rsolv 2.19
| 18> end
| 19>
| 20> * xyz 1 2
| 21> C          -1.18929710111744     -1.09285531809476     -0.10819644925615
| 22> C           0.00589173329489     -1.79822529332208     -0.13401141651239
| 23> C           1.19808208156691     -1.09105158000585     -0.06434654491920
| 24> C           1.21365138858984      0.35785054897918      0.03424223925553
| 25> C           2.51775471479426      1.05048436689676      0.10640427638312
| 26> H           2.41427085604479      2.14280676868630      0.17575377847974
| 27> H           3.09603271561737      0.68522468132195      0.97881748737636
| 28> H           3.13366664954396      0.79986441621953     -0.78044888567292
| 29> C          -0.00007800896972      1.04312717812580      0.05823770417539
| 30> C          -1.21092205755184      0.35593020163616     -0.01041203166499
| 31> C          -2.51780389192698      1.04678727365115      0.01197629521183
| 32> H          -3.09403194335214      0.80285450596818     -0.90319738383305
| 33> H          -2.41838300212946      2.13863620693826      0.09339400927998
| 34> H          -3.13338924600238      0.67411631081689      0.85502734287022
| 35> H          -0.00212028703487      2.13377489791986      0.13228993338047
| 36> H           2.15561414738440     -1.62182776088860     -0.08279661789994
| 37> H           0.00790773530576     -2.88854491189358     -0.20783219258290
| 38> H          -2.14457188405735     -1.62532769295516     -0.16174234407112
| 39> *
| 40>
| 41>                          ****END OF INPUT****

CARTESIAN COORDINATES (ANGSTROEM)
---------------------------------
  C     -1.189297   -1.092855   -0.108196
  C      0.005892   -1.798225   -0.134011
  C      1.198082   -1.091052   -0.064347
  C      1.213651    0.357851    0.034242
  C      2.517755    1.050484    0.106404
  H      2.414271    2.142807    0.175754
  H      3.096033    0.685225    0.978817
  H      3.133667    0.799864   -0.780449
  C     -0.000078    1.043127    0.058238
  C     -1.210922    0.355930   -0.010412
  C     -2.517804    1.046787    0.011976
  H     -3.094032    0.802855   -0.903197
  H     -2.418383    2.138636    0.093394
  H     -3.133389    0.674116    0.855027
  H     -0.002120    2.133775    0.132290
  H      2.155614   -1.621828   -0.082797
  H      0.007908   -2.888545   -0.207832
  H     -2.144572   -1.625328   -0.161742

 Total Charge           Charge          ....    1
 Multiplicity           Mult            ....    2
 Number of Electrons    NEL             ....   57
 Basis Dimension        Dim             ....  598

ORBITAL ENERGIES
----------------
                 SPIN UP ORBITALS
  NO   OCC          E(Eh)            E(eV)
   0   1.0000     -10.254423      -279.0370
   1   1.0000     -10.254370      -279.0356
   2   1.0000     -10.243562      -278.7415
   3   1.0000     -10.243520      -278.7403
   4   1.0000     -10.213421      -277.9213
   5   1.0000     -10.206755      -277.7399
   6   1.0000     -10.188223      -277.2357
   7   1.0000     -10.188200      -277.2350
   8   1.0000      -0.909474       -24.7480
   9   1.0000      -0.827939       -22.5294
  10   1.0000      -0.804880       -21.9019
  11   1.0000      -0.722269       -19.6539
  12   1.0000      -0.715210       -19.4619
  13   1.0000      -0.633586       -17.2407
  14   1.0000      -0.609533       -16.5862
  15   1.0000      -0.537173       -14.6172
  16   1.0000      -0.514017       -13.9871
  17   1.0000      -0.477562       -12.9951
  18   1.0000      -0.457162       -12.4400
  19   1.0000      -0.451524       -12.2866
  20   1.0000      -0.439294       -11.9538
  21   1.0000      -0.434862       -11.8332
  22   1.0000      -0.414505       -11.2793
  23   1.0000      -0.399588       -10.8734
  24   1.0000      -0.383779       -10.4432
  25   1.0000      -0.379482       -10.3262
  26   1.0000      -0.371983       -10.1222
  27   1.0000      -0.295839        -8.0502
  28   1.0000      -0.293247        -7.9797
  29   0.0000      -0.078180        -2.1274
  30   0.0000      -0.045021        -1.2251
  31   0.0000      -0.007419        -0.2019
  32   0.0000       0.005655         0.1539
  33   0.0000       0.008183         0.2227

                 SPIN DOWN ORBITALS
  NO   OCC          E(Eh)            E(eV)
   0   1.0000     -10.251227      -278.9501
   1   1.0000     -10.251180      -278.9488
   2   1.0000     -10.238413      -278.6014
   3   1.0000     -10.238374      -278.6003
   4   1.0000     -10.215254      -277.9712
   5   1.0000     -10.207881      -277.7706
   6   1.0000     -10.188112      -277.2326
   7   1.0000     -10.188088      -277.2320
   8   1.0000      -0.900100       -24.4930
   9   1.0000      -0.816544       -22.2193
  10   1.0000      -0.802080       -21.8257
  11   1.0000      -0.720864       -19.6157
  12   1.0000      -0.704803       -19.1787
  13   1.0000      -0.628895       -17.1131
  14   1.0000      -0.603169       -16.4131
  15   1.0000      -0.534174       -14.5356
  16   1.0000      -0.510575       -13.8935
  17   1.0000      -0.475011       -12.9257
  18   1.0000      -0.450329       -12.2541
  19   1.0000      -0.442070       -12.0293
  20   1.0000      -0.434973       -11.8362
  21   1.0000      -0.424611       -11.5543
  22   1.0000      -0.413382       -11.2487
  23   1.0000      -0.397931       -10.8283
  24   1.0000      -0.377466       -10.2714
  25   1.0000      -0.369097       -10.0436
  26   1.0000      -0.363579        -9.8935
  27   1.0000      -0.290605        -7.9078
  28   0.0000      -0.208525        -5.6743
  29   0.0000      -0.045094        -1.2271
  30   0.0000      -0.032543        -0.8856
  31   0.0000      -0.007085        -0.1928
  32   0.0000       0.005889         0.1603

MULLIKEN ATOMIC CHARGES AND SPIN POPULATIONS
--------------------------------------------
   0 C :   -0.690641    0.349173
   1 C :   -0.667142   -0.150342
   2 C :   -0.693720    0.348621
   3 C :    1.301751    0.251597
   4 C :   -0.684792   -0.010646
   5 H :    0.193233   -0.004174
   6 H :    0.239085    0.021992
   7 H :    0.242162    0.021743
   8 C :   -0.733105   -0.095902
   9 C :    1.301851    0.250907
  10 C :   -0.683897   -0.010555
  11 H :    0.241390    0.022042
  12 H :    0.193765   -0.004159
  13 H :    0.238702    0.021580
  14 H :    0.028529    0.002244
  15 H :    0.331710   -0.007655
  16 H :    0.512339    0.001200
  17 H :    0.328781   -0.007666
Sum of atomic charges         :    1.0000000

LOEWDIN ATOMIC CHARGES AND SPIN POPULATIONS
-------------------------------------------
   0 C :    0.312856    0.197175
   1 C :    0.274851    0.050414
   2 C :    0.312795    0.196940
   3 C :   -0.049606    0.154035
   4 C :    0.616513    0.050744
   5 H :   -0.145457    0.002324
   6 H :   -0.126271    0.013491
   7 H :   -0.126450    0.013373
   8 C :    0.290417    0.029146
   9 C :   -0.049724    0.153847
  10 C :    0.616488    0.050645
  11 H :   -0.126180    0.013516
  12 H :   -0.145497    0.002321
  13 H :   -0.126558    0.013301
  14 H :   -0.141253   -0.006362
  15 H :   -0.121964    0.037335
  16 H :   -0.143020   -0.009641
  17 H :   -0.121939    0.037395

  Mayer bond orders larger than 0.100000
B(  0-C ,  1-C ) :   1.2712 B(  0-C ,  3-C ) :  -0.1884 B(  0-C ,  8-C ) :  -0.1133
B(  0-C ,  9-C ) :   0.5397 B(  0-C , 10-C ) :   0.1773 B(  0-C , 17-H ) :   0.9123
B(  1-C ,  2-C ) :   1.2648 B(  1-C ,  3-C ) :   0.1281 B(  1-C ,  9-C ) :   0.1263
B(  1-C , 16-H ) :   0.4700 B(  2-C ,  3-C ) :   0.5397 B(  2-C ,  4-C ) :   0.1800
B(  2-C ,  8-C ) :  -0.1122 B(  2-C ,  9-C ) :  -0.1896 B(  2-C , 15-H ) :   0.9086
B(  3-C ,  4-C ) :   0.3007 B(  3-C ,  8-C ) :   0.5193 B(  3-C ,  9-C ) :   0.3628
B(  3-C , 14-H ) :  -0.1191 B(  4-C ,  5-H ) :   1.0225 B(  4-C ,  6-H ) :   0.9767
B(  4-C ,  7-H ) :   0.9719 B(  4-C ,  8-C ) :  -0.1095 B(  8-C ,  9-C ) :   0.5201
B(  8-C , 10-C ) :  -0.1083 B(  8-C , 14-H ) :   1.3725 B(  9-C , 10-C ) :   0.2992
B(  9-C , 14-H ) :  -0.1171 B( 10-C , 11-H ) :   0.9730 B( 10-C , 12-H ) :   1.0231
B( 10-C , 13-H ) :   0.9768

Dispersion correction           -0.029541427
FINAL SINGLE POINT ENERGY      -310.599652171470

DIPOLE MOMENT
-------------

Method             : SCF
Type of density    : Electron Density
Multiplicity       :   2
Irrep              :   0
Energy             :  -310.5701107443933893 Eh
Relativity type    :
Basis              : AO
                                X                 Y                 Z
Electronic contribution:      0.006823291      -3.200089987      -0.218299714
Nuclear contribution   :     -0.005606480       2.888237007       0.196904737
                        -----------------------------------------
Total Dipole Moment    :      0.001216811      -0.311852980      -0.021394977
                        -----------------------------------------
Magnitude (a.u.)       :      0.312588398
Magnitude (Debye)      :      0.794536565

Rotational constants in cm-1:             0.117442             0.059099             0.039898
Rotational constants in MHz :          3520.819355          1771.755031          1196.125429

                             ****ORCA TERMINATED NORMALLY****
TOTAL RUN TIME: 0 days 0 hours 5 minutes 57 seconds 611 msec
