                         Program Version 6.0.0  -   RELEASE  -
|  1> !B3LYP aug-cc-pVTZ d3 TightSCF SlowConv RIJCOSX defgrid2
|  2>
|  3> %pal
|  4> nprocs 4
|  5> end
|  6>
|  7> %scf
|  8> MaxIter 1500
|  9> end
| 10>
| 11> %maxcore 3000
| 12>
| 13> !CPCM
| 14> %cpcm smd true
| 15> SMDsolvent "MeCN"
| 16> surfacetype gepol_ses
| 17> rsolv 2.19
| 18> end
| 19>
| 20> * xyz 0 1
| 21> C          -0.70040560978015      1.38862025457992      0.01444069210645
| 22> C          -1.91245524702018      0.69567306005554      0.01462586157947
| 23> C          -1.91249387248428     -0.69558156366748     -0.01462751179559
| 24> C          -0.70048149668899     -1.38859471559027     -0.01444474347923
| 25> C           0.51701567119323     -0.70749863359451      0.00344351300980
| 26> N           1.75688785576029     -1.35032496518044     -0.01869709041630
| 27> H           2.43013802514878     -0.92879340551386      0.62128772624243
| 28> H           1.70402046370050     -2.35551735549936      0.11662272713410
| 29> C           0.51705531626238      0.70745871640913     -0.00345498008622
| 30> N           1.75696057869555      1.35021757408851      0.01868096018628
| 31> H           2.43019999443086      0.92862198390732     -0.62127304374208
| 32> H           1.70415275870095      2.35540776572739     -0.11667373624575
| 33> H          -0.69435322474112     -2.48383255240663     -0.01483473135793
| 34> H          -2.85473613557899     -1.25061144525607     -0.02611079663032
| 35> H          -2.85466720705613      1.25075497082180      0.02610952373100
| 36> H          -0.69421807054270      2.48385751111900      0.01483302976389
| 37> *
| 38>
| 39>                          ****END OF INPUT****

CARTESIAN COORDINATES (ANGSTROEM)
---------------------------------
  C     -0.700406    1.388620    0.014441
  C     -1.912455    0.695673    0.014626
  C     -1.912494   -0.695582   -0.014628
  C     -0.700481   -1.388595   -0.014445
  C      0.517016   -0.707499    0.003444
  N      1.756888   -1.350325   -0.018697
  H      2.430138   -0.928793    0.621288
  H      1.704020   -2.355517    0.116623
  C      0.517055    0.707459   -0.003455
  N      1.756961    1.350218    0.018681
  H      2.430200    0.928622   -0.621273
  H      1.704153    2.355408   -0.116674
  H     -0.694353   -2.483833   -0.014835
  H     -2.854736   -1.250611   -0.026111
  H     -2.854667    1.250755    0.026110
  H     -0.694218    2.483858    0.014833

 Total Charge           Charge          ....    0
 Multiplicity           Mult            ....    1
 Number of Electrons    NEL             ....   58
 Basis Dimension        Dim             ....  552

ORBITAL ENERGIES
----------------

  NO   OCC          E(Eh)            E(eV)
   0   2.0000     -14.314505      -389.5175
   1   2.0000     -14.314485      -389.5169
   2   2.0000     -10.205085      -277.6945
   3   2.0000     -10.204568      -277.6804
   4   2.0000     -10.165908      -276.6284
   5   2.0000     -10.165879      -276.6276
   6   2.0000     -10.164049      -276.5778
   7   2.0000     -10.163442      -276.5613
   8   2.0000      -0.932557       -25.3762
   9   2.0000      -0.884576       -24.0705
  10   2.0000      -0.825678       -22.4678
  11   2.0000      -0.728288       -19.8177
  12   2.0000      -0.711730       -19.3672
  13   2.0000      -0.611557       -16.6413
  14   2.0000      -0.587888       -15.9972
  15   2.0000      -0.519690       -14.1415
  16   2.0000      -0.512455       -13.9446
  17   2.0000      -0.484741       -13.1905
  18   2.0000      -0.468776       -12.7560
  19   2.0000      -0.436237       -11.8706
  20   2.0000      -0.417077       -11.3492
  21   2.0000      -0.415750       -11.3131
  22   2.0000      -0.393471       -10.7069
  23   2.0000      -0.354875        -9.6566
  24   2.0000      -0.340276        -9.2594
  25   2.0000      -0.315927        -8.5968
  26   2.0000      -0.307921        -8.3790
  27   2.0000      -0.230550        -6.2736
  28   2.0000      -0.196121        -5.3367
  29   0.0000      -0.005852        -0.1592
  30   0.0000      -0.005199        -0.1415
  31   0.0000       0.006823         0.1857
  32   0.0000       0.009911         0.2697
  33   0.0000       0.010858         0.2955

MULLIKEN ATOMIC CHARGES
-----------------------
   0 C :   -0.924729
   1 C :   -0.524704
   2 C :   -0.527945
   3 C :   -0.925206
   4 C :    1.132891
   5 N :   -0.601236
   6 H :    0.072052
   7 H :   -0.003010
   8 C :    1.134798
   9 N :   -0.601423
  10 H :    0.071800
  11 H :   -0.003104
  12 H :    0.374714
  13 H :    0.474272
  14 H :    0.475704
  15 H :    0.375127
Sum of atomic charges:    0.0000000

LOEWDIN ATOMIC CHARGES
----------------------
   0 C :    0.190139
   1 C :    0.148878
   2 C :    0.148882
   3 C :    0.190146
   4 C :   -0.247704
   5 N :    0.845060
   6 H :   -0.300251
   7 H :   -0.286436
   8 C :   -0.247715
   9 N :    0.845036
  10 H :   -0.300291
  11 H :   -0.286428
  12 H :   -0.168462
  13 H :   -0.181195
  14 H :   -0.181195
  15 H :   -0.168467

  Mayer bond orders larger than 0.100000
B(  0-C ,  1-C ) :   1.3592 B(  0-C ,  8-C ) :   0.7565 B(  0-C , 15-H ) :   0.6134
B(  1-C ,  2-C ) :   1.2495 B(  1-C ,  8-C ) :  -0.2110 B(  1-C , 14-H ) :   0.6065
B(  2-C ,  3-C ) :   1.3619 B(  2-C ,  4-C ) :  -0.2100 B(  2-C , 13-H ) :   0.6092
B(  3-C ,  4-C ) :   0.7560 B(  3-C , 12-H ) :   0.6138 B(  4-C ,  5-N ) :   0.2055
B(  4-C ,  8-C ) :   0.7745 B(  4-C ,  9-N ) :   0.1331 B(  5-N ,  6-H ) :   1.0782
B(  5-N ,  7-H ) :   1.1082 B(  5-N ,  8-C ) :   0.1315 B(  8-C ,  9-N ) :   0.2033
B(  9-N , 10-H ) :   1.0780 B(  9-N , 11-H ) :   1.1089

Dispersion correction           -0.027404522
FINAL SINGLE POINT ENERGY      -342.926655595725

DIPOLE MOMENT
-------------

Method             : SCF
Type of density    : Electron Density
Multiplicity       :   1
Irrep              :   0
Energy             :  -342.8992510740457078 Eh
Relativity type    :
Basis              : AO
                                X                 Y                 Z
Electronic contribution:     -0.284668164      -0.000066777      -0.000073867
Nuclear contribution   :      1.113968872      -0.000058108      -0.000004171
                        -----------------------------------------
Total Dipole Moment    :      0.829300708      -0.000124884      -0.000078037
                        -----------------------------------------
Magnitude (a.u.)       :      0.829300721
Magnitude (Debye)      :      2.107914915

Rotational constants in cm-1:             0.112095             0.073765             0.044684
Rotational constants in MHz :          3360.536612          2211.428639          1339.595991

                             ****ORCA TERMINATED NORMALLY****
TOTAL RUN TIME: 0 days 0 hours 3 minutes 58 seconds 585 msec
