                         Program Version 6.0.0  -   RELEASE  -
|  1> !r2SCAN aug-cc-pVTZ d3 TightSCF SlowConv RIJCOSX defgrid2
|  2>
|  3> %pal
|  4> nprocs 4
|  5> end
|  6>
|  7> %scf
|  8> MaxIter 1500
|  9> end
| 10>
| 11> %maxcore 3000
| 12>
| 13> !CPCM
| 14> %cpcm smd true
| 15> SMDsolvent "MeCN"
| 16> surfacetype gepol_ses
| 17> rsolv 2.19
| 18> end
| 19>
| 20> * xyz 1 2
| 21> C          -2.34552987536684     -1.21989010437598      0.39037314372658
| 22> C          -3.61895068813073     -0.68175269434440      0.38389142559167
| 23> C          -3.82314603181153      0.63223129507657     -0.05997707610989
| 24> C          -2.74291757400101      1.40018818267067     -0.51535069014080
| 25> C          -1.45991639594185      0.88100768107606     -0.50933331005631
| 26> C          -1.24682427758412     -0.43286197652402     -0.02997852330470
| 27> N          -0.00000583482740     -1.01085724580805     -0.00004772669115
| 28> C           1.24681241286631     -0.43287174597834      0.02990526482063
| 29> C           1.45990511527645      0.88100588629127      0.50923458111131
| 30> C           2.74292315008343      1.40015182716249      0.51533074845338
| 31> C           3.82316479830717      0.63215150787923      0.06005371973868
| 32> C           3.61896072254659     -0.68183818250133     -0.38379986432228
| 33> C           2.34552582381883     -1.21993769489926     -0.39035690905535
| 34> H           2.17816875399825     -2.24126262631785     -0.74631287979897
| 35> H           4.46447935418444     -1.28373988515481     -0.72627658434262
| 36> H           4.83264524497399      1.05187382862867      0.07202071830295
| 37> H           2.91442484546385      2.40736518053646      0.90385483105346
| 38> H           0.63238245735310      1.45557255022259      0.92936286739960
| 39> H          -0.00000303273582     -2.03154086007956     -0.00006285746572
| 40> H          -0.63240635676261      1.45553755141713     -0.92953302648471
| 41> H          -2.91442477275671      2.40739802155151     -0.90387838458025
| 42> H          -4.83260942910992      1.05198735407979     -0.07187345817988
| 43> H          -4.46446345632637     -1.28362150345028      0.72644056993610
| 44> H          -2.17818095351749     -2.24120514715858      0.74635382039827
| 45> *
| 46>
| 47>                          ****END OF INPUT****

CARTESIAN COORDINATES (ANGSTROEM)
---------------------------------
  C     -2.345530   -1.219890    0.390373
  C     -3.618951   -0.681753    0.383891
  C     -3.823146    0.632231   -0.059977
  C     -2.742918    1.400188   -0.515351
  C     -1.459916    0.881008   -0.509333
  C     -1.246824   -0.432862   -0.029979
  N     -0.000006   -1.010857   -0.000048
  C      1.246812   -0.432872    0.029905
  C      1.459905    0.881006    0.509235
  C      2.742923    1.400152    0.515331
  C      3.823165    0.632152    0.060054
  C      3.618961   -0.681838   -0.383800
  C      2.345526   -1.219938   -0.390357
  H      2.178169   -2.241263   -0.746313
  H      4.464479   -1.283740   -0.726277
  H      4.832645    1.051874    0.072021
  H      2.914425    2.407365    0.903855
  H      0.632382    1.455573    0.929363
  H     -0.000003   -2.031541   -0.000063
  H     -0.632406    1.455538   -0.929533
  H     -2.914425    2.407398   -0.903878
  H     -4.832609    1.051987   -0.071873
  H     -4.464463   -1.283622    0.726441
  H     -2.178181   -2.241205    0.746354

 Total Charge           Charge          ....    1
 Multiplicity           Mult            ....    2
 Number of Electrons    NEL             ....   89
 Basis Dimension        Dim             ....  851

ORBITAL ENERGIES
----------------
                 SPIN UP ORBITALS
  NO   OCC          E(Eh)            E(eV)
   0   1.0000     -14.277038      -388.4980
   1   1.0000     -10.126946      -275.5682
   2   1.0000     -10.126929      -275.5677
   3   1.0000     -10.075324      -274.1635
   4   1.0000     -10.075290      -274.1626
   5   1.0000     -10.075109      -274.1576
   6   1.0000     -10.075104      -274.1575
   7   1.0000     -10.071844      -274.0688
   8   1.0000     -10.071841      -274.0687
   9   1.0000     -10.064593      -273.8715
  10   1.0000     -10.064574      -273.8710
  11   1.0000     -10.064209      -273.8610
  12   1.0000     -10.064206      -273.8610
  13   1.0000      -0.988868       -26.9085
  14   1.0000      -0.858336       -23.3565
  15   1.0000      -0.837870       -22.7996
  16   1.0000      -0.762378       -20.7454
  17   1.0000      -0.749472       -20.3942
  18   1.0000      -0.742251       -20.1977
  19   1.0000      -0.715451       -19.4684
  20   1.0000      -0.632260       -17.2047
  21   1.0000      -0.625670       -17.0253
  22   1.0000      -0.594768       -16.1845
  23   1.0000      -0.578392       -15.7388
  24   1.0000      -0.533433       -14.5155
  25   1.0000      -0.530216       -14.4279
  26   1.0000      -0.492113       -13.3911
  27   1.0000      -0.473268       -12.8783
  28   1.0000      -0.457525       -12.4499
  29   1.0000      -0.439546       -11.9607
  30   1.0000      -0.429576       -11.6894
  31   1.0000      -0.423923       -11.5355
  32   1.0000      -0.416977       -11.3465
  33   1.0000      -0.414008       -11.2657
  34   1.0000      -0.405145       -11.0246
  35   1.0000      -0.378183       -10.2909
  36   1.0000      -0.357612        -9.7311
  37   1.0000      -0.348097        -9.4722
  38   1.0000      -0.346799        -9.4369
  39   1.0000      -0.335144        -9.1197
  40   1.0000      -0.329888        -8.9767
  41   1.0000      -0.273742        -7.4489
  42   1.0000      -0.270230        -7.3533
  43   1.0000      -0.267640        -7.2829
  44   1.0000      -0.227265        -6.1842
  45   0.0000      -0.076911        -2.0928
  46   0.0000      -0.063396        -1.7251
  47   0.0000      -0.061049        -1.6612
  48   0.0000      -0.040571        -1.1040
  49   0.0000       0.001411         0.0384

                 SPIN DOWN ORBITALS
  NO   OCC          E(Eh)            E(eV)
   0   1.0000     -14.267237      -388.2313
   1   1.0000     -10.127697      -275.5886
   2   1.0000     -10.127679      -275.5881
   3   1.0000     -10.072575      -274.0887
   4   1.0000     -10.072543      -274.0878
   5   1.0000     -10.072359      -274.0828
   6   1.0000     -10.072353      -274.0827
   7   1.0000     -10.068000      -273.9642
   8   1.0000     -10.067998      -273.9642
   9   1.0000     -10.066055      -273.9113
  10   1.0000     -10.066036      -273.9108
  11   1.0000     -10.065701      -273.9016
  12   1.0000     -10.065697      -273.9015
  13   1.0000      -0.975979       -26.5577
  14   1.0000      -0.854677       -23.2569
  15   1.0000      -0.832769       -22.6608
  16   1.0000      -0.759025       -20.6541
  17   1.0000      -0.746460       -20.3122
  18   1.0000      -0.739849       -20.1323
  19   1.0000      -0.706037       -19.2122
  20   1.0000      -0.627049       -17.0629
  21   1.0000      -0.623744       -16.9729
  22   1.0000      -0.592146       -16.1131
  23   1.0000      -0.575384       -15.6570
  24   1.0000      -0.532198       -14.4819
  25   1.0000      -0.527135       -14.3441
  26   1.0000      -0.489226       -13.3125
  27   1.0000      -0.470055       -12.7908
  28   1.0000      -0.449447       -12.2301
  29   1.0000      -0.438406       -11.9296
  30   1.0000      -0.423348       -11.5199
  31   1.0000      -0.421926       -11.4812
  32   1.0000      -0.414018       -11.2660
  33   1.0000      -0.413393       -11.2490
  34   1.0000      -0.398026       -10.8308
  35   1.0000      -0.368960       -10.0399
  36   1.0000      -0.356259        -9.6943
  37   1.0000      -0.345874        -9.4117
  38   1.0000      -0.336779        -9.1642
  39   1.0000      -0.334253        -9.0955
  40   1.0000      -0.321844        -8.7578
  41   1.0000      -0.264314        -7.1923
  42   1.0000      -0.261943        -7.1278
  43   1.0000      -0.260965        -7.1012
  44   0.0000      -0.191435        -5.2092
  45   0.0000      -0.065571        -1.7843
  46   0.0000      -0.057212        -1.5568
  47   0.0000      -0.054285        -1.4772
  48   0.0000      -0.025818        -0.7025

MULLIKEN ATOMIC CHARGES AND SPIN POPULATIONS
--------------------------------------------
   0 C :   -0.738943    0.172142
   1 C :   -0.442066   -0.122314
   2 C :   -0.312819    0.262142
   3 C :   -0.921329   -0.118868
   4 C :   -0.310064    0.173824
   5 C :    1.119224   -0.033060
   6 N :   -0.501441    0.381118
   7 C :    1.111487   -0.032882
   8 C :   -0.302338    0.173623
   9 C :   -0.920968   -0.118797
  10 C :   -0.312605    0.262037
  11 C :   -0.442619   -0.122248
  12 C :   -0.740269    0.172004
  13 H :    0.485190   -0.019856
  14 H :    0.345508   -0.005596
  15 H :    0.521062    0.005783
  16 H :    0.313851   -0.004886
  17 H :    0.703432    0.004982
  18 H :   -0.021875   -0.009586
  19 H :    0.701781    0.004963
  20 H :    0.313824   -0.004884
  21 H :    0.521092    0.005786
  22 H :    0.345490   -0.005604
  23 H :    0.485393   -0.019823
Sum of atomic charges         :    1.0000000

LOEWDIN ATOMIC CHARGES AND SPIN POPULATIONS
-------------------------------------------
   0 C :    0.265583    0.070464
   1 C :    0.230097    0.012660
   2 C :    0.234654    0.100249
   3 C :    0.234989    0.013607
   4 C :    0.251655    0.071549
   5 C :   -0.155880    0.064253
   6 N :    0.624285    0.228119
   7 C :   -0.155944    0.064248
   8 C :    0.251720    0.071506
   9 C :    0.234932    0.013603
  10 C :    0.234640    0.100208
  11 C :    0.230085    0.012659
  12 C :    0.265512    0.070422
  13 H :   -0.140652    0.014256
  14 H :   -0.155488   -0.007482
  15 H :   -0.154020    0.025484
  16 H :   -0.154200   -0.006977
  17 H :   -0.163519    0.015187
  18 H :   -0.210455    0.025488
  19 H :   -0.163651    0.015202
  20 H :   -0.154186   -0.006980
  21 H :   -0.154020    0.025495
  22 H :   -0.155484   -0.007486
  23 H :   -0.140654    0.014264

  Mayer bond orders larger than 0.100000
B(  0-C ,  1-C ) :   1.1830 B(  0-C ,  2-C ) :   0.1502 B(  0-C ,  3-C ) :  -0.1178
B(  0-C ,  4-C ) :   0.1040 B(  0-C ,  5-C ) :   0.2485 B(  0-C ,  6-N ) :   0.1059
B(  0-C , 23-H ) :   0.3636 B(  1-C ,  2-C ) :   0.9524 B(  1-C ,  5-C ) :  -0.2297
B(  1-C , 19-H ) :   0.1002 B(  1-C , 22-H ) :   0.8064 B(  2-C ,  3-C ) :   1.1692
B(  2-C ,  4-C ) :   0.2165 B(  2-C ,  5-C ) :  -0.1293 B(  2-C , 21-H ) :   0.5119
B(  3-C ,  4-C ) :   1.2222 B(  3-C ,  5-C ) :  -0.3619 B(  3-C , 20-H ) :   0.8431
B(  4-C ,  5-C ) :   0.4222 B(  4-C ,  6-N ) :  -0.1748 B(  4-C ,  7-C ) :   0.2015
B(  4-C , 17-H ) :  -0.1341 B(  4-C , 19-H ) :   0.2178 B(  5-C ,  6-N ) :   0.6319
B(  5-C ,  8-C ) :   0.1988 B(  5-C , 17-H ) :  -0.1470 B(  6-N ,  7-C ) :   0.6322
B(  6-N ,  8-C ) :  -0.1764 B(  6-N , 12-C ) :   0.1072 B(  6-N , 18-H ) :   1.2895
B(  7-C ,  8-C ) :   0.4265 B(  7-C ,  9-C ) :  -0.3611 B(  7-C , 10-C ) :  -0.1292
B(  7-C , 11-C ) :  -0.2291 B(  7-C , 12-C ) :   0.2492 B(  7-C , 19-H ) :  -0.1473
B(  8-C ,  9-C ) :   1.2176 B(  8-C , 10-C ) :   0.2155 B(  8-C , 12-C ) :   0.1048
B(  8-C , 17-H ) :   0.2169 B(  8-C , 19-H ) :  -0.1327 B(  9-C , 10-C ) :   1.1690
B(  9-C , 12-C ) :  -0.1169 B(  9-C , 16-H ) :   0.8433 B( 10-C , 11-C ) :   0.9524
B( 10-C , 12-C ) :   0.1504 B( 10-C , 15-H ) :   0.5120 B( 11-C , 12-C ) :   1.1835
B( 11-C , 14-H ) :   0.8063 B( 12-C , 13-H ) :   0.3639

Dispersion correction           -0.008785596
FINAL SINGLE POINT ENERGY      -518.377706928767

DIPOLE MOMENT
-------------

Method             : SCF
Type of density    : Electron Density
Multiplicity       :   2
Irrep              :   0
Energy             :  -518.3689213329017775 Eh
Relativity type    :
Basis              : AO
                                X                 Y                 Z
Electronic contribution:     -0.000945253      -1.449819777       0.003447162
Nuclear contribution   :      0.000010787       0.666083860       0.000129839
                        -----------------------------------------
Total Dipole Moment    :     -0.000934466      -0.783735917       0.003577002
                        -----------------------------------------
Magnitude (a.u.)       :      0.783744637
Magnitude (Debye)      :      1.992120551

Rotational constants in cm-1:             0.083302             0.013962             0.012406
Rotational constants in MHz :          2497.339782           418.559791           371.935015

                             ****ORCA TERMINATED NORMALLY****
TOTAL RUN TIME: 0 days 0 hours 7 minutes 21 seconds 558 msec
