                         Program Version 6.0.0  -   RELEASE  -
|  1> !TPSSh freq aug-cc-pVTZ d3 TightSCF SlowConv RIJCOSX defgrid2
|  2>
|  3> %pal
|  4> nprocs 12
|  5> end
|  6>
|  7> %scf
|  8> MaxIter 1500
|  9> end
| 10>
| 11> %maxcore 5000
| 12>
| 13> !CPCM
| 14> %cpcm smd true
| 15> SMDsolvent "MeCN"
| 16> surfacetype gepol_ses
| 17> rsolv 2.19
| 18> end
| 19>
| 20> * xyz -1 2
| 21> C          -0.02317559164874      1.19955345629001     -0.00029452355426
| 22> C           1.36033914162876      1.22371042580481      0.00019480474341
| 23> C           2.05759391874269      0.01640634718083      0.00009055082932
| 24> C           1.40250281504671     -1.21297986448369     -0.00095325909531
| 25> C           0.01999734783359     -1.23643286485083     -0.00128789828553
| 26> C          -0.75851374148889     -0.03077009740772     -0.00034594540766
| 27> C          -2.18545597333468     -0.08886301016994      0.00158826038445
| 28> O          -2.82847027464417     -1.19699654466855      0.00498861992635
| 29> C          -2.97106955726412      1.21192763178102     -0.00070031781443
| 30> H          -2.75831866679197      1.83229110501637      0.87931928955155
| 31> H          -2.75370179108360      1.83212092300385     -0.87970213854802
| 32> H          -4.03678405993480      0.97896944837066     -0.00334695886410
| 33> H          -0.50624856486234     -2.18289723356302     -0.00191913997553
| 34> H           1.97828826016747     -2.13185234507000     -0.00150524383587
| 35> F           3.43953241014755      0.04125222725706      0.00119665775215
| 36> H           1.90185064885995      2.16272148091842      0.00080152100934
| 37> H          -0.55397452137342      2.14396871459072      0.00016662118414
| 38> *
| 39>
| 40>                          ****END OF INPUT****

CARTESIAN COORDINATES (ANGSTROEM)
---------------------------------
  C     -0.023176    1.199553   -0.000295
  C      1.360339    1.223710    0.000195
  C      2.057594    0.016406    0.000091
  C      1.402503   -1.212980   -0.000953
  C      0.019997   -1.236433   -0.001288
  C     -0.758514   -0.030770   -0.000346
  C     -2.185456   -0.088863    0.001588
  O     -2.828470   -1.196997    0.004989
  C     -2.971070    1.211928   -0.000700
  H     -2.758319    1.832291    0.879319
  H     -2.753702    1.832121   -0.879702
  H     -4.036784    0.978969   -0.003347
  H     -0.506249   -2.182897   -0.001919
  H      1.978288   -2.131852   -0.001505
  F      3.439532    0.041252    0.001197
  H      1.901851    2.162721    0.000802
  H     -0.553975    2.143969    0.000167

 Total Charge           Charge          ....   -1
 Multiplicity           Mult            ....    2
 Number of Electrons    NEL             ....   73
 Basis Dimension        Dim             ....  621

ORBITAL ENERGIES
----------------
                 SPIN UP ORBITALS
  NO   OCC          E(Eh)            E(eV)
   0   1.0000     -24.592027      -669.1831
   1   1.0000     -18.970177      -516.2048
   2   1.0000     -10.162251      -276.5289
   3   1.0000     -10.121806      -275.4284
   4   1.0000     -10.099717      -274.8273
   5   1.0000     -10.099448      -274.8200
   6   1.0000     -10.095928      -274.7242
   7   1.0000     -10.091223      -274.5961
   8   1.0000     -10.083142      -274.3762
   9   1.0000     -10.081711      -274.3373
  10   1.0000      -1.172327       -31.9006
  11   1.0000      -0.926465       -25.2104
  12   1.0000      -0.813607       -22.1394
  13   1.0000      -0.721044       -19.6206
  14   1.0000      -0.712204       -19.3801
  15   1.0000      -0.672560       -18.3013
  16   1.0000      -0.588636       -16.0176
  17   1.0000      -0.573812       -15.6142
  18   1.0000      -0.508016       -13.8238
  19   1.0000      -0.497752       -13.5445
  20   1.0000      -0.442060       -12.0291
  21   1.0000      -0.425865       -11.5884
  22   1.0000      -0.419839       -11.4244
  23   1.0000      -0.406902       -11.0724
  24   1.0000      -0.389701       -10.6043
  25   1.0000      -0.388262       -10.5651
  26   1.0000      -0.369120       -10.0443
  27   1.0000      -0.359853        -9.7921
  28   1.0000      -0.334641        -9.1060
  29   1.0000      -0.333394        -9.0721
  30   1.0000      -0.322555        -8.7772
  31   1.0000      -0.294433        -8.0119
  32   1.0000      -0.293060        -7.9746
  33   1.0000      -0.238643        -6.4938
  34   1.0000      -0.218230        -5.9383
  35   1.0000      -0.185374        -5.0443
  36   1.0000      -0.083181        -2.2635
  37   0.0000      -0.011193        -0.3046
  38   0.0000      -0.002352        -0.0640
  39   0.0000       0.010876         0.2959
  40   0.0000       0.014140         0.3848
  41   0.0000       0.024954         0.6790

                 SPIN DOWN ORBITALS
  NO   OCC          E(Eh)            E(eV)
   0   1.0000     -24.591201      -669.1606
   1   1.0000     -18.964317      -516.0453
   2   1.0000     -10.157410      -276.3972
   3   1.0000     -10.117046      -275.2988
   4   1.0000     -10.101144      -274.8661
   5   1.0000     -10.100705      -274.8542
   6   1.0000     -10.093520      -274.6586
   7   1.0000     -10.088360      -274.5182
   8   1.0000     -10.082234      -274.3515
   9   1.0000     -10.082125      -274.3486
  10   1.0000      -1.170533       -31.8518
  11   1.0000      -0.916071       -24.9276
  12   1.0000      -0.810147       -22.0452
  13   1.0000      -0.715970       -19.4825
  14   1.0000      -0.708493       -19.2791
  15   1.0000      -0.670109       -18.2346
  16   1.0000      -0.581228       -15.8160
  17   1.0000      -0.571736       -15.5577
  18   1.0000      -0.504841       -13.7374
  19   1.0000      -0.494124       -13.4458
  20   1.0000      -0.440754       -11.9935
  21   1.0000      -0.417286       -11.3549
  22   1.0000      -0.415976       -11.3193
  23   1.0000      -0.405389       -11.0312
  24   1.0000      -0.389243       -10.5919
  25   1.0000      -0.378713       -10.3053
  26   1.0000      -0.367238        -9.9931
  27   1.0000      -0.358498        -9.7552
  28   1.0000      -0.332327        -9.0431
  29   1.0000      -0.324302        -8.8247
  30   1.0000      -0.319957        -8.7065
  31   1.0000      -0.293257        -7.9799
  32   1.0000      -0.269726        -7.3396
  33   1.0000      -0.230492        -6.2720
  34   1.0000      -0.198648        -5.4055
  35   1.0000      -0.181454        -4.9376
  36   0.0000      -0.029200        -0.7946
  37   0.0000      -0.005552        -0.1511
  38   0.0000      -0.000089        -0.0024
  39   0.0000       0.012029         0.3273
  40   0.0000       0.016466         0.4481

MULLIKEN ATOMIC CHARGES AND SPIN POPULATIONS
--------------------------------------------
   0 C :   -0.396986    0.209271
   1 C :   -0.699688   -0.076448
   2 C :    0.549098    0.235851
   3 C :   -0.558598   -0.081477
   4 C :   -0.702296    0.244365
   5 C :    1.258347    0.011072
   6 C :    0.613654    0.252460
   7 O :   -1.198383    0.225209
   8 C :   -0.299997   -0.028407
   9 H :    0.167430    0.010352
  10 H :    0.168657    0.010208
  11 H :   -0.055552    0.000251
  12 H :    0.093219   -0.017062
  13 H :    0.273238   -0.004711
  14 F :   -0.568141    0.013907
  15 H :    0.254601   -0.002525
  16 H :    0.101398   -0.002317
Sum of atomic charges         :   -1.0000000

LOEWDIN ATOMIC CHARGES AND SPIN POPULATIONS
-------------------------------------------
   0 C :    0.152168    0.085987
   1 C :    0.140849    0.025846
   2 C :   -0.561107    0.126981
   3 C :    0.134521    0.025511
   4 C :    0.142235    0.096130
   5 C :   -0.209155    0.114996
   6 C :   -0.660225    0.196318
   7 O :    0.313463    0.204984
   8 C :    0.498692    0.037752
   9 H :   -0.186284    0.009693
  10 H :   -0.186511    0.009631
  11 H :   -0.208159   -0.000696
  12 H :   -0.222707    0.022589
  13 H :   -0.195978   -0.005370
  14 F :    0.455648    0.035037
  15 H :   -0.195703   -0.004263
  16 H :   -0.211749    0.018875

  Mayer bond orders larger than 0.100000
B(  0-C ,  1-C ) :   1.2414 B(  0-C ,  2-C ) :  -0.1747 B(  0-C ,  4-C ) :  -0.2371
B(  0-C ,  5-C ) :   0.3860 B(  0-C ,  6-C ) :   0.1472 B(  0-C , 16-H ) :   1.1337
B(  1-C ,  2-C ) :   1.3637 B(  1-C ,  3-C ) :   0.2521 B(  1-C , 14-F ) :   0.2007
B(  1-C , 15-H ) :   0.6336 B(  2-C ,  3-C ) :   1.3975 B(  2-C ,  4-C ) :  -0.2245
B(  3-C ,  4-C ) :   1.5232 B(  3-C , 13-H ) :   0.6221 B(  3-C , 14-F ) :   0.1986
B(  4-C ,  5-C ) :   0.2604 B(  4-C ,  6-C ) :   0.2903 B(  4-C , 12-H ) :   0.9795
B(  5-C ,  6-C ) :   0.5919 B(  5-C ,  7-O ) :   0.2424 B(  6-C ,  7-O ) :   0.2777
B(  6-C ,  8-C ) :   1.0257 B(  7-O , 12-H ) :   0.1546 B(  8-C ,  9-H ) :   0.9580
B(  8-C , 10-H ) :   0.9578 B(  8-C , 11-H ) :   1.0518 B( 12-H , 16-H ) :   0.1231
B( 13-H , 14-F ) :   0.1526 B( 14-F , 15-H ) :   0.1353

Dispersion correction           -0.020424670
FINAL SINGLE POINT ENERGY      -484.441471941499

DIPOLE MOMENT
-------------

Method             : SCF
Type of density    : Electron Density
Multiplicity       :   2
Irrep              :   0
Energy             :  -484.4210472718870051 Eh
Relativity type    :
Basis              : AO
                                X                 Y                 Z
Electronic contribution:     11.338729313      -2.810556699       0.005868967
Nuclear contribution   :     -9.546609319       4.321160149      -0.009941526
                        -----------------------------------------
Total Dipole Moment    :      1.792119994       1.510603450      -0.004072559
                        -----------------------------------------
Magnitude (a.u.)       :      2.343850132
Magnitude (Debye)      :      5.957593578

VIBRATIONAL FREQUENCIES
-----------------------

Scaling factor for frequencies =  1.000000000  (already applied!)

     0:       0.00 cm**-1
     1:       0.00 cm**-1
     2:       0.00 cm**-1
     3:       0.00 cm**-1
     4:       0.00 cm**-1
     5:       0.00 cm**-1
     6:      89.99 cm**-1
     7:      92.57 cm**-1
     8:     117.89 cm**-1
     9:     176.68 cm**-1
    10:     250.24 cm**-1
    11:     324.03 cm**-1
    12:     350.46 cm**-1
    13:     370.13 cm**-1
    14:     438.85 cm**-1
    15:     457.30 cm**-1
    16:     524.25 cm**-1
    17:     534.10 cm**-1
    18:     626.57 cm**-1
    19:     669.41 cm**-1
    20:     670.90 cm**-1
    21:     761.63 cm**-1
    22:     778.35 cm**-1
    23:     785.72 cm**-1
    24:     923.60 cm**-1
    25:     938.98 cm**-1
    26:     943.22 cm**-1
    27:     986.80 cm**-1
    28:     998.88 cm**-1
    29:    1060.28 cm**-1
    30:    1090.01 cm**-1
    31:    1141.25 cm**-1
    32:    1184.65 cm**-1
    33:    1269.49 cm**-1
    34:    1302.33 cm**-1
    35:    1334.08 cm**-1
    36:    1368.92 cm**-1
    37:    1406.77 cm**-1
    38:    1445.11 cm**-1
    39:    1468.07 cm**-1
    40:    1487.41 cm**-1
    41:    1495.28 cm**-1
    42:    1524.31 cm**-1
    43:    1606.94 cm**-1
    44:    2975.33 cm**-1
    45:    3011.05 cm**-1
    46:    3092.78 cm**-1
    47:    3160.57 cm**-1
    48:    3160.69 cm**-1
    49:    3177.40 cm**-1
    50:    3180.35 cm**-1

IR SPECTRUM
-----------

 Mode   freq       eps      Int      T**2         TX        TY        TZ
       cm**-1   L/(mol*cm) km/mol    a.u.
----------------------------------------------------------------------------
  6:     89.99   0.000256    1.29  0.000887  ( 0.000272 -0.000204  0.029780)
  7:     92.57   0.000328    1.66  0.001105  ( 0.000050  0.000325 -0.033246)
  8:    117.89   0.001066    5.39  0.002823  (-0.000158  0.000342 -0.053131)
  9:    176.68   0.001457    7.36  0.002573  ( 0.048956 -0.013276 -0.000322)
 10:    250.24   0.000005    0.02  0.000006  ( 0.000266  0.000081  0.002464)
 11:    324.03   0.000275    1.39  0.000265  ( 0.005625 -0.015281 -0.000375)
 12:    350.46   0.001713    8.66  0.001525  (-0.000137 -0.000019  0.039056)
 13:    370.13   0.001035    5.23  0.000873  ( 0.022942  0.018610  0.000030)
 14:    438.85   0.000213    1.08  0.000152  (-0.000014  0.000123  0.012314)
 15:    457.30   0.000163    0.82  0.000111  ( 0.009118 -0.005272  0.000050)
 16:    524.25   0.007079   35.78  0.004214  (-0.000285 -0.000101 -0.064914)
 17:    534.10   0.010594   53.54  0.006190  ( 0.071667 -0.032461  0.000199)
 18:    626.57   0.000084    0.42  0.000042  ( 0.000796  0.006415 -0.000158)
 19:    669.41   0.002922   14.77  0.001362  ( 0.000284  0.000099  0.036908)
 20:    670.90   0.019015   96.09  0.008844  (-0.092324 -0.017909 -0.000097)
 21:    761.63   0.020082  101.49  0.008228  ( 0.000268 -0.000152 -0.090709)
 22:    778.35   0.005865   29.64  0.002352  (-0.001699 -0.000319 -0.048462)
 23:    785.72   0.034425  173.97  0.013673  (-0.116849 -0.004326  0.000399)
 24:    923.60   0.000417    2.11  0.000141  (-0.000334  0.000282 -0.011868)
 25:    938.98   0.025107  126.88  0.008344  ( 0.091194 -0.005258 -0.000191)
 26:    943.22   0.000108    0.55  0.000036  (-0.005553  0.000325 -0.002220)
 27:    986.80   0.009260   46.79  0.002928  ( 0.053723 -0.006489 -0.000166)
 28:    998.88   0.000171    0.87  0.000054  ( 0.000337 -0.000071  0.007306)
 29:   1060.28   0.000957    4.83  0.000282  ( 0.005179 -0.015960 -0.000053)
 30:   1090.01   0.014339   72.46  0.004105  ( 0.029428  0.056914 -0.000018)
 31:   1141.25   0.002823   14.26  0.000772  ( 0.027764  0.000993  0.000170)
 32:   1184.65   0.040787  206.12  0.010744  ( 0.103604  0.003226  0.000100)
 33:   1269.49   0.013968   70.59  0.003434  (-0.043945 -0.038760  0.000174)
 34:   1302.33   0.005329   26.93  0.001277  ( 0.029918  0.019542 -0.000083)
 35:   1334.08   0.023624  119.39  0.005526  (-0.015452  0.072714 -0.000086)
 36:   1368.92   0.008137   41.12  0.001855  (-0.028169 -0.032579 -0.000031)
 37:   1406.77   0.012448   62.91  0.002761  (-0.029972 -0.043163  0.000101)
 38:   1445.11   0.107694  544.24  0.023256  (-0.142367 -0.054658  0.000252)
 39:   1468.07   0.001441    7.28  0.000306  (-0.000359 -0.000019 -0.017499)
 40:   1487.41   0.041573  210.09  0.008722  ( 0.090073  0.024674 -0.000213)
 41:   1495.28   0.002244   11.34  0.000468  ( 0.020165  0.007859 -0.000030)
 42:   1524.31   0.046072  232.83  0.009432  (-0.081833 -0.052301  0.000314)
 43:   1606.94   0.004638   23.44  0.000901  (-0.015509 -0.025693 -0.000026)
 44:   2975.33   0.031693  160.16  0.003324  ( 0.039230 -0.042249 -0.000303)
 45:   3011.05   0.019966  100.90  0.002069  ( 0.000021 -0.000007  0.045489)
 46:   3092.78   0.009578   48.40  0.000966  (-0.028398 -0.012648 -0.000060)
 47:   3160.57   0.005217   26.36  0.000515  ( 0.022280 -0.004321  0.000053)
 48:   3160.69   0.001701    8.60  0.000168  ( 0.011880 -0.005178 -0.000006)
 49:   3177.40   0.009360   47.30  0.000919  ( 0.002544  0.030212 -0.000010)
 50:   3180.35   0.002174   10.99  0.000213  (-0.008996  0.011508  0.000037)

--------------------------
THERMOCHEMISTRY AT 298.15K
--------------------------

Temperature         ...   298.15 K
Pressure            ...     1.00 atm
Total Mass          ...   138.14 AMU
Quasi RRHO          ...     True
Cut-Off Frequency   ...     1.00 cm^-1

Throughout the following assumptions are being made:
  (1) The electronic state is orbitally nondegenerate
      but the spin degeneracy is treated
  (2) There are no thermally accessible electronically excited states
  (3) Hindered rotations indicated by low frequency modes are not
      treated as such but are treated as vibrations and this may
      cause some error
  (4) All equations used are the standard statistical mechanics
      equations for an ideal gas
  (5) All vibrations are strictly harmonic

freq.      89.99  E(vib)   ...       0.47
freq.      92.57  E(vib)   ...       0.47
freq.     117.89  E(vib)   ...       0.44
freq.     176.68  E(vib)   ...       0.38
freq.     250.24  E(vib)   ...       0.31
freq.     324.03  E(vib)   ...       0.25
freq.     350.46  E(vib)   ...       0.23
freq.     370.13  E(vib)   ...       0.21
freq.     438.85  E(vib)   ...       0.17
freq.     457.30  E(vib)   ...       0.16
freq.     524.25  E(vib)   ...       0.13
freq.     534.10  E(vib)   ...       0.13
freq.     626.57  E(vib)   ...       0.09
freq.     669.41  E(vib)   ...       0.08
freq.     670.90  E(vib)   ...       0.08
freq.     761.63  E(vib)   ...       0.06
freq.     778.35  E(vib)   ...       0.05
freq.     785.72  E(vib)   ...       0.05
freq.     923.60  E(vib)   ...       0.03
freq.     938.98  E(vib)   ...       0.03
freq.     943.22  E(vib)   ...       0.03
freq.     986.80  E(vib)   ...       0.02
freq.     998.88  E(vib)   ...       0.02
freq.    1060.28  E(vib)   ...       0.02
freq.    1090.01  E(vib)   ...       0.02
freq.    1141.25  E(vib)   ...       0.01
freq.    1184.65  E(vib)   ...       0.01
freq.    1269.49  E(vib)   ...       0.01
freq.    1302.33  E(vib)   ...       0.01
freq.    1334.08  E(vib)   ...       0.01
freq.    1368.92  E(vib)   ...       0.01
freq.    1406.77  E(vib)   ...       0.00
freq.    1445.11  E(vib)   ...       0.00
freq.    1468.07  E(vib)   ...       0.00
freq.    1487.41  E(vib)   ...       0.00
freq.    1495.28  E(vib)   ...       0.00
freq.    1524.31  E(vib)   ...       0.00
freq.    1606.94  E(vib)   ...       0.00
freq.    2975.33  E(vib)   ...       0.00
freq.    3011.05  E(vib)   ...       0.00
freq.    3092.78  E(vib)   ...       0.00
freq.    3160.57  E(vib)   ...       0.00
freq.    3160.69  E(vib)   ...       0.00
freq.    3177.40  E(vib)   ...       0.00
freq.    3180.35  E(vib)   ...       0.00

------------
INNER ENERGY
------------

The inner energy is: U= E(el) + E(ZPE) + E(vib) + E(rot) + E(trans)
    E(el)   - is the total energy from the electronic structure calculation
              = E(kin-el) + E(nuc-el) + E(el-el) + E(nuc-nuc)
    E(ZPE)  - the the zero temperature vibrational energy from the frequency calculation
    E(vib)  - the the finite temperature correction to E(ZPE) due to population
              of excited vibrational states
    E(rot)  - is the rotational thermal energy
    E(trans)- is the translational thermal energy

Summary of contributions to the inner energy U:
Electronic energy                ...   -484.44147194 Eh
Zero point energy                ...      0.12473790 Eh      78.27 kcal/mol
Thermal vibrational correction   ...      0.00636231 Eh       3.99 kcal/mol
Thermal rotational correction    ...      0.00141627 Eh       0.89 kcal/mol
Thermal translational correction ...      0.00141627 Eh       0.89 kcal/mol
-----------------------------------------------------------------------
Total thermal energy                   -484.30753919 Eh

Summary of corrections to the electronic energy:
(perhaps to be used in another calculation)
Total thermal correction                  0.00919485 Eh       5.77 kcal/mol
Non-thermal (ZPE) correction              0.12473790 Eh      78.27 kcal/mol
-----------------------------------------------------------------------
Total correction                          0.13393275 Eh      84.04 kcal/mol

--------
ENTHALPY
--------

The enthalpy is H = U + kB*T
                kB is Boltzmann's constant
Total thermal energy              ...   -484.30753919 Eh
Thermal Enthalpy correction       ...      0.00094421 Eh       0.59 kcal/mol
-----------------------------------------------------------------------
Total Enthalpy                    ...   -484.30659498 Eh

Note: Only C1 symmetry has been detected, increase convergence thresholds
      if your molecule has a higher symmetry. Symmetry factor of 1.0 is
      used for the rotational entropy correction.

Note: Rotational entropy computed according to Herzberg
Infrared and Raman Spectra, Chapter V,1, Van Nostrand Reinhold, 1945
Point Group:  C1, Symmetry Number:   1
Rotational constants in cm-1:     0.120386     0.025495     0.021121

Vibrational entropy computed according to the QRRHO of S. Grimme
Chem.Eur.J. 2012 18 9955 using a reference frequency of 100.0 cm-1

-------
ENTROPY
-------

The entropy contributions are T*S = T*(S(el)+S(vib)+S(rot)+S(trans))
     S(el)   - electronic entropy
     S(vib)  - vibrational entropy
     S(rot)  - rotational entropy
     S(trans)- translational entropy
The entropies will be listed as multiplied by the temperature to get
units of energy

Electronic entropy                ...      0.00065446 Eh      0.41 kcal/mol
Vibrational entropy               ...      0.01074776 Eh      6.74 kcal/mol
Rotational entropy                ...      0.01406356 Eh      8.82 kcal/mol
Translational entropy             ...      0.01932885 Eh     12.13 kcal/mol
-----------------------------------------------------------------------
Final entropy term                ...      0.04479462 Eh     28.11 kcal/mol

In case the symmetry of your molecule has not been determined correctly
or in case you have a reason to use a different symmetry number we print
out the resulting rotational entropy values for sn=1,12:

 non-linear molecules -----------------------------------
|  sn= 1 | S(rot)=       0.01406356 Eh      8.82 kcal/mol|
|  sn= 2 | S(rot)=       0.01340911 Eh      8.41 kcal/mol|
|  sn= 3 | S(rot)=       0.01302627 Eh      8.17 kcal/mol|
|  sn= 4 | S(rot)=       0.01275465 Eh      8.00 kcal/mol|
|  sn= 5 | S(rot)=       0.01254396 Eh      7.87 kcal/mol|
|  sn= 6 | S(rot)=       0.01237182 Eh      7.76 kcal/mol|
|  sn= 7 | S(rot)=       0.01222627 Eh      7.67 kcal/mol|
|  sn= 8 | S(rot)=       0.01210019 Eh      7.59 kcal/mol|
|  sn= 9 | S(rot)=       0.01198899 Eh      7.52 kcal/mol|
|  sn=10 | S(rot)=       0.01188951 Eh      7.46 kcal/mol|
|  sn=11 | S(rot)=       0.01179952 Eh      7.40 kcal/mol|
|  sn=12 | S(rot)=       0.01171736 Eh      7.35 kcal/mol|
 linear molecules ---------------------------------------
|  Dinfh | S(rot)=       0.00896796 Eh      5.63 kcal/mol|

                             ****ORCA TERMINATED NORMALLY****
TOTAL RUN TIME: 0 days 0 hours 55 minutes 59 seconds 325 msec
