                         Program Version 6.0.0  -   RELEASE  -
|  1> !B3LYP aug-cc-pVTZ d3 TightSCF SlowConv RIJCOSX defgrid2
|  2>
|  3> %pal
|  4> nprocs 4
|  5> end
|  6>
|  7> %scf
|  8> MaxIter 1500
|  9> end
| 10>
| 11> %maxcore 3000
| 12>
| 13> !CPCM
| 14> %cpcm smd true
| 15> SMDsolvent "MeCN"
| 16> surfacetype gepol_ses
| 17> rsolv 2.19
| 18> end
| 19>
| 20> * xyz 0 1
| 21> C           0.69340039581910     -1.21642473703122     -0.00210106158208
| 22> C          -0.69454855654644     -1.22021347444475     -0.00107333204799
| 23> C          -1.36154262322334      0.00187791219067      0.00026242389151
| 24> C          -0.68604253118331      1.21670210566519      0.00055618520570
| 25> C           0.70509440805818      1.20392227540601     -0.00053641990430
| 26> C           1.40455093160228     -0.00927557523456     -0.00186311158295
| 27> C           2.90624055769532     -0.08463588452950     -0.00286199019476
| 28> O           3.45693707307488     -1.16143789750676     -0.00328851772908
| 29> C           3.69101592073766      1.20331719293128     -0.00349620755262
| 30> H           3.45502261169039      1.81064521986950      0.88792921534318
| 31> H           4.76399312425029      0.96314274578425     -0.00608195367514
| 32> H           3.45097324706094      1.81300927441323     -0.89217068832087
| 33> H           1.24208602358160      2.15534045576678     -0.00026184416090
| 34> H          -1.25661571978578      2.14643950150070      0.00165091333299
| 35> N          -2.83358313105393      0.00969549364775      0.00154754521515
| 36> O          -3.38285340798047      1.08799719381857      0.00256173004398
| 37> O          -3.39352955523644     -1.06261620732784      0.00148372469125
| 38> H          -1.27233938255821     -2.14567385267397     -0.00122499566180
| 39> H           1.26268251399728     -2.14919824224534     -0.00306631531128
| 40> *
| 41>
| 42>                          ****END OF INPUT****

CARTESIAN COORDINATES (ANGSTROEM)
---------------------------------
  C      0.693400   -1.216425   -0.002101
  C     -0.694549   -1.220213   -0.001073
  C     -1.361543    0.001878    0.000262
  C     -0.686043    1.216702    0.000556
  C      0.705094    1.203922   -0.000536
  C      1.404551   -0.009276   -0.001863
  C      2.906241   -0.084636   -0.002862
  O      3.456937   -1.161438   -0.003289
  C      3.691016    1.203317   -0.003496
  H      3.455023    1.810645    0.887929
  H      4.763993    0.963143   -0.006082
  H      3.450973    1.813009   -0.892171
  H      1.242086    2.155340   -0.000262
  H     -1.256616    2.146440    0.001651
  N     -2.833583    0.009695    0.001548
  O     -3.382853    1.087997    0.002562
  O     -3.393530   -1.062616    0.001484
  H     -1.272339   -2.145674   -0.001225
  H      1.262683   -2.149198   -0.003066

 Total Charge           Charge          ....    0
 Multiplicity           Mult            ....    1
 Number of Electrons    NEL             ....   86
 Basis Dimension        Dim             ....  713

ORBITAL ENERGIES
----------------

  NO   OCC          E(Eh)            E(eV)
   0   2.0000     -19.173790      -521.7454
   1   2.0000     -19.173625      -521.7409
   2   2.0000     -19.126076      -520.4470
   3   2.0000     -14.566723      -396.3807
   4   2.0000     -10.272017      -279.5158
   5   2.0000     -10.243118      -278.7294
   6   2.0000     -10.205050      -277.6935
   7   2.0000     -10.203519      -277.6519
   8   2.0000     -10.202922      -277.6356
   9   2.0000     -10.200741      -277.5763
  10   2.0000     -10.196942      -277.4729
  11   2.0000     -10.170344      -276.7491
  12   2.0000      -1.255411       -34.1615
  13   2.0000      -1.080716       -29.4078
  14   2.0000      -1.057040       -28.7635
  15   2.0000      -0.893207       -24.3054
  16   2.0000      -0.817985       -22.2585
  17   2.0000      -0.771794       -21.0016
  18   2.0000      -0.747385       -20.3374
  19   2.0000      -0.705681       -19.2026
  20   2.0000      -0.630446       -17.1553
  21   2.0000      -0.613047       -16.6818
  22   2.0000      -0.572103       -15.5677
  23   2.0000      -0.560202       -15.2439
  24   2.0000      -0.556161       -15.1339
  25   2.0000      -0.533305       -14.5120
  26   2.0000      -0.493234       -13.4216
  27   2.0000      -0.482175       -13.1207
  28   2.0000      -0.459867       -12.5136
  29   2.0000      -0.446618       -12.1531
  30   2.0000      -0.442101       -12.0302
  31   2.0000      -0.431011       -11.7284
  32   2.0000      -0.417629       -11.3643
  33   2.0000      -0.392422       -10.6784
  34   2.0000      -0.380643       -10.3578
  35   2.0000      -0.366304        -9.9676
  36   2.0000      -0.362303        -9.8588
  37   2.0000      -0.334306        -9.0969
  38   2.0000      -0.326916        -8.8958
  39   2.0000      -0.312960        -8.5161
  40   2.0000      -0.284412        -7.7392
  41   2.0000      -0.277769        -7.5585
  42   2.0000      -0.265994        -7.2381
  43   0.0000      -0.108153        -2.9430
  44   0.0000      -0.049457        -1.3458
  45   0.0000      -0.032060        -0.8724
  46   0.0000      -0.004866        -0.1324
  47   0.0000       0.008657         0.2356

MULLIKEN ATOMIC CHARGES
-----------------------
   0 C :   -0.873963
   1 C :   -0.391247
   2 C :    0.490654
   3 C :   -0.615468
   4 C :   -0.372048
   5 C :    1.304954
   6 C :    0.644019
   7 O :   -0.914527
   8 C :   -0.590060
   9 H :    0.258799
  10 H :    0.174060
  11 H :    0.258436
  12 H :    0.095201
  13 H :    0.475449
  14 N :    0.781287
  15 O :   -0.688956
  16 O :   -0.688911
  17 H :    0.514652
  18 H :    0.137667
Sum of atomic charges:   -0.0000000

LOEWDIN ATOMIC CHARGES
----------------------
   0 C :    0.216601
   1 C :    0.220864
   2 C :   -0.226272
   3 C :    0.224057
   4 C :    0.232612
   5 C :   -0.109345
   6 C :   -0.533719
   7 O :    0.498753
   8 C :    0.567835
   9 H :   -0.152277
  10 H :   -0.172286
  11 H :   -0.152390
  12 H :   -0.163817
  13 H :   -0.181163
  14 N :   -0.748283
  15 O :    0.419296
  16 O :    0.419525
  17 H :   -0.182100
  18 H :   -0.177892

  Mayer bond orders larger than 0.100000
B(  0-C ,  1-C ) :   1.3124 B(  0-C ,  2-C ) :  -0.3183 B(  0-C ,  4-C ) :  -0.3504
B(  0-C ,  5-C ) :   0.3719 B(  0-C ,  6-C ) :   0.2817 B(  0-C , 18-H ) :   1.1227
B(  1-C ,  2-C ) :   0.9944 B(  1-C ,  5-C ) :   0.1919 B(  1-C , 14-N ) :  -0.1205
B(  1-C , 17-H ) :   0.4454 B(  2-C ,  3-C ) :   0.8724 B(  2-C ,  4-C ) :  -0.2528
B(  2-C , 14-N ) :   1.1249 B(  2-C , 15-O ) :   0.4295 B(  2-C , 16-O ) :   0.4330
B(  3-C ,  4-C ) :   0.9629 B(  3-C ,  5-C ) :   0.2284 B(  3-C , 13-H ) :   0.4837
B(  3-C , 14-N ) :  -0.1945 B(  4-C ,  5-C ) :   0.5229 B(  4-C ,  6-C ) :   0.1501
B(  4-C , 12-H ) :   1.2783 B(  5-C ,  6-C ) :   0.2256 B(  5-C ,  7-O ) :   0.1712
B(  5-C , 12-H ) :  -0.1749 B(  5-C , 18-H ) :  -0.1178 B(  6-C ,  7-O ) :   0.8791
B(  6-C ,  8-C ) :   0.9403 B(  7-O , 18-H ) :   0.1523 B(  8-C ,  9-H ) :   0.9529
B(  8-C , 10-H ) :   0.9683 B(  8-C , 11-H ) :   0.9536 B( 14-N , 15-O ) :   0.8647
B( 14-N , 16-O ) :   0.8699 B( 15-O , 16-O ) :   0.1832

Dispersion correction           -0.035919415
FINAL SINGLE POINT ENERGY      -589.351468810309

DIPOLE MOMENT
-------------

Method             : SCF
Type of density    : Electron Density
Multiplicity       :   1
Irrep              :   0
Energy             :  -589.3155493953966015 Eh
Relativity type    :
Basis              : AO
                                X                 Y                 Z
Electronic contribution:     -9.500059020      -2.966063860       0.006372976
Nuclear contribution   :     10.904698351       4.303144091      -0.007859468
                        -----------------------------------------
Total Dipole Moment    :      1.404639332       1.337080231      -0.001486492
                        -----------------------------------------
Magnitude (a.u.)       :      1.939277548
Magnitude (Debye)      :      4.929251793

Rotational constants in cm-1:             0.096505             0.015902             0.013688
Rotational constants in MHz :          2893.160990           476.718240           410.340998

                             ****ORCA TERMINATED NORMALLY****
TOTAL RUN TIME: 0 days 0 hours 5 minutes 39 seconds 203 msec
