                         Program Version 6.0.0  -   RELEASE  -
|  1> !r2SCAN freq aug-cc-pVTZ d3 TightSCF SlowConv RIJCOSX defgrid2
|  2>
|  3> %pal
|  4> nprocs 12
|  5> end
|  6>
|  7> %scf
|  8> MaxIter 1500
|  9> end
| 10>
| 11> %maxcore 5000
| 12>
| 13> !CPCM
| 14> %cpcm smd true
| 15> SMDsolvent "MeCN"
| 16> surfacetype gepol_ses
| 17> rsolv 2.19
| 18> end
| 19>
| 20> * xyz 1 2
| 21> C           1.35794743520226     -0.82343888149801      0.62503760179032
| 22> C           2.62204331912480     -1.37307199623954      0.64438113329288
| 23> C           3.70270383764418     -0.68068705785656      0.08692020761960
| 24> C           3.52324007079477      0.59024413297470     -0.47563343780460
| 25> C           2.27340518345818      1.16739244083210     -0.49151833267991
| 26> C           1.19323039834760      0.43962597955069      0.03135934728270
| 27> O           0.00003211824627      1.08120388224264     -0.00076687011237
| 28> C          -1.19323879973706      0.43958560398753     -0.03220584762976
| 29> C          -2.27316379728189      1.16730127356112      0.49116060629424
| 30> C          -3.52298315014212      0.59004715952487      0.47604715363499
| 31> C          -3.70269109288860     -0.68092930740974     -0.08628673734290
| 32> C          -2.62227913460788     -1.37327206027011     -0.64424697036890
| 33> C          -1.35819304380854     -0.82351032694728     -0.62564656217702
| 34> H          -0.52538189795899     -1.31860043211393     -1.10576384382373
| 35> H          -2.78080278528441     -2.33252724969744     -1.11891466447988
| 36> H          -4.69109841631453     -1.12097691071492     -0.11285256134953
| 37> H          -4.36662162926436      1.12022838265468      0.89754597610327
| 38> H          -2.09413528429913      2.14499850675855      0.91871836965091
| 39> H           2.09450056697748      2.14501886710762     -0.91928894401230
| 40> H           4.36709812494520      1.12043478066670     -0.89667689047034
| 41> H           4.69112624309043     -1.12066773457928      0.11405827295894
| 42> H           2.78043761217983     -2.33224411125622      1.11926027373183
| 43> H           0.52485492157650     -1.31839924127816      1.10477831989159
| 44> *
| 45>
| 46>                          ****END OF INPUT****

CARTESIAN COORDINATES (ANGSTROEM)
---------------------------------
  C      1.357947   -0.823439    0.625038
  C      2.622043   -1.373072    0.644381
  C      3.702704   -0.680687    0.086920
  C      3.523240    0.590244   -0.475633
  C      2.273405    1.167392   -0.491518
  C      1.193230    0.439626    0.031359
  O      0.000032    1.081204   -0.000767
  C     -1.193239    0.439586   -0.032206
  C     -2.273164    1.167301    0.491161
  C     -3.522983    0.590047    0.476047
  C     -3.702691   -0.680929   -0.086287
  C     -2.622279   -1.373272   -0.644247
  C     -1.358193   -0.823510   -0.625647
  H     -0.525382   -1.318600   -1.105764
  H     -2.780803   -2.332527   -1.118915
  H     -4.691098   -1.120977   -0.112853
  H     -4.366622    1.120228    0.897546
  H     -2.094135    2.144999    0.918718
  H      2.094501    2.145019   -0.919289
  H      4.367098    1.120435   -0.896677
  H      4.691126   -1.120668    0.114058
  H      2.780438   -2.332244    1.119260
  H      0.524855   -1.318399    1.104778

 Total Charge           Charge          ....    1
 Multiplicity           Mult            ....    2
 Number of Electrons    NEL             ....   89
 Basis Dimension        Dim             ....  828

ORBITAL ENERGIES
----------------
                 SPIN UP ORBITALS
  NO   OCC          E(Eh)            E(eV)
   0   1.0000     -19.088037      -519.4119
   1   1.0000     -10.155997      -276.3587
   2   1.0000     -10.155954      -276.3576
   3   1.0000     -10.080944      -274.3164
   4   1.0000     -10.080925      -274.3159
   5   1.0000     -10.079730      -274.2834
   6   1.0000     -10.079692      -274.2824
   7   1.0000     -10.076869      -274.2056
   8   1.0000     -10.076848      -274.2050
   9   1.0000     -10.070317      -274.0273
  10   1.0000     -10.070298      -274.0267
  11   1.0000     -10.070211      -274.0244
  12   1.0000     -10.070197      -274.0240
  13   1.0000      -1.130398       -30.7597
  14   1.0000      -0.873087       -23.7579
  15   1.0000      -0.854913       -23.2634
  16   1.0000      -0.779956       -21.2237
  17   1.0000      -0.759208       -20.6591
  18   1.0000      -0.752375       -20.4732
  19   1.0000      -0.730103       -19.8671
  20   1.0000      -0.655029       -17.8242
  21   1.0000      -0.625049       -17.0085
  22   1.0000      -0.606480       -16.5031
  23   1.0000      -0.582583       -15.8529
  24   1.0000      -0.552912       -15.0455
  25   1.0000      -0.509359       -13.8604
  26   1.0000      -0.490840       -13.3564
  27   1.0000      -0.490643       -13.3511
  28   1.0000      -0.484171       -13.1749
  29   1.0000      -0.442818       -12.0497
  30   1.0000      -0.440469       -11.9858
  31   1.0000      -0.427233       -11.6256
  32   1.0000      -0.426639       -11.6094
  33   1.0000      -0.416924       -11.3451
  34   1.0000      -0.411596       -11.2001
  35   1.0000      -0.381504       -10.3812
  36   1.0000      -0.366077        -9.9615
  37   1.0000      -0.365061        -9.9338
  38   1.0000      -0.356967        -9.7136
  39   1.0000      -0.340100        -9.2546
  40   1.0000      -0.337701        -9.1893
  41   1.0000      -0.281042        -7.6475
  42   1.0000      -0.276896        -7.5347
  43   1.0000      -0.272822        -7.4239
  44   1.0000      -0.249400        -6.7865
  45   0.0000      -0.082679        -2.2498
  46   0.0000      -0.070228        -1.9110
  47   0.0000      -0.063631        -1.7315
  48   0.0000      -0.057505        -1.5648
  49   0.0000       0.002769         0.0753

                 SPIN DOWN ORBITALS
  NO   OCC          E(Eh)            E(eV)
   0   1.0000     -19.080072      -519.1952
   1   1.0000     -10.154950      -276.3302
   2   1.0000     -10.154910      -276.3292
   3   1.0000     -10.078930      -274.2616
   4   1.0000     -10.078912      -274.2612
   5   1.0000     -10.075832      -274.1773
   6   1.0000     -10.075801      -274.1765
   7   1.0000     -10.075150      -274.1588
   8   1.0000     -10.075130      -274.1582
   9   1.0000     -10.071336      -274.0550
  10   1.0000     -10.071315      -274.0544
  11   1.0000     -10.071074      -274.0479
  12   1.0000     -10.071058      -274.0474
  13   1.0000      -1.119222       -30.4556
  14   1.0000      -0.868451       -23.6318
  15   1.0000      -0.850104       -23.1325
  16   1.0000      -0.775176       -21.0936
  17   1.0000      -0.756771       -20.5928
  18   1.0000      -0.750133       -20.4122
  19   1.0000      -0.720789       -19.6137
  20   1.0000      -0.649463       -17.6728
  21   1.0000      -0.623259       -16.9597
  22   1.0000      -0.603400       -16.4193
  23   1.0000      -0.579121       -15.7587
  24   1.0000      -0.551039       -14.9945
  25   1.0000      -0.507093       -13.7987
  26   1.0000      -0.488096       -13.2818
  27   1.0000      -0.484547       -13.1852
  28   1.0000      -0.473436       -12.8828
  29   1.0000      -0.438769       -11.9395
  30   1.0000      -0.438047       -11.9199
  31   1.0000      -0.425328       -11.5737
  32   1.0000      -0.425041       -11.5659
  33   1.0000      -0.412337       -11.2203
  34   1.0000      -0.405628       -11.0377
  35   1.0000      -0.372537       -10.1373
  36   1.0000      -0.364854        -9.9282
  37   1.0000      -0.356211        -9.6930
  38   1.0000      -0.352756        -9.5990
  39   1.0000      -0.335366        -9.1258
  40   1.0000      -0.335301        -9.1240
  41   1.0000      -0.273420        -7.4401
  42   1.0000      -0.268724        -7.3124
  43   1.0000      -0.261369        -7.1122
  44   0.0000      -0.221000        -6.0137
  45   0.0000      -0.069142        -1.8814
  46   0.0000      -0.062635        -1.7044
  47   0.0000      -0.056082        -1.5261
  48   0.0000      -0.040239        -1.0950

MULLIKEN ATOMIC CHARGES AND SPIN POPULATIONS
--------------------------------------------
   0 C :   -0.298152    0.112228
   1 C :   -0.638976   -0.082490
   2 C :   -0.468387    0.249222
   3 C :   -0.355080   -0.073990
   4 C :   -1.095768    0.093126
   5 C :    1.439448    0.075526
   6 O :   -0.709202    0.232118
   7 C :    1.439141    0.075302
   8 C :   -1.096123    0.092989
   9 C :   -0.355120   -0.073884
  10 C :   -0.468126    0.248870
  11 C :   -0.638464   -0.082459
  12 C :   -0.298493    0.112219
  13 H :    0.558798    0.009189
  14 H :    0.355680    0.000678
  15 H :    0.507524    0.006778
  16 H :    0.357162   -0.001061
  17 H :    0.492181   -0.004980
  18 H :    0.492215   -0.004976
  19 H :    0.357190   -0.001069
  20 H :    0.507688    0.006800
  21 H :    0.355431    0.000665
  22 H :    0.559435    0.009200
Sum of atomic charges         :    1.0000000

LOEWDIN ATOMIC CHARGES AND SPIN POPULATIONS
-------------------------------------------
   0 C :    0.248462    0.066335
   1 C :    0.251584    0.023250
   2 C :    0.258230    0.109391
   3 C :    0.244115    0.025389
   4 C :    0.258582    0.057629
   5 C :   -0.319226    0.085288
   6 O :    0.687016    0.185663
   7 C :   -0.319291    0.085158
   8 C :    0.258529    0.057538
   9 C :    0.244062    0.025358
  10 C :    0.258158    0.109214
  11 C :    0.251531    0.023199
  12 C :    0.248375    0.066258
  13 H :   -0.161364    0.011906
  14 H :   -0.156678   -0.004220
  15 H :   -0.155158    0.026480
  16 H :   -0.158685   -0.003594
  17 H :   -0.153181    0.009561
  18 H :   -0.153172    0.009578
  19 H :   -0.158674   -0.003602
  20 H :   -0.155135    0.026522
  21 H :   -0.156663   -0.004222
  22 H :   -0.161416    0.011921

  Mayer bond orders larger than 0.100000
B(  0-C ,  1-C ) :   1.1029 B(  0-C ,  2-C ) :   0.1325 B(  0-C ,  4-C ) :   0.2722
B(  0-C ,  5-C ) :   0.6916 B(  0-C , 12-C ) :   0.1804 B(  0-C , 13-H ) :  -0.1046
B(  0-C , 22-H ) :   0.3962 B(  1-C ,  2-C ) :   1.1569 B(  1-C ,  3-C ) :  -0.1291
B(  1-C ,  4-C ) :  -0.1612 B(  1-C ,  5-C ) :  -0.3558 B(  1-C , 21-H ) :   0.8280
B(  2-C ,  3-C ) :   1.0753 B(  2-C ,  4-C ) :   0.4040 B(  2-C ,  5-C ) :  -0.1684
B(  2-C , 20-H ) :   0.5300 B(  3-C ,  4-C ) :   1.2716 B(  3-C ,  5-C ) :  -0.3873
B(  3-C , 19-H ) :   0.8226 B(  4-C ,  5-C ) :   0.1613 B(  4-C ,  6-O ) :   0.2426
B(  4-C , 18-H ) :   0.3090 B(  5-C ,  6-O ) :   0.5846 B(  5-C ,  7-C ) :   0.1109
B(  6-O ,  7-C ) :   0.5843 B(  6-O ,  8-C ) :   0.2423 B(  7-C ,  8-C ) :   0.1618
B(  7-C ,  9-C ) :  -0.3873 B(  7-C , 10-C ) :  -0.1679 B(  7-C , 11-C ) :  -0.3553
B(  7-C , 12-C ) :   0.6922 B(  8-C ,  9-C ) :   1.2716 B(  8-C , 10-C ) :   0.4038
B(  8-C , 11-C ) :  -0.1614 B(  8-C , 12-C ) :   0.2718 B(  8-C , 17-H ) :   0.3092
B(  9-C , 10-C ) :   1.0756 B(  9-C , 11-C ) :  -0.1288 B(  9-C , 16-H ) :   0.8225
B( 10-C , 11-C ) :   1.1569 B( 10-C , 12-C ) :   0.1320 B( 10-C , 15-H ) :   0.5305
B( 11-C , 12-C ) :   1.1032 B( 11-C , 14-H ) :   0.8274 B( 12-C , 13-H ) :   0.3973
B( 12-C , 22-H ) :  -0.1047

Dispersion correction           -0.008281893
FINAL SINGLE POINT ENERGY      -538.207912124847

DIPOLE MOMENT
-------------

Method             : SCF
Type of density    : Electron Density
Multiplicity       :   2
Irrep              :   0
Energy             :  -538.1996302316159699 Eh
Relativity type    :
Basis              : AO
                                X                 Y                 Z
Electronic contribution:      0.002244640       2.192481946      -0.001706967
Nuclear contribution   :     -0.000061863      -2.695539367       0.001847712
                        -----------------------------------------
Total Dipole Moment    :      0.002182776      -0.503057421       0.000140746
                        -----------------------------------------
Magnitude (a.u.)       :      0.503062176
Magnitude (Debye)      :      1.278682433

VIBRATIONAL FREQUENCIES
-----------------------

Scaling factor for frequencies =  1.000000000  (already applied!)

     0:       0.00 cm**-1
     1:       0.00 cm**-1
     2:       0.00 cm**-1
     3:       0.00 cm**-1
     4:       0.00 cm**-1
     5:       0.00 cm**-1
     6:      37.24 cm**-1
     7:      49.17 cm**-1
     8:      93.61 cm**-1
     9:     219.33 cm**-1
    10:     226.04 cm**-1
    11:     315.43 cm**-1
    12:     361.61 cm**-1
    13:     390.32 cm**-1
    14:     407.33 cm**-1
    15:     466.08 cm**-1
    16:     478.55 cm**-1
    17:     555.62 cm**-1
    18:     583.30 cm**-1
    19:     599.18 cm**-1
    20:     634.55 cm**-1
    21:     660.77 cm**-1
    22:     661.75 cm**-1
    23:     766.28 cm**-1
    24:     772.56 cm**-1
    25:     803.11 cm**-1
    26:     805.96 cm**-1
    27:     819.93 cm**-1
    28:     886.86 cm**-1
    29:     932.84 cm**-1
    30:     939.99 cm**-1
    31:     990.61 cm**-1
    32:     992.19 cm**-1
    33:     998.36 cm**-1
    34:    1008.70 cm**-1
    35:    1010.07 cm**-1
    36:    1011.70 cm**-1
    37:    1022.38 cm**-1
    38:    1024.22 cm**-1
    39:    1090.13 cm**-1
    40:    1102.40 cm**-1
    41:    1106.93 cm**-1
    42:    1158.03 cm**-1
    43:    1159.28 cm**-1
    44:    1173.51 cm**-1
    45:    1209.33 cm**-1
    46:    1236.04 cm**-1
    47:    1318.49 cm**-1
    48:    1335.35 cm**-1
    49:    1387.59 cm**-1
    50:    1390.49 cm**-1
    51:    1461.90 cm**-1
    52:    1472.54 cm**-1
    53:    1482.74 cm**-1
    54:    1487.94 cm**-1
    55:    1544.96 cm**-1
    56:    1548.79 cm**-1
    57:    1573.02 cm**-1
    58:    1632.61 cm**-1
    59:    3189.88 cm**-1
    60:    3190.06 cm**-1
    61:    3197.12 cm**-1
    62:    3197.63 cm**-1
    63:    3201.92 cm**-1
    64:    3203.10 cm**-1
    65:    3208.36 cm**-1
    66:    3210.01 cm**-1
    67:    3211.40 cm**-1
    68:    3212.97 cm**-1

IR SPECTRUM
-----------

 Mode   freq       eps      Int      T**2         TX        TY        TZ
       cm**-1   L/(mol*cm) km/mol    a.u.
----------------------------------------------------------------------------
  6:     37.24   0.000026    0.13  0.000220  (-0.000858 -0.014790 -0.000171)
  7:     49.17   0.003497   17.67  0.022195  ( 0.142851 -0.000060  0.042292)
  8:     93.61   0.000059    0.30  0.000197  (-0.000144 -0.014049 -0.000018)
  9:    219.33   0.023156  117.02  0.032946  (-0.181314  0.000002 -0.008475)
 10:    226.04   0.000002    0.01  0.000003  (-0.001087 -0.001191 -0.000038)
 11:    315.43   0.000151    0.76  0.000149  (-0.000075  0.012217 -0.000008)
 12:    361.61   0.008877   44.86  0.007661  ( 0.085517 -0.000009  0.018642)
 13:    390.32   0.012283   62.07  0.009820  ( 0.099014  0.000011  0.004080)
 14:    407.33   0.000034    0.17  0.000026  (-0.000318  0.005089 -0.000005)
 15:    466.08   0.001303    6.58  0.000872  (-0.000346  0.029532  0.000001)
 16:    478.55   0.079072  399.60  0.051563  (-0.226498 -0.000077  0.016177)
 17:    555.62   0.070341  355.48  0.039507  (-0.197447  0.000025 -0.022842)
 18:    583.30   0.000193    0.98  0.000103  (-0.000118 -0.010163 -0.000072)
 19:    599.18   0.013186   66.64  0.006868  (-0.080881  0.000017 -0.018053)
 20:    634.55   0.000407    2.06  0.000200  ( 0.000015 -0.014155 -0.000032)
 21:    660.77   0.020854  105.39  0.009849  (-0.003316  0.002585  0.099153)
 22:    661.75   0.005957   30.10  0.002809  ( 0.000046  0.052776 -0.004882)
 23:    766.28   0.001174    5.93  0.000478  (-0.000180  0.021862 -0.000191)
 24:    772.56   0.064459  325.75  0.026037  ( 0.123133  0.000040  0.104285)
 25:    803.11   0.004848   24.50  0.001884  (-0.000373 -0.043403  0.000036)
 26:    805.96   0.024627  124.45  0.009535  (-0.097242  0.000292  0.008897)
 27:    819.93   0.001614    8.15  0.000614  (-0.000190 -0.024781 -0.000015)
 28:    886.86   0.038580  194.97  0.013575  ( 0.116503  0.000015  0.001558)
 29:    932.84   0.012774   64.55  0.004273  ( 0.058020 -0.000021  0.030115)
 30:    939.99   0.001206    6.10  0.000400  ( 0.000020 -0.020011 -0.000022)
 31:    990.61   0.001255    6.34  0.000395  ( 0.019813  0.000003  0.001626)
 32:    992.19   0.000001    0.00  0.000000  ( 0.000187 -0.000445  0.000015)
 33:    998.36   0.200984  1015.69  0.062823  ( 0.250614  0.000014  0.003923)
 34:   1008.70   0.000061    0.31  0.000019  ( 0.000018 -0.004343 -0.000005)
 35:   1010.07   0.000102    0.52  0.000032  (-0.003516 -0.000009 -0.004388)
 36:   1011.70   0.000057    0.29  0.000018  (-0.000284  0.004185 -0.000015)
 37:   1022.38   0.006289   31.78  0.001920  (-0.043815  0.000016 -0.000037)
 38:   1024.22   0.000001    0.00  0.000000  ( 0.000464  0.000093 -0.000003)
 39:   1090.13   0.575852  2910.12  0.164845  (-0.405999  0.000000 -0.003240)
 40:   1102.40   0.044709  225.94  0.012656  (-0.109054 -0.000034 -0.027629)
 41:   1106.93   0.006678   33.75  0.001883  (-0.000049  0.043390 -0.000023)
 42:   1158.03   0.000071    0.36  0.000019  (-0.000024 -0.004378  0.000015)
 43:   1159.28   0.000243    1.23  0.000065  (-0.007532  0.000014  0.002929)
 44:   1173.51   0.000272    1.38  0.000072  (-0.000023  0.008508 -0.000000)
 45:   1209.33   0.070473  356.14  0.018185  (-0.134828  0.000016 -0.002593)
 46:   1236.04   0.001483    7.49  0.000374  ( 0.000343  0.019347  0.000002)
 47:   1318.49   0.000433    2.19  0.000102  (-0.009577 -0.000008  0.003279)
 48:   1335.35   0.000509    2.57  0.000119  (-0.000013  0.010901  0.000001)
 49:   1387.59   0.012949   65.44  0.002912  ( 0.051258 -0.000235 -0.016878)
 50:   1390.49   0.006405   32.37  0.001437  (-0.000339 -0.037912  0.000114)
 51:   1461.90   0.019716   99.64  0.004209  (-0.064710 -0.000038  0.004615)
 52:   1472.54   0.001133    5.72  0.000240  ( 0.006518 -0.000029 -0.014056)
 53:   1482.74   0.000268    1.35  0.000056  (-0.000046  0.007504 -0.000032)
 54:   1487.94   0.009849   49.77  0.002066  (-0.000097  0.045448 -0.000023)
 55:   1544.96   0.036112  182.49  0.007294  (-0.084972 -0.000285  0.008595)
 56:   1548.79   0.001863    9.41  0.000375  (-0.001274  0.019332  0.000113)
 57:   1573.02   0.464519  2347.49  0.092153  ( 0.303410 -0.000011  0.009793)
 58:   1632.61   0.000055    0.28  0.000011  ( 0.000080 -0.003247  0.000005)
 59:   3189.88   0.000413    2.09  0.000040  (-0.006345 -0.000029  0.000428)
 60:   3190.06   0.000010    0.05  0.000001  ( 0.000232 -0.000946 -0.000012)
 61:   3197.12   0.000872    4.41  0.000085  (-0.006369  0.000284  0.006670)
 62:   3197.63   0.001505    7.61  0.000147  ( 0.000117  0.012117 -0.000143)
 63:   3201.92   0.000258    1.31  0.000025  ( 0.005017  0.000100  0.000081)
 64:   3203.10   0.000787    3.98  0.000077  (-0.000113  0.008755 -0.000017)
 65:   3208.36   0.003042   15.37  0.000296  (-0.017192  0.000021 -0.000561)
 66:   3210.01   0.000173    0.87  0.000017  ( 0.000105  0.004096 -0.000003)
 67:   3211.40   0.034082  172.24  0.003312  (-0.057538 -0.000019 -0.001126)
 68:   3212.97   0.000002    0.01  0.000000  ( 0.000347  0.000201  0.000010)

--------------------------
THERMOCHEMISTRY AT 298.15K
--------------------------

Temperature         ...   298.15 K
Pressure            ...     1.00 atm
Total Mass          ...   170.21 AMU
Quasi RRHO          ...     True
Cut-Off Frequency   ...     1.00 cm^-1

Throughout the following assumptions are being made:
  (1) The electronic state is orbitally nondegenerate
      but the spin degeneracy is treated
  (2) There are no thermally accessible electronically excited states
  (3) Hindered rotations indicated by low frequency modes are not
      treated as such but are treated as vibrations and this may
      cause some error
  (4) All equations used are the standard statistical mechanics
      equations for an ideal gas
  (5) All vibrations are strictly harmonic

freq.      37.24  E(vib)   ...       0.54
freq.      49.17  E(vib)   ...       0.52
freq.      93.61  E(vib)   ...       0.47
freq.     219.33  E(vib)   ...       0.33
freq.     226.04  E(vib)   ...       0.33
freq.     315.43  E(vib)   ...       0.25
freq.     361.61  E(vib)   ...       0.22
freq.     390.32  E(vib)   ...       0.20
freq.     407.33  E(vib)   ...       0.19
freq.     466.08  E(vib)   ...       0.16
freq.     478.55  E(vib)   ...       0.15
freq.     555.62  E(vib)   ...       0.12
freq.     583.30  E(vib)   ...       0.11
freq.     599.18  E(vib)   ...       0.10
freq.     634.55  E(vib)   ...       0.09
freq.     660.77  E(vib)   ...       0.08
freq.     661.75  E(vib)   ...       0.08
freq.     766.28  E(vib)   ...       0.06
freq.     772.56  E(vib)   ...       0.05
freq.     803.11  E(vib)   ...       0.05
freq.     805.96  E(vib)   ...       0.05
freq.     819.93  E(vib)   ...       0.05
freq.     886.86  E(vib)   ...       0.04
freq.     932.84  E(vib)   ...       0.03
freq.     939.99  E(vib)   ...       0.03
freq.     990.61  E(vib)   ...       0.02
freq.     992.19  E(vib)   ...       0.02
freq.     998.36  E(vib)   ...       0.02
freq.    1008.70  E(vib)   ...       0.02
freq.    1010.07  E(vib)   ...       0.02
freq.    1011.70  E(vib)   ...       0.02
freq.    1022.38  E(vib)   ...       0.02
freq.    1024.22  E(vib)   ...       0.02
freq.    1090.13  E(vib)   ...       0.02
freq.    1102.40  E(vib)   ...       0.02
freq.    1106.93  E(vib)   ...       0.02
freq.    1158.03  E(vib)   ...       0.01
freq.    1159.28  E(vib)   ...       0.01
freq.    1173.51  E(vib)   ...       0.01
freq.    1209.33  E(vib)   ...       0.01
freq.    1236.04  E(vib)   ...       0.01
freq.    1318.49  E(vib)   ...       0.01
freq.    1335.35  E(vib)   ...       0.01
freq.    1387.59  E(vib)   ...       0.00
freq.    1390.49  E(vib)   ...       0.00
freq.    1461.90  E(vib)   ...       0.00
freq.    1472.54  E(vib)   ...       0.00
freq.    1482.74  E(vib)   ...       0.00
freq.    1487.94  E(vib)   ...       0.00
freq.    1544.96  E(vib)   ...       0.00
freq.    1548.79  E(vib)   ...       0.00
freq.    1573.02  E(vib)   ...       0.00
freq.    1632.61  E(vib)   ...       0.00
freq.    3189.88  E(vib)   ...       0.00
freq.    3190.06  E(vib)   ...       0.00
freq.    3197.12  E(vib)   ...       0.00
freq.    3197.63  E(vib)   ...       0.00
freq.    3201.92  E(vib)   ...       0.00
freq.    3203.10  E(vib)   ...       0.00
freq.    3208.36  E(vib)   ...       0.00
freq.    3210.01  E(vib)   ...       0.00
freq.    3211.40  E(vib)   ...       0.00
freq.    3212.97  E(vib)   ...       0.00

------------
INNER ENERGY
------------

The inner energy is: U= E(el) + E(ZPE) + E(vib) + E(rot) + E(trans)
    E(el)   - is the total energy from the electronic structure calculation
              = E(kin-el) + E(nuc-el) + E(el-el) + E(nuc-nuc)
    E(ZPE)  - the the zero temperature vibrational energy from the frequency calculation
    E(vib)  - the the finite temperature correction to E(ZPE) due to population
              of excited vibrational states
    E(rot)  - is the rotational thermal energy
    E(trans)- is the translational thermal energy

Summary of contributions to the inner energy U:
Electronic energy                ...   -538.20791212 Eh
Zero point energy                ...      0.18321057 Eh     114.97 kcal/mol
Thermal vibrational correction   ...      0.00735184 Eh       4.61 kcal/mol
Thermal rotational correction    ...      0.00141627 Eh       0.89 kcal/mol
Thermal translational correction ...      0.00141627 Eh       0.89 kcal/mol
-----------------------------------------------------------------------
Total thermal energy                   -538.01451717 Eh

Summary of corrections to the electronic energy:
(perhaps to be used in another calculation)
Total thermal correction                  0.01018438 Eh       6.39 kcal/mol
Non-thermal (ZPE) correction              0.18321057 Eh     114.97 kcal/mol
-----------------------------------------------------------------------
Total correction                          0.19339496 Eh     121.36 kcal/mol

--------
ENTHALPY
--------

The enthalpy is H = U + kB*T
                kB is Boltzmann's constant
Total thermal energy              ...   -538.01451717 Eh
Thermal Enthalpy correction       ...      0.00094421 Eh       0.59 kcal/mol
-----------------------------------------------------------------------
Total Enthalpy                    ...   -538.01357296 Eh

Note: Only C1 symmetry has been detected, increase convergence thresholds
      if your molecule has a higher symmetry. Symmetry factor of 1.0 is
      used for the rotational entropy correction.

Note: Rotational entropy computed according to Herzberg
Infrared and Raman Spectra, Chapter V,1, Van Nostrand Reinhold, 1945
Point Group:  C1, Symmetry Number:   1
Rotational constants in cm-1:     0.082193     0.014758     0.013283

Vibrational entropy computed according to the QRRHO of S. Grimme
Chem.Eur.J. 2012 18 9955 using a reference frequency of 100.0 cm-1

-------
ENTROPY
-------

The entropy contributions are T*S = T*(S(el)+S(vib)+S(rot)+S(trans))
     S(el)   - electronic entropy
     S(vib)  - vibrational entropy
     S(rot)  - rotational entropy
     S(trans)- translational entropy
The entropies will be listed as multiplied by the temperature to get
units of energy

Electronic entropy                ...      0.00065446 Eh      0.41 kcal/mol
Vibrational entropy               ...      0.01225110 Eh      7.69 kcal/mol
Rotational entropy                ...      0.01472075 Eh      9.24 kcal/mol
Translational entropy             ...      0.01962451 Eh     12.31 kcal/mol
-----------------------------------------------------------------------
Final entropy term                ...      0.04725082 Eh     29.65 kcal/mol

In case the symmetry of your molecule has not been determined correctly

                             ****ORCA TERMINATED NORMALLY****
TOTAL RUN TIME: 0 days 2 hours 21 minutes 57 seconds 138 msec
