                         Program Version 6.0.0  -   RELEASE  -
|  1> !r2SCAN aug-cc-pVTZ d3 TightSCF SlowConv RIJCOSX defgrid2
|  2>
|  3> %pal
|  4> nprocs 4
|  5> end
|  6>
|  7> %scf
|  8> MaxIter 1500
|  9> end
| 10>
| 11> %maxcore 3000
| 12>
| 13> !CPCM
| 14> %cpcm smd true
| 15> SMDsolvent "MeCN"
| 16> surfacetype gepol_ses
| 17> rsolv 2.19
| 18> end
| 19>
| 20> * xyz 1 2
| 21> C          -1.44785730295075      0.00004383668014      0.19466020963487
| 22> C          -0.70463361625558     -1.25916288948137     -0.22052956548119
| 23> C           0.75402143901141     -1.23290095960195      0.33947310722511
| 24> N           1.35243621618336     -0.00003237928940     -0.05272629159437
| 25> H           2.03239855808840     -0.00001354242890     -0.81929831940591
| 26> C           0.75406824525088      1.23284300442693      0.33954722989484
| 27> C          -0.70453653205886      1.25917936755808     -0.22058410201994
| 28> H          -1.17735315978030      2.17530279259209      0.17075301961950
| 29> H          -0.65902932856967      1.35407679956949     -1.31943227945387
| 30> H           1.35320797568110      2.07738723598631     -0.02945728358028
| 31> H           0.70381655246538      1.26167123212667      1.44376020833185
| 32> H           1.35302530838177     -2.07746967992292     -0.02968877997992
| 33> H           0.70390247903722     -1.26179946828858      1.44369537598949
| 34> H          -1.17752329445998     -2.17518232566056      0.17094554694672
| 35> H          -0.65911553793050     -1.35406143771193     -1.31937325462627
| 36> H          -2.44852309487375      0.00006008079951     -0.27520329299314
| 37> H          -1.61728600722014      0.00008813264640      1.28682627149251
| 38> *
| 39>
| 40>                          ****END OF INPUT****

CARTESIAN COORDINATES (ANGSTROEM)
---------------------------------
  C     -1.447857    0.000044    0.194660
  C     -0.704634   -1.259163   -0.220530
  C      0.754021   -1.232901    0.339473
  N      1.352436   -0.000032   -0.052726
  H      2.032399   -0.000014   -0.819298
  C      0.754068    1.232843    0.339547
  C     -0.704537    1.259179   -0.220584
  H     -1.177353    2.175303    0.170753
  H     -0.659029    1.354077   -1.319432
  H      1.353208    2.077387   -0.029457
  H      0.703817    1.261671    1.443760
  H      1.353025   -2.077470   -0.029689
  H      0.703902   -1.261799    1.443695
  H     -1.177523   -2.175182    0.170946
  H     -0.659116   -1.354061   -1.319373
  H     -2.448523    0.000060   -0.275203
  H     -1.617286    0.000088    1.286826

 Total Charge           Charge          ....    1
 Multiplicity           Mult            ....    2
 Number of Electrons    NEL             ....   47
 Basis Dimension        Dim             ....  529

ORBITAL ENERGIES
----------------
                 SPIN UP ORBITALS
  NO   OCC          E(Eh)            E(eV)
   0   1.0000     -14.290944      -388.8763
   1   1.0000     -10.100558      -274.8502
   2   1.0000     -10.100546      -274.8498
   3   1.0000     -10.061133      -273.7773
   4   1.0000     -10.061131      -273.7773
   5   1.0000     -10.046474      -273.3785
   6   1.0000      -0.977591       -26.6016
   7   1.0000      -0.781807       -21.2741
   8   1.0000      -0.760590       -20.6967
   9   1.0000      -0.644632       -17.5413
  10   1.0000      -0.630170       -17.1478
  11   1.0000      -0.571822       -15.5601
  12   1.0000      -0.524974       -14.2853
  13   1.0000      -0.469799       -12.7839
  14   1.0000      -0.457186       -12.4407
  15   1.0000      -0.439354       -11.9554
  16   1.0000      -0.416770       -11.3409
  17   1.0000      -0.404328       -11.0023
  18   1.0000      -0.380549       -10.3553
  19   1.0000      -0.344867        -9.3843
  20   1.0000      -0.344070        -9.3626
  21   1.0000      -0.319873        -8.7042
  22   1.0000      -0.311708        -8.4820
  23   1.0000      -0.271078        -7.3764
  24   0.0000       0.005762         0.1568
  25   0.0000       0.019105         0.5199
  26   0.0000       0.025885         0.7044
  27   0.0000       0.027886         0.7588
  28   0.0000       0.042765         1.1637

                 SPIN DOWN ORBITALS
  NO   OCC          E(Eh)            E(eV)
   0   1.0000     -14.271225      -388.3398
   1   1.0000     -10.100659      -274.8529
   2   1.0000     -10.100647      -274.8526
   3   1.0000     -10.058986      -273.7189
   4   1.0000     -10.058983      -273.7189
   5   1.0000     -10.046569      -273.3810
   6   1.0000      -0.945476       -25.7277
   7   1.0000      -0.773986       -21.0612
   8   1.0000      -0.756655       -20.5896
   9   1.0000      -0.634821       -17.2744
  10   1.0000      -0.625751       -17.0275
  11   1.0000      -0.564950       -15.3731
  12   1.0000      -0.515817       -14.0361
  13   1.0000      -0.463858       -12.6222
  14   1.0000      -0.440231       -11.9793
  15   1.0000      -0.431066       -11.7299
  16   1.0000      -0.413463       -11.2509
  17   1.0000      -0.393589       -10.7101
  18   1.0000      -0.373027       -10.1506
  19   1.0000      -0.340899        -9.2763
  20   1.0000      -0.324619        -8.8333
  21   1.0000      -0.318134        -8.6569
  22   1.0000      -0.310067        -8.4374
  23   0.0000      -0.190722        -5.1898
  24   0.0000       0.008983         0.2445
  25   0.0000       0.022040         0.5997
  26   0.0000       0.027499         0.7483
  27   0.0000       0.029134         0.7928

MULLIKEN ATOMIC CHARGES AND SPIN POPULATIONS
--------------------------------------------
   0 C :   -0.132395   -0.007809
   1 C :   -0.262506    0.106710
   2 C :   -0.138123   -0.069266
   3 N :   -0.025405    0.777550
   4 H :    0.128416   -0.006631
   5 C :   -0.138130   -0.069266
   6 C :   -0.262516    0.106706
   7 H :    0.201574    0.022716
   8 H :    0.117477    0.007514
   9 H :    0.270947   -0.001095
  10 H :    0.185866    0.040874
  11 H :    0.270970   -0.001123
  12 H :    0.185813    0.040910
  13 H :    0.201589    0.022722
  14 H :    0.117435    0.007497
  15 H :    0.154540    0.017811
  16 H :    0.124446    0.004179
Sum of atomic charges         :    1.0000000

LOEWDIN ATOMIC CHARGES AND SPIN POPULATIONS
-------------------------------------------
   0 C :    0.292752    0.017392
   1 C :    0.337247    0.058905
   2 C :    0.296444    0.100443
   3 N :    0.696421    0.501058
   4 H :   -0.148151    0.067571
   5 C :    0.296451    0.100439
   6 C :    0.337242    0.058909
   7 H :   -0.115111    0.012896
   8 H :   -0.118232    0.006123
   9 H :   -0.101036    0.003252
  10 H :   -0.101561    0.019469
  11 H :   -0.101040    0.003252
  12 H :   -0.101554    0.019476
  13 H :   -0.115110    0.012893
  14 H :   -0.118235    0.006124
  15 H :   -0.116096    0.010238
  16 H :   -0.120430    0.001561

  Mayer bond orders larger than 0.100000
B(  0-C ,  1-C ) :   0.9130 B(  0-C ,  6-C ) :   0.9130 B(  0-C , 15-H ) :   0.9739
B(  0-C , 16-H ) :   0.9865 B(  1-C ,  2-C ) :   0.8480 B(  1-C ,  3-N ) :   0.1316
B(  1-C ,  6-C ) :   0.1226 B(  1-C , 13-H ) :   0.9088 B(  1-C , 14-H ) :   1.0323
B(  2-C ,  3-N ) :   0.9004 B(  2-C , 11-H ) :   0.9154 B(  2-C , 12-H ) :   0.9272
B(  3-N ,  4-H ) :   0.8968 B(  3-N ,  5-C ) :   0.9005 B(  3-N ,  6-C ) :   0.1316
B(  5-C ,  6-C ) :   0.8481 B(  5-C ,  9-H ) :   0.9154 B(  5-C , 10-H ) :   0.9271
B(  6-C ,  7-H ) :   0.9088 B(  6-C ,  8-H ) :   1.0322

Dispersion correction           -0.004144211
FINAL SINGLE POINT ENERGY      -251.661369986098

DIPOLE MOMENT
-------------

Method             : SCF
Type of density    : Electron Density
Multiplicity       :   2
Irrep              :   0
Energy             :  -251.6572257752652320 Eh
Relativity type    :
Basis              : AO
                                X                 Y                 Z
Electronic contribution:      2.921467216      -0.000109445      -0.268528847
Nuclear contribution   :     -1.624364743       0.000100191       0.049600711
                        -----------------------------------------
Total Dipole Moment    :      1.297102473      -0.000009254      -0.218928136
                        -----------------------------------------
Magnitude (a.u.)       :      1.315448347
Magnitude (Debye)      :      3.343603977

Rotational constants in cm-1:             0.150674             0.148298             0.085270
Rotational constants in MHz :          4517.103915          4445.872601          2556.320795

                             ****ORCA TERMINATED NORMALLY****
TOTAL RUN TIME: 0 days 0 hours 2 minutes 37 seconds 536 msec
