                         Program Version 6.0.0  -   RELEASE  -
|  1> !PBE0 aug-cc-pVTZ d3 TightSCF SlowConv RIJCOSX defgrid2
|  2>
|  3> %pal
|  4> nprocs 4
|  5> end
|  6>
|  7> %scf
|  8> MaxIter 1500
|  9> end
| 10>
| 11> %maxcore 3000
| 12>
| 13> !CPCM
| 14> %cpcm smd true
| 15> SMDsolvent "MeCN"
| 16> surfacetype gepol_ses
| 17> rsolv 2.19
| 18> end
| 19>
| 20> * xyz 0 1
| 21> C          -1.20884186796781     -0.02278058914418      0.00003742233159
| 22> C          -1.20709913160620      1.38045218788773      0.00016703364523
| 23> C           0.00003556987027      2.07238258705511      0.00002257197541
| 24> C           1.20714414585697      1.38040506278913     -0.00023783478174
| 25> C           1.20883517896309     -0.02282737272555     -0.00031075934043
| 26> C          -0.00001674938231     -0.72722788932514     -0.00021243594479
| 27> H          -0.00003875372447     -1.81890955720448     -0.00030359455707
| 28> C           2.45039282749013     -0.73822162648839     -0.00031862016213
| 29> N           3.45665781045797     -1.31294485312421      0.00119491286029
| 30> H           2.15765649045058      1.91893621365633     -0.00034701835738
| 31> H           0.00005970442079      3.16546819660540      0.00011390445176
| 32> H          -2.15759482922730      1.91901494079977      0.00036663554396
| 33> C          -2.45042247590246     -0.73813543850926      0.00010406543100
| 34> N          -3.45670371969924     -1.31283236227226     -0.00021618309569
| 35> *
| 36>
| 37>                          ****END OF INPUT****

CARTESIAN COORDINATES (ANGSTROEM)
---------------------------------
  C     -1.208842   -0.022781    0.000037
  C     -1.207099    1.380452    0.000167
  C      0.000036    2.072383    0.000023
  C      1.207144    1.380405   -0.000238
  C      1.208835   -0.022827   -0.000311
  C     -0.000017   -0.727228   -0.000212
  H     -0.000039   -1.818910   -0.000304
  C      2.450393   -0.738222   -0.000319
  N      3.456658   -1.312945    0.001195
  H      2.157656    1.918936   -0.000347
  H      0.000060    3.165468    0.000114
  H     -2.157595    1.919015    0.000367
  C     -2.450422   -0.738135    0.000104
  N     -3.456704   -1.312832   -0.000216

 Total Charge           Charge          ....    0
 Multiplicity           Mult            ....    1
 Number of Electrons    NEL             ....   66
 Basis Dimension        Dim             ....  552

ORBITAL ENERGIES
----------------

  NO   OCC          E(Eh)            E(eV)
   0   2.0000     -14.403748      -391.9459
   1   2.0000     -14.403746      -391.9458
   2   2.0000     -10.293485      -280.1000
   3   2.0000     -10.293465      -280.0994
   4   2.0000     -10.288001      -279.9508
   5   2.0000     -10.287994      -279.9506
   6   2.0000     -10.277347      -279.6608
   7   2.0000     -10.269390      -279.4443
   8   2.0000     -10.269362      -279.4435
   9   2.0000     -10.257051      -279.1086
  10   2.0000      -0.958520       -26.0827
  11   2.0000      -0.953721       -25.9521
  12   2.0000      -0.920433       -25.0463
  13   2.0000      -0.831892       -22.6369
  14   2.0000      -0.812292       -22.1036
  15   2.0000      -0.690433       -18.7876
  16   2.0000      -0.685938       -18.6653
  17   2.0000      -0.615734       -16.7550
  18   2.0000      -0.527976       -14.3670
  19   2.0000      -0.525598       -14.3022
  20   2.0000      -0.512465       -13.9449
  21   2.0000      -0.465861       -12.6767
  22   2.0000      -0.445198       -12.1144
  23   2.0000      -0.416442       -11.3319
  24   2.0000      -0.412789       -11.2325
  25   2.0000      -0.406125       -11.0512
  26   2.0000      -0.399700       -10.8764
  27   2.0000      -0.396650       -10.7934
  28   2.0000      -0.369004       -10.0411
  29   2.0000      -0.367794       -10.0082
  30   2.0000      -0.367746       -10.0069
  31   2.0000      -0.296641        -8.0720
  32   2.0000      -0.293038        -7.9740
  33   0.0000      -0.073243        -1.9930
  34   0.0000      -0.057415        -1.5623
  35   0.0000      -0.001232        -0.0335
  36   0.0000       0.009079         0.2470
  37   0.0000       0.016065         0.4372

MULLIKEN ATOMIC CHARGES
-----------------------
   0 C :    1.115241
   1 C :   -0.780233
   2 C :   -0.582635
   3 C :   -0.779783
   4 C :    1.114554
   5 C :   -0.901424
   6 H :    0.153675
   7 C :    0.514131
   8 N :   -0.799473
   9 H :    0.271452
  10 H :    0.687981
  11 H :    0.272325
  12 C :    0.513706
  13 N :   -0.799518
Sum of atomic charges:    0.0000000

LOEWDIN ATOMIC CHARGES
----------------------
   0 C :   -0.182986
   1 C :    0.226966
   2 C :    0.238576
   3 C :    0.226968
   4 C :   -0.182993
   5 C :    0.218710
   6 H :   -0.138585
   7 C :   -0.236220
   8 N :    0.249767
   9 H :   -0.142320
  10 H :   -0.149109
  11 H :   -0.142319
  12 C :   -0.236220
  13 N :    0.249765

  Mayer bond orders larger than 0.100000
B(  0-C ,  1-C ) :   0.6008 B(  0-C ,  4-C ) :   0.1929 B(  0-C ,  5-C ) :   0.6747
B(  0-C , 12-C ) :   0.7329 B(  1-C ,  2-C ) :   1.3149 B(  1-C ,  3-C ) :  -0.1851
B(  1-C ,  5-C ) :  -0.1801 B(  1-C , 11-H ) :   0.9831 B(  1-C , 12-C ) :   0.2698
B(  1-C , 13-N ) :   0.1074 B(  2-C ,  3-C ) :   1.3184 B(  2-C , 10-H ) :   0.3125
B(  3-C ,  4-C ) :   0.5975 B(  3-C ,  5-C ) :  -0.1800 B(  3-C ,  7-C ) :   0.2693
B(  3-C ,  8-N ) :   0.1060 B(  3-C ,  9-H ) :   0.9836 B(  4-C ,  5-C ) :   0.6755
B(  4-C ,  7-C ) :   0.7361 B(  5-C ,  6-H ) :   1.1140 B(  7-C ,  8-N ) :   1.7513
B(  7-C , 12-C ) :   0.1702 B( 12-C , 13-N ) :   1.7509

Dispersion correction           -0.014198031
FINAL SINGLE POINT ENERGY      -416.406539677684

DIPOLE MOMENT
-------------

Method             : SCF
Type of density    : Electron Density
Multiplicity       :   1
Irrep              :   0
Energy             :  -416.3923416467833931 Eh
Relativity type    :
Basis              : AO
                                X                 Y                 Z
Electronic contribution:     -0.000042513      -2.456999364      -0.000665739
Nuclear contribution   :      0.000083993       4.864690658      -0.000287721
                        -----------------------------------------
Total Dipole Moment    :      0.000041480       2.407691294      -0.000953460
                        -----------------------------------------
Magnitude (a.u.)       :      2.407691483
Magnitude (Debye)      :      6.119865397

Rotational constants in cm-1:             0.090653             0.030186             0.022645
Rotational constants in MHz :          2717.694225           904.950181           678.890264

                             ****ORCA TERMINATED NORMALLY****
TOTAL RUN TIME: 0 days 0 hours 3 minutes 25 seconds 55 msec
