                         Program Version 6.0.0  -   RELEASE  -
|  1> !B3LYP aug-cc-pVTZ d3 TightSCF SlowConv RIJCOSX defgrid2
|  2>
|  3> %pal
|  4> nprocs 4
|  5> end
|  6>
|  7> %scf
|  8> MaxIter 1500
|  9> end
| 10>
| 11> %maxcore 3000
| 12>
| 13> !CPCM
| 14> %cpcm smd true
| 15> SMDsolvent "MeCN"
| 16> surfacetype gepol_ses
| 17> rsolv 2.19
| 18> end
| 19>
| 20> * xyz 0 1
| 21> C           0.42903816797988     -1.14370342260353     -0.19375133840947
| 22> N           1.23090536349830     -0.00018108549555      0.21241157549017
| 23> H           1.32661660064153     -0.00085078462932      1.22885627448115
| 24> C           0.42918767964663      1.14398838233565     -0.19235272832111
| 25> C          -1.04960974603338      0.77261574951429      0.06492785280490
| 26> C          -1.04906283726916     -0.77294678133786      0.06683505909787
| 27> H          -1.38035607535846     -1.16390392177494      1.04420027054079
| 28> H          -1.72458244369567     -1.20024957174541     -0.69292350481507
| 29> H          -1.38487048878375      1.16593613289024      1.03994785440171
| 30> H          -1.72261217593395      1.19722636930467     -0.69855684493278
| 31> H           0.59041632586080      1.31476098653939     -1.27323726969509
| 32> H           0.75473592936517      2.05790809606369      0.33083351670359
| 33> H           0.58863701367587     -1.31196075363090     -1.27529624277050
| 34> H           0.75559928640620     -2.05873729543043      0.32686602542384
| 35> *
| 36>
| 37>                          ****END OF INPUT****

CARTESIAN COORDINATES (ANGSTROEM)
---------------------------------
  C      0.429038   -1.143703   -0.193751
  N      1.230905   -0.000181    0.212412
  H      1.326617   -0.000851    1.228856
  C      0.429188    1.143988   -0.192353
  C     -1.049610    0.772616    0.064928
  C     -1.049063   -0.772947    0.066835
  H     -1.380356   -1.163904    1.044200
  H     -1.724582   -1.200250   -0.692924
  H     -1.384870    1.165936    1.039948
  H     -1.722612    1.197226   -0.698557
  H      0.590416    1.314761   -1.273237
  H      0.754736    2.057908    0.330834
  H      0.588637   -1.311961   -1.275296
  H      0.755599   -2.058737    0.326866

 Total Charge           Charge          ....    0
 Multiplicity           Mult            ....    1
 Number of Electrons    NEL             ....   40
 Basis Dimension        Dim             ....  437

ORBITAL ENERGIES
----------------

  NO   OCC          E(Eh)            E(eV)
   0   2.0000     -14.295293      -388.9947
   1   2.0000     -10.181200      -277.0445
   2   2.0000     -10.181187      -277.0442
   3   2.0000     -10.156473      -276.3717
   4   2.0000     -10.156295      -276.3668
   5   2.0000      -0.913898       -24.8684
   6   2.0000      -0.744090       -20.2477
   7   2.0000      -0.707056       -19.2400
   8   2.0000      -0.589470       -16.0403
   9   2.0000      -0.563040       -15.3211
  10   2.0000      -0.495382       -13.4800
  11   2.0000      -0.457365       -12.4455
  12   2.0000      -0.420392       -11.4394
  13   2.0000      -0.416920       -11.3450
  14   2.0000      -0.363582        -9.8936
  15   2.0000      -0.344002        -9.3608
  16   2.0000      -0.330730        -8.9996
  17   2.0000      -0.330631        -8.9969
  18   2.0000      -0.306320        -8.3354
  19   2.0000      -0.232404        -6.3240
  20   0.0000      -0.003474        -0.0945
  21   0.0000       0.012629         0.3436
  22   0.0000       0.016621         0.4523
  23   0.0000       0.017366         0.4726
  24   0.0000       0.037548         1.0217

MULLIKEN ATOMIC CHARGES
-----------------------
   0 C :   -0.219226
   1 N :   -0.431506
   2 H :    0.005673
   3 C :   -0.218233
   4 C :   -0.365326
   5 C :   -0.364195
   6 H :    0.147156
   7 H :    0.214146
   8 H :    0.148656
   9 H :    0.211863
  10 H :    0.180116
  11 H :    0.255961
  12 H :    0.179040
  13 H :    0.255876
Sum of atomic charges:   -0.0000000

LOEWDIN ATOMIC CHARGES
----------------------
   0 C :    0.145150
   1 N :    0.533256
   2 H :   -0.291638
   3 C :    0.145368
   4 C :    0.296235
   5 C :    0.296062
   6 H :   -0.144492
   7 H :   -0.142413
   8 H :   -0.144538
   9 H :   -0.142502
  10 H :   -0.141521
  11 H :   -0.133813
  12 H :   -0.141394
  13 H :   -0.133760

  Mayer bond orders larger than 0.100000
B(  0-C ,  1-N ) :   0.8525 B(  0-C ,  5-C ) :   0.9685 B(  0-C , 12-H ) :   1.0157
B(  0-C , 13-H ) :   0.9293 B(  1-N ,  2-H ) :   0.9580 B(  1-N ,  3-C ) :   0.8500
B(  3-C ,  4-C ) :   0.9693 B(  3-C , 10-H ) :   1.0155 B(  3-C , 11-H ) :   0.9290
B(  4-C ,  5-C ) :   0.9774 B(  4-C ,  8-H ) :   1.0306 B(  4-C ,  9-H ) :   0.9205
B(  5-C ,  6-H ) :   1.0318 B(  5-C ,  7-H ) :   0.9181

Dispersion correction           -0.017813562
FINAL SINGLE POINT ENERGY      -212.545572426339

DIPOLE MOMENT
-------------

Method             : SCF
Type of density    : Electron Density
Multiplicity       :   1
Irrep              :   0
Energy             :  -212.5277588640265094 Eh
Relativity type    :
Basis              : AO
                                X                 Y                 Z
Electronic contribution:      1.453754057      -0.000973720       0.335562889
Nuclear contribution   :     -2.069088816       0.000471850       0.035748568
                        -----------------------------------------
Total Dipole Moment    :     -0.615334759      -0.000501870       0.371311457
                        -----------------------------------------
Magnitude (a.u.)       :      0.718685825
Magnitude (Debye)      :      1.826754193

Rotational constants in cm-1:             0.230180             0.223654             0.130688
Rotational constants in MHz :          6900.610800          6704.969164          3917.942142

                             ****ORCA TERMINATED NORMALLY****
TOTAL RUN TIME: 0 days 0 hours 1 minutes 48 seconds 917 msec
