                         Program Version 6.0.0  -   RELEASE  -
|  1> !r2SCANh freq aug-cc-pVTZ d3 TightSCF SlowConv RIJCOSX defgrid2
|  2>
|  3> %pal
|  4> nprocs 12
|  5> end
|  6>
|  7> %scf
|  8> MaxIter 1500
|  9> end
| 10>
| 11> %maxcore 5000
| 12>
| 13> !CPCM
| 14> %cpcm smd true
| 15> SMDsolvent "MeCN"
| 16> surfacetype gepol_ses
| 17> rsolv 2.19
| 18> end
| 19>
| 20> * xyz 0 1
| 21> C           2.39303218422259     -0.83801680496958      0.66449664026850
| 22> C           1.26994227546464     -0.39204875017666     -0.03612101746583
| 23> C           1.38140205078485      0.77477595333735     -0.79714020789237
| 24> C           2.58368861782968      1.46071328465902     -0.87269786805436
| 25> C           3.69493333630937      1.00278220671020     -0.17635760501201
| 26> C           3.59381649105927     -0.14789150325697      0.59464158590189
| 27> H           4.44970135094662     -0.50399240683227      1.15244959775291
| 28> H           4.63042141785125      1.54333740438399     -0.22800548892324
| 29> H           2.65280470967855      2.35575765206393     -1.47644219234774
| 30> H           0.52225510474896      1.13830147597441     -1.34493045526765
| 31> C          -0.00000760643737     -1.15135405484078      0.00023588052031
| 32> C           0.00004481427364     -2.48982884270035      0.00018251782105
| 33> H          -0.92116345250492     -3.05214644585745      0.06615986493306
| 34> H           0.92129638634075     -3.05206592950224     -0.06586847363833
| 35> C          -1.27002353440194     -0.39216716184482      0.03649981401211
| 36> C          -2.39288633121781     -0.83796038938601     -0.66457531003831
| 37> C          -3.59360568384781     -0.14766666370430     -0.59518995765781
| 38> C          -3.69489920323589      1.00297787945243      0.17582342750021
| 39> C          -2.58392869303192      1.46063986803482      0.87277833160925
| 40> C          -1.38173865801673      0.77450874676271      0.79767498152260
| 41> H          -0.52286670834046      1.13771380899483      1.34608777880034
| 42> H          -2.65316712628601      2.35564233702626      1.47656328644676
| 43> H          -4.63031329008910      1.54370610543397      0.22701857117753
| 44> H          -4.44928282866343     -0.50358752628736     -1.15342232951177
| 45> H          -2.31543814957870     -1.72240466795561     -1.28271601928101
| 46> H           2.31575242614193     -1.72251957551950      1.28257814682389
| 47> *
| 48>
| 49>                          ****END OF INPUT****

CARTESIAN COORDINATES (ANGSTROEM)
---------------------------------
  C      2.393032   -0.838017    0.664497
  C      1.269942   -0.392049   -0.036121
  C      1.381402    0.774776   -0.797140
  C      2.583689    1.460713   -0.872698
  C      3.694933    1.002782   -0.176358
  C      3.593816   -0.147892    0.594642
  H      4.449701   -0.503992    1.152450
  H      4.630421    1.543337   -0.228005
  H      2.652805    2.355758   -1.476442
  H      0.522255    1.138301   -1.344930
  C     -0.000008   -1.151354    0.000236
  C      0.000045   -2.489829    0.000183
  H     -0.921163   -3.052146    0.066160
  H      0.921296   -3.052066   -0.065868
  C     -1.270024   -0.392167    0.036500
  C     -2.392886   -0.837960   -0.664575
  C     -3.593606   -0.147667   -0.595190
  C     -3.694899    1.002978    0.175823
  C     -2.583929    1.460640    0.872778
  C     -1.381739    0.774509    0.797675
  H     -0.522867    1.137714    1.346088
  H     -2.653167    2.355642    1.476563
  H     -4.630313    1.543706    0.227019
  H     -4.449283   -0.503588   -1.153422
  H     -2.315438   -1.722405   -1.282716
  H      2.315752   -1.722520    1.282578

 Total Charge           Charge          ....    0
 Multiplicity           Mult            ....    1
 Number of Electrons    NEL             ....   96
 Basis Dimension        Dim             ....  920

ORBITAL ENERGIES
----------------

  NO   OCC          E(Eh)            E(eV)
   0   2.0000     -10.176004      -276.9031
   1   2.0000     -10.172243      -276.8008
   2   2.0000     -10.172227      -276.8004
   3   2.0000     -10.159258      -276.4475
   4   2.0000     -10.159217      -276.4463
   5   2.0000     -10.159025      -276.4411
   6   2.0000     -10.159014      -276.4408
   7   2.0000     -10.158657      -276.4311
   8   2.0000     -10.158637      -276.4306
   9   2.0000     -10.158424      -276.4248
  10   2.0000     -10.158409      -276.4244
  11   2.0000     -10.157931      -276.4114
  12   2.0000     -10.157919      -276.4110
  13   2.0000     -10.147505      -276.1277
  14   2.0000      -0.876210       -23.8429
  15   2.0000      -0.859493       -23.3880
  16   2.0000      -0.808621       -22.0037
  17   2.0000      -0.750774       -20.4296
  18   2.0000      -0.750405       -20.4196
  19   2.0000      -0.744838       -20.2681
  20   2.0000      -0.718613       -19.5545
  21   2.0000      -0.629889       -17.1402
  22   2.0000      -0.606199       -16.4955
  23   2.0000      -0.597715       -16.2646
  24   2.0000      -0.594506       -16.1773
  25   2.0000      -0.546496       -14.8709
  26   2.0000      -0.518031       -14.0963
  27   2.0000      -0.493692       -13.4341
  28   2.0000      -0.459479       -12.5030
  29   2.0000      -0.453740       -12.3469
  30   2.0000      -0.442910       -12.0522
  31   2.0000      -0.433096       -11.7851
  32   2.0000      -0.430017       -11.7014
  33   2.0000      -0.410289       -11.1645
  34   2.0000      -0.409745       -11.1497
  35   2.0000      -0.406321       -11.0566
  36   2.0000      -0.373959       -10.1759
  37   2.0000      -0.369263       -10.0482
  38   2.0000      -0.367995       -10.0136
  39   2.0000      -0.344455        -9.3731
  40   2.0000      -0.333468        -9.0741
  41   2.0000      -0.325606        -8.8602
  42   2.0000      -0.320197        -8.7130
  43   2.0000      -0.298007        -8.1092
  44   2.0000      -0.259523        -7.0620
  45   2.0000      -0.255542        -6.9537
  46   2.0000      -0.252917        -6.8822
  47   2.0000      -0.222501        -6.0546
  48   0.0000      -0.057359        -1.5608
  49   0.0000      -0.033648        -0.9156
  50   0.0000      -0.028956        -0.7879
  51   0.0000      -0.016600        -0.4517
  52   0.0000       0.008105         0.2206

MULLIKEN ATOMIC CHARGES
-----------------------
   0 C :   -1.260976
   1 C :    2.516094
   2 C :   -0.786938
   3 C :   -0.885543
   4 C :   -0.135598
   5 C :   -0.794012
   6 H :    0.538608
   7 H :    0.489147
   8 H :    0.486244
   9 H :   -0.032381
  10 C :    0.922179
  11 C :   -1.344598
  12 H :    0.219412
  13 H :    0.218819
  14 C :    2.515501
  15 C :   -1.258739
  16 C :   -0.789373
  17 C :   -0.136716
  18 C :   -0.882801
  19 C :   -0.787560
  20 H :   -0.034767
  21 H :    0.487714
  22 H :    0.483432
  23 H :    0.530167
  24 H :   -0.136337
  25 H :   -0.140979
Sum of atomic charges:    0.0000000

LOEWDIN ATOMIC CHARGES
----------------------
   0 C :    0.211013
   1 C :   -0.144919
   2 C :    0.208534
   3 C :    0.204581
   4 C :    0.195091
   5 C :    0.202611
   6 H :   -0.177039
   7 H :   -0.178982
   8 H :   -0.176436
   9 H :   -0.169726
  10 C :   -0.143857
  11 C :    0.559844
  12 H :   -0.205171
  13 H :   -0.205179
  14 C :   -0.144942
  15 C :    0.211049
  16 C :    0.202636
  17 C :    0.195115
  18 C :    0.204598
  19 C :    0.208430
  20 H :   -0.169820
  21 H :   -0.176420
  22 H :   -0.178973
  23 H :   -0.177036
  24 H :   -0.177494
  25 H :   -0.177509

  Mayer bond orders larger than 0.100000
B(  0-C ,  1-C ) :  -0.1967 B(  0-C ,  2-C ) :  -0.7958 B(  0-C ,  3-C ) :   0.1153
B(  0-C ,  4-C ) :  -0.1891 B(  0-C ,  5-C ) :   1.3497 B(  0-C ,  6-H ) :  -0.1775
B(  0-C ,  7-H ) :   0.1116 B(  0-C ,  9-H ) :   0.1384 B(  0-C , 10-C ) :   0.3228
B(  0-C , 25-H ) :   1.9308 B(  1-C ,  2-C ) :   0.2631 B(  1-C ,  4-C ) :  -0.1325
B(  1-C ,  9-H ) :  -0.1316 B(  1-C , 10-C ) :  -0.2653 B(  1-C , 11-C ) :  -0.3456
B(  1-C , 14-C ) :  -0.1769 B(  1-C , 25-H ) :  -0.2099 B(  2-C ,  3-C ) :   1.2725
B(  2-C ,  4-C ) :  -0.1415 B(  2-C ,  9-H ) :   1.6189 B(  2-C , 10-C ) :   0.2696
B(  2-C , 11-C ) :   0.1455 B(  2-C , 19-C ) :   0.1450 B(  3-C ,  4-C ) :   1.2103
B(  3-C ,  5-C ) :   0.2960 B(  3-C ,  8-H ) :   0.4864 B(  3-C , 25-H ) :  -0.1411
B(  4-C ,  5-C ) :   1.0772 B(  4-C ,  7-H ) :   0.5915 B(  4-C ,  9-H ) :  -0.1116
B(  4-C , 10-C ) :   0.2089 B(  5-C ,  6-H ) :   0.4409 B(  5-C ,  9-H ) :  -0.1309
B(  9-H , 10-C ) :  -0.1049 B(  9-H , 25-H ) :   0.2324 B( 10-C , 11-C ) :   0.6896
B( 10-C , 14-C ) :  -0.2695 B( 10-C , 15-C ) :   0.3252 B( 10-C , 17-C ) :   0.2076
B( 10-C , 19-C ) :   0.2690 B( 10-C , 20-H ) :  -0.1044 B( 10-C , 24-H ) :  -0.2444
B( 10-C , 25-H ) :  -0.2461 B( 11-C , 12-H ) :   1.0194 B( 11-C , 13-H ) :   1.0197
B( 11-C , 14-C ) :  -0.3454 B( 11-C , 19-C ) :   0.1461 B( 14-C , 15-C ) :  -0.1955
B( 14-C , 17-C ) :  -0.1316 B( 14-C , 19-C ) :   0.2583 B( 14-C , 20-H ) :  -0.1342
B( 14-C , 24-H ) :  -0.2059 B( 15-C , 16-C ) :   1.3444 B( 15-C , 17-C ) :  -0.1865
B( 15-C , 18-C ) :   0.1106 B( 15-C , 19-C ) :  -0.7934 B( 15-C , 20-H ) :   0.1370
B( 15-C , 22-H ) :   0.1108 B( 15-C , 23-H ) :  -0.1744 B( 15-C , 24-H ) :   1.9184
B( 16-C , 17-C ) :   1.0757 B( 16-C , 18-C ) :   0.2907 B( 16-C , 20-H ) :  -0.1270
B( 16-C , 23-H ) :   0.4606 B( 17-C , 18-C ) :   1.2106 B( 17-C , 19-C ) :  -0.1434
B( 17-C , 20-H ) :  -0.1114 B( 17-C , 22-H ) :   0.6022 B( 18-C , 19-C ) :   1.2725
B( 18-C , 21-H ) :   0.4858 B( 18-C , 24-H ) :  -0.1416 B( 19-C , 20-H ) :   1.6233
B( 20-H , 24-H ) :   0.2296

Dispersion correction           -0.010851175
FINAL SINGLE POINT ENERGY      -540.571405095495

DIPOLE MOMENT
-------------

Method             : SCF
Type of density    : Electron Density
Multiplicity       :   1
Irrep              :   0
Energy             :  -540.5605539204545948 Eh
Relativity type    :
Basis              : AO
                                X                 Y                 Z
Electronic contribution:     -0.001019716       0.625355222      -0.000049251
Nuclear contribution   :      0.000172358      -0.481693575      -0.000650321
                        -----------------------------------------
Total Dipole Moment    :     -0.000847357       0.143661646      -0.000699572
                        -----------------------------------------
Magnitude (a.u.)       :      0.143665849
Magnitude (Debye)      :      0.365169567

VIBRATIONAL FREQUENCIES
-----------------------

Scaling factor for frequencies =  1.000000000  (already applied!)

     0:       0.00 cm**-1
     1:       0.00 cm**-1
     2:       0.00 cm**-1
     3:       0.00 cm**-1
     4:       0.00 cm**-1
     5:       0.00 cm**-1
     6:      26.63 cm**-1
     7:      51.65 cm**-1
     8:      75.07 cm**-1
     9:     132.73 cm**-1
    10:     216.53 cm**-1
    11:     233.47 cm**-1
    12:     298.39 cm**-1
    13:     343.92 cm**-1
    14:     413.35 cm**-1
    15:     418.35 cm**-1
    16:     447.26 cm**-1
    17:     457.24 cm**-1
    18:     580.92 cm**-1
    19:     602.48 cm**-1
    20:     627.75 cm**-1
    21:     633.22 cm**-1
    22:     658.20 cm**-1
    23:     710.58 cm**-1
    24:     718.34 cm**-1
    25:     724.20 cm**-1
    26:     741.46 cm**-1
    27:     800.32 cm**-1
    28:     809.60 cm**-1
    29:     850.87 cm**-1
    30:     867.74 cm**-1
    31:     868.08 cm**-1
    32:     925.65 cm**-1
    33:     948.92 cm**-1
    34:     949.23 cm**-1
    35:    1004.20 cm**-1
    36:    1004.99 cm**-1
    37:    1022.45 cm**-1
    38:    1022.62 cm**-1
    39:    1024.19 cm**-1
    40:    1024.55 cm**-1
    41:    1053.45 cm**-1
    42:    1055.96 cm**-1
    43:    1090.47 cm**-1
    44:    1107.87 cm**-1
    45:    1114.04 cm**-1
    46:    1169.98 cm**-1
    47:    1170.12 cm**-1
    48:    1182.29 cm**-1
    49:    1195.82 cm**-1
    50:    1197.74 cm**-1
    51:    1319.54 cm**-1
    52:    1341.44 cm**-1
    53:    1359.43 cm**-1
    54:    1368.14 cm**-1
    55:    1370.18 cm**-1
    56:    1434.60 cm**-1
    57:    1479.31 cm**-1
    58:    1481.20 cm**-1
    59:    1528.00 cm**-1
    60:    1531.75 cm**-1
    61:    1624.55 cm**-1
    62:    1626.72 cm**-1
    63:    1650.21 cm**-1
    64:    1652.63 cm**-1
    65:    1667.50 cm**-1
    66:    3159.65 cm**-1
    67:    3183.69 cm**-1
    68:    3183.79 cm**-1
    69:    3189.22 cm**-1
    70:    3189.70 cm**-1
    71:    3197.37 cm**-1
    72:    3197.56 cm**-1
    73:    3203.44 cm**-1
    74:    3203.67 cm**-1
    75:    3212.24 cm**-1
    76:    3212.44 cm**-1
    77:    3250.34 cm**-1

IR SPECTRUM
-----------

 Mode   freq       eps      Int      T**2         TX        TY        TZ
       cm**-1   L/(mol*cm) km/mol    a.u.
----------------------------------------------------------------------------
  6:     26.63   0.000031    0.16  0.000363  (-0.010521  0.000034  0.015894)
  7:     51.65   0.000012    0.06  0.000072  ( 0.000092 -0.008460 -0.000026)
  8:     75.07   0.000098    0.49  0.000407  ( 0.000030  0.020174 -0.000013)
  9:    132.73   0.000731    3.69  0.001719  (-0.004430  0.000026 -0.041220)
 10:    216.53   0.000016    0.08  0.000024  (-0.000033  0.004855 -0.000029)
 11:    233.47   0.000187    0.95  0.000251  (-0.007853 -0.000053 -0.013742)
 12:    298.39   0.000046    0.23  0.000048  ( 0.000002 -0.006933  0.000004)
 13:    343.92   0.000454    2.29  0.000412  (-0.020012  0.000012 -0.003392)
 14:    413.35   0.000016    0.08  0.000012  (-0.003320  0.000029 -0.001064)
 15:    418.35   0.000091    0.46  0.000068  (-0.000043 -0.008243  0.000004)
 16:    447.26   0.000459    2.32  0.000320  (-0.000005 -0.017896  0.000007)
 17:    457.24   0.002528   12.77  0.001725  ( 0.009397  0.000002 -0.040458)
 18:    580.92   0.003047   15.40  0.001637  ( 0.000017  0.040457 -0.000013)
 19:    602.48   0.006282   31.74  0.003254  ( 0.051279  0.000056 -0.024981)
 20:    627.75   0.000685    3.46  0.000341  (-0.015431  0.000029  0.010123)
 21:    633.22   0.000018    0.09  0.000009  (-0.000012  0.002988 -0.000047)
 22:    658.20   0.003939   19.90  0.001867  ( 0.027769 -0.000019 -0.033109)
 23:    710.58   0.002644   13.36  0.001161  (-0.000304 -0.034072  0.000615)
 24:    718.34   0.025395  128.34  0.011032  (-0.040530 -0.000503  0.096899)
 25:    724.20   0.009620   48.62  0.004146  (-0.000425  0.064374  0.001166)
 26:    741.46   0.000129    0.65  0.000054  ( 0.000020 -0.007360 -0.000041)
 27:    800.32   0.016870   85.25  0.006578  (-0.001387 -0.000180  0.081092)
 28:    809.60   0.008643   43.68  0.003331  ( 0.000050  0.057717  0.000213)
 29:    850.87   0.000130    0.66  0.000048  ( 0.003660 -0.000012 -0.005869)
 30:    867.74   0.000105    0.53  0.000038  ( 0.000917 -0.006055 -0.000403)
 31:    868.08   0.000046    0.23  0.000016  (-0.003366 -0.001577  0.001594)
 32:    925.65   0.017871   90.31  0.006025  ( 0.020150  0.000030  0.074958)
 33:    948.92   0.000512    2.59  0.000168  (-0.005003 -0.007025  0.009699)
 34:    949.23   0.000947    4.79  0.000311  (-0.002019  0.017031  0.004155)
 35:   1004.20   0.000083    0.42  0.000026  (-0.004891  0.000618 -0.001273)
 36:   1004.99   0.000078    0.39  0.000024  (-0.000563 -0.004893 -0.000086)
 37:   1022.45   0.000060    0.30  0.000018  (-0.001290  0.000482  0.004057)
 38:   1022.62   0.000018    0.09  0.000006  (-0.000551 -0.000790  0.002143)
 39:   1024.19   0.000051    0.26  0.000015  (-0.003847 -0.000105 -0.000832)
 40:   1024.55   0.000014    0.07  0.000004  (-0.000077  0.002068 -0.000079)
 41:   1053.45   0.006063   30.64  0.001796  ( 0.042374  0.000005 -0.000631)
 42:   1055.96   0.001333    6.74  0.000394  (-0.000006  0.019848  0.000003)
 43:   1090.47   0.002219   11.21  0.000635  (-0.017693 -0.000000 -0.017945)
 44:   1107.87   0.002332   11.78  0.000657  ( 0.000006  0.025628  0.000033)
 45:   1114.04   0.001804    9.11  0.000505  (-0.003805 -0.000034 -0.022152)
 46:   1169.98   0.000004    0.02  0.000001  ( 0.000461  0.000127 -0.000855)
 47:   1170.12   0.000007    0.04  0.000002  ( 0.000042 -0.001372 -0.000081)
 48:   1182.29   0.000023    0.12  0.000006  ( 0.000002  0.002464  0.000017)
 49:   1195.82   0.000112    0.57  0.000029  ( 0.005337 -0.000001 -0.000877)
 50:   1197.74   0.000000    0.00  0.000000  (-0.000026  0.000232 -0.000010)
 51:   1319.54   0.002206   11.15  0.000522  ( 0.022394 -0.000015 -0.004497)
 52:   1341.44   0.000000    0.00  0.000000  ( 0.000019  0.000048 -0.000017)
 53:   1359.43   0.005878   29.71  0.001349  ( 0.036474 -0.000005 -0.004363)
 54:   1368.14   0.000702    3.55  0.000160  ( 0.011437 -0.000004 -0.005408)
 55:   1370.18   0.000143    0.72  0.000033  ( 0.000024  0.005710  0.000009)
 56:   1434.60   0.001402    7.08  0.000305  ( 0.000026  0.017463  0.000011)
 57:   1479.31   0.003262   16.49  0.000688  ( 0.021331 -0.000009  0.015269)
 58:   1481.20   0.001067    5.39  0.000225  (-0.000018  0.014993  0.000005)
 59:   1528.00   0.002932   14.82  0.000599  (-0.000036 -0.024469  0.000006)
 60:   1531.75   0.004204   21.24  0.000856  ( 0.029153 -0.000087 -0.002562)
 61:   1624.55   0.002133   10.78  0.000410  (-0.000010 -0.020240  0.000020)
 62:   1626.72   0.000539    2.72  0.000103  ( 0.001005 -0.000128 -0.010119)
 63:   1650.21   0.000886    4.48  0.000168  ( 0.012947  0.000006  0.000089)
 64:   1652.63   0.000081    0.41  0.000015  ( 0.000079 -0.003901 -0.000005)
 65:   1667.50   0.008825   44.60  0.001652  (-0.000006 -0.040639  0.000018)
 66:   3159.65   0.000850    4.30  0.000084  ( 0.000006  0.009164 -0.000004)
 67:   3183.69   0.001115    5.64  0.000109  ( 0.010447 -0.000124 -0.000365)
 68:   3183.79   0.000239    1.21  0.000023  (-0.000322 -0.004833  0.000017)
 69:   3189.22   0.000005    0.02  0.000000  (-0.000082 -0.000148  0.000672)
 70:   3189.70   0.000134    0.68  0.000013  (-0.000008  0.003617  0.000024)
 71:   3197.37   0.005814   29.38  0.000567  ( 0.023795  0.000773 -0.000828)
 72:   3197.56   0.001012    5.11  0.000099  ( 0.002064 -0.009719 -0.000095)
 73:   3203.44   0.010153   51.31  0.000989  (-0.016864  0.002125 -0.026461)
 74:   3203.67   0.008049   40.67  0.000784  (-0.001347 -0.027896 -0.002007)
 75:   3212.24   0.005542   28.01  0.000538  (-0.023167 -0.000705  0.001091)
 76:   3212.44   0.002069   10.45  0.000201  (-0.001132  0.014131  0.000077)
 77:   3250.34   0.002151   10.87  0.000206  (-0.014199 -0.000006  0.002211)

--------------------------
THERMOCHEMISTRY AT 298.15K
--------------------------

Temperature         ...   298.15 K
Pressure            ...     1.00 atm
Total Mass          ...   180.25 AMU
Quasi RRHO          ...     True
Cut-Off Frequency   ...     1.00 cm^-1

Throughout the following assumptions are being made:
  (1) The electronic state is orbitally nondegenerate
  (2) There are no thermally accessible electronically excited states
  (3) Hindered rotations indicated by low frequency modes are not
      treated as such but are treated as vibrations and this may
      cause some error
  (4) All equations used are the standard statistical mechanics
      equations for an ideal gas
  (5) All vibrations are strictly harmonic

freq.      26.63  E(vib)   ...       0.56
freq.      51.65  E(vib)   ...       0.52
freq.      75.07  E(vib)   ...       0.49
freq.     132.73  E(vib)   ...       0.42
freq.     216.53  E(vib)   ...       0.34
freq.     233.47  E(vib)   ...       0.32
freq.     298.39  E(vib)   ...       0.26
freq.     343.92  E(vib)   ...       0.23
freq.     413.35  E(vib)   ...       0.19
freq.     418.35  E(vib)   ...       0.18
freq.     447.26  E(vib)   ...       0.17
freq.     457.24  E(vib)   ...       0.16
freq.     580.92  E(vib)   ...       0.11
freq.     602.48  E(vib)   ...       0.10
freq.     627.75  E(vib)   ...       0.09
freq.     633.22  E(vib)   ...       0.09
freq.     658.20  E(vib)   ...       0.08
freq.     710.58  E(vib)   ...       0.07
freq.     718.34  E(vib)   ...       0.07
freq.     724.20  E(vib)   ...       0.06
freq.     741.46  E(vib)   ...       0.06
freq.     800.32  E(vib)   ...       0.05
freq.     809.60  E(vib)   ...       0.05
freq.     850.87  E(vib)   ...       0.04
freq.     867.74  E(vib)   ...       0.04
freq.     868.08  E(vib)   ...       0.04
freq.     925.65  E(vib)   ...       0.03
freq.     948.92  E(vib)   ...       0.03
freq.     949.23  E(vib)   ...       0.03
freq.    1004.20  E(vib)   ...       0.02
freq.    1004.99  E(vib)   ...       0.02
freq.    1022.45  E(vib)   ...       0.02
freq.    1022.62  E(vib)   ...       0.02
freq.    1024.19  E(vib)   ...       0.02
freq.    1024.55  E(vib)   ...       0.02
freq.    1053.45  E(vib)   ...       0.02
freq.    1055.96  E(vib)   ...       0.02
freq.    1090.47  E(vib)   ...       0.02
freq.    1107.87  E(vib)   ...       0.02
freq.    1114.04  E(vib)   ...       0.01
freq.    1169.98  E(vib)   ...       0.01
freq.    1170.12  E(vib)   ...       0.01
freq.    1182.29  E(vib)   ...       0.01
freq.    1195.82  E(vib)   ...       0.01
freq.    1197.74  E(vib)   ...       0.01
freq.    1319.54  E(vib)   ...       0.01
freq.    1341.44  E(vib)   ...       0.01
freq.    1359.43  E(vib)   ...       0.01
freq.    1368.14  E(vib)   ...       0.01
freq.    1370.18  E(vib)   ...       0.01
freq.    1434.60  E(vib)   ...       0.00
freq.    1479.31  E(vib)   ...       0.00
freq.    1481.20  E(vib)   ...       0.00
freq.    1528.00  E(vib)   ...       0.00
freq.    1531.75  E(vib)   ...       0.00
freq.    1624.55  E(vib)   ...       0.00
freq.    1626.72  E(vib)   ...       0.00
freq.    1650.21  E(vib)   ...       0.00
freq.    1652.63  E(vib)   ...       0.00
freq.    1667.50  E(vib)   ...       0.00
freq.    3159.65  E(vib)   ...       0.00
freq.    3183.69  E(vib)   ...       0.00
freq.    3183.79  E(vib)   ...       0.00
freq.    3189.22  E(vib)   ...       0.00
freq.    3189.70  E(vib)   ...       0.00
freq.    3197.37  E(vib)   ...       0.00
freq.    3197.56  E(vib)   ...       0.00
freq.    3203.44  E(vib)   ...       0.00
freq.    3203.67  E(vib)   ...       0.00
freq.    3212.24  E(vib)   ...       0.00
freq.    3212.44  E(vib)   ...       0.00
freq.    3250.34  E(vib)   ...       0.00

------------
INNER ENERGY
------------

The inner energy is: U= E(el) + E(ZPE) + E(vib) + E(rot) + E(trans)
    E(el)   - is the total energy from the electronic structure calculation
              = E(kin-el) + E(nuc-el) + E(el-el) + E(nuc-nuc)
    E(ZPE)  - the the zero temperature vibrational energy from the frequency calculation
    E(vib)  - the the finite temperature correction to E(ZPE) due to population
              of excited vibrational states
    E(rot)  - is the rotational thermal energy
    E(trans)- is the translational thermal energy

Summary of contributions to the inner energy U:
Electronic energy                ...   -540.57140510 Eh
Zero point energy                ...      0.21503899 Eh     134.94 kcal/mol
Thermal vibrational correction   ...      0.00827827 Eh       5.19 kcal/mol
Thermal rotational correction    ...      0.00141627 Eh       0.89 kcal/mol
Thermal translational correction ...      0.00141627 Eh       0.89 kcal/mol
-----------------------------------------------------------------------
Total thermal energy                   -540.34525530 Eh

Summary of corrections to the electronic energy:
(perhaps to be used in another calculation)
Total thermal correction                  0.01111081 Eh       6.97 kcal/mol
Non-thermal (ZPE) correction              0.21503899 Eh     134.94 kcal/mol
-----------------------------------------------------------------------
Total correction                          0.22614980 Eh     141.91 kcal/mol

--------
ENTHALPY
--------

The enthalpy is H = U + kB*T
                kB is Boltzmann's constant
Total thermal energy              ...   -540.34525530 Eh
Thermal Enthalpy correction       ...      0.00094421 Eh       0.59 kcal/mol
-----------------------------------------------------------------------
Total Enthalpy                    ...   -540.34431109 Eh

Note: Only C1 symmetry has been detected, increase convergence thresholds
      if your molecule has a higher symmetry. Symmetry factor of 1.0 is
      used for the rotational entropy correction.

Note: Rotational entropy computed according to Herzberg
Infrared and Raman Spectra, Chapter V,1, Van Nostrand Reinhold, 1945
Point Group:  C1, Symmetry Number:   1
Rotational constants in cm-1:     0.053897     0.014063     0.012249

Vibrational entropy computed according to the QRRHO of S. Grimme
Chem.Eur.J. 2012 18 9955 using a reference frequency of 100.0 cm-1

-------
ENTROPY
-------

The entropy contributions are T*S = T*(S(el)+S(vib)+S(rot)+S(trans))
     S(el)   - electronic entropy
     S(vib)  - vibrational entropy
     S(rot)  - rotational entropy
     S(trans)- translational entropy
The entropies will be listed as multiplied by the temperature to get
units of energy

                             ****ORCA TERMINATED NORMALLY****
TOTAL RUN TIME: 0 days 1 hours 44 minutes 44 seconds 264 msec
