                         Program Version 6.0.0  -   RELEASE  -
|  1> !r2SCAN aug-cc-pVTZ d3 TightSCF SlowConv RIJCOSX defgrid2
|  2>
|  3> %pal
|  4> nprocs 4
|  5> end
|  6>
|  7> %scf
|  8> MaxIter 1500
|  9> end
| 10>
| 11> %maxcore 3000
| 12>
| 13> !CPCM
| 14> %cpcm smd true
| 15> SMDsolvent "MeCN"
| 16> surfacetype gepol_ses
| 17> rsolv 2.19
| 18> end
| 19>
| 20> * xyz 0 1
| 21> C           1.11186063431218     -1.27161750848334      0.03529687525431
| 22> C           0.40062560849469      0.06050080568744      0.01645658990368
| 23> C           1.09132291899843      1.22728525455366     -0.01481187748794
| 24> C           2.59071448413322      1.31213757575100     -0.04259953894168
| 25> C           3.24159815994134     -0.01937627947586     -0.39841325306825
| 26> C           2.58911379103733     -1.14676967388403      0.38832716012891
| 27> H           3.09748891391144     -2.10891626969463      0.20096696093946
| 28> H           2.69042588645759     -0.93817776710244      1.47032103152836
| 29> H           4.32799261089383      0.01691698871123     -0.20339895848800
| 30> H           3.11607401581807     -0.21456505742642     -1.48081651387058
| 31> H           2.90797745861562      2.08798412644276     -0.76484604682040
| 32> H           2.97758486033447      1.65547047948827      0.94073256876005
| 33> H           0.54718288972158      2.17640255493605     -0.01902463744638
| 34> N          -0.97616721213332      0.00495853491955      0.02697160227337
| 35> C          -1.78872482665766      1.19747534852265      0.05715418513192
| 36> C          -3.21005262050385      0.66964169739812      0.23596327149758
| 37> C          -3.15237336592481     -0.69599286303147     -0.44293484397097
| 38> C          -1.76610643119617     -1.20659042879325     -0.05714971676551
| 39> H          -1.36563278919925     -1.91141795135958     -0.80640934529533
| 40> H          -1.80537787661672     -1.75015520174994      0.91214209774396
| 41> H          -3.95970487602702     -1.37895631866201     -0.13218330548580
| 42> H          -3.21412175894358     -0.57519572273874     -1.53925950514829
| 43> H          -3.97216674301970      1.34137885928184     -0.19076791065005
| 44> H          -3.43419513408562      0.54752707903326      1.31073431906276
| 45> H          -1.48163666786281      1.86730753786198      0.88332008233158
| 46> H          -1.67922253541657      1.78041926532680     -0.88331716928986
| 47> H           0.61356353671055     -1.94715361756419      0.75320195239957
| 48> H           1.00544556820675     -1.75500544794871     -0.95629237422648
| 49> *
| 50>
| 51>                          ****END OF INPUT****

CARTESIAN COORDINATES (ANGSTROEM)
---------------------------------
  C      1.111861   -1.271618    0.035297
  C      0.400626    0.060501    0.016457
  C      1.091323    1.227285   -0.014812
  C      2.590714    1.312138   -0.042600
  C      3.241598   -0.019376   -0.398413
  C      2.589114   -1.146770    0.388327
  H      3.097489   -2.108916    0.200967
  H      2.690426   -0.938178    1.470321
  H      4.327993    0.016917   -0.203399
  H      3.116074   -0.214565   -1.480817
  H      2.907977    2.087984   -0.764846
  H      2.977585    1.655470    0.940733
  H      0.547183    2.176403   -0.019025
  N     -0.976167    0.004959    0.026972
  C     -1.788725    1.197475    0.057154
  C     -3.210053    0.669642    0.235963
  C     -3.152373   -0.695993   -0.442935
  C     -1.766106   -1.206590   -0.057150
  H     -1.365633   -1.911418   -0.806409
  H     -1.805378   -1.750155    0.912142
  H     -3.959705   -1.378956   -0.132183
  H     -3.214122   -0.575196   -1.539260
  H     -3.972167    1.341379   -0.190768
  H     -3.434195    0.547527    1.310734
  H     -1.481637    1.867308    0.883320
  H     -1.679223    1.780419   -0.883317
  H      0.613564   -1.947154    0.753202
  H      1.005446   -1.755005   -0.956292

 Total Charge           Charge          ....    0
 Multiplicity           Mult            ....    1
 Number of Electrons    NEL             ....   84
 Basis Dimension        Dim             ....  897

ORBITAL ENERGIES
----------------

  NO   OCC          E(Eh)            E(eV)
   0   2.0000     -14.166753      -385.4969
   1   2.0000     -10.058381      -273.7025
   2   2.0000     -10.057470      -273.6777
   3   2.0000     -10.054617      -273.6000
   4   2.0000     -10.029255      -272.9099
   5   2.0000     -10.028369      -272.8858
   6   2.0000     -10.028091      -272.8782
   7   2.0000     -10.023203      -272.7452
   8   2.0000     -10.022671      -272.7307
   9   2.0000     -10.020266      -272.6653
  10   2.0000      -9.998811      -272.0815
  11   2.0000      -0.912871       -24.8405
  12   2.0000      -0.792030       -21.5522
  13   2.0000      -0.748281       -20.3618
  14   2.0000      -0.705105       -19.1869
  15   2.0000      -0.687004       -18.6943
  16   2.0000      -0.675838       -18.3905
  17   2.0000      -0.586549       -15.9608
  18   2.0000      -0.576059       -15.6754
  19   2.0000      -0.538846       -14.6628
  20   2.0000      -0.531818       -14.4715
  21   2.0000      -0.490671       -13.3518
  22   2.0000      -0.459918       -12.5150
  23   2.0000      -0.456568       -12.4239
  24   2.0000      -0.415629       -11.3098
  25   2.0000      -0.400440       -10.8965
  26   2.0000      -0.388914       -10.5829
  27   2.0000      -0.387656       -10.5487
  28   2.0000      -0.381832       -10.3902
  29   2.0000      -0.364978        -9.9315
  30   2.0000      -0.352104        -9.5812
  31   2.0000      -0.343187        -9.3386
  32   2.0000      -0.337103        -9.1730
  33   2.0000      -0.333991        -9.0884
  34   2.0000      -0.308842        -8.4040
  35   2.0000      -0.305847        -8.3225
  36   2.0000      -0.289812        -7.8862
  37   2.0000      -0.285698        -7.7742
  38   2.0000      -0.281241        -7.6530
  39   2.0000      -0.268161        -7.2970
  40   2.0000      -0.247177        -6.7260
  41   2.0000      -0.151198        -4.1143
  42   0.0000       0.002339         0.0637
  43   0.0000       0.015627         0.4252
  44   0.0000       0.020282         0.5519
  45   0.0000       0.021086         0.5738
  46   0.0000       0.025204         0.6858

MULLIKEN ATOMIC CHARGES
-----------------------
   0 C :    0.147563
   1 C :    0.436569
   2 C :   -0.416737
   3 C :   -0.318467
   4 C :   -0.269540
   5 C :   -0.484339
   6 H :    0.201540
   7 H :    0.057601
   8 H :    0.182216
   9 H :    0.087760
  10 H :    0.153905
  11 H :    0.101848
  12 H :   -0.090152
  13 N :    0.349998
  14 C :   -0.527122
  15 C :   -0.422184
  16 C :   -0.338414
  17 C :   -0.431813
  18 H :    0.210076
  19 H :    0.174143
  20 H :    0.238576
  21 H :    0.041046
  22 H :    0.230086
  23 H :    0.054460
  24 H :    0.181707
  25 H :    0.157196
  26 H :    0.176740
  27 H :    0.115737
Sum of atomic charges:   -0.0000000

LOEWDIN ATOMIC CHARGES
----------------------
   0 C :    0.274344
   1 C :   -0.197627
   2 C :    0.228778
   3 C :    0.227393
   4 C :    0.259327
   5 C :    0.274503
   6 H :   -0.128615
   7 H :   -0.127262
   8 H :   -0.132444
   9 H :   -0.130510
  10 H :   -0.146680
  11 H :   -0.142399
  12 H :   -0.207171
  13 N :    0.273536
  14 C :    0.167957
  15 C :    0.300897
  16 C :    0.298955
  17 C :    0.182521
  18 H :   -0.132658
  19 H :   -0.117167
  20 H :   -0.126525
  21 H :   -0.128059
  22 H :   -0.127807
  23 H :   -0.129224
  24 H :   -0.131424
  25 H :   -0.117269
  26 H :   -0.141227
  27 H :   -0.124141

  Mayer bond orders larger than 0.100000
B(  0-C ,  1-C ) :   0.4306 B(  0-C ,  2-C ) :  -0.1266 B(  0-C ,  5-C ) :   0.8495
B(  0-C , 26-H ) :   0.9478 B(  0-C , 27-H ) :   1.0055 B(  1-C ,  2-C ) :   0.5994
B(  1-C ,  3-C ) :  -0.1863 B(  1-C ,  4-C ) :  -0.1214 B(  1-C , 12-H ) :  -0.1841
B(  1-C , 13-N ) :   0.1411 B(  1-C , 17-C ) :  -0.1170 B(  1-C , 26-H ) :  -0.1145
B(  2-C ,  3-C ) :   0.6999 B(  2-C ,  4-C ) :   0.2026 B(  2-C , 12-H ) :   1.0941
B(  2-C , 13-N ) :  -0.3793 B(  2-C , 14-C ) :  -0.1256 B(  2-C , 17-C ) :   0.1439
B(  3-C ,  4-C ) :   0.8678 B(  3-C ,  5-C ) :   0.1190 B(  3-C , 10-H ) :   0.9989
B(  3-C , 11-H ) :   1.0449 B(  4-C ,  5-C ) :   0.9089 B(  4-C ,  8-H ) :   0.9519
B(  4-C ,  9-H ) :   1.0501 B(  5-C ,  6-H ) :   0.9236 B(  5-C ,  7-H ) :   1.0859
B( 12-H , 14-C ) :  -0.1439 B( 13-N , 14-C ) :   0.7240 B( 13-N , 17-C ) :   0.6177
B( 14-C , 15-C ) :   0.8852 B( 14-C , 16-C ) :   0.1128 B( 14-C , 24-H ) :   1.0492
B( 14-C , 25-H ) :   1.0314 B( 15-C , 16-C ) :   0.9376 B( 15-C , 17-C ) :   0.1278
B( 15-C , 22-H ) :   0.9375 B( 15-C , 23-H ) :   1.0838 B( 16-C , 17-C ) :   0.8569
B( 16-C , 20-H ) :   0.9293 B( 16-C , 21-H ) :   1.0990 B( 17-C , 18-H ) :   0.9858
B( 17-C , 19-H ) :   0.9915

Dispersion correction           -0.009059821
FINAL SINGLE POINT ENERGY      -445.944812297028

DIPOLE MOMENT
-------------

Method             : SCF
Type of density    : Electron Density
Multiplicity       :   1
Irrep              :   0
Energy             :  -445.9357524757528495 Eh
Relativity type    :
Basis              : AO
                                X                 Y                 Z
Electronic contribution:     -1.163236017       0.479282468       0.148074154
Nuclear contribution   :      0.342331497      -1.087953366      -0.177536996
                        -----------------------------------------
Total Dipole Moment    :     -0.820904520      -0.608670898      -0.029462843
                        -----------------------------------------
Magnitude (a.u.)       :      1.022366154
Magnitude (Debye)      :      2.598648245

Rotational constants in cm-1:             0.091846             0.021037             0.017897
Rotational constants in MHz :          2753.468293           630.660673           536.548584

                             ****ORCA TERMINATED NORMALLY****
TOTAL RUN TIME: 0 days 0 hours 6 minutes 18 seconds 657 msec
