                         Program Version 6.0.0  -   RELEASE  -
|  1> !PBE0 opt aug-cc-pVTZ d3 TightSCF SlowConv RIJCOSX defgrid2
|  2>
|  3> %pal
|  4> nprocs 8
|  5> end
|  6>
|  7> %scf
|  8> MaxIter 1500
|  9> end
| 10>
| 11> %maxcore 3500
| 12>
| 13> !CPCM
| 14> %cpcm smd true
| 15> SMDsolvent "MeCN"
| 16> surfacetype gepol_ses
| 17> rsolv 2.19
| 18> end
| 19>
| 20> * xyz 0 1
| 21> C          -0.33578897576289      0.78706332413970     -0.00007064342653
| 22> C          -1.63104450940735      0.25443214150099      0.00002424994707
| 23> C          -1.80666505085776     -1.13184792287007      0.00010488474499
| 24> C          -0.67709514280741     -1.95709297790421      0.00008171672668
| 25> C           0.60485199074243     -1.42986794226310     -0.00000896897667
| 26> C           0.79403740595386     -0.03404919740528     -0.00007754792200
| 27> C           2.11776775675579      0.59942775277408     -0.00015788147995
| 28> C           3.31301096591764     -0.01037680773538      0.00016998990263
| 29> C           4.62672268480693      0.69670422006693      0.00006613977785
| 30> H           5.22986800286636      0.42062681248378     -0.88556810108390
| 31> H           5.22969209158747      0.42121685919020      0.88600364391119
| 32> H           4.49947065542959      1.79239087728672     -0.00031400154329
| 33> H           3.35830731979376     -1.10765129675188      0.00055685548665
| 34> H           2.10183131012046      1.69773297660842     -0.00050241232510
| 35> H           1.46480294351024     -2.10372145346859     -0.00005885954138
| 36> H          -0.81507815522221     -3.04272899333565      0.00012435061663
| 37> H          -2.80202830314914     -1.57931173714880      0.00017356816380
| 38> O          -2.63880088575063      1.15236499149081      0.00002597094029
| 39> C          -3.95583677666632      0.68525859520605      0.00017372040280
| 40> H          -4.60351833384684      1.57486457447649      0.00019490121742
| 41> H          -4.17725863855936      0.08018155004781      0.90083429325456
| 42> H          -4.17743481291300      0.08009944047560     -0.90038823724126
| 43> H          -0.23264934254160      1.87564721313537     -0.00013303155248
| 44> *
| 45>
| 46>                          ****END OF INPUT****
 Total Charge           Charge          ....    0
 Multiplicity           Mult            ....    1
 Number of Electrons    NEL             ....   80
Dispersion correction           -0.019920963
FINAL SINGLE POINT ENERGY      -463.130220325453
Dispersion correction             ... done (  0.0 sec)
Dispersion correction           -0.020007817
FINAL SINGLE POINT ENERGY      -463.131619873809
Dispersion correction             ... done (  0.1 sec)
Dispersion correction           -0.020019571
FINAL SINGLE POINT ENERGY      -463.131674213370
Dispersion correction             ... done (  0.1 sec)
Dispersion correction           -0.020021801
FINAL SINGLE POINT ENERGY      -463.131653074783
Dispersion correction             ... done (  0.1 sec)
Dispersion correction           -0.020020092
FINAL SINGLE POINT ENERGY      -463.131656659235
Dispersion correction             ... done (  0.1 sec)
                    ***********************HURRAY********************

CARTESIAN COORDINATES (ANGSTROEM)
---------------------------------
  C     -0.329041    0.794203    0.000560
  C     -1.617935    0.262565   -0.000184
  C     -1.798082   -1.115727    0.000464
  C     -0.673592   -1.937663    0.002404
  C      0.604144   -1.416087    0.003318
  C      0.793308   -0.026856    0.002015
  C      2.113750    0.605499    0.002371
  C      3.296453   -0.011606   -0.002257
  C      4.607845    0.687526   -0.001476
  H      5.198942    0.409802   -0.880150
  H      5.203369    0.398603    0.870587
  H      4.488874    1.772312    0.005652
  H      3.337230   -1.098153   -0.007320
  H      2.101537    1.693579    0.006338
  H      1.453211   -2.087183    0.005707
  H     -0.812020   -3.012662    0.003637
  H     -2.785742   -1.554601   -0.000690
  O     -2.626672    1.162064   -0.001450
  C     -3.950605    0.662714   -0.001851
  H     -4.603110    1.533427   -0.002089
  H     -4.150662    0.063499    0.890742
  H     -4.149952    0.063713   -0.894690
  H     -0.214085    1.872395   -0.000384

 Multiplicity           Mult            ....    1
 Number of Electrons    NEL             ....   80
 Basis Dimension        Dim             ....  782

ORBITAL ENERGIES
----------------

  NO   OCC          E(Eh)            E(eV)
   0   2.0000     -19.242796      -523.6231
   1   2.0000     -10.287862      -279.9470
   2   2.0000     -10.262281      -279.2509
   3   2.0000     -10.241177      -278.6766
   4   2.0000     -10.229003      -278.3453
   5   2.0000     -10.227777      -278.3120
   6   2.0000     -10.222588      -278.1708
   7   2.0000     -10.222010      -278.1550
   8   2.0000     -10.221843      -278.1505
   9   2.0000     -10.219145      -278.0771
  10   2.0000     -10.211495      -277.8689
  11   2.0000      -1.101670       -29.9780
  12   2.0000      -0.888428       -24.1753
  13   2.0000      -0.826252       -22.4835
  14   2.0000      -0.781500       -21.2657
  15   2.0000      -0.774285       -21.0694
  16   2.0000      -0.714196       -19.4343
  17   2.0000      -0.700681       -19.0665
  18   2.0000      -0.625872       -17.0308
  19   2.0000      -0.618077       -16.8187
  20   2.0000      -0.566837       -15.4244
  21   2.0000      -0.539806       -14.6889
  22   2.0000      -0.503272       -13.6947
  23   2.0000      -0.495679       -13.4881
  24   2.0000      -0.482491       -13.1292
  25   2.0000      -0.474210       -12.9039
  26   2.0000      -0.445271       -12.1164
  27   2.0000      -0.431095       -11.7307
  28   2.0000      -0.421856       -11.4793
  29   2.0000      -0.410879       -11.1806
  30   2.0000      -0.399584       -10.8732
  31   2.0000      -0.396662       -10.7937
  32   2.0000      -0.379504       -10.3268
  33   2.0000      -0.364054        -9.9064
  34   2.0000      -0.354479        -9.6459
  35   2.0000      -0.346189        -9.4203
  36   2.0000      -0.336318        -9.1517
  37   2.0000      -0.304876        -8.2961
  38   2.0000      -0.244294        -6.6476
  39   2.0000      -0.229394        -6.2421
  40   0.0000      -0.032277        -0.8783
  41   0.0000      -0.004654        -0.1267
  42   0.0000       0.002539         0.0691
  43   0.0000       0.010496         0.2856
  44   0.0000       0.015023         0.4088

MULLIKEN ATOMIC CHARGES
-----------------------
   0 C :   -0.974109
   1 C :    0.724834
   2 C :   -0.234683
   3 C :   -1.079424
   4 C :   -0.632315
   5 C :    1.402709
   6 C :   -0.168246
   7 C :   -0.498588
   8 C :   -0.810989
   9 H :    0.239947
  10 H :    0.241603
  11 H :    0.280802
  12 H :    0.217015
  13 H :    0.107128
  14 H :    0.335723
  15 H :    0.638115
  16 H :    0.353988
  17 O :   -0.590476
  18 C :   -0.706273
  19 H :    0.264720
  20 H :    0.297824
  21 H :    0.295989
  22 H :    0.294704
Sum of atomic charges:   -0.0000000

LOEWDIN ATOMIC CHARGES
----------------------
   0 C :    0.206621
   1 C :   -0.408334
   2 C :    0.199942
   3 C :    0.187189
   4 C :    0.197191
   5 C :   -0.161828
   6 C :    0.203096
   7 C :    0.202499
   8 C :    0.558368
   9 H :   -0.167229
  10 H :   -0.167298
  11 H :   -0.176341
  12 H :   -0.185793
  13 H :   -0.186097
  14 H :   -0.190932
  15 H :   -0.171577
  16 H :   -0.197266
  17 O :    0.601464
  18 C :    0.339086
  19 H :   -0.175112
  20 H :   -0.167661
  21 H :   -0.167651
  22 H :   -0.172336

  Mayer bond orders larger than 0.100000
B(  0-C ,  1-C ) :   0.7188 B(  0-C ,  2-C ) :  -0.1305 B(  0-C ,  3-C ) :   0.1125
B(  0-C ,  4-C ) :  -0.2313 B(  0-C ,  5-C ) :   0.3603 B(  0-C ,  6-C ) :  -0.2609
B(  0-C ,  7-C ) :   0.1889 B(  0-C , 17-O ) :   0.3103 B(  0-C , 22-H ) :   0.9517
B(  1-C ,  2-C ) :   1.1251 B(  1-C ,  4-C ) :  -0.1331 B(  1-C , 17-O ) :   0.2553
B(  2-C ,  3-C ) :   1.1475 B(  2-C , 16-H ) :   0.8958 B(  2-C , 17-O ) :  -0.1606
B(  2-C , 18-C ) :  -0.1264 B(  3-C ,  4-C ) :   1.1119 B(  3-C ,  5-C ) :  -0.1208
B(  3-C , 14-H ) :  -0.1048 B(  3-C , 15-H ) :   0.2251 B(  4-C ,  5-C ) :   0.6690
B(  4-C , 14-H ) :   0.9103 B(  5-C ,  6-C ) :   0.1364 B(  5-C ,  7-C ) :  -0.1507
B(  5-C ,  8-C ) :   0.1231 B(  5-C , 12-H ) :  -0.1121 B(  5-C , 17-O ) :   0.1035
B(  6-C ,  7-C ) :   1.0756 B(  6-C , 13-H ) :   1.2111 B(  7-C ,  8-C ) :   0.8122
B(  7-C , 12-H ) :   1.2193 B(  8-C ,  9-H ) :   0.9644 B(  8-C , 10-H ) :   0.9636
B(  8-C , 11-H ) :   0.9165 B( 17-O , 18-C ) :   1.0015 B( 18-C , 19-H ) :   0.9415
B( 18-C , 20-H ) :   0.9046 B( 18-C , 21-H ) :   0.9074

Dispersion correction           -0.020019493
FINAL SINGLE POINT ENERGY      -463.131695022207

DIPOLE MOMENT
-------------

Method             : SCF
Type of density    : Electron Density
Multiplicity       :   1
Irrep              :   0
Energy             :  -463.1116755296254723 Eh
Relativity type    :
Basis              : AO
                                X                 Y                 Z
Electronic contribution:     -5.048995799      -0.370193165       0.004266070
Nuclear contribution   :      4.740362104       0.016400295      -0.005444704
                        -----------------------------------------
Total Dipole Moment    :     -0.308633695      -0.353792870      -0.001178633
                        -----------------------------------------
Magnitude (a.u.)       :      0.469494986
Magnitude (Debye)      :      1.193361417

Rotational constants in cm-1:             0.103966             0.017089             0.014758
Rotational constants in MHz :          3116.826665           512.326943           442.430095

                             ****ORCA TERMINATED NORMALLY****
TOTAL RUN TIME: 0 days 0 hours 31 minutes 8 seconds 935 msec
