                         Program Version 6.0.0  -   RELEASE  -
|  1> !PBE0 freq aug-cc-pVTZ d3 TightSCF SlowConv RIJCOSX defgrid2
|  2>
|  3> %pal
|  4> nprocs 12
|  5> end
|  6>
|  7> %scf
|  8> MaxIter 1500
|  9> end
| 10>
| 11> %maxcore 5000
| 12>
| 13> !CPCM
| 14> %cpcm smd true
| 15> SMDsolvent "MeCN"
| 16> surfacetype gepol_ses
| 17> rsolv 2.19
| 18> end
| 19>
| 20> * xyz 1 2
| 21> C          -0.33670659524199      0.86946343023982      0.00241284367717
| 22> C          -1.60127508515985      0.30781681895657      0.00126196837260
| 23> C          -1.75115995215729     -1.10903492619962      0.00073865984988
| 24> C          -0.63274350278538     -1.92477787769885      0.00367743216418
| 25> C           0.62710854213343     -1.37136989918637      0.00543291351558
| 26> C           0.79137820536098      0.05493506912742      0.00344133654431
| 27> C           2.08097127698711      0.65547621019406      0.00304150728936
| 28> C           3.26420952455806     -0.01917932574623     -0.00253559014218
| 29> C           4.57649354769883      0.63515691822051     -0.00282811110045
| 30> H           5.15072373886465      0.30679324648780     -0.87716820036007
| 31> H           5.15595445870263      0.29536817896099      0.86363339514939
| 32> H           4.50818149050242      1.72170861096423      0.00427331418332
| 33> H           3.26917749652842     -1.10394006869710     -0.00795843220834
| 34> H           2.10852571218849      1.74069064994726      0.00565912505653
| 35> H           1.49244677687446     -2.01777062718194      0.00919561093357
| 36> H          -0.75551247311387     -2.99918783709625      0.00466740016018
| 37> H          -2.73779327822403     -1.55038983464056     -0.00297183844952
| 38> O          -2.63042952426142      1.13667497937398      0.00067282993257
| 39> C          -3.96138870704353      0.61593180482077     -0.00299332569467
| 40> H          -4.61190954158769      1.48581521835574     -0.00115727494825
| 41> H          -4.14403629086834      0.01895197113464      0.89116167536322
| 42> H          -4.14055709377850      0.02522753092292     -0.90194253016447
| 43> H          -0.23449612617757      1.94697375874019      0.00152119087609
| 44> *
| 45>
| 46>                          ****END OF INPUT****

CARTESIAN COORDINATES (ANGSTROEM)
---------------------------------
  C     -0.336707    0.869463    0.002413
  C     -1.601275    0.307817    0.001262
  C     -1.751160   -1.109035    0.000739
  C     -0.632744   -1.924778    0.003677
  C      0.627109   -1.371370    0.005433
  C      0.791378    0.054935    0.003441
  C      2.080971    0.655476    0.003042
  C      3.264210   -0.019179   -0.002536
  C      4.576494    0.635157   -0.002828
  H      5.150724    0.306793   -0.877168
  H      5.155954    0.295368    0.863633
  H      4.508181    1.721709    0.004273
  H      3.269177   -1.103940   -0.007958
  H      2.108526    1.740691    0.005659
  H      1.492447   -2.017771    0.009196
  H     -0.755512   -2.999188    0.004667
  H     -2.737793   -1.550390   -0.002972
  O     -2.630430    1.136675    0.000673
  C     -3.961389    0.615932   -0.002993
  H     -4.611910    1.485815   -0.001157
  H     -4.144036    0.018952    0.891162
  H     -4.140557    0.025228   -0.901943
  H     -0.234496    1.946974    0.001521

 Total Charge           Charge          ....    1
 Multiplicity           Mult            ....    2
 Number of Electrons    NEL             ....   79
 Basis Dimension        Dim             ....  782

ORBITAL ENERGIES
----------------
                 SPIN UP ORBITALS
  NO   OCC          E(Eh)            E(eV)
   0   1.0000     -19.283652      -524.7349
   1   1.0000     -10.336576      -281.2725
   2   1.0000     -10.291934      -280.0577
   3   1.0000     -10.285974      -279.8956
   4   1.0000     -10.284456      -279.8543
   5   1.0000     -10.281532      -279.7747
   6   1.0000     -10.279423      -279.7173
   7   1.0000     -10.267435      -279.3911
   8   1.0000     -10.260122      -279.1921
   9   1.0000     -10.252092      -278.9736
  10   1.0000     -10.230421      -278.3839
  11   1.0000      -1.144639       -31.1472
  12   1.0000      -0.932271       -25.3684
  13   1.0000      -0.871176       -23.7059
  14   1.0000      -0.821595       -22.3567
  15   1.0000      -0.814228       -22.1563
  16   1.0000      -0.750595       -20.4247
  17   1.0000      -0.734365       -19.9831
  18   1.0000      -0.662570       -18.0294
  19   1.0000      -0.654510       -17.8101
  20   1.0000      -0.599387       -16.3101
  21   1.0000      -0.575619       -15.6634
  22   1.0000      -0.541689       -14.7401
  23   1.0000      -0.531935       -14.4747
  24   1.0000      -0.513895       -13.9838
  25   1.0000      -0.511574       -13.9206
  26   1.0000      -0.478571       -13.0226
  27   1.0000      -0.463440       -12.6109
  28   1.0000      -0.450790       -12.2666
  29   1.0000      -0.440978       -11.9996
  30   1.0000      -0.433984       -11.8093
  31   1.0000      -0.428194       -11.6517
  32   1.0000      -0.414869       -11.2892
  33   1.0000      -0.399301       -10.8655
  34   1.0000      -0.385635       -10.4937
  35   1.0000      -0.384419       -10.4606
  36   1.0000      -0.366631        -9.9765
  37   1.0000      -0.347577        -9.4581
  38   1.0000      -0.279018        -7.5925
  39   1.0000      -0.275981        -7.5098
  40   0.0000      -0.082888        -2.2555
  41   0.0000      -0.033704        -0.9171
  42   0.0000      -0.000956        -0.0260
  43   0.0000       0.007502         0.2042
  44   0.0000       0.011619         0.3162

                 SPIN DOWN ORBITALS
  NO   OCC          E(Eh)            E(eV)
   0   1.0000     -19.281912      -524.6875
   1   1.0000     -10.336164      -281.2613
   2   1.0000     -10.290697      -280.0241
   3   1.0000     -10.281646      -279.7778
   4   1.0000     -10.279498      -279.7194
   5   1.0000     -10.278958      -279.7047
   6   1.0000     -10.276091      -279.6266
   7   1.0000     -10.266725      -279.3718
   8   1.0000     -10.262313      -279.2517
   9   1.0000     -10.252812      -278.9932
  10   1.0000     -10.230530      -278.3869
  11   1.0000      -1.141329       -31.0571
  12   1.0000      -0.925402       -25.1815
  13   1.0000      -0.862682       -23.4748
  14   1.0000      -0.819907       -22.3108
  15   1.0000      -0.804835       -21.9007
  16   1.0000      -0.743867       -20.2417
  17   1.0000      -0.731100       -19.8942
  18   1.0000      -0.659379       -17.9426
  19   1.0000      -0.649742       -17.6804
  20   1.0000      -0.596029       -16.2188
  21   1.0000      -0.573020       -15.5927
  22   1.0000      -0.539428       -14.6786
  23   1.0000      -0.528703       -14.3867
  24   1.0000      -0.508175       -13.8281
  25   1.0000      -0.506757       -13.7896
  26   1.0000      -0.477788       -13.0013
  27   1.0000      -0.462570       -12.5872
  28   1.0000      -0.439201       -11.9513
  29   1.0000      -0.438730       -11.9385
  30   1.0000      -0.425813       -11.5870
  31   1.0000      -0.421740       -11.4761
  32   1.0000      -0.413279       -11.2459
  33   1.0000      -0.397995       -10.8300
  34   1.0000      -0.383691       -10.4408
  35   1.0000      -0.371498       -10.1090
  36   1.0000      -0.364794        -9.9266
  37   1.0000      -0.328449        -8.9376
  38   1.0000      -0.266061        -7.2399
  39   0.0000      -0.187894        -5.1129
  40   0.0000      -0.056472        -1.5367
  41   0.0000      -0.023240        -0.6324
  42   0.0000      -0.000309        -0.0084
  43   0.0000       0.008007         0.2179

MULLIKEN ATOMIC CHARGES AND SPIN POPULATIONS
--------------------------------------------
   0 C :   -0.777894   -0.077606
   1 C :    0.677634    0.044852
   2 C :   -0.193351    0.348385
   3 C :   -0.991947   -0.123735
   4 C :   -0.523725    0.341259
   5 C :    1.374528    0.106952
   6 C :   -0.191026    0.076610
   7 C :   -0.430594    0.263425
   8 C :   -0.755105   -0.023532
   9 H :    0.257301    0.021302
  10 H :    0.259633    0.021236
  11 H :    0.298506   -0.004988
  12 H :    0.268427   -0.019198
  13 H :    0.183139   -0.000626
  14 H :    0.469407   -0.022205
  15 H :    0.666221    0.003994
  16 H :    0.445286   -0.019177
  17 O :   -0.554303    0.058946
  18 C :   -0.692166   -0.000812
  19 H :    0.266529    0.000305
  20 H :    0.311721    0.000973
  21 H :    0.309302    0.001102
  22 H :    0.322474    0.002539
Sum of atomic charges         :    1.0000000

LOEWDIN ATOMIC CHARGES AND SPIN POPULATIONS
-------------------------------------------
   0 C :    0.253677   -0.003730
   1 C :   -0.351344    0.068645
   2 C :    0.290706    0.173983
   3 C :    0.268358    0.042152
   4 C :    0.288517    0.171428
   5 C :   -0.096624    0.089355
   6 C :    0.280459    0.084535
   7 C :    0.289837    0.150453
   8 C :    0.613349    0.050063
   9 H :   -0.144552    0.011147
  10 H :   -0.144702    0.011108
  11 H :   -0.159664    0.001268
  12 H :   -0.160957    0.024716
  13 H :   -0.154383    0.007652
  14 H :   -0.166117    0.035359
  15 H :   -0.149563   -0.010592
  16 H :   -0.164173    0.038828
  17 O :    0.639472    0.050222
  18 C :    0.400347    0.005119
  19 H :   -0.165730   -0.000292
  20 H :   -0.157868    0.001371
  21 H :   -0.157723    0.001365
  22 H :   -0.151322   -0.004155

  Mayer bond orders larger than 0.100000
B(  0-C ,  1-C ) :   0.7645 B(  0-C ,  2-C ) :  -0.1251 B(  0-C ,  3-C ) :   0.1222
B(  0-C ,  4-C ) :  -0.2331 B(  0-C ,  5-C ) :   0.4289 B(  0-C ,  6-C ) :  -0.3549
B(  0-C ,  7-C ) :   0.1430 B(  0-C , 17-O ) :   0.3610 B(  0-C , 22-H ) :   0.9061
B(  1-C ,  2-C ) :   1.1023 B(  1-C ,  4-C ) :  -0.1679 B(  1-C ,  6-C ) :   0.1308
B(  1-C , 17-O ) :   0.3231 B(  1-C , 18-C ) :   0.1105 B(  2-C ,  3-C ) :   1.2292
B(  2-C ,  5-C ) :  -0.1189 B(  2-C , 16-H ) :   0.7668 B(  2-C , 17-O ) :  -0.1615
B(  2-C , 18-C ) :  -0.1198 B(  3-C ,  4-C ) :   1.1547 B(  3-C ,  5-C ) :  -0.1139
B(  3-C , 15-H ) :   0.1528 B(  4-C ,  5-C ) :   0.6941 B(  4-C , 14-H ) :   0.6972
B(  5-C ,  6-C ) :   0.2790 B(  5-C ,  7-C ) :  -0.1306 B(  5-C , 12-H ) :  -0.1643
B(  5-C , 17-O ) :   0.1365 B(  6-C ,  7-C ) :   0.9355 B(  6-C , 12-H ) :   0.1566
B(  6-C , 13-H ) :   1.1063 B(  7-C ,  8-C ) :   0.8718 B(  7-C , 12-H ) :   1.1469
B(  8-C ,  9-H ) :   0.9296 B(  8-C , 10-H ) :   0.9279 B(  8-C , 11-H ) :   0.9031
B( 17-O , 18-C ) :   0.9677 B( 18-C , 19-H ) :   0.9436 B( 18-C , 20-H ) :   0.8907
B( 18-C , 21-H ) :   0.8938

Dispersion correction           -0.020116754
FINAL SINGLE POINT ENERGY      -462.922517799327

DIPOLE MOMENT
-------------

Method             : SCF
Type of density    : Electron Density
Multiplicity       :   2
Irrep              :   0
Energy             :  -462.9024010452041011 Eh
Relativity type    :
Basis              : AO
                                X                 Y                 Z
Electronic contribution:     -4.153263784      -0.637036000       0.016687457
Nuclear contribution   :      4.729223718      -0.303735344      -0.021002978
                        -----------------------------------------
Total Dipole Moment    :      0.575959934      -0.940771344      -0.004315521
                        -----------------------------------------
Magnitude (a.u.)       :      1.103086212
Magnitude (Debye)      :      2.803822327

VIBRATIONAL FREQUENCIES
-----------------------

Scaling factor for frequencies =  1.000000000  (already applied!)

     0:       0.00 cm**-1
     1:       0.00 cm**-1
     2:       0.00 cm**-1
     3:       0.00 cm**-1
     4:       0.00 cm**-1
     5:       0.00 cm**-1
     6:      13.95 cm**-1
     7:      80.07 cm**-1
     8:     107.18 cm**-1
     9:     119.02 cm**-1
    10:     162.19 cm**-1
    11:     165.50 cm**-1
    12:     218.80 cm**-1
    13:     245.30 cm**-1
    14:     259.84 cm**-1
    15:     334.26 cm**-1
    16:     359.14 cm**-1
    17:     409.06 cm**-1
    18:     414.15 cm**-1
    19:     545.61 cm**-1
    20:     593.59 cm**-1
    21:     607.11 cm**-1
    22:     613.80 cm**-1
    23:     756.70 cm**-1
    24:     784.46 cm**-1
    25:     818.87 cm**-1
    26:     889.16 cm**-1
    27:     890.10 cm**-1
    28:     908.31 cm**-1
    29:     948.97 cm**-1
    30:     960.37 cm**-1
    31:     989.32 cm**-1
    32:    1000.13 cm**-1
    33:    1030.14 cm**-1
    34:    1055.27 cm**-1
    35:    1122.25 cm**-1
    36:    1122.79 cm**-1
    37:    1153.48 cm**-1
    38:    1166.23 cm**-1
    39:    1195.56 cm**-1
    40:    1225.33 cm**-1
    41:    1273.29 cm**-1
    42:    1310.83 cm**-1
    43:    1324.64 cm**-1
    44:    1348.17 cm**-1
    45:    1354.63 cm**-1
    46:    1413.95 cm**-1
    47:    1417.86 cm**-1
    48:    1432.38 cm**-1
    49:    1454.59 cm**-1
    50:    1466.90 cm**-1
    51:    1470.06 cm**-1
    52:    1483.09 cm**-1
    53:    1501.70 cm**-1
    54:    1511.06 cm**-1
    55:    1596.93 cm**-1
    56:    1631.36 cm**-1
    57:    3023.42 cm**-1
    58:    3058.42 cm**-1
    59:    3070.43 cm**-1
    60:    3143.31 cm**-1
    61:    3148.40 cm**-1
    62:    3174.97 cm**-1
    63:    3184.07 cm**-1
    64:    3188.59 cm**-1
    65:    3213.77 cm**-1
    66:    3221.09 cm**-1
    67:    3234.44 cm**-1
    68:    3239.95 cm**-1

IR SPECTRUM
-----------

 Mode   freq       eps      Int      T**2         TX        TY        TZ
       cm**-1   L/(mol*cm) km/mol    a.u.
----------------------------------------------------------------------------
  6:     13.95   0.000804    4.06  0.017992  (-0.004414 -0.001180 -0.134057)
  7:     80.07   0.000488    2.47  0.001903  ( 0.001246  0.000738  0.043595)
  8:    107.18   0.000074    0.37  0.000215  ( 0.004819  0.000760 -0.013818)
  9:    119.02   0.000298    1.51  0.000781  ( 0.019126  0.020377 -0.000476)
 10:    162.19   0.000620    3.13  0.001192  ( 0.002386  0.000022  0.034448)
 11:    165.50   0.000254    1.28  0.000479  ( 0.000977  0.000535 -0.021860)
 12:    218.80   0.000313    1.58  0.000446  (-0.001553  0.000497  0.021055)
 13:    245.30   0.009444   47.73  0.012014  (-0.109003  0.011518 -0.000126)
 14:    259.84   0.000003    0.01  0.000003  ( 0.001147 -0.000591  0.001224)
 15:    334.26   0.016613   83.96  0.015510  ( 0.123673  0.014668  0.000069)
 16:    359.14   0.001515    7.65  0.001316  (-0.034011 -0.012627  0.000004)
 17:    409.06   0.000090    0.46  0.000069  (-0.006877 -0.000615 -0.004614)
 18:    414.15   0.171843  868.42  0.129485  ( 0.358300  0.033265 -0.000174)
 19:    545.61   0.084770  428.39  0.048484  (-0.220190  0.000666  0.000472)
 20:    593.59   0.001369    6.92  0.000720  (-0.002974 -0.000433 -0.026663)
 21:    607.11   0.010229   51.69  0.005258  ( 0.000143 -0.000230  0.072510)
 22:    613.80   0.003768   19.04  0.001916  (-0.043746  0.000246 -0.001423)
 23:    756.70   0.047802  241.57  0.019713  ( 0.135754  0.035837 -0.000389)
 24:    784.46   0.007986   40.36  0.003177  ( 0.001552  0.000556  0.056341)
 25:    818.87   0.001487    7.51  0.000567  (-0.001265 -0.000199  0.023768)
 26:    889.16   0.002919   14.75  0.001024  (-0.002879 -0.031533 -0.004668)
 27:    890.10   0.004833   24.42  0.001694  (-0.003113  0.003238 -0.040918)
 28:    908.31   0.000189    0.95  0.000065  ( 0.002271  0.000545  0.007708)
 29:    948.97   0.163835  827.96  0.053876  ( 0.231825  0.011440 -0.001546)
 30:    960.37   0.013590   68.68  0.004416  ( 0.001153 -0.000574  0.066439)
 31:    989.32   0.053853  272.15  0.016987  (-0.129826 -0.011502  0.000094)
 32:   1000.13   0.000479    2.42  0.000149  (-0.002988 -0.000235  0.011851)
 33:   1030.14   0.000604    3.05  0.000183  ( 0.002109 -0.000132  0.013365)
 34:   1055.27   0.072038  364.05  0.021303  (-0.143669 -0.025732 -0.000322)
 35:   1122.25   0.329176  1663.52  0.091533  ( 0.302522  0.003702 -0.000049)
 36:   1122.79   0.179891  909.10  0.049998  ( 0.219240  0.043957  0.000114)
 37:   1153.48   0.007968   40.27  0.002156  (-0.046284 -0.003653  0.000216)
 38:   1166.23   0.000140    0.71  0.000037  ( 0.003567  0.001021 -0.004871)
 39:   1195.56   0.031290  158.13  0.008167  (-0.090232 -0.005045 -0.000028)
 40:   1225.33   0.172738  872.95  0.043992  (-0.209564  0.008683  0.000034)
 41:   1273.29   0.571902  2890.16  0.140164  ( 0.373934  0.018376 -0.000248)
 42:   1310.83   0.079578  402.15  0.018945  (-0.137183  0.011211 -0.000102)
 43:   1324.64   0.002630   13.29  0.000619  (-0.000184 -0.024889  0.000110)
 44:   1348.17   0.194701  983.94  0.045068  (-0.212292 -0.000211  0.000106)
 45:   1354.63   0.011034   55.76  0.002542  (-0.050198 -0.004680 -0.000475)
 46:   1413.95   0.035650  180.16  0.007868  (-0.084479 -0.027043 -0.000085)
 47:   1417.86   0.004493   22.71  0.000989  ( 0.000992 -0.001635  0.031390)
 48:   1432.38   0.066753  337.34  0.014543  (-0.118439  0.022655  0.001425)
 49:   1454.59   0.043658  220.63  0.009366  (-0.093838  0.023673  0.000516)
 50:   1466.90   0.001392    7.03  0.000296  ( 0.004703  0.016149  0.003636)
 51:   1470.06   0.004514   22.81  0.000958  (-0.009105  0.003653 -0.029361)
 52:   1483.09   0.023237  117.43  0.004889  ( 0.065816 -0.023599 -0.000895)
 53:   1501.70   0.189715  958.74  0.039424  (-0.196345 -0.029541 -0.000042)
 54:   1511.06   0.485216  2452.08  0.100207  (-0.315676 -0.023565  0.000300)
 55:   1596.93   0.024837  125.52  0.004854  ( 0.069564  0.003790 -0.000057)
 56:   1631.36   0.064832  327.64  0.012402  ( 0.091686  0.063210  0.000021)
 57:   3023.42   0.010455   52.84  0.001079  (-0.032341 -0.005759  0.000111)
 58:   3058.42   0.029791  150.55  0.003040  ( 0.053992  0.011159 -0.000018)
 59:   3070.43   0.000075    0.38  0.000008  (-0.000491 -0.000079 -0.002717)
 60:   3143.31   0.003352   16.94  0.000333  (-0.000118 -0.000121 -0.018241)
 61:   3148.40   0.015308   77.36  0.001517  (-0.033763 -0.019425 -0.000043)
 62:   3174.97   0.006044   30.54  0.000594  ( 0.023429  0.006714  0.000104)
 63:   3184.07   0.002471   12.49  0.000242  (-0.010212  0.011744  0.000077)
 64:   3188.59   0.001038    5.24  0.000102  ( 0.005188 -0.008639  0.000051)
 65:   3213.77   0.000558    2.82  0.000054  ( 0.006994  0.002288 -0.000082)
 66:   3221.09   0.000998    5.04  0.000097  (-0.008351 -0.005191 -0.000006)
 67:   3234.44   0.000933    4.72  0.000090  (-0.008856  0.003407  0.000132)
 68:   3239.95   0.000156    0.79  0.000015  ( 0.003759 -0.000923 -0.000015)

--------------------------
THERMOCHEMISTRY AT 298.15K
--------------------------

Temperature         ...   298.15 K
Pressure            ...     1.00 atm
Total Mass          ...   148.21 AMU
Quasi RRHO          ...     True
Cut-Off Frequency   ...     1.00 cm^-1

Throughout the following assumptions are being made:
  (1) The electronic state is orbitally nondegenerate
      but the spin degeneracy is treated
  (2) There are no thermally accessible electronically excited states
  (3) Hindered rotations indicated by low frequency modes are not
      treated as such but are treated as vibrations and this may
      cause some error
  (4) All equations used are the standard statistical mechanics
      equations for an ideal gas
  (5) All vibrations are strictly harmonic

freq.      13.95  E(vib)   ...       0.57
freq.      80.07  E(vib)   ...       0.49
freq.     107.18  E(vib)   ...       0.45
freq.     119.02  E(vib)   ...       0.44
freq.     162.19  E(vib)   ...       0.39
freq.     165.50  E(vib)   ...       0.39
freq.     218.80  E(vib)   ...       0.33
freq.     245.30  E(vib)   ...       0.31
freq.     259.84  E(vib)   ...       0.30
freq.     334.26  E(vib)   ...       0.24
freq.     359.14  E(vib)   ...       0.22
freq.     409.06  E(vib)   ...       0.19
freq.     414.15  E(vib)   ...       0.19
freq.     545.61  E(vib)   ...       0.12
freq.     593.59  E(vib)   ...       0.10
freq.     607.11  E(vib)   ...       0.10
freq.     613.80  E(vib)   ...       0.10
freq.     756.70  E(vib)   ...       0.06
freq.     784.46  E(vib)   ...       0.05
freq.     818.87  E(vib)   ...       0.05
freq.     889.16  E(vib)   ...       0.04
freq.     890.10  E(vib)   ...       0.04
freq.     908.31  E(vib)   ...       0.03
freq.     948.97  E(vib)   ...       0.03
freq.     960.37  E(vib)   ...       0.03
freq.     989.32  E(vib)   ...       0.02
freq.    1000.13  E(vib)   ...       0.02
freq.    1030.14  E(vib)   ...       0.02
freq.    1055.27  E(vib)   ...       0.02
freq.    1122.25  E(vib)   ...       0.01
freq.    1122.79  E(vib)   ...       0.01
freq.    1153.48  E(vib)   ...       0.01
freq.    1166.23  E(vib)   ...       0.01
freq.    1195.56  E(vib)   ...       0.01
freq.    1225.33  E(vib)   ...       0.01
freq.    1273.29  E(vib)   ...       0.01
freq.    1310.83  E(vib)   ...       0.01
freq.    1324.64  E(vib)   ...       0.01
freq.    1348.17  E(vib)   ...       0.01
freq.    1354.63  E(vib)   ...       0.01
freq.    1413.95  E(vib)   ...       0.00
freq.    1417.86  E(vib)   ...       0.00
freq.    1432.38  E(vib)   ...       0.00
freq.    1454.59  E(vib)   ...       0.00
freq.    1466.90  E(vib)   ...       0.00
freq.    1470.06  E(vib)   ...       0.00
freq.    1483.09  E(vib)   ...       0.00
freq.    1501.70  E(vib)   ...       0.00
freq.    1511.06  E(vib)   ...       0.00
freq.    1596.93  E(vib)   ...       0.00
freq.    1631.36  E(vib)   ...       0.00
freq.    3023.42  E(vib)   ...       0.00
freq.    3058.42  E(vib)   ...       0.00
freq.    3070.43  E(vib)   ...       0.00
freq.    3143.31  E(vib)   ...       0.00
freq.    3148.40  E(vib)   ...       0.00
freq.    3174.97  E(vib)   ...       0.00
freq.    3184.07  E(vib)   ...       0.00
freq.    3188.59  E(vib)   ...       0.00
freq.    3213.77  E(vib)   ...       0.00
freq.    3221.09  E(vib)   ...       0.00
freq.    3234.44  E(vib)   ...       0.00
freq.    3239.95  E(vib)   ...       0.00

------------
INNER ENERGY
------------

The inner energy is: U= E(el) + E(ZPE) + E(vib) + E(rot) + E(trans)
    E(el)   - is the total energy from the electronic structure calculation
              = E(kin-el) + E(nuc-el) + E(el-el) + E(nuc-nuc)
    E(ZPE)  - the the zero temperature vibrational energy from the frequency calculation
    E(vib)  - the the finite temperature correction to E(ZPE) due to population
              of excited vibrational states
    E(rot)  - is the rotational thermal energy
    E(trans)- is the translational thermal energy

Summary of contributions to the inner energy U:
Electronic energy                ...   -462.92251780 Eh
Zero point energy                ...      0.19172674 Eh     120.31 kcal/mol
Thermal vibrational correction   ...      0.00870022 Eh       5.46 kcal/mol
Thermal rotational correction    ...      0.00141627 Eh       0.89 kcal/mol
Thermal translational correction ...      0.00141627 Eh       0.89 kcal/mol
-----------------------------------------------------------------------
Total thermal energy                   -462.71925829 Eh

Summary of corrections to the electronic energy:
(perhaps to be used in another calculation)
Total thermal correction                  0.01153277 Eh       7.24 kcal/mol
Non-thermal (ZPE) correction              0.19172674 Eh     120.31 kcal/mol
-----------------------------------------------------------------------
Total correction                          0.20325951 Eh     127.55 kcal/mol

--------
ENTHALPY
--------

The enthalpy is H = U + kB*T
                kB is Boltzmann's constant
Total thermal energy              ...   -462.71925829 Eh
Thermal Enthalpy correction       ...      0.00094421 Eh       0.59 kcal/mol
-----------------------------------------------------------------------
Total Enthalpy                    ...   -462.71831408 Eh

Note: Only C1 symmetry has been detected, increase convergence thresholds
      if your molecule has a higher symmetry. Symmetry factor of 1.0 is
      used for the rotational entropy correction.

Note: Rotational entropy computed according to Herzberg
Infrared and Raman Spectra, Chapter V,1, Van Nostrand Reinhold, 1945
Point Group:  C1, Symmetry Number:   1
Rotational constants in cm-1:     0.105658     0.017278     0.014932

Vibrational entropy computed according to the QRRHO of S. Grimme
Chem.Eur.J. 2012 18 9955 using a reference frequency of 100.0 cm-1

-------
ENTROPY
-------

The entropy contributions are T*S = T*(S(el)+S(vib)+S(rot)+S(trans))
     S(el)   - electronic entropy
     S(vib)  - vibrational entropy
     S(rot)  - rotational entropy
     S(trans)- translational entropy
The entropies will be listed as multiplied by the temperature to get
units of energy

Electronic entropy                ...      0.00065446 Eh      0.41 kcal/mol
Vibrational entropy               ...      0.01562542 Eh      9.81 kcal/mol
Rotational entropy                ...      0.01447252 Eh      9.08 kcal/mol
Translational entropy             ...      0.01942844 Eh     12.19 kcal/mol
-----------------------------------------------------------------------
Final entropy term                ...      0.05018083 Eh     31.49 kcal/mol

In case the symmetry of your molecule has not been determined correctly

                             ****ORCA TERMINATED NORMALLY****
TOTAL RUN TIME: 0 days 1 hours 37 minutes 26 seconds 926 msec
