                         Program Version 6.0.0  -   RELEASE  -
|  1> !PBE0 def2-SV(p) Opt Freq d3 TightSCF SlowConv RIJCOSX defgrid2
|  2>
|  3> %pal
|  4> nprocs 4
|  5> end
|  6>
|  7> %scf
|  8> MaxIter 1500
|  9> end
| 10>
| 11> %maxcore 3000
| 12>
| 13>
| 14>
| 15> * xyz 1 2
| 16> C    -0.6718362    1.2258012    0.0409532
| 17> C     0.6937719    1.2153906    0.0164854
| 18> C     1.4156635    0.0010296    0.0120867
| 19> C     2.8882571    0.0003097   -0.0142558
| 20> H     3.2993160    0.9042375    0.4309424
| 21> H     3.2258882   -0.0240509   -1.0564022
| 22> H     3.2975282   -0.8855342    0.4681530
| 23> C     0.6944643   -1.2140190    0.0153032
| 24> C    -0.6709956   -1.2254534    0.0397844
| 25> C    -1.4000890   -0.0000629    0.0594872
| 26> N    -2.7273412   -0.0006032    0.0908146
| 27> H    -3.2471990   -0.8698624    0.1052578
| 28> H    -3.2478338    0.8688396    0.1044638
| 29> H    -1.2117982   -2.1593306    0.0465767
| 30> H     1.2408556   -2.1445842    0.0017445
| 31> H     1.2393459    2.1464360    0.0039348
| 32> H    -1.2132414    2.1593318    0.0486922
| 33> *
| 34>
| 35>                          ****END OF INPUT****
 Total Charge           Charge          ....    1
 Multiplicity           Mult            ....    2
 Number of Electrons    NEL             ....   57
Dispersion correction           -0.014349855
FINAL SINGLE POINT ENERGY      -326.024240252583
Dispersion correction             ... done (  0.1 sec)
Dispersion correction           -0.014282873
FINAL SINGLE POINT ENERGY      -326.025722816138
Dispersion correction             ... done (  0.1 sec)
Dispersion correction           -0.014276247
FINAL SINGLE POINT ENERGY      -326.025763615573
Dispersion correction             ... done (  0.1 sec)
Dispersion correction           -0.014274760
FINAL SINGLE POINT ENERGY      -326.025775238486
Dispersion correction             ... done (  0.1 sec)
Dispersion correction           -0.014275407
FINAL SINGLE POINT ENERGY      -326.025776019453
Dispersion correction             ... done (  0.1 sec)
                    ***********************HURRAY********************

CARTESIAN COORDINATES (ANGSTROEM)
---------------------------------
  C     -0.679086    1.236077    0.050377
  C      0.690635    1.222395    0.034331
  C      1.419359    0.000897    0.023610
  C      2.902646    0.000232   -0.031545
  H      3.332759    0.909825    0.417044
  H      3.230405   -0.023888   -1.091748
  H      3.331883   -0.890334    0.455243
  C      0.691161   -1.221280    0.033225
  C     -0.678379   -1.235847    0.049272
  C     -1.401254   -0.000064    0.057761
  N     -2.732115   -0.000403    0.074390
  H     -3.262818   -0.869889    0.080687
  H     -3.263243    0.868819    0.081433
  H     -1.227540   -2.181853    0.057996
  H      1.240099   -2.167158    0.030030
  H      1.239002    2.168571    0.031990
  H     -1.228759    2.181777    0.059926

 Multiplicity           Mult            ....    2
 Number of Electrons    NEL             ....   57
 Basis Dimension        Dim             ....  130

ORBITAL ENERGIES
----------------
                 SPIN UP ORBITALS
  NO   OCC          E(Eh)            E(eV)
   0   1.0000     -14.641734      -398.4218
   1   1.0000     -10.501063      -285.7485
   2   1.0000     -10.451748      -284.4065
   3   1.0000     -10.435239      -283.9573
   4   1.0000     -10.435165      -283.9553
   5   1.0000     -10.422738      -283.6171
   6   1.0000     -10.422679      -283.6155
   7   1.0000     -10.379375      -282.4371
   8   1.0000      -1.179864       -32.1057
   9   1.0000      -1.063794       -28.9473
  10   1.0000      -0.969027       -26.3686
  11   1.0000      -0.961652       -26.1679
  12   1.0000      -0.875269       -23.8173
  13   1.0000      -0.832128       -22.6433
  14   1.0000      -0.799849       -21.7650
  15   1.0000      -0.748716       -20.3736
  16   1.0000      -0.748587       -20.3701
  17   1.0000      -0.666444       -18.1349
  18   1.0000      -0.656526       -17.8650
  19   1.0000      -0.630972       -17.1696
  20   1.0000      -0.628161       -17.0931
  21   1.0000      -0.627795       -17.0832
  22   1.0000      -0.595371       -16.2009
  23   1.0000      -0.560259       -15.2454
  24   1.0000      -0.556314       -15.1381
  25   1.0000      -0.533225       -14.5098
  26   1.0000      -0.524027       -14.2595
  27   1.0000      -0.465284       -12.6610
  28   1.0000      -0.420093       -11.4313
  29   0.0000      -0.192389        -5.2352
  30   0.0000      -0.191253        -5.2043
  31   0.0000      -0.106358        -2.8942
  32   0.0000      -0.074947        -2.0394
  33   0.0000      -0.071305        -1.9403

                 SPIN DOWN ORBITALS
  NO   OCC          E(Eh)            E(eV)
   0   1.0000     -14.633978      -398.2108
   1   1.0000     -10.499716      -285.7118
   2   1.0000     -10.445325      -284.2317
   3   1.0000     -10.432363      -283.8790
   4   1.0000     -10.432314      -283.8777
   5   1.0000     -10.424034      -283.6524
   6   1.0000     -10.423984      -283.6510
   7   1.0000     -10.379613      -282.4436
   8   1.0000      -1.166519       -31.7426
   9   1.0000      -1.054782       -28.7021
  10   1.0000      -0.958468       -26.0812
  11   1.0000      -0.956581       -26.0299
  12   1.0000      -0.871374       -23.7113
  13   1.0000      -0.828255       -22.5380
  14   1.0000      -0.793196       -21.5839
  15   1.0000      -0.745654       -20.2903
  16   1.0000      -0.743876       -20.2419
  17   1.0000      -0.661985       -18.0135
  18   1.0000      -0.653228       -17.7752
  19   1.0000      -0.626928       -17.0596
  20   1.0000      -0.625723       -17.0268
  21   1.0000      -0.602956       -16.4073
  22   1.0000      -0.575544       -15.6613
  23   1.0000      -0.559213       -15.2170
  24   1.0000      -0.553602       -15.0643
  25   1.0000      -0.531207       -14.4549
  26   1.0000      -0.494770       -13.4634
  27   1.0000      -0.457028       -12.4364
  28   0.0000      -0.323920        -8.8143
  29   0.0000      -0.177132        -4.8200
  30   0.0000      -0.160265        -4.3610
  31   0.0000      -0.102842        -2.7985
  32   0.0000      -0.073866        -2.0100

MULLIKEN ATOMIC CHARGES AND SPIN POPULATIONS
--------------------------------------------
   0 C :   -0.075553    0.193024
   1 C :   -0.096118   -0.115680
   2 C :    0.004254    0.438443
   3 C :   -0.312987   -0.033143
   4 H :    0.182499    0.007710
   5 H :    0.205843    0.036481
   6 H :    0.183400    0.009011
   7 C :   -0.095557   -0.114891
   8 C :   -0.075724    0.191257
   9 C :    0.141792    0.094386
  10 N :   -0.293179    0.336578
  11 H :    0.317069   -0.014747
  12 H :    0.317071   -0.014745
  13 H :    0.145427   -0.010105
  14 H :    0.153178    0.003297
  15 H :    0.153184    0.003313
  16 H :    0.145402   -0.010188
Sum of atomic charges         :    1.0000000

LOEWDIN ATOMIC CHARGES AND SPIN POPULATIONS
-------------------------------------------
   0 C :   -0.091341    0.162443
   1 C :   -0.076636   -0.050089
   2 C :    0.047166    0.333070
   3 C :   -0.324341   -0.000780
   4 H :    0.157493    0.006767
   5 H :    0.177714    0.031827
   6 H :    0.158417    0.007894
   7 C :   -0.076314   -0.049749
   8 C :   -0.091666    0.161027
   9 C :    0.057388    0.103213
  10 N :   -0.147493    0.320788
  11 H :    0.279749   -0.009226
  12 H :    0.279749   -0.009224
  13 H :    0.161536   -0.005434
  14 H :    0.163510    0.001469
  15 H :    0.163511    0.001480
  16 H :    0.161556   -0.005476

  Mayer bond orders larger than 0.100000
B(  0-C ,  1-C ) :   1.5498 B(  0-C ,  9-C ) :   1.1648 B(  0-C , 16-H ) :   0.9524
B(  1-C ,  2-C ) :   1.2494 B(  1-C , 15-H ) :   0.9502 B(  2-C ,  3-C ) :   1.1113
B(  2-C ,  7-C ) :   1.2465 B(  3-C ,  4-H ) :   0.9291 B(  3-C ,  5-H ) :   0.8955
B(  3-C ,  6-H ) :   0.9277 B(  7-C ,  8-C ) :   1.5513 B(  7-C , 14-H ) :   0.9506
B(  8-C ,  9-C ) :   1.1645 B(  8-C , 13-H ) :   0.9524 B(  9-C , 10-N ) :   1.4746
B( 10-N , 11-H ) :   0.8441 B( 10-N , 12-H ) :   0.8441

Dispersion correction           -0.014275679
FINAL SINGLE POINT ENERGY      -326.025776111502

DIPOLE MOMENT
-------------

Method             : SCF
Type of density    : Electron Density
Multiplicity       :   2
Irrep              :   0
Energy             :  -326.0115004324716779 Eh
Relativity type    :
Basis              : AO
                                X                 Y                 Z
Electronic contribution:     -4.496138758       0.002080070       0.150218883
Nuclear contribution   :      3.125767574      -0.005388112      -0.182011929
                        -----------------------------------------
Total Dipole Moment    :     -1.370371184      -0.003308042      -0.031793046
                        -----------------------------------------
Magnitude (a.u.)       :      1.370743930
Magnitude (Debye)      :      3.484154180

VIBRATIONAL FREQUENCIES
-----------------------

Scaling factor for frequencies =  1.000000000  (already applied!)

     0:       0.00 cm**-1
     1:       0.00 cm**-1
     2:       0.00 cm**-1
     3:       0.00 cm**-1
     4:       0.00 cm**-1
     5:       0.00 cm**-1
     6:      44.03 cm**-1
     7:     118.27 cm**-1
     8:     285.89 cm**-1
     9:     314.91 cm**-1
    10:     375.75 cm**-1
    11:     412.47 cm**-1
    12:     463.49 cm**-1
    13:     509.94 cm**-1
    14:     571.71 cm**-1
    15:     620.48 cm**-1
    16:     628.71 cm**-1
    17:     714.77 cm**-1
    18:     761.86 cm**-1
    19:     816.11 cm**-1
    20:     848.69 cm**-1
    21:     857.00 cm**-1
    22:     990.09 cm**-1
    23:     998.66 cm**-1
    24:    1005.76 cm**-1
    25:    1009.77 cm**-1
    26:    1034.13 cm**-1
    27:    1047.09 cm**-1
    28:    1162.57 cm**-1
    29:    1201.28 cm**-1
    30:    1272.26 cm**-1
    31:    1328.72 cm**-1
    32:    1385.30 cm**-1
    33:    1401.13 cm**-1
    34:    1427.39 cm**-1
    35:    1450.44 cm**-1
    36:    1469.87 cm**-1
    37:    1520.31 cm**-1
    38:    1558.63 cm**-1
    39:    1559.93 cm**-1
    40:    1675.45 cm**-1
    41:    1708.11 cm**-1
    42:    3016.26 cm**-1
    43:    3117.63 cm**-1
    44:    3169.62 cm**-1
    45:    3212.78 cm**-1
    46:    3213.22 cm**-1
    47:    3227.08 cm**-1
    48:    3228.91 cm**-1
    49:    3514.82 cm**-1
    50:    3616.32 cm**-1

IR SPECTRUM
-----------

 Mode   freq       eps      Int      T**2         TX        TY        TZ
       cm**-1   L/(mol*cm) km/mol    a.u.
----------------------------------------------------------------------------
  6:     44.03   0.000338    1.71  0.002399  (-0.000372 -0.048817  0.003906)
  7:    118.27   0.001186    5.99  0.003129  ( 0.002574  0.000374  0.055879)
  8:    285.89   0.000212    1.07  0.000232  (-0.000662  0.000194 -0.015200)
  9:    314.91   0.000318    1.61  0.000315  (-0.000067  0.017748  0.000189)
 10:    375.75   0.000007    0.03  0.000006  (-0.000031 -0.002383  0.000108)
 11:    412.47   0.000263    1.33  0.000199  ( 0.000108  0.014115 -0.000098)
 12:    463.49   0.000189    0.96  0.000127  ( 0.009202 -0.000113 -0.006523)
 13:    509.94   0.007870   39.77  0.004816  ( 0.002284  0.000006 -0.069362)
 14:    571.71   0.000000    0.00  0.000000  ( 0.000013  0.000240  0.000022)
 15:    620.48   0.000050    0.25  0.000025  ( 0.000073 -0.005010  0.000037)
 16:    628.71   0.033137  167.46  0.016447  (-0.002674  0.000057 -0.128220)
 17:    714.77   0.000309    1.56  0.000135  (-0.008398  0.000062 -0.008018)
 18:    761.86   0.000016    0.08  0.000007  ( 0.002135 -0.000159 -0.001385)
 19:    816.11   0.000001    0.00  0.000000  (-0.000019 -0.000557 -0.000062)
 20:    848.69   0.008997   45.47  0.003308  ( 0.007747 -0.000053  0.056993)
 21:    857.00   0.000411    2.08  0.000150  ( 0.003034  0.000069  0.011847)
 22:    990.09   0.003207   16.21  0.001011  ( 0.021881 -0.000103 -0.023066)
 23:    998.66   0.000096    0.49  0.000030  (-0.001998  0.005104 -0.000174)
 24:   1005.76   0.001250    6.32  0.000388  (-0.019686 -0.000155  0.000480)
 25:   1009.77   0.000000    0.00  0.000000  ( 0.000012 -0.000080  0.000067)
 26:   1034.13   0.003663   18.51  0.001105  ( 0.021385 -0.000025 -0.025456)
 27:   1047.09   0.000023    0.12  0.000007  (-0.000478 -0.002601 -0.000053)
 28:   1162.57   0.002332   11.78  0.000626  (-0.000373  0.025016  0.000031)
 29:   1201.28   0.000792    4.00  0.000206  ( 0.014256 -0.000076 -0.001607)
 30:   1272.26   0.002031   10.27  0.000498  ( 0.022045 -0.000107 -0.003504)
 31:   1328.72   0.000368    1.86  0.000086  ( 0.001140 -0.009221 -0.000067)
 32:   1385.30   0.009127   46.12  0.002056  (-0.041548  0.001900  0.018062)
 33:   1401.13   0.002029   10.25  0.000452  ( 0.001315  0.021174 -0.001367)
 34:   1427.39   0.004895   24.74  0.001070  (-0.032360  0.000278  0.004792)
 35:   1450.44   0.001297    6.56  0.000279  ( 0.000219  0.016603 -0.001845)
 36:   1469.87   0.002237   11.30  0.000475  ( 0.005105 -0.001133 -0.021155)
 37:   1520.31   0.001067    5.39  0.000219  (-0.000364  0.014795 -0.000008)
 38:   1558.63   0.018110   91.52  0.003626  ( 0.060159 -0.002483 -0.000847)
 39:   1559.93   0.002239   11.31  0.000448  (-0.007350 -0.019845  0.000082)
 40:   1675.45   0.047709  241.10  0.008886  (-0.094251 -0.000025  0.001687)
 41:   1708.11   0.000689    3.48  0.000126  (-0.011219 -0.000017 -0.000255)
 42:   3016.26   0.006733   34.03  0.000697  ( 0.025713 -0.000225 -0.005948)
 43:   3117.63   0.001083    5.48  0.000108  ( 0.009002  0.000083 -0.005235)
 44:   3169.62   0.000014    0.07  0.000001  (-0.001012  0.000590  0.000059)
 45:   3212.78   0.000013    0.07  0.000001  (-0.001069  0.000391  0.000049)
 46:   3213.22   0.000159    0.80  0.000015  ( 0.000160  0.003927 -0.000003)
 47:   3227.08   0.000964    4.87  0.000093  (-0.000202  0.009651  0.000001)
 48:   3228.91   0.000076    0.38  0.000007  (-0.002636 -0.000624 -0.000032)
 49:   3514.82   0.066805  337.60  0.005931  ( 0.077003  0.000002 -0.001341)
 50:   3616.32   0.020837  105.30  0.001798  ( 0.000001  0.042403  0.000018)

--------------------------
THERMOCHEMISTRY AT 298.15K
--------------------------

Temperature         ...   298.15 K
Pressure            ...     1.00 atm
Total Mass          ...   107.16 AMU
Quasi RRHO          ...     True
Cut-Off Frequency   ...     1.00 cm^-1

Throughout the following assumptions are being made:
  (1) The electronic state is orbitally nondegenerate
      but the spin degeneracy is treated
  (2) There are no thermally accessible electronically excited states
  (3) Hindered rotations indicated by low frequency modes are not
      treated as such but are treated as vibrations and this may
      cause some error
  (4) All equations used are the standard statistical mechanics
      equations for an ideal gas
  (5) All vibrations are strictly harmonic

freq.      44.03  E(vib)   ...       0.53
freq.     118.27  E(vib)   ...       0.44
freq.     285.89  E(vib)   ...       0.27
freq.     314.91  E(vib)   ...       0.25
freq.     375.75  E(vib)   ...       0.21
freq.     412.47  E(vib)   ...       0.19
freq.     463.49  E(vib)   ...       0.16
freq.     509.94  E(vib)   ...       0.14
freq.     571.71  E(vib)   ...       0.11
freq.     620.48  E(vib)   ...       0.09
freq.     628.71  E(vib)   ...       0.09
freq.     714.77  E(vib)   ...       0.07
freq.     761.86  E(vib)   ...       0.06
freq.     816.11  E(vib)   ...       0.05
freq.     848.69  E(vib)   ...       0.04
freq.     857.00  E(vib)   ...       0.04
freq.     990.09  E(vib)   ...       0.02
freq.     998.66  E(vib)   ...       0.02
freq.    1005.76  E(vib)   ...       0.02
freq.    1009.77  E(vib)   ...       0.02
freq.    1034.13  E(vib)   ...       0.02
freq.    1047.09  E(vib)   ...       0.02
freq.    1162.57  E(vib)   ...       0.01
freq.    1201.28  E(vib)   ...       0.01
freq.    1272.26  E(vib)   ...       0.01
freq.    1328.72  E(vib)   ...       0.01
freq.    1385.30  E(vib)   ...       0.00
freq.    1401.13  E(vib)   ...       0.00
freq.    1427.39  E(vib)   ...       0.00
freq.    1450.44  E(vib)   ...       0.00
freq.    1469.87  E(vib)   ...       0.00
freq.    1520.31  E(vib)   ...       0.00
freq.    1558.63  E(vib)   ...       0.00
freq.    1559.93  E(vib)   ...       0.00
freq.    1675.45  E(vib)   ...       0.00
freq.    1708.11  E(vib)   ...       0.00
freq.    3016.26  E(vib)   ...       0.00
freq.    3117.63  E(vib)   ...       0.00
freq.    3169.62  E(vib)   ...       0.00
freq.    3212.78  E(vib)   ...       0.00
freq.    3213.22  E(vib)   ...       0.00
freq.    3227.08  E(vib)   ...       0.00
freq.    3228.91  E(vib)   ...       0.00
freq.    3514.82  E(vib)   ...       0.00
freq.    3616.32  E(vib)   ...       0.00

------------
INNER ENERGY
------------

The inner energy is: U= E(el) + E(ZPE) + E(vib) + E(rot) + E(trans)
    E(el)   - is the total energy from the electronic structure calculation
              = E(kin-el) + E(nuc-el) + E(el-el) + E(nuc-nuc)
    E(ZPE)  - the the zero temperature vibrational energy from the frequency calculation
    E(vib)  - the the finite temperature correction to E(ZPE) due to population
              of excited vibrational states
    E(rot)  - is the rotational thermal energy
    E(trans)- is the translational thermal energy

Summary of contributions to the inner energy U:
Electronic energy                ...   -326.02577611 Eh
Zero point energy                ...      0.14550113 Eh      91.30 kcal/mol
Thermal vibrational correction   ...      0.00467685 Eh       2.93 kcal/mol
Thermal rotational correction    ...      0.00141627 Eh       0.89 kcal/mol
Thermal translational correction ...      0.00141627 Eh       0.89 kcal/mol
-----------------------------------------------------------------------
Total thermal energy                   -325.87276558 Eh

Summary of corrections to the electronic energy:
(perhaps to be used in another calculation)
Total thermal correction                  0.00750940 Eh       4.71 kcal/mol
Non-thermal (ZPE) correction              0.14550113 Eh      91.30 kcal/mol
-----------------------------------------------------------------------
Total correction                          0.15301053 Eh      96.02 kcal/mol

--------
ENTHALPY
--------

The enthalpy is H = U + kB*T
                kB is Boltzmann's constant
Total thermal energy              ...   -325.87276558 Eh
Thermal Enthalpy correction       ...      0.00094421 Eh       0.59 kcal/mol
-----------------------------------------------------------------------
Total Enthalpy                    ...   -325.87182138 Eh

Note: Only C1 symmetry has been detected, increase convergence thresholds
      if your molecule has a higher symmetry. Symmetry factor of 1.0 is
      used for the rotational entropy correction.

Note: Rotational entropy computed according to Herzberg
Infrared and Raman Spectra, Chapter V,1, Van Nostrand Reinhold, 1945
Point Group:  C1, Symmetry Number:   1
Rotational constants in cm-1:     0.174913     0.049835     0.039071

Vibrational entropy computed according to the QRRHO of S. Grimme
Chem.Eur.J. 2012 18 9955 using a reference frequency of 100.0 cm-1

-------
ENTROPY
-------

The entropy contributions are T*S = T*(S(el)+S(vib)+S(rot)+S(trans))
     S(el)   - electronic entropy
     S(vib)  - vibrational entropy
     S(rot)  - rotational entropy
     S(trans)- translational entropy
The entropies will be listed as multiplied by the temperature to get
units of energy

Electronic entropy                ...      0.00065446 Eh      0.41 kcal/mol
Vibrational entropy               ...      0.00764595 Eh      4.80 kcal/mol
Rotational entropy                ...      0.01328040 Eh      8.33 kcal/mol
Translational entropy             ...      0.01896913 Eh     11.90 kcal/mol
-----------------------------------------------------------------------
Final entropy term                ...      0.04054993 Eh     25.45 kcal/mol

In case the symmetry of your molecule has not been determined correctly
or in case you have a reason to use a different symmetry number we print
out the resulting rotational entropy values for sn=1,12:

 non-linear molecules -----------------------------------
|  sn= 1 | S(rot)=       0.01328040 Eh      8.33 kcal/mol|
|  sn= 2 | S(rot)=       0.01262595 Eh      7.92 kcal/mol|
|  sn= 3 | S(rot)=       0.01224311 Eh      7.68 kcal/mol|
|  sn= 4 | S(rot)=       0.01197149 Eh      7.51 kcal/mol|
|  sn= 5 | S(rot)=       0.01176080 Eh      7.38 kcal/mol|
|  sn= 6 | S(rot)=       0.01158866 Eh      7.27 kcal/mol|
|  sn= 7 | S(rot)=       0.01144311 Eh      7.18 kcal/mol|
|  sn= 8 | S(rot)=       0.01131703 Eh      7.10 kcal/mol|
|  sn= 9 | S(rot)=       0.01120583 Eh      7.03 kcal/mol|
|  sn=10 | S(rot)=       0.01110635 Eh      6.97 kcal/mol|
|  sn=11 | S(rot)=       0.01101636 Eh      6.91 kcal/mol|
|  sn=12 | S(rot)=       0.01093420 Eh      6.86 kcal/mol|
 linear molecules ---------------------------------------
|  Dinfh | S(rot)=       0.00838721 Eh      5.26 kcal/mol|

                             ****ORCA TERMINATED NORMALLY****
TOTAL RUN TIME: 0 days 0 hours 8 minutes 7 seconds 514 msec
