                         Program Version 6.0.0  -   RELEASE  -
|  1> !PBE0 def2-SV(p) Opt Freq d3 TightSCF SlowConv RIJCOSX defgrid2
|  2>
|  3> %pal
|  4> nprocs 15
|  5> end
|  6>
|  7> %scf
|  8> MaxIter 1500
|  9> end
| 10>
| 11> %maxcore 3500
| 12>
| 13>
| 14>
| 15> * xyz 0 1
| 16> C       -0.732160608     -1.291623195     -1.661890015
| 17> C       -0.792828387     -1.333318251      2.562615786
| 18> C        0.160299413     -0.678263464      3.347467158
| 19> C        0.065726999     -0.743260113      4.731544090
| 20> C       -0.978864165     -1.461174788      5.304178757
| 21> C       -1.889009513     -2.086689084      4.458057262
| 22> N       -1.804062846     -2.028307911      3.121030400
| 23> H        0.804889995     -0.235256620      5.357380294
| 24> H       -1.086623813     -1.535234607      6.389744429
| 25> H       -2.727217774     -2.662763282      4.862187961
| 26> C       -0.740637806     -1.297449312      1.088931368
| 27> C        0.264464924     -0.606673791      0.406187817
| 28> C        0.268094697     -0.604179159     -0.982631125
| 29> C       -1.698771103     -1.955944214     -0.913628019
| 30> N       -1.708664721     -1.962743787      0.427312325
| 31> H        1.048779105     -0.067639310     -1.529218082
| 32> H       -0.762774045     -1.312662858     -2.754670872
| 33> H       -2.505317479     -2.510258193     -1.403520998
| 34> C        1.204991735      0.039720729      2.666785686
| 35> C        1.257182160      0.075589567      1.193105738
| 36> H        1.958874646      0.557840755      3.240904310
| 37> H        2.048875802      0.619695725      0.699577962
| 38> *
| 39>
| 40>                          ****END OF INPUT****
 Total Charge           Charge          ....    0
 Multiplicity           Mult            ....    1
 Number of Electrons    NEL             ....   94
Dispersion correction           -0.025618802
FINAL SINGLE POINT ENERGY      -570.528297163255
Dispersion correction             ... done (  0.1 sec)
Dispersion correction           -0.025702035
FINAL SINGLE POINT ENERGY      -570.544037925803
Dispersion correction             ... done (  0.1 sec)
Dispersion correction           -0.025709053
FINAL SINGLE POINT ENERGY      -570.544921863277
Dispersion correction             ... done (  0.1 sec)
FINAL SINGLE POINT ENERGY      -570.545099235347
Dispersion correction             ... done (  0.1 sec)
Dispersion correction           -0.025705243
FINAL SINGLE POINT ENERGY      -570.545155700342
Dispersion correction             ... done (  0.1 sec)
Dispersion correction           -0.025707251
FINAL SINGLE POINT ENERGY      -570.545158679577
Dispersion correction             ... done (  0.1 sec)
                    ***********************HURRAY********************

CARTESIAN COORDINATES (ANGSTROEM)
---------------------------------
  C     -0.702216   -1.271373   -1.645971
  C     -0.848451   -1.371160    2.549740
  C      0.152598   -0.683357    3.288616
  C      0.075993   -0.736327    4.696004
  C     -0.947943   -1.440269    5.291509
  C     -1.884821   -2.083848    4.457972
  N     -1.840624   -2.053001    3.145068
  H      0.830767   -0.217564    5.295932
  H     -1.039838   -1.503824    6.379162
  H     -2.711471   -2.652080    4.905459
  C     -0.797005   -1.335746    1.095941
  C      0.252723   -0.614590    0.464026
  C      0.275925   -0.599034   -0.946155
  C     -1.694685   -1.952991   -0.913096
  N     -1.743448   -1.986149    0.399608
  H      1.070409   -0.053295   -1.465440
  H     -0.716901   -1.281863   -2.739195
  H     -2.486714   -2.497287   -1.445001
  C      1.191051    0.030395    2.608743
  C      1.239219    0.063502    1.249530
  H      1.946550    0.549523    3.206556
  H      2.034130    0.609744    0.732445

 Multiplicity           Mult            ....    1
 Number of Electrons    NEL             ....   94
 Basis Dimension        Dim             ....  212

ORBITAL ENERGIES
----------------

  NO   OCC          E(Eh)            E(eV)
   0   2.0000     -14.384525      -391.4228
   1   2.0000     -14.384457      -391.4210
   2   2.0000     -10.277031      -279.6522
   3   2.0000     -10.276807      -279.6461
   4   2.0000     -10.270067      -279.4627
   5   2.0000     -10.270054      -279.4624
   6   2.0000     -10.259427      -279.1732
   7   2.0000     -10.259347      -279.1710
   8   2.0000     -10.258985      -279.1612
   9   2.0000     -10.258935      -279.1598
  10   2.0000     -10.252249      -278.9779
  11   2.0000     -10.251619      -278.9607
  12   2.0000     -10.248658      -278.8802
  13   2.0000     -10.248650      -278.8800
  14   2.0000      -0.981767       -26.7152
  15   2.0000      -0.958582       -26.0843
  16   2.0000      -0.874244       -23.7894
  17   2.0000      -0.831476       -22.6256
  18   2.0000      -0.823952       -22.4209
  19   2.0000      -0.769832       -20.9482
  20   2.0000      -0.766038       -20.8449
  21   2.0000      -0.677858       -18.4454
  22   2.0000      -0.666514       -18.1368
  23   2.0000      -0.652543       -17.7566
  24   2.0000      -0.621369       -16.9083
  25   2.0000      -0.574079       -15.6215
  26   2.0000      -0.556737       -15.1496
  27   2.0000      -0.538189       -14.6449
  28   2.0000      -0.506084       -13.7713
  29   2.0000      -0.503576       -13.7030
  30   2.0000      -0.488286       -13.2869
  31   2.0000      -0.460048       -12.5186
  32   2.0000      -0.449612       -12.2346
  33   2.0000      -0.441849       -12.0233
  34   2.0000      -0.426148       -11.5961
  35   2.0000      -0.425884       -11.5889
  36   2.0000      -0.417266       -11.3544
  37   2.0000      -0.409446       -11.1416
  38   2.0000      -0.389617       -10.6020
  39   2.0000      -0.372634       -10.1399
  40   2.0000      -0.359717        -9.7884
  41   2.0000      -0.320017        -8.7081
  42   2.0000      -0.313045        -8.5184
  43   2.0000      -0.270591        -7.3632
  44   2.0000      -0.262186        -7.1344
  45   2.0000      -0.256081        -6.9683
  46   2.0000      -0.248025        -6.7491
  47   0.0000      -0.057367        -1.5610
  48   0.0000      -0.053491        -1.4556
  49   0.0000      -0.009506        -0.2587
  50   0.0000       0.018377         0.5001
  51   0.0000       0.065195         1.7740

MULLIKEN ATOMIC CHARGES
-----------------------
   0 C :   -0.118384
   1 C :    0.009756
   2 C :    0.047462
   3 C :   -0.079158
   4 C :   -0.118378
   5 C :   -0.037397
   6 N :   -0.101148
   7 H :    0.095128
   8 H :    0.106881
   9 H :    0.111446
  10 C :    0.009358
  11 C :    0.047707
  12 C :   -0.079248
  13 C :   -0.037451
  14 N :   -0.100968
  15 H :    0.095168
  16 H :    0.106913
  17 H :    0.111483
  18 C :   -0.120404
  19 C :   -0.120563
  20 H :    0.085904
  21 H :    0.085893
Sum of atomic charges:   -0.0000000

LOEWDIN ATOMIC CHARGES
----------------------
   0 C :   -0.150110
   1 C :    0.007085
   2 C :   -0.048600
   3 C :   -0.088693
   4 C :   -0.150108
   5 C :   -0.067003
   6 N :   -0.060150
   7 H :    0.133255
   8 H :    0.135535
   9 H :    0.121523
  10 C :    0.007068
  11 C :   -0.048592
  12 C :   -0.088718
  13 C :   -0.067018
  14 N :   -0.060120
  15 H :    0.133265
  16 H :    0.135540
  17 H :    0.121532
  18 C :   -0.115075
  19 C :   -0.115085
  20 H :    0.132233
  21 H :    0.132236

  Mayer bond orders larger than 0.100000
B(  0-C , 12-C ) :   1.4949 B(  0-C , 13-C ) :   1.2820 B(  0-C , 16-H ) :   0.9477
B(  1-C ,  2-C ) :   1.2792 B(  1-C ,  6-N ) :   1.5068 B(  1-C , 10-C ) :   1.1175
B(  2-C ,  3-C ) :   1.3177 B(  2-C , 18-C ) :   1.1495 B(  3-C ,  4-C ) :   1.4949
B(  3-C ,  7-H ) :   0.9525 B(  4-C ,  5-C ) :   1.2821 B(  4-C ,  8-H ) :   0.9477
B(  5-C ,  6-N ) :   1.5933 B(  5-C ,  9-H ) :   0.9517 B( 10-C , 11-C ) :   1.2792
B( 10-C , 14-N ) :   1.5069 B( 11-C , 12-C ) :   1.3177 B( 11-C , 19-C ) :   1.1496
B( 12-C , 15-H ) :   0.9525 B( 13-C , 14-N ) :   1.5933 B( 13-C , 17-H ) :   0.9517
B( 18-C , 19-C ) :   1.5538 B( 18-C , 20-H ) :   0.9689 B( 19-C , 21-H ) :   0.9688

Dispersion correction           -0.025708275
FINAL SINGLE POINT ENERGY      -570.545159046377

DIPOLE MOMENT
-------------

Method             : SCF
Type of density    : Electron Density
Multiplicity       :   1
Irrep              :   0
Energy             :  -570.5194507717668557 Eh
Relativity type    :
Basis              : AO
                                X                 Y                 Z
Electronic contribution:     -1.933117605      -1.326795890      -0.100685604
Nuclear contribution   :      2.959925509       2.031814141       0.154119783
                        -----------------------------------------
Total Dipole Moment    :      1.026807904       0.705018251       0.053434179
                        -----------------------------------------
Magnitude (a.u.)       :      1.246691789
Magnitude (Debye)      :      3.168838695

VIBRATIONAL FREQUENCIES
-----------------------

Scaling factor for frequencies =  1.000000000  (already applied!)

     0:       0.00 cm**-1
     1:       0.00 cm**-1
     2:       0.00 cm**-1
     3:       0.00 cm**-1
     4:       0.00 cm**-1
     5:       0.00 cm**-1
     6:     100.57 cm**-1
     7:     110.40 cm**-1
     8:     237.62 cm**-1
     9:     240.64 cm**-1
    10:     243.89 cm**-1
    11:     415.26 cm**-1
    12:     417.52 cm**-1
    13:     447.98 cm**-1
    14:     470.65 cm**-1
    15:     513.45 cm**-1
    16:     521.45 cm**-1
    17:     561.56 cm**-1
    18:     575.96 cm**-1
    19:     628.34 cm**-1
    20:     628.59 cm**-1
    21:     726.70 cm**-1
    22:     741.71 cm**-1
    23:     773.60 cm**-1
    24:     782.27 cm**-1
    25:     821.86 cm**-1
    26:     872.57 cm**-1
    27:     873.98 cm**-1
    28:     904.49 cm**-1
    29:     910.12 cm**-1
    30:     973.47 cm**-1
    31:     976.24 cm**-1
    32:    1004.42 cm**-1
    33:    1012.68 cm**-1
    34:    1017.76 cm**-1
    35:    1060.12 cm**-1
    36:    1076.24 cm**-1
    37:    1103.43 cm**-1
    38:    1122.05 cm**-1
    39:    1152.04 cm**-1
    40:    1159.52 cm**-1
    41:    1233.71 cm**-1
    42:    1254.07 cm**-1
    43:    1262.40 cm**-1
    44:    1305.20 cm**-1
    45:    1360.11 cm**-1
    46:    1409.62 cm**-1
    47:    1411.57 cm**-1
    48:    1449.68 cm**-1
    49:    1458.95 cm**-1
    50:    1481.33 cm**-1
    51:    1515.43 cm**-1
    52:    1566.41 cm**-1
    53:    1584.85 cm**-1
    54:    1644.43 cm**-1
    55:    1686.30 cm**-1
    56:    1702.19 cm**-1
    57:    1705.03 cm**-1
    58:    3164.52 cm**-1
    59:    3165.03 cm**-1
    60:    3190.41 cm**-1
    61:    3195.45 cm**-1
    62:    3195.74 cm**-1
    63:    3208.89 cm**-1
    64:    3222.04 cm**-1
    65:    3222.22 cm**-1

IR SPECTRUM
-----------

 Mode   freq       eps      Int      T**2         TX        TY        TZ
       cm**-1   L/(mol*cm) km/mol    a.u.
----------------------------------------------------------------------------
  6:    100.57   0.001015    5.13  0.003151  ( 0.031805 -0.046253  0.000001)
  7:    110.40   0.000000    0.00  0.000001  ( 0.000410 -0.000589  0.000020)
  8:    237.62   0.000634    3.20  0.000833  (-0.016547  0.023642  0.000004)
  9:    240.64   0.000631    3.19  0.000818  ( 0.023392  0.016404  0.001222)
 10:    243.89   0.000000    0.00  0.000001  ( 0.000689  0.000291  0.000016)
 11:    415.26   0.000381    1.93  0.000286  ( 0.013934  0.009573  0.000734)
 12:    417.52   0.000000    0.00  0.000000  ( 0.000036  0.000026  0.000001)
 13:    447.98   0.000000    0.00  0.000000  ( 0.000134 -0.000301 -0.000013)
 14:    470.65   0.000089    0.45  0.000059  (-0.000285 -0.000195  0.007669)
 15:    513.45   0.000071    0.36  0.000043  ( 0.003693 -0.005449  0.000040)
 16:    521.45   0.000135    0.68  0.000081  ( 0.000329  0.000184 -0.008989)
 17:    561.56   0.000029    0.15  0.000016  ( 0.003334  0.002262  0.000152)
 18:    575.96   0.000000    0.00  0.000000  ( 0.000018 -0.000024 -0.000045)
 19:    628.34   0.000006    0.03  0.000003  (-0.000076 -0.000040  0.001746)
 20:    628.59   0.001578    7.98  0.000784  (-0.001001 -0.000659  0.027966)
 21:    726.70   0.000511    2.58  0.000219  (-0.012204 -0.008375 -0.000633)
 22:    741.71   0.000762    3.85  0.000321  (-0.000620 -0.000418  0.017892)
 23:    773.60   0.008367   42.28  0.003375  ( 0.032834 -0.047929 -0.000015)
 24:    782.27   0.002689   13.59  0.001073  (-0.018551  0.026995  0.000000)
 25:    821.86   0.000000    0.00  0.000000  (-0.000002  0.000027 -0.000037)
 26:    872.57   0.001178    5.95  0.000421  (-0.017129 -0.011281 -0.000873)
 27:    873.98   0.007977   40.31  0.002848  ( 0.030064 -0.044097 -0.000054)
 28:    904.49   0.000669    3.38  0.000231  ( 0.000525  0.000398 -0.015178)
 29:    910.12   0.000000    0.00  0.000000  (-0.000006  0.000041 -0.000074)
 30:    973.47   0.000279    1.41  0.000089  (-0.005338  0.007797 -0.000004)
 31:    976.24   0.000000    0.00  0.000000  ( 0.000032 -0.000043  0.000005)
 32:   1004.42   0.000000    0.00  0.000000  (-0.000009  0.000013 -0.000046)
 33:   1012.68   0.000099    0.50  0.000030  ( 0.003104 -0.004561 -0.000019)
 34:   1017.76   0.000000    0.00  0.000000  ( 0.000019 -0.000025  0.000051)
 35:   1060.12   0.000440    2.23  0.000130  (-0.000386 -0.000269  0.011375)
 36:   1076.24   0.000041    0.21  0.000012  (-0.002829 -0.001949 -0.000126)
 37:   1103.43   0.000384    1.94  0.000109  ( 0.000362  0.000263 -0.010410)
 38:   1122.05   0.002792   14.11  0.000776  (-0.022950 -0.015755 -0.001203)
 39:   1152.04   0.001922    9.71  0.000521  (-0.000866 -0.000592  0.022791)
 40:   1159.52   0.000309    1.56  0.000083  ( 0.007488  0.005182  0.000509)
 41:   1233.71   0.000001    0.00  0.000000  (-0.000381 -0.000268 -0.000007)
 42:   1254.07   0.000302    1.52  0.000075  (-0.000300 -0.000206  0.008655)
 43:   1262.40   0.000028    0.14  0.000007  ( 0.002154  0.001514  0.000151)
 44:   1305.20   0.000025    0.13  0.000006  (-0.000096 -0.000057  0.002444)
 45:   1360.11   0.000656    3.31  0.000150  ( 0.010095  0.006951  0.000514)
 46:   1409.62   0.000010    0.05  0.000002  ( 0.001239  0.000857 -0.000012)
 47:   1411.57   0.000598    3.02  0.000132  (-0.000411 -0.000281  0.011490)
 48:   1449.68   0.000886    4.48  0.000191  ( 0.000509  0.000351 -0.013799)
 49:   1458.95   0.000247    1.25  0.000053  ( 0.005966  0.004126  0.000375)
 50:   1481.33   0.007248   36.63  0.001527  ( 0.001389  0.000958 -0.039040)
 51:   1515.43   0.000626    3.16  0.000129  (-0.009330 -0.006444 -0.000512)
 52:   1566.41   0.001952    9.87  0.000389  (-0.000785 -0.000542  0.019698)
 53:   1584.85   0.007033   35.54  0.001385  ( 0.030641  0.021053  0.001665)
 54:   1644.43   0.003836   19.38  0.000728  (-0.000957 -0.000655  0.026955)
 55:   1686.30   0.004782   24.17  0.000885  (-0.024496 -0.016835 -0.001233)
 56:   1702.19   0.002561   12.94  0.000470  ( 0.000819  0.000559 -0.021647)
 57:   1705.03   0.000407    2.05  0.000074  (-0.007088 -0.004873 -0.000649)
 58:   3164.52   0.004178   21.11  0.000412  (-0.000393 -0.000288  0.020291)
 59:   3165.03   0.005719   28.90  0.000564  (-0.019528 -0.013490 -0.000705)
 60:   3190.41   0.000034    0.17  0.000003  (-0.000068 -0.000032 -0.001810)
 61:   3195.45   0.001409    7.12  0.000138  ( 0.009196  0.006344  0.003583)
 62:   3195.74   0.000942    4.76  0.000092  ( 0.007381  0.005108 -0.003380)
 63:   3208.89   0.003205   16.19  0.000312  (-0.014505 -0.010032 -0.000783)
 64:   3222.04   0.004407   22.27  0.000427  ( 0.000563  0.000397 -0.020648)
 65:   3222.22   0.000415    2.10  0.000040  ( 0.000837  0.000578 -0.006261)

--------------------------
THERMOCHEMISTRY AT 298.15K
--------------------------

Temperature         ...   298.15 K
Pressure            ...     1.00 atm
Total Mass          ...   180.21 AMU
Quasi RRHO          ...     True
Cut-Off Frequency   ...     1.00 cm^-1

Throughout the following assumptions are being made:
  (1) The electronic state is orbitally nondegenerate
  (2) There are no thermally accessible electronically excited states
  (3) Hindered rotations indicated by low frequency modes are not
      treated as such but are treated as vibrations and this may
      cause some error
  (4) All equations used are the standard statistical mechanics
      equations for an ideal gas
  (5) All vibrations are strictly harmonic

freq.     100.57  E(vib)   ...       0.46
freq.     110.40  E(vib)   ...       0.45
freq.     237.62  E(vib)   ...       0.32
freq.     240.64  E(vib)   ...       0.31
freq.     243.89  E(vib)   ...       0.31
freq.     415.26  E(vib)   ...       0.19
freq.     417.52  E(vib)   ...       0.18
freq.     447.98  E(vib)   ...       0.17
freq.     470.65  E(vib)   ...       0.15
freq.     513.45  E(vib)   ...       0.13
freq.     521.45  E(vib)   ...       0.13
freq.     561.56  E(vib)   ...       0.11
freq.     575.96  E(vib)   ...       0.11
freq.     628.34  E(vib)   ...       0.09
freq.     628.59  E(vib)   ...       0.09
freq.     726.70  E(vib)   ...       0.06
freq.     741.71  E(vib)   ...       0.06
freq.     773.60  E(vib)   ...       0.05
freq.     782.27  E(vib)   ...       0.05
freq.     821.86  E(vib)   ...       0.05
freq.     872.57  E(vib)   ...       0.04
freq.     873.98  E(vib)   ...       0.04
freq.     904.49  E(vib)   ...       0.03
freq.     910.12  E(vib)   ...       0.03
freq.     973.47  E(vib)   ...       0.03
freq.     976.24  E(vib)   ...       0.03
freq.    1004.42  E(vib)   ...       0.02
freq.    1012.68  E(vib)   ...       0.02
freq.    1017.76  E(vib)   ...       0.02
freq.    1060.12  E(vib)   ...       0.02
freq.    1076.24  E(vib)   ...       0.02
freq.    1103.43  E(vib)   ...       0.02
freq.    1122.05  E(vib)   ...       0.01
freq.    1152.04  E(vib)   ...       0.01
freq.    1159.52  E(vib)   ...       0.01
freq.    1233.71  E(vib)   ...       0.01
freq.    1254.07  E(vib)   ...       0.01
freq.    1262.40  E(vib)   ...       0.01
freq.    1305.20  E(vib)   ...       0.01
freq.    1360.11  E(vib)   ...       0.01
freq.    1409.62  E(vib)   ...       0.00
freq.    1411.57  E(vib)   ...       0.00
freq.    1449.68  E(vib)   ...       0.00
freq.    1458.95  E(vib)   ...       0.00
freq.    1481.33  E(vib)   ...       0.00
freq.    1515.43  E(vib)   ...       0.00
freq.    1566.41  E(vib)   ...       0.00
freq.    1584.85  E(vib)   ...       0.00
freq.    1644.43  E(vib)   ...       0.00
freq.    1686.30  E(vib)   ...       0.00
freq.    1702.19  E(vib)   ...       0.00
freq.    1705.03  E(vib)   ...       0.00
freq.    3164.52  E(vib)   ...       0.00
freq.    3165.03  E(vib)   ...       0.00
freq.    3190.41  E(vib)   ...       0.00
freq.    3195.45  E(vib)   ...       0.00
freq.    3195.74  E(vib)   ...       0.00
freq.    3208.89  E(vib)   ...       0.00
freq.    3222.04  E(vib)   ...       0.00
freq.    3222.22  E(vib)   ...       0.00

------------
INNER ENERGY
------------

The inner energy is: U= E(el) + E(ZPE) + E(vib) + E(rot) + E(trans)
    E(el)   - is the total energy from the electronic structure calculation
              = E(kin-el) + E(nuc-el) + E(el-el) + E(nuc-nuc)
    E(ZPE)  - the the zero temperature vibrational energy from the frequency calculation
    E(vib)  - the the finite temperature correction to E(ZPE) due to population
              of excited vibrational states
    E(rot)  - is the rotational thermal energy
    E(trans)- is the translational thermal energy

Summary of contributions to the inner energy U:
Electronic energy                ...   -570.54515905 Eh
Zero point energy                ...      0.17262756 Eh     108.33 kcal/mol
Thermal vibrational correction   ...      0.00622687 Eh       3.91 kcal/mol
Thermal rotational correction    ...      0.00141627 Eh       0.89 kcal/mol
Thermal translational correction ...      0.00141627 Eh       0.89 kcal/mol
-----------------------------------------------------------------------
Total thermal energy                   -570.36347207 Eh

Summary of corrections to the electronic energy:
(perhaps to be used in another calculation)
Total thermal correction                  0.00905941 Eh       5.68 kcal/mol
Non-thermal (ZPE) correction              0.17262756 Eh     108.33 kcal/mol
-----------------------------------------------------------------------
Total correction                          0.18168697 Eh     114.01 kcal/mol

--------
ENTHALPY
--------

The enthalpy is H = U + kB*T
                kB is Boltzmann's constant
Total thermal energy              ...   -570.36347207 Eh
Thermal Enthalpy correction       ...      0.00094421 Eh       0.59 kcal/mol
-----------------------------------------------------------------------
Total Enthalpy                    ...   -570.36252786 Eh

Note: Only C1 symmetry has been detected, increase convergence thresholds
      if your molecule has a higher symmetry. Symmetry factor of 1.0 is
      used for the rotational entropy correction.

Note: Rotational entropy computed according to Herzberg
Infrared and Raman Spectra, Chapter V,1, Van Nostrand Reinhold, 1945
Point Group:  C1, Symmetry Number:   1
Rotational constants in cm-1:     0.054161     0.019423     0.014296

Vibrational entropy computed according to the QRRHO of S. Grimme
Chem.Eur.J. 2012 18 9955 using a reference frequency of 100.0 cm-1

-------
ENTROPY
-------

The entropy contributions are T*S = T*(S(el)+S(vib)+S(rot)+S(trans))
     S(el)   - electronic entropy
     S(vib)  - vibrational entropy
     S(rot)  - rotational entropy
     S(trans)- translational entropy
The entropies will be listed as multiplied by the temperature to get
units of energy

Electronic entropy                ...      0.00000000 Eh      0.00 kcal/mol
Vibrational entropy               ...      0.00992886 Eh      6.23 kcal/mol
Rotational entropy                ...      0.01475330 Eh      9.26 kcal/mol
Translational entropy             ...      0.01970536 Eh     12.37 kcal/mol
-----------------------------------------------------------------------
Final entropy term                ...      0.04438752 Eh     27.85 kcal/mol

In case the symmetry of your molecule has not been determined correctly
or in case you have a reason to use a different symmetry number we print
out the resulting rotational entropy values for sn=1,12:

 non-linear molecules -----------------------------------

                             ****ORCA TERMINATED NORMALLY****
TOTAL RUN TIME: 0 days 0 hours 15 minutes 56 seconds 904 msec
