                         Program Version 6.0.0  -   RELEASE  -
|  1> !PBE0 freq def2-SV(p) d3 TightSCF SlowConv RIJCOSX defgrid2
|  2>
|  3> %pal
|  4> nprocs 12
|  5> end
|  6>
|  7> %scf
|  8> MaxIter 1500
|  9> end
| 10>
| 11> %maxcore 5000
| 12>
| 13> !CPCM
| 14> %cpcm smd true
| 15> SMDsolvent "MeCN"
| 16> surfacetype gepol_ses
| 17> rsolv 2.19
| 18> end
| 19>
| 20> * xyz -1 2
| 21> C          -0.01221579846847      1.21223821219338     -0.00070473497585
| 22> C           1.37473669349914      1.22240004622488      0.00006954288085
| 23> C           2.07974870277334      0.01346663465154      0.00010273387026
| 24> C           1.40052255304598     -1.21355321488188     -0.00089972799557
| 25> C           0.01781946359796     -1.22792183217975     -0.00130607544397
| 26> C          -0.75873012358652     -0.01711945361192     -0.00086089799626
| 27> C          -2.18960369477796     -0.09754113204939      0.00109675117505
| 28> O          -2.81146038166459     -1.19653684315087      0.00535540121840
| 29> C          -2.98235576898984      1.20133104065092     -0.00061777952733
| 30> H          -2.77942221850047      1.83372401173297      0.88698015156589
| 31> H          -2.77483807731627      1.83425931886208     -0.88675410514957
| 32> H          -4.05642116825148      0.95065586354349     -0.00336414597240
| 33> H          -0.53063304251638     -2.17426863452286     -0.00183345877584
| 34> H           1.97883825107771     -2.14413568031901     -0.00122647922361
| 35> F           3.43714742123303      0.02800792993213      0.00135333022466
| 36> H           1.93085454489297      2.16601966709310      0.00099136323901
| 37> H          -0.53959555604816      2.17110386583118     -0.00009096911371
| 38> *
| 39>
| 40>                          ****END OF INPUT****

CARTESIAN COORDINATES (ANGSTROEM)
---------------------------------
  C     -0.012216    1.212238   -0.000705
  C      1.374737    1.222400    0.000070
  C      2.079749    0.013467    0.000103
  C      1.400523   -1.213553   -0.000900
  C      0.017819   -1.227922   -0.001306
  C     -0.758730   -0.017119   -0.000861
  C     -2.189604   -0.097541    0.001097
  O     -2.811460   -1.196537    0.005355
  C     -2.982356    1.201331   -0.000618
  H     -2.779422    1.833724    0.886980
  H     -2.774838    1.834259   -0.886754
  H     -4.056421    0.950656   -0.003364
  H     -0.530633   -2.174269   -0.001833
  H      1.978838   -2.144136   -0.001226
  F      3.437147    0.028008    0.001353
  H      1.930855    2.166020    0.000991
  H     -0.539596    2.171104   -0.000091

 Total Charge           Charge          ....   -1
 Multiplicity           Mult            ....    2
 Number of Electrons    NEL             ....   73
 Basis Dimension        Dim             ....  154

ORBITAL ENERGIES
----------------
                 SPIN UP ORBITALS
  NO   OCC          E(Eh)            E(eV)
   0   1.0000     -24.759283      -673.7343
   1   1.0000     -19.115616      -520.1624
   2   1.0000     -10.277624      -279.6684
   3   1.0000     -10.236459      -278.5482
   4   1.0000     -10.214288      -277.9449
   5   1.0000     -10.213866      -277.9334
   6   1.0000     -10.210034      -277.8291
   7   1.0000     -10.205595      -277.7084
   8   1.0000     -10.195284      -277.4278
   9   1.0000     -10.193751      -277.3861
  10   1.0000      -1.210509       -32.9396
  11   1.0000      -0.965094       -26.2615
  12   1.0000      -0.845690       -23.0124
  13   1.0000      -0.749724       -20.4010
  14   1.0000      -0.741063       -20.1653
  15   1.0000      -0.700808       -19.0700
  16   1.0000      -0.618227       -16.8228
  17   1.0000      -0.601675       -16.3724
  18   1.0000      -0.534357       -14.5406
  19   1.0000      -0.530546       -14.4369
  20   1.0000      -0.477261       -12.9869
  21   1.0000      -0.465462       -12.6659
  22   1.0000      -0.447597       -12.1797
  23   1.0000      -0.430722       -11.7205
  24   1.0000      -0.415118       -11.2959
  25   1.0000      -0.414511       -11.2794
  26   1.0000      -0.398815       -10.8523
  27   1.0000      -0.387377       -10.5411
  28   1.0000      -0.363829        -9.9003
  29   1.0000      -0.358312        -9.7502
  30   1.0000      -0.348417        -9.4809
  31   1.0000      -0.320583        -8.7235
  32   1.0000      -0.317323        -8.6348
  33   1.0000      -0.258134        -7.0242
  34   1.0000      -0.237497        -6.4626
  35   1.0000      -0.206797        -5.6272
  36   1.0000      -0.090207        -2.4546
  37   0.0000       0.014141         0.3848
  38   0.0000       0.069367         1.8876
  39   0.0000       0.093060         2.5323
  40   0.0000       0.115671         3.1476
  41   0.0000       0.135239         3.6801

                 SPIN DOWN ORBITALS
  NO   OCC          E(Eh)            E(eV)
   0   1.0000     -24.758221      -673.7055
   1   1.0000     -19.108413      -519.9664
   2   1.0000     -10.272286      -279.5231
   3   1.0000     -10.232794      -278.4485
   4   1.0000     -10.215982      -277.9910
   5   1.0000     -10.215527      -277.9786
   6   1.0000     -10.207137      -277.7503
   7   1.0000     -10.202706      -277.6297
   8   1.0000     -10.194146      -277.3968
   9   1.0000     -10.194083      -277.3951
  10   1.0000      -1.207807       -32.8661
  11   1.0000      -0.952000       -25.9052
  12   1.0000      -0.841489       -22.8981
  13   1.0000      -0.743575       -20.2337
  14   1.0000      -0.736605       -20.0440
  15   1.0000      -0.697939       -18.9919
  16   1.0000      -0.609847       -16.5948
  17   1.0000      -0.599063       -16.3013
  18   1.0000      -0.532278       -14.4840
  19   1.0000      -0.525225       -14.2921
  20   1.0000      -0.475556       -12.9405
  21   1.0000      -0.454599       -12.3703
  22   1.0000      -0.443430       -12.0663
  23   1.0000      -0.429101       -11.6764
  24   1.0000      -0.413958       -11.2644
  25   1.0000      -0.404927       -11.0186
  26   1.0000      -0.396190       -10.7809
  27   1.0000      -0.385764       -10.4972
  28   1.0000      -0.360066        -9.7979
  29   1.0000      -0.347394        -9.4531
  30   1.0000      -0.345148        -9.3920
  31   1.0000      -0.315653        -8.5894
  32   1.0000      -0.291555        -7.9336
  33   1.0000      -0.248264        -6.7556
  34   1.0000      -0.210933        -5.7398
  35   1.0000      -0.200436        -5.4541
  36   0.0000       0.000303         0.0082
  37   0.0000       0.020150         0.5483
  38   0.0000       0.094523         2.5721
  39   0.0000       0.100284         2.7289
  40   0.0000       0.116448         3.1687

MULLIKEN ATOMIC CHARGES AND SPIN POPULATIONS
--------------------------------------------
   0 C :   -0.225708    0.212184
   1 C :   -0.220147   -0.130201
   2 C :    0.262952    0.310449
   3 C :   -0.217899   -0.129269
   4 C :   -0.215343    0.216525
   5 C :   -0.019149    0.069344
   6 C :   -0.041238    0.216478
   7 O :   -0.421337    0.241997
   8 C :   -0.349295   -0.029961
   9 H :    0.123184    0.012306
  10 H :    0.123116    0.012106
  11 H :    0.103031   -0.000441
  12 H :    0.072308   -0.013330
  13 H :    0.099634    0.004917
  14 F :   -0.265442    0.014113
  15 H :    0.099453    0.005065
  16 H :    0.091878   -0.012283
Sum of atomic charges         :   -1.0000000

LOEWDIN ATOMIC CHARGES AND SPIN POPULATIONS
-------------------------------------------
   0 C :   -0.185654    0.162776
   1 C :   -0.195315   -0.070534
   2 C :   -0.018460    0.243165
   3 C :   -0.194478   -0.068734
   4 C :   -0.172256    0.168212
   5 C :   -0.164898    0.092499
   6 C :   -0.070034    0.204737
   7 O :   -0.368019    0.240671
   8 C :   -0.378814   -0.008876
   9 H :    0.120876    0.010423
  10 H :    0.120795    0.010263
  11 H :    0.115531   -0.000154
  12 H :    0.119334   -0.006189
  13 H :    0.134301    0.002280
  14 F :   -0.123529    0.022828
  15 H :    0.135110    0.002317
  16 H :    0.125510   -0.005684

  Mayer bond orders larger than 0.100000
B(  0-C ,  1-C ) :   1.4338 B(  0-C ,  5-C ) :   1.1982 B(  0-C , 16-H ) :   0.9497
B(  1-C ,  2-C ) :   1.2927 B(  1-C , 15-H ) :   0.9611 B(  2-C ,  3-C ) :   1.2745
B(  2-C , 14-F ) :   0.9873 B(  3-C ,  4-C ) :   1.4213 B(  3-C , 13-H ) :   0.9647
B(  4-C ,  5-C ) :   1.1993 B(  4-C , 12-H ) :   0.9595 B(  5-C ,  6-C ) :   1.2261
B(  6-C ,  7-O ) :   1.8666 B(  6-C ,  8-C ) :   1.0784 B(  8-C ,  9-H ) :   0.9293
B(  8-C , 10-H ) :   0.9294 B(  8-C , 11-H ) :   0.9460

Dispersion correction           -0.015259494
FINAL SINGLE POINT ENERGY      -483.322172840840

DIPOLE MOMENT
-------------

Method             : SCF
Type of density    : Electron Density
Multiplicity       :   2
Irrep              :   0
Energy             :  -483.3069133469584244 Eh
Relativity type    :
Basis              : AO
                                X                 Y                 Z
Electronic contribution:     11.105820819      -3.068351495       0.006143646
Nuclear contribution   :     -9.605022052       4.339979394      -0.008952288
                        -----------------------------------------
Total Dipole Moment    :      1.500798767       1.271627899      -0.002808642
                        -----------------------------------------
Magnitude (a.u.)       :      1.967089816
Magnitude (Debye)      :      4.999944959

VIBRATIONAL FREQUENCIES
-----------------------

Scaling factor for frequencies =  1.000000000  (already applied!)

     0:       0.00 cm**-1
     1:       0.00 cm**-1
     2:       0.00 cm**-1
     3:       0.00 cm**-1
     4:       0.00 cm**-1
     5:       0.00 cm**-1
     6:      93.87 cm**-1
     7:     114.88 cm**-1
     8:     141.01 cm**-1
     9:     186.63 cm**-1
    10:     267.48 cm**-1
    11:     333.39 cm**-1
    12:     378.94 cm**-1
    13:     385.40 cm**-1
    14:     448.27 cm**-1
    15:     470.47 cm**-1
    16:     547.00 cm**-1
    17:     555.62 cm**-1
    18:     638.28 cm**-1
    19:     687.68 cm**-1
    20:     690.67 cm**-1
    21:     772.51 cm**-1
    22:     795.83 cm**-1
    23:     811.59 cm**-1
    24:     935.34 cm**-1
    25:     952.96 cm**-1
    26:     961.11 cm**-1
    27:     989.78 cm**-1
    28:    1005.66 cm**-1
    29:    1071.34 cm**-1
    30:    1085.80 cm**-1
    31:    1141.57 cm**-1
    32:    1249.88 cm**-1
    33:    1271.83 cm**-1
    34:    1344.50 cm**-1
    35:    1356.33 cm**-1
    36:    1376.63 cm**-1
    37:    1434.88 cm**-1
    38:    1437.61 cm**-1
    39:    1443.83 cm**-1
    40:    1523.33 cm**-1
    41:    1530.88 cm**-1
    42:    1616.61 cm**-1
    43:    1689.91 cm**-1
    44:    2990.03 cm**-1
    45:    3059.05 cm**-1
    46:    3127.70 cm**-1
    47:    3186.51 cm**-1
    48:    3187.04 cm**-1
    49:    3204.49 cm**-1
    50:    3210.16 cm**-1

IR SPECTRUM
-----------

 Mode   freq       eps      Int      T**2         TX        TY        TZ
       cm**-1   L/(mol*cm) km/mol    a.u.
----------------------------------------------------------------------------
  6:     93.87   0.000009    0.04  0.000029  (-0.000419 -0.000237  0.005351)
  7:    114.88   0.000605    3.06  0.001644  ( 0.000212 -0.000319  0.040549)
  8:    141.01   0.000440    2.22  0.000973  (-0.000486  0.000161  0.031183)
  9:    186.63   0.001161    5.87  0.001942  (-0.043132  0.009020 -0.000022)
 10:    267.48   0.000113    0.57  0.000131  (-0.000311 -0.000193 -0.011457)
 11:    333.39   0.000202    1.02  0.000189  (-0.002824  0.013455  0.000159)
 12:    378.94   0.003193   16.13  0.002629  ( 0.000248  0.000073 -0.051274)
 13:    385.40   0.000979    4.95  0.000793  (-0.023061 -0.016139 -0.000606)
 14:    448.27   0.000131    0.66  0.000091  (-0.000032  0.000087 -0.009542)
 15:    470.47   0.000140    0.71  0.000093  (-0.007474  0.006068 -0.000037)
 16:    547.00   0.003316   16.76  0.001892  (-0.000163  0.000185  0.043496)
 17:    555.62   0.009020   45.58  0.005066  (-0.064013  0.031118 -0.000325)
 18:    638.28   0.000078    0.40  0.000038  (-0.000725 -0.006146  0.000090)
 19:    687.68   0.001730    8.74  0.000785  (-0.000342 -0.000102 -0.028020)
 20:    690.67   0.011663   58.94  0.005270  ( 0.071633  0.011757  0.000062)
 21:    772.51   0.010596   53.55  0.004280  ( 0.000045 -0.000169  0.065424)
 22:    795.83   0.005708   28.84  0.002238  (-0.000690 -0.000240 -0.047303)
 23:    811.59   0.030618  154.73  0.011773  (-0.108503  0.000108  0.000178)
 24:    935.34   0.000352    1.78  0.000117  (-0.000085 -0.000118  0.010831)
 25:    952.96   0.024304  122.82  0.007959  (-0.088678  0.009738  0.000206)
 26:    961.11   0.000050    0.25  0.000016  ( 0.002329 -0.000303  0.003289)
 27:    989.78   0.008797   44.46  0.002774  (-0.051617  0.010453  0.000110)
 28:   1005.66   0.000514    2.60  0.000159  (-0.000100  0.000029  0.012624)
 29:   1071.34   0.001668    8.43  0.000486  ( 0.020374 -0.008412 -0.000073)
 30:   1085.80   0.014602   73.79  0.004197  (-0.024036 -0.060157  0.000071)
 31:   1141.57   0.000190    0.96  0.000052  (-0.000538 -0.007179 -0.000086)
 32:   1249.88   0.023726  119.90  0.005924  (-0.076965 -0.000280 -0.000116)
 33:   1271.83   0.011833   59.80  0.002903  (-0.051463 -0.015970  0.000031)
 34:   1344.50   0.002873   14.52  0.000667  ( 0.021908 -0.013672  0.000091)
 35:   1356.33   0.004063   20.53  0.000935  (-0.030572 -0.000408  0.000031)
 36:   1376.63   0.029231  147.72  0.006626  ( 0.037356 -0.072324 -0.000005)
 37:   1434.88   0.006498   32.84  0.001413  (-0.037481  0.002908 -0.000029)
 38:   1437.61   0.031340  158.38  0.006803  ( 0.066512  0.048774 -0.000365)
 39:   1443.83   0.001549    7.83  0.000335  ( 0.001109  0.000569  0.018256)
 40:   1523.33   0.035823  181.04  0.007339  (-0.081986 -0.024835  0.000058)
 41:   1530.88   0.013629   68.87  0.002778  (-0.052692 -0.001270  0.000049)
 42:   1616.61   0.092488  467.40  0.017854  ( 0.123476  0.051059 -0.000315)
 43:   1689.91   0.022006  111.21  0.004064  ( 0.047973  0.041979 -0.000093)
 44:   2990.03   0.024549  124.06  0.002562  (-0.040392  0.030505  0.000072)
 45:   3059.05   0.008794   44.44  0.000897  ( 0.000073  0.000034 -0.029951)
 46:   3127.70   0.004678   23.64  0.000467  ( 0.018508  0.011146  0.000024)
 47:   3186.51   0.004557   23.03  0.000446  (-0.018772  0.009692 -0.000005)
 48:   3187.04   0.002024   10.23  0.000198  ( 0.013447  0.004160  0.000011)
 49:   3204.49   0.005175   26.15  0.000504  (-0.001709 -0.022384  0.000002)
 50:   3210.16   0.002046   10.34  0.000199  ( 0.007259 -0.012092 -0.000015)

--------------------------
THERMOCHEMISTRY AT 298.15K
--------------------------

Temperature         ...   298.15 K
Pressure            ...     1.00 atm
Total Mass          ...   138.14 AMU
Quasi RRHO          ...     True
Cut-Off Frequency   ...     1.00 cm^-1

Throughout the following assumptions are being made:
  (1) The electronic state is orbitally nondegenerate
      but the spin degeneracy is treated
  (2) There are no thermally accessible electronically excited states
  (3) Hindered rotations indicated by low frequency modes are not
      treated as such but are treated as vibrations and this may
      cause some error
  (4) All equations used are the standard statistical mechanics
      equations for an ideal gas
  (5) All vibrations are strictly harmonic

freq.      93.87  E(vib)   ...       0.47
freq.     114.88  E(vib)   ...       0.44
freq.     141.01  E(vib)   ...       0.41
freq.     186.63  E(vib)   ...       0.37
freq.     267.48  E(vib)   ...       0.29
freq.     333.39  E(vib)   ...       0.24
freq.     378.94  E(vib)   ...       0.21
freq.     385.40  E(vib)   ...       0.20
freq.     448.27  E(vib)   ...       0.17
freq.     470.47  E(vib)   ...       0.15
freq.     547.00  E(vib)   ...       0.12
freq.     555.62  E(vib)   ...       0.12
freq.     638.28  E(vib)   ...       0.09
freq.     687.68  E(vib)   ...       0.07
freq.     690.67  E(vib)   ...       0.07
freq.     772.51  E(vib)   ...       0.05
freq.     795.83  E(vib)   ...       0.05
freq.     811.59  E(vib)   ...       0.05
freq.     935.34  E(vib)   ...       0.03
freq.     952.96  E(vib)   ...       0.03
freq.     961.11  E(vib)   ...       0.03
freq.     989.78  E(vib)   ...       0.02
freq.    1005.66  E(vib)   ...       0.02
freq.    1071.34  E(vib)   ...       0.02
freq.    1085.80  E(vib)   ...       0.02
freq.    1141.57  E(vib)   ...       0.01
freq.    1249.88  E(vib)   ...       0.01
freq.    1271.83  E(vib)   ...       0.01
freq.    1344.50  E(vib)   ...       0.01
freq.    1356.33  E(vib)   ...       0.01
freq.    1376.63  E(vib)   ...       0.01
freq.    1434.88  E(vib)   ...       0.00
freq.    1437.61  E(vib)   ...       0.00
freq.    1443.83  E(vib)   ...       0.00
freq.    1523.33  E(vib)   ...       0.00
freq.    1530.88  E(vib)   ...       0.00
freq.    1616.61  E(vib)   ...       0.00
freq.    1689.91  E(vib)   ...       0.00
freq.    2990.03  E(vib)   ...       0.00
freq.    3059.05  E(vib)   ...       0.00
freq.    3127.70  E(vib)   ...       0.00
freq.    3186.51  E(vib)   ...       0.00
freq.    3187.04  E(vib)   ...       0.00
freq.    3204.49  E(vib)   ...       0.00
freq.    3210.16  E(vib)   ...       0.00

------------
INNER ENERGY
------------

The inner energy is: U= E(el) + E(ZPE) + E(vib) + E(rot) + E(trans)
    E(el)   - is the total energy from the electronic structure calculation
              = E(kin-el) + E(nuc-el) + E(el-el) + E(nuc-nuc)
    E(ZPE)  - the the zero temperature vibrational energy from the frequency calculation
    E(vib)  - the the finite temperature correction to E(ZPE) due to population
              of excited vibrational states
    E(rot)  - is the rotational thermal energy
    E(trans)- is the translational thermal energy

Summary of contributions to the inner energy U:
Electronic energy                ...   -483.32217284 Eh
Zero point energy                ...      0.12690368 Eh      79.63 kcal/mol
Thermal vibrational correction   ...      0.00606630 Eh       3.81 kcal/mol
Thermal rotational correction    ...      0.00141627 Eh       0.89 kcal/mol
Thermal translational correction ...      0.00141627 Eh       0.89 kcal/mol
-----------------------------------------------------------------------
Total thermal energy                   -483.18637031 Eh

Summary of corrections to the electronic energy:
(perhaps to be used in another calculation)
Total thermal correction                  0.00889885 Eh       5.58 kcal/mol
Non-thermal (ZPE) correction              0.12690368 Eh      79.63 kcal/mol
-----------------------------------------------------------------------
Total correction                          0.13580253 Eh      85.22 kcal/mol

--------
ENTHALPY
--------

The enthalpy is H = U + kB*T
                kB is Boltzmann's constant
Total thermal energy              ...   -483.18637031 Eh
Thermal Enthalpy correction       ...      0.00094421 Eh       0.59 kcal/mol
-----------------------------------------------------------------------
Total Enthalpy                    ...   -483.18542610 Eh

Note: Only C1 symmetry has been detected, increase convergence thresholds
      if your molecule has a higher symmetry. Symmetry factor of 1.0 is
      used for the rotational entropy correction.

Note: Rotational entropy computed according to Herzberg
Infrared and Raman Spectra, Chapter V,1, Van Nostrand Reinhold, 1945
Point Group:  C1, Symmetry Number:   1
Rotational constants in cm-1:     0.120477     0.025447     0.021093

Vibrational entropy computed according to the QRRHO of S. Grimme
Chem.Eur.J. 2012 18 9955 using a reference frequency of 100.0 cm-1

-------
ENTROPY
-------

The entropy contributions are T*S = T*(S(el)+S(vib)+S(rot)+S(trans))
     S(el)   - electronic entropy
     S(vib)  - vibrational entropy
     S(rot)  - rotational entropy
     S(trans)- translational entropy
The entropies will be listed as multiplied by the temperature to get
units of energy

Electronic entropy                ...      0.00065446 Eh      0.41 kcal/mol
Vibrational entropy               ...      0.01015160 Eh      6.37 kcal/mol
Rotational entropy                ...      0.01406471 Eh      8.83 kcal/mol
Translational entropy             ...      0.01932885 Eh     12.13 kcal/mol
-----------------------------------------------------------------------
Final entropy term                ...      0.04419961 Eh     27.74 kcal/mol

In case the symmetry of your molecule has not been determined correctly
or in case you have a reason to use a different symmetry number we print
out the resulting rotational entropy values for sn=1,12:

 non-linear molecules -----------------------------------
|  sn= 1 | S(rot)=       0.01406471 Eh      8.83 kcal/mol|
|  sn= 2 | S(rot)=       0.01341026 Eh      8.42 kcal/mol|
|  sn= 3 | S(rot)=       0.01302742 Eh      8.17 kcal/mol|
|  sn= 4 | S(rot)=       0.01275580 Eh      8.00 kcal/mol|
|  sn= 5 | S(rot)=       0.01254511 Eh      7.87 kcal/mol|
|  sn= 6 | S(rot)=       0.01237297 Eh      7.76 kcal/mol|
|  sn= 7 | S(rot)=       0.01222742 Eh      7.67 kcal/mol|
|  sn= 8 | S(rot)=       0.01210134 Eh      7.59 kcal/mol|
|  sn= 9 | S(rot)=       0.01199013 Eh      7.52 kcal/mol|
|  sn=10 | S(rot)=       0.01189065 Eh      7.46 kcal/mol|
|  sn=11 | S(rot)=       0.01180066 Eh      7.41 kcal/mol|
|  sn=12 | S(rot)=       0.01171851 Eh      7.35 kcal/mol|
 linear molecules ---------------------------------------
|  Dinfh | S(rot)=       0.00896922 Eh      5.63 kcal/mol|

                             ****ORCA TERMINATED NORMALLY****
TOTAL RUN TIME: 0 days 0 hours 8 minutes 2 seconds 397 msec
