                         Program Version 6.0.0  -   RELEASE  -
|  1> !PBE0 aug-cc-pVTZ d3 TightSCF SlowConv RIJCOSX defgrid2
|  2>
|  3> %pal
|  4> nprocs 4
|  5> end
|  6>
|  7> %scf
|  8> MaxIter 1500
|  9> end
| 10>
| 11> %maxcore 3000
| 12>
| 13> !CPCM
| 14> %cpcm smd true
| 15> SMDsolvent "MeCN"
| 16> surfacetype gepol_ses
| 17> rsolv 2.19
| 18> end
| 19>
| 20> * xyz 0 1
| 21> C          -0.70040560978015      1.38862025457992      0.01444069210645
| 22> C          -1.91245524702018      0.69567306005554      0.01462586157947
| 23> C          -1.91249387248428     -0.69558156366748     -0.01462751179559
| 24> C          -0.70048149668899     -1.38859471559027     -0.01444474347923
| 25> C           0.51701567119323     -0.70749863359451      0.00344351300980
| 26> N           1.75688785576029     -1.35032496518044     -0.01869709041630
| 27> H           2.43013802514878     -0.92879340551386      0.62128772624243
| 28> H           1.70402046370050     -2.35551735549936      0.11662272713410
| 29> C           0.51705531626238      0.70745871640913     -0.00345498008622
| 30> N           1.75696057869555      1.35021757408851      0.01868096018628
| 31> H           2.43019999443086      0.92862198390732     -0.62127304374208
| 32> H           1.70415275870095      2.35540776572739     -0.11667373624575
| 33> H          -0.69435322474112     -2.48383255240663     -0.01483473135793
| 34> H          -2.85473613557899     -1.25061144525607     -0.02611079663032
| 35> H          -2.85466720705613      1.25075497082180      0.02610952373100
| 36> H          -0.69421807054270      2.48385751111900      0.01483302976389
| 37> *
| 38>
| 39>                          ****END OF INPUT****

CARTESIAN COORDINATES (ANGSTROEM)
---------------------------------
  C     -0.700406    1.388620    0.014441
  C     -1.912455    0.695673    0.014626
  C     -1.912494   -0.695582   -0.014628
  C     -0.700481   -1.388595   -0.014445
  C      0.517016   -0.707499    0.003444
  N      1.756888   -1.350325   -0.018697
  H      2.430138   -0.928793    0.621288
  H      1.704020   -2.355517    0.116623
  C      0.517055    0.707459   -0.003455
  N      1.756961    1.350218    0.018681
  H      2.430200    0.928622   -0.621273
  H      1.704153    2.355408   -0.116674
  H     -0.694353   -2.483833   -0.014835
  H     -2.854736   -1.250611   -0.026111
  H     -2.854667    1.250755    0.026110
  H     -0.694218    2.483858    0.014833

 Total Charge           Charge          ....    0
 Multiplicity           Mult            ....    1
 Number of Electrons    NEL             ....   58
 Basis Dimension        Dim             ....  552

ORBITAL ENERGIES
----------------

  NO   OCC          E(Eh)            E(eV)
   0   2.0000     -14.384297      -391.4166
   1   2.0000     -14.384278      -391.4161
   2   2.0000     -10.260882      -279.2128
   3   2.0000     -10.260332      -279.1978
   4   2.0000     -10.221332      -278.1366
   5   2.0000     -10.221311      -278.1360
   6   2.0000     -10.219451      -278.0854
   7   2.0000     -10.218812      -278.0680
   8   2.0000      -0.961279       -26.1577
   9   2.0000      -0.911599       -24.8059
  10   2.0000      -0.853078       -23.2134
  11   2.0000      -0.752967       -20.4893
  12   2.0000      -0.735639       -20.0177
  13   2.0000      -0.632147       -17.2016
  14   2.0000      -0.608080       -16.5467
  15   2.0000      -0.537156       -14.6168
  16   2.0000      -0.529795       -14.4165
  17   2.0000      -0.500724       -13.6254
  18   2.0000      -0.484121       -13.1736
  19   2.0000      -0.450805       -12.2670
  20   2.0000      -0.430980       -11.7276
  21   2.0000      -0.429901       -11.6982
  22   2.0000      -0.410279       -11.1643
  23   2.0000      -0.367408        -9.9977
  24   2.0000      -0.351528        -9.5656
  25   2.0000      -0.330707        -8.9990
  26   2.0000      -0.322759        -8.7827
  27   2.0000      -0.242945        -6.6109
  28   2.0000      -0.207250        -5.6396
  29   0.0000      -0.002080        -0.0566
  30   0.0000      -0.000094        -0.0026
  31   0.0000       0.011859         0.3227
  32   0.0000       0.013444         0.3658
  33   0.0000       0.016125         0.4388

MULLIKEN ATOMIC CHARGES
-----------------------
   0 C :   -0.964975
   1 C :   -0.636351
   2 C :   -0.640458
   3 C :   -0.965838
   4 C :    0.981203
   5 N :   -0.588524
   6 H :    0.092674
   7 H :    0.011538
   8 C :    0.983835
   9 N :   -0.588731
  10 H :    0.092481
  11 H :    0.011501
  12 H :    0.514392
  13 H :    0.590445
  14 H :    0.592239
  15 H :    0.514569
Sum of atomic charges:    0.0000000

LOEWDIN ATOMIC CHARGES
----------------------
   0 C :    0.189543
   1 C :    0.147879
   2 C :    0.147883
   3 C :    0.189551
   4 C :   -0.252365
   5 N :    0.850142
   6 H :   -0.300572
   7 H :   -0.286665
   8 C :   -0.252377
   9 N :    0.850119
  10 H :   -0.300612
  11 H :   -0.286657
  12 H :   -0.167579
  13 H :   -0.180352
  14 H :   -0.180352
  15 H :   -0.167584

  Mayer bond orders larger than 0.100000
B(  0-C ,  1-C ) :   1.5086 B(  0-C ,  8-C ) :   0.9141 B(  0-C , 15-H ) :   0.3854
B(  1-C ,  2-C ) :   1.3931 B(  1-C ,  8-C ) :  -0.2160 B(  1-C , 14-H ) :   0.4204
B(  2-C ,  3-C ) :   1.5118 B(  2-C ,  4-C ) :  -0.2142 B(  2-C , 13-H ) :   0.4237
B(  3-C ,  4-C ) :   0.9140 B(  3-C , 12-H ) :   0.3854 B(  4-C ,  5-N ) :   0.2584
B(  4-C ,  8-C ) :   0.8427 B(  4-C ,  9-N ) :   0.1294 B(  4-C , 12-H ) :   0.1256
B(  5-N ,  6-H ) :   1.0500 B(  5-N ,  7-H ) :   1.0976 B(  5-N ,  8-C ) :   0.1274
B(  8-C ,  9-N ) :   0.2557 B(  8-C , 15-H ) :   0.1250 B(  9-N , 10-H ) :   1.0498
B(  9-N , 11-H ) :   1.0983

Dispersion correction           -0.013880249
FINAL SINGLE POINT ENERGY      -342.716535608132

DIPOLE MOMENT
-------------

Method             : SCF
Type of density    : Electron Density
Multiplicity       :   1
Irrep              :   0
Energy             :  -342.7026553591023230 Eh
Relativity type    :
Basis              : AO
                                X                 Y                 Z
Electronic contribution:     -0.265155683      -0.000072197      -0.000056519
Nuclear contribution   :      1.113968872      -0.000058108      -0.000004171
                        -----------------------------------------
Total Dipole Moment    :      0.848813189      -0.000130304      -0.000060690
                        -----------------------------------------
Magnitude (a.u.)       :      0.848813202
Magnitude (Debye)      :      2.157511698

Rotational constants in cm-1:             0.112095             0.073765             0.044684
Rotational constants in MHz :          3360.536612          2211.428639          1339.595991

                             ****ORCA TERMINATED NORMALLY****
TOTAL RUN TIME: 0 days 0 hours 4 minutes 9 seconds 702 msec
