                         Program Version 6.0.0  -   RELEASE  -
|  1> !r2SCANh opt aug-cc-pVTZ d3 TightSCF SlowConv RIJCOSX defgrid2
|  2>
|  3> %pal
|  4> nprocs 8
|  5> end
|  6>
|  7> %scf
|  8> MaxIter 1500
|  9> end
| 10>
| 11> %maxcore 3500
| 12>
| 13> !CPCM
| 14> %cpcm smd true
| 15> SMDsolvent "MeCN"
| 16> surfacetype gepol_ses
| 17> rsolv 2.19
| 18> end
| 19>
| 20> * xyz 1 2
| 21> C           1.36337197862367      0.00925782782262      0.00042331345329
| 22> C           0.74822645901465      1.29296895528656      0.00038316234352
| 23> C          -0.61529602246028      1.39626207073000      0.00023060917101
| 24> C          -1.42835414240665      0.22289484643639      0.00009324782531
| 25> C          -0.81975705014986     -1.06228254929373      0.00009847310954
| 26> C           0.54832834357610     -1.16073135173507      0.00023403456932
| 27> H           1.01965556748509     -2.14817388841103      0.00023835116044
| 28> H          -1.42717703035162     -1.96898347753981      0.00000365697629
| 29> O          -2.71426815111900      0.42982708435483     -0.00003024655139
| 30> C          -3.65743877124361     -0.63904368121668     -0.00016458675956
| 31> H          -4.64491010243250     -0.16049105257969     -0.00025717007063
| 32> H          -3.53752517507174     -1.25276547158578     -0.90821236062697
| 33> H          -3.53771725035146     -1.25281703649443      0.90787613291043
| 34> H          -1.11664261012245      2.36720004312394      0.00019734665612
| 35> H           1.36186872975284      2.19800021241604      0.00046058429736
| 36> S           3.05618464536732     -0.23274264105176      0.00049319565771
| 37> H           3.42654608188951      1.07420050973759     -0.00198104412179
| 38> *
| 39>
| 40>                          ****END OF INPUT****
 Total Charge           Charge          ....    1
 Multiplicity           Mult            ....    2
 Number of Electrons    NEL             ....   73
Dispersion correction           -0.005704695
FINAL SINGLE POINT ENERGY      -744.681382118321
Dispersion correction             ... done (  0.1 sec)
Dispersion correction           -0.005728307
FINAL SINGLE POINT ENERGY      -744.682898266320
Dispersion correction             ... done (  0.1 sec)
Dispersion correction           -0.005733705
FINAL SINGLE POINT ENERGY      -744.683009424630
Dispersion correction             ... done (  0.1 sec)
FINAL SINGLE POINT ENERGY      -744.683009872831
Dispersion correction             ... done (  0.1 sec)
Dispersion correction           -0.005734297
FINAL SINGLE POINT ENERGY      -744.683042655147
Dispersion correction             ... done (  0.1 sec)
Dispersion correction           -0.005733993
FINAL SINGLE POINT ENERGY      -744.683048074487
Dispersion correction             ... done (  0.1 sec)
                    ***********************HURRAY********************

CARTESIAN COORDINATES (ANGSTROEM)
---------------------------------
  C      1.332583    0.001701   -0.001600
  C      0.744185    1.287968   -0.004023
  C     -0.609908    1.403015   -0.002955
  C     -1.421348    0.239244   -0.001046
  C     -0.837552   -1.047992   -0.003345
  C      0.520832   -1.159089   -0.003019
  H      0.982487   -2.136577   -0.003387
  H     -1.451744   -1.933684   -0.003466
  O     -2.712976    0.457503    0.002771
  C     -3.629165   -0.655592    0.002828
  H     -4.615515   -0.208822    0.005589
  H     -3.484711   -1.251818   -0.894657
  H     -3.481406   -1.255377    0.897522
  H     -1.092824    2.369199   -0.002730
  H      1.369478    2.168739   -0.007021
  S      3.027981   -0.234005    0.005692
  H      3.384698    1.068167    0.012934

 Multiplicity           Mult            ....    2
 Number of Electrons    NEL             ....   73
 Basis Dimension        Dim             ....  602

ORBITAL ENERGIES
----------------
                 SPIN UP ORBITALS
  NO   OCC          E(Eh)            E(eV)
   0   1.0000     -88.974862     -2421.1291
   1   1.0000     -19.215781      -522.8880
   2   1.0000     -10.284179      -279.8467
   3   1.0000     -10.259439      -279.1735
   4   1.0000     -10.218222      -278.0520
   5   1.0000     -10.212650      -277.9003
   6   1.0000     -10.208039      -277.7749
   7   1.0000     -10.203287      -277.6455
   8   1.0000     -10.202842      -277.6335
   9   1.0000      -8.039515      -218.7663
  10   1.0000      -5.959936      -162.1781
  11   1.0000      -5.957563      -162.1135
  12   1.0000      -5.955877      -162.0676
  13   1.0000      -1.139907       -31.0184
  14   1.0000      -0.921037       -25.0627
  15   1.0000      -0.845065       -22.9954
  16   1.0000      -0.804662       -21.8960
  17   1.0000      -0.768324       -20.9072
  18   1.0000      -0.714084       -19.4312
  19   1.0000      -0.656147       -17.8547
  20   1.0000      -0.623070       -16.9546
  21   1.0000      -0.566395       -15.4124
  22   1.0000      -0.535190       -14.5633
  23   1.0000      -0.509507       -13.8644
  24   1.0000      -0.506151       -13.7731
  25   1.0000      -0.471926       -12.8418
  26   1.0000      -0.459606       -12.5065
  27   1.0000      -0.447427       -12.1751
  28   1.0000      -0.431703       -11.7472
  29   1.0000      -0.422593       -11.4993
  30   1.0000      -0.391350       -10.6492
  31   1.0000      -0.387287       -10.5386
  32   1.0000      -0.381588       -10.3835
  33   1.0000      -0.353895        -9.6300
  34   1.0000      -0.326873        -8.8947
  35   1.0000      -0.303815        -8.2672
  36   1.0000      -0.251694        -6.8490
  37   0.0000      -0.071368        -1.9420
  38   0.0000      -0.064336        -1.7507
  39   0.0000      -0.025103        -0.6831
  40   0.0000       0.008623         0.2346
  41   0.0000       0.013329         0.3627

                 SPIN DOWN ORBITALS
  NO   OCC          E(Eh)            E(eV)
   0   1.0000     -88.972740     -2421.0714
   1   1.0000     -19.209877      -522.7273
   2   1.0000     -10.281057      -279.7618
   3   1.0000     -10.254974      -279.0520
   4   1.0000     -10.218415      -278.0572
   5   1.0000     -10.211862      -277.8789
   6   1.0000     -10.208130      -277.7773
   7   1.0000     -10.202121      -277.6138
   8   1.0000     -10.201993      -277.6103
   9   1.0000      -8.037992      -218.7249
  10   1.0000      -5.958799      -162.1472
  11   1.0000      -5.954830      -162.0392
  12   1.0000      -5.951543      -161.9497
  13   1.0000      -1.130596       -30.7651
  14   1.0000      -0.912934       -24.8422
  15   1.0000      -0.836066       -22.7505
  16   1.0000      -0.802313       -21.8321
  17   1.0000      -0.763628       -20.7794
  18   1.0000      -0.705294       -19.1920
  19   1.0000      -0.651782       -17.7359
  20   1.0000      -0.617607       -16.8059
  21   1.0000      -0.564142       -15.3511
  22   1.0000      -0.533620       -14.5205
  23   1.0000      -0.506144       -13.7729
  24   1.0000      -0.488946       -13.3049
  25   1.0000      -0.469228       -12.7683
  26   1.0000      -0.458930       -12.4881
  27   1.0000      -0.444883       -12.1059
  28   1.0000      -0.420718       -11.4483
  29   1.0000      -0.413271       -11.2457
  30   1.0000      -0.389563       -10.6005
  31   1.0000      -0.376760       -10.2522
  32   1.0000      -0.367718       -10.0061
  33   1.0000      -0.350822        -9.5463
  34   1.0000      -0.301612        -8.2073
  35   1.0000      -0.296897        -8.0790
  36   0.0000      -0.195666        -5.3243
  37   0.0000      -0.053481        -1.4553
  38   0.0000      -0.040238        -1.0949
  39   0.0000      -0.022516        -0.6127
  40   0.0000       0.010001         0.2721

MULLIKEN ATOMIC CHARGES AND SPIN POPULATIONS
--------------------------------------------
   0 C :    0.862520    0.195988
   1 C :   -0.619119   -0.027679
   2 C :   -0.804914    0.056808
   3 C :    1.234164    0.173240
   4 C :   -0.198907    0.015824
   5 C :   -0.803331    0.051075
   6 H :    0.463189   -0.001219
   7 H :    0.456687    0.013933
   8 O :   -0.627972    0.171091
   9 C :   -0.677874   -0.016784
  10 H :    0.263838   -0.000781
  11 H :    0.304934    0.006976
  12 H :    0.304591    0.006987
  13 H :    0.587646    0.007432
  14 H :    0.327246   -0.000300
  15 S :   -0.249540    0.389812
  16 H :    0.176842   -0.042404
Sum of atomic charges         :    1.0000000

LOEWDIN ATOMIC CHARGES AND SPIN POPULATIONS
-------------------------------------------
   0 C :   -0.541844    0.167400
   1 C :    0.181178    0.041186
   2 C :    0.266090    0.065423
   3 C :   -0.343654    0.131275
   4 C :    0.267700    0.061320
   5 C :    0.166527    0.060531
   6 H :   -0.167142    0.003286
   7 H :   -0.170428    0.005971
   8 O :    0.653003    0.147740
   9 C :    0.447725    0.013580
  10 H :   -0.164988   -0.000538
  11 H :   -0.156705    0.003697
  12 H :   -0.156521    0.003690
  13 H :   -0.150474    0.007404
  14 H :   -0.169831   -0.000988
  15 S :    1.512354    0.251762
  16 H :   -0.472989    0.037260

  Mayer bond orders larger than 0.100000
B(  0-C ,  1-C ) :   0.7709 B(  0-C ,  5-C ) :   0.9525 B(  0-C , 15-S ) :   0.5034
B(  1-C ,  2-C ) :   1.4622 B(  1-C ,  3-C ) :  -0.2966 B(  1-C , 14-H ) :   0.7561
B(  2-C ,  3-C ) :   0.5701 B(  2-C ,  4-C ) :   0.1308 B(  2-C ,  8-O ) :   0.2940
B(  2-C , 13-H ) :   0.3074 B(  3-C ,  4-C ) :   0.8298 B(  3-C ,  5-C ) :  -0.2718
B(  3-C ,  8-O ) :   0.4914 B(  4-C ,  5-C ) :   1.0927 B(  4-C ,  7-H ) :   0.4612
B(  4-C ,  8-O ) :  -0.1729 B(  4-C ,  9-C ) :  -0.1232 B(  4-C , 15-S ) :   0.1201
B(  5-C ,  6-H ) :   0.6262 B(  5-C , 15-S ) :   0.1400 B(  8-O ,  9-C ) :   0.9617
B(  9-C , 10-H ) :   0.9730 B(  9-C , 11-H ) :   0.8848 B(  9-C , 12-H ) :   0.8851
B( 15-S , 16-H ) :   1.0354

Dispersion correction           -0.005733908
FINAL SINGLE POINT ENERGY      -744.683047830883

DIPOLE MOMENT
-------------

Method             : SCF
Type of density    : Electron Density
Multiplicity       :   2
Irrep              :   0
Energy             :  -744.6773139230905372 Eh
Relativity type    :
Basis              : AO
                                X                 Y                 Z
Electronic contribution:      7.628848138       0.920181089      -0.000131719
Nuclear contribution   :     -7.911451560      -1.064795381       0.000433146
                        -----------------------------------------
Total Dipole Moment    :     -0.282603422      -0.144614292       0.000301427
                        -----------------------------------------
Magnitude (a.u.)       :      0.317455633
Magnitude (Debye)      :      0.806908092

Rotational constants in cm-1:             0.155229             0.023960             0.020839
Rotational constants in MHz :          4653.637083           718.307086           624.752386

                             ****ORCA TERMINATED NORMALLY****
TOTAL RUN TIME: 0 days 0 hours 36 minutes 27 seconds 578 msec
