                         Program Version 6.0.0  -   RELEASE  -
|  1> !PBE0 aug-cc-pVTZ d3 TightSCF SlowConv RIJCOSX defgrid2
|  2>
|  3> %pal
|  4> nprocs 4
|  5> end
|  6>
|  7> %scf
|  8> MaxIter 1500
|  9> end
| 10>
| 11> %maxcore 3000
| 12>
| 13> !CPCM
| 14> %cpcm smd true
| 15> SMDsolvent "MeCN"
| 16> surfacetype gepol_ses
| 17> rsolv 2.19
| 18> end
| 19>
| 20> * xyz 1 2
| 21> C          -0.08274669059718     -1.04399274826201      0.00954198550444
| 22> C          -1.44314186979999     -1.21224349192059      0.01464115375041
| 23> C          -2.32257727617337     -0.09487222329371      0.01274887003500
| 24> C          -1.76475290459407      1.20761482302953      0.00780256836072
| 25> C          -0.40273191503338      1.38761253420536      0.00299374201136
| 26> C           0.48723075022230      0.26923379961588      0.00339892002300
| 27> C           1.88361104255076      0.51997141228763     -0.00136731410568
| 28> C           2.88609272782847     -0.43252038403740     -0.00211440107444
| 29> C           4.32371272330116     -0.12403052833475     -0.00716059814151
| 30> H           4.81199450703941     -0.59263895023193      0.87108589562038
| 31> H           4.80704713115468     -0.59771697456439     -0.88539713829447
| 32> H           4.53724499406217      0.95562079688104     -0.01081444259812
| 33> H           2.61316130337916     -1.49525746809077      0.00127055185440
| 34> H           2.19060539304120      1.57295312497944     -0.00515248687208
| 35> H           0.01742107746022      2.39740330737597      0.00010725500974
| 36> H          -2.43168783850088      2.07400339025986      0.00974847718212
| 37> C          -3.79206162044774     -0.30228879497229     -0.00564898818348
| 38> H          -4.34940861071486      0.62196968873633      0.20771494941170
| 39> H          -4.10189712650768     -0.66414858988669     -1.00697947362935
| 40> H          -4.09284114272650     -1.08666315679518      0.71118909458011
| 41> H          -1.86630567510074     -2.22073732773736      0.02172898720586
| 42> H           0.56388072015687     -1.92419663924397      0.01175289234987
| 43> *
| 44>
| 45>                          ****END OF INPUT****

CARTESIAN COORDINATES (ANGSTROEM)
---------------------------------
  C     -0.082747   -1.043993    0.009542
  C     -1.443142   -1.212243    0.014641
  C     -2.322577   -0.094872    0.012749
  C     -1.764753    1.207615    0.007803
  C     -0.402732    1.387613    0.002994
  C      0.487231    0.269234    0.003399
  C      1.883611    0.519971   -0.001367
  C      2.886093   -0.432520   -0.002114
  C      4.323713   -0.124031   -0.007161
  H      4.811995   -0.592639    0.871086
  H      4.807047   -0.597717   -0.885397
  H      4.537245    0.955621   -0.010814
  H      2.613161   -1.495257    0.001271
  H      2.190605    1.572953   -0.005152
  H      0.017421    2.397403    0.000107
  H     -2.431688    2.074003    0.009748
  C     -3.792062   -0.302289   -0.005649
  H     -4.349409    0.621970    0.207715
  H     -4.101897   -0.664149   -1.006979
  H     -4.092841   -1.086663    0.711189
  H     -1.866306   -2.220737    0.021729
  H      0.563881   -1.924197    0.011753

 Total Charge           Charge          ....    1
 Multiplicity           Mult            ....    2
 Number of Electrons    NEL             ....   71
 Basis Dimension        Dim             ....  736

ORBITAL ENERGIES
----------------
                 SPIN UP ORBITALS
  NO   OCC          E(Eh)            E(eV)
   0   1.0000     -10.300209      -280.2829
   1   1.0000     -10.296201      -280.1739
   2   1.0000     -10.293837      -280.1096
   3   1.0000     -10.281453      -279.7726
   4   1.0000     -10.271982      -279.5149
   5   1.0000     -10.271653      -279.5059
   6   1.0000     -10.259430      -279.1733
   7   1.0000     -10.259273      -279.1690
   8   1.0000     -10.238501      -278.6038
   9   1.0000     -10.233596      -278.4703
  10   1.0000      -0.929535       -25.2939
  11   1.0000      -0.876322       -23.8459
  12   1.0000      -0.827925       -22.5290
  13   1.0000      -0.805925       -21.9303
  14   1.0000      -0.761757       -20.7285
  15   1.0000      -0.705712       -19.2034
  16   1.0000      -0.663342       -18.0504
  17   1.0000      -0.638034       -17.3618
  18   1.0000      -0.599907       -16.3243
  19   1.0000      -0.553930       -15.0732
  20   1.0000      -0.520104       -14.1527
  21   1.0000      -0.498724       -13.5710
  22   1.0000      -0.472676       -12.8622
  23   1.0000      -0.461811       -12.5665
  24   1.0000      -0.458859       -12.4862
  25   1.0000      -0.457002       -12.4357
  26   1.0000      -0.449029       -12.2187
  27   1.0000      -0.419405       -11.4126
  28   1.0000      -0.414331       -11.2745
  29   1.0000      -0.409266       -11.1367
  30   1.0000      -0.394697       -10.7403
  31   1.0000      -0.389179       -10.5901
  32   1.0000      -0.369672       -10.0593
  33   1.0000      -0.342097        -9.3089
  34   1.0000      -0.304602        -8.2886
  35   1.0000      -0.269153        -7.3240
  36   0.0000      -0.089203        -2.4273
  37   0.0000      -0.038763        -1.0548
  38   0.0000      -0.000590        -0.0160
  39   0.0000       0.004614         0.1255
  40   0.0000       0.007353         0.2001

                 SPIN DOWN ORBITALS
  NO   OCC          E(Eh)            E(eV)
   0   1.0000     -10.293906      -280.1114
   1   1.0000     -10.291932      -280.0577
   2   1.0000     -10.291608      -280.0489
   3   1.0000     -10.280790      -279.7545
   4   1.0000     -10.270470      -279.4737
   5   1.0000     -10.270139      -279.4647
   6   1.0000     -10.260129      -279.1923
   7   1.0000     -10.259870      -279.1852
   8   1.0000     -10.238701      -278.6092
   9   1.0000     -10.233705      -278.4733
  10   1.0000      -0.922943       -25.1146
  11   1.0000      -0.865976       -23.5644
  12   1.0000      -0.817617       -22.2485
  13   1.0000      -0.804219       -21.8839
  14   1.0000      -0.760246       -20.6873
  15   1.0000      -0.699205       -19.0263
  16   1.0000      -0.659870       -17.9560
  17   1.0000      -0.632351       -17.2071
  18   1.0000      -0.595003       -16.1908
  19   1.0000      -0.551464       -15.0061
  20   1.0000      -0.517690       -14.0871
  21   1.0000      -0.496069       -13.4987
  22   1.0000      -0.470041       -12.7905
  23   1.0000      -0.461069       -12.5463
  24   1.0000      -0.454613       -12.3707
  25   1.0000      -0.445602       -12.1254
  26   1.0000      -0.434839       -11.8326
  27   1.0000      -0.416595       -11.3361
  28   1.0000      -0.408321       -11.1110
  29   1.0000      -0.400315       -10.8931
  30   1.0000      -0.393486       -10.7073
  31   1.0000      -0.387513       -10.5448
  32   1.0000      -0.367596       -10.0028
  33   1.0000      -0.317071        -8.6279
  34   1.0000      -0.300290        -8.1713
  35   0.0000      -0.183976        -5.0062
  36   0.0000      -0.058806        -1.6002
  37   0.0000      -0.028670        -0.7802
  38   0.0000      -0.000062        -0.0017
  39   0.0000       0.007937         0.2160

MULLIKEN ATOMIC CHARGES AND SPIN POPULATIONS
--------------------------------------------
   0 C :   -0.728256    0.069488
   1 C :   -1.054942   -0.035552
   2 C :    0.988552    0.287255
   3 C :   -0.871426   -0.037198
   4 C :   -0.943742    0.061261
   5 C :    1.765243    0.174274
   6 C :   -0.059155    0.090574
   7 C :   -0.295323    0.389262
   8 C :   -0.792267   -0.034308
   9 H :    0.250112    0.030503
  10 H :    0.246650    0.030382
  11 H :    0.301114   -0.007390
  12 H :    0.394393   -0.027461
  13 H :    0.238935    0.003121
  14 H :    0.348640   -0.002527
  15 H :    0.449426   -0.000380
  16 C :   -0.660951   -0.021954
  17 H :    0.274014   -0.002435
  18 H :    0.292172    0.023486
  19 H :    0.278525    0.011813
  20 H :    0.413764    0.002706
  21 H :    0.164523   -0.004922
Sum of atomic charges         :    1.0000000

LOEWDIN ATOMIC CHARGES AND SPIN POPULATIONS
-------------------------------------------
   0 C :    0.266715    0.063557
   1 C :    0.268560    0.030290
   2 C :   -0.077057    0.131677
   3 C :    0.271201    0.036141
   4 C :    0.264691    0.067093
   5 C :   -0.083880    0.110726
   6 C :    0.288019    0.112804
   7 C :    0.303511    0.219285
   8 C :    0.608599    0.070621
   9 H :   -0.136082    0.015639
  10 H :   -0.136091    0.015638
  11 H :   -0.151979    0.001598
  12 H :   -0.145132    0.036941
  13 H :   -0.147577    0.007242
  14 H :   -0.139348    0.009719
  15 H :   -0.144337   -0.002213
  16 C :    0.608160    0.045648
  17 H :   -0.151775    0.001927
  18 H :   -0.128778    0.013028
  19 H :   -0.140369    0.007548
  20 H :   -0.139611   -0.003249
  21 H :   -0.157442    0.008342

  Mayer bond orders larger than 0.100000
B(  0-C ,  1-C ) :   1.2754 B(  0-C ,  4-C ) :  -0.4418 B(  0-C ,  5-C ) :   0.4074
B(  0-C , 21-H ) :   1.2652 B(  1-C ,  2-C ) :   0.8672 B(  1-C , 20-H ) :   0.6548
B(  2-C ,  3-C ) :   0.8086 B(  2-C ,  5-C ) :  -0.1541 B(  2-C ,  6-C ) :   0.1608
B(  2-C , 16-C ) :   0.5795 B(  3-C ,  4-C ) :   1.7071 B(  3-C ,  5-C ) :  -0.1021
B(  3-C , 15-H ) :   0.6305 B(  3-C , 16-C ) :  -0.1693 B(  4-C ,  5-C ) :   0.1135
B(  4-C , 14-H ) :   0.9538 B(  5-C ,  6-C ) :   0.5511 B(  5-C ,  7-C ) :  -0.1335
B(  6-C ,  7-C ) :   0.9228 B(  6-C , 13-H ) :   0.9864 B(  7-C ,  8-C ) :   0.9075
B(  7-C , 12-H ) :   0.9414 B(  8-C ,  9-H ) :   0.9418 B(  8-C , 10-H ) :   0.9428
B(  8-C , 11-H ) :   0.8896 B(  8-C , 12-H ) :  -0.1066 B( 16-C , 17-H ) :   0.9174
B( 16-C , 18-H ) :   0.9124 B( 16-C , 19-H ) :   0.9151

Dispersion correction           -0.019166183
FINAL SINGLE POINT ENERGY      -387.762432260081

DIPOLE MOMENT
-------------

Method             : SCF
Type of density    : Electron Density
Multiplicity       :   2
Irrep              :   0
Energy             :  -387.7432660771399924 Eh
Relativity type    :
Basis              : AO
                                X                 Y                 Z
Electronic contribution:     -1.567371978       0.801329428       0.057137918
Nuclear contribution   :      2.533197376      -0.996205714      -0.098486582
                        -----------------------------------------
Total Dipole Moment    :      0.965825399      -0.194876287      -0.041348664
                        -----------------------------------------
Magnitude (a.u.)       :      0.986156773
Magnitude (Debye)      :      2.506611312

Rotational constants in cm-1:             0.153944             0.020635             0.018320
Rotational constants in MHz :          4615.121792           618.608795           549.210532

                             ****ORCA TERMINATED NORMALLY****
TOTAL RUN TIME: 0 days 0 hours 10 minutes 2 seconds 506 msec
