                         Program Version 6.0.0  -   RELEASE  -
|  1> !PBE0 aug-cc-pVTZ d3 TightSCF SlowConv RIJCOSX defgrid2
|  2>
|  3> %pal
|  4> nprocs 4
|  5> end
|  6>
|  7> %scf
|  8> MaxIter 1500
|  9> end
| 10>
| 11> %maxcore 3000
| 12>
| 13> !CPCM
| 14> %cpcm smd true
| 15> SMDsolvent "MeCN"
| 16> surfacetype gepol_ses
| 17> rsolv 2.19
| 18> end
| 19>
| 20> * xyz -1 2
| 21> C           0.22794298897248     -1.32265639381783      0.00010090294401
| 22> C           1.59543811909498     -1.22519922622522      0.00005920870666
| 23> C           2.24938913290759      0.05051285824288     -0.00006076880347
| 24> C           1.41323843170898      1.21344313185840     -0.00013147831105
| 25> C           0.04476039121495      1.11078484934738     -0.00009132277474
| 26> C          -0.60963123993324     -0.16243960932374      0.00001856177073
| 27> C          -2.03234655015939     -0.32642555516269      0.00004823556518
| 28> O          -2.66249266053587     -1.38070299418175      0.00028693239647
| 29> O          -2.71431442900417      0.87834037288675      0.00017303848078
| 30> C          -4.10409629646245      0.76410388717440      0.00037606736278
| 31> H          -4.47622443606713      0.22239507752821     -0.88993521865745
| 32> H          -4.50472531304601      1.79227894799534      0.00110489591886
| 33> H          -4.47585642501352      0.22119730713171      0.89009526934874
| 34> H          -0.56969461364873      2.01480881708110     -0.00015706084987
| 35> H           1.88675005189144      2.20080747549968     -0.00022323008499
| 36> C           3.65255521641015      0.15685604656258     -0.00011286386991
| 37> N           4.82172741475790      0.24605470544831     -0.00015284690981
| 38> H           2.21001750339424     -2.13142621067461      0.00011344187289
| 39> H          -0.26118628648220     -2.30109838737090      0.00018753589417
| 40> *
| 41>
| 42>                          ****END OF INPUT****

CARTESIAN COORDINATES (ANGSTROEM)
---------------------------------
  C      0.227943   -1.322656    0.000101
  C      1.595438   -1.225199    0.000059
  C      2.249389    0.050513   -0.000061
  C      1.413238    1.213443   -0.000131
  C      0.044760    1.110785   -0.000091
  C     -0.609631   -0.162440    0.000019
  C     -2.032347   -0.326426    0.000048
  O     -2.662493   -1.380703    0.000287
  O     -2.714314    0.878340    0.000173
  C     -4.104096    0.764104    0.000376
  H     -4.476224    0.222395   -0.889935
  H     -4.504725    1.792279    0.001105
  H     -4.475856    0.221197    0.890095
  H     -0.569695    2.014809   -0.000157
  H      1.886750    2.200807   -0.000223
  C      3.652555    0.156856   -0.000113
  N      4.821727    0.246055   -0.000153
  H      2.210018   -2.131426    0.000113
  H     -0.261186   -2.301098    0.000188

 Total Charge           Charge          ....   -1
 Multiplicity           Mult            ....    2
 Number of Electrons    NEL             ....   85
 Basis Dimension        Dim             ....  713

ORBITAL ENERGIES
----------------
                 SPIN UP ORBITALS
  NO   OCC          E(Eh)            E(eV)
   0   1.0000     -19.226305      -523.1743
   1   1.0000     -19.163383      -521.4622
   2   1.0000     -14.364869      -390.8880
   3   1.0000     -10.315336      -280.6946
   4   1.0000     -10.253443      -279.0104
   5   1.0000     -10.252607      -278.9876
   6   1.0000     -10.236941      -278.5613
   7   1.0000     -10.223529      -278.1964
   8   1.0000     -10.223472      -278.1948
   9   1.0000     -10.217969      -278.0451
  10   1.0000     -10.216857      -278.0148
  11   1.0000     -10.214037      -277.9381
  12   1.0000      -1.105506       -30.0824
  13   1.0000      -1.013755       -27.5857
  14   1.0000      -0.917823       -24.9752
  15   1.0000      -0.869980       -23.6734
  16   1.0000      -0.790865       -21.5205
  17   1.0000      -0.761660       -20.7258
  18   1.0000      -0.724237       -19.7075
  19   1.0000      -0.662893       -18.0382
  20   1.0000      -0.608041       -16.5456
  21   1.0000      -0.570793       -15.5321
  22   1.0000      -0.548243       -14.9184
  23   1.0000      -0.522720       -14.2239
  24   1.0000      -0.478700       -13.0261
  25   1.0000      -0.477513       -12.9938
  26   1.0000      -0.447368       -12.1735
  27   1.0000      -0.441506       -12.0140
  28   1.0000      -0.422802       -11.5050
  29   1.0000      -0.419125       -11.4050
  30   1.0000      -0.407998       -11.1022
  31   1.0000      -0.389282       -10.5929
  32   1.0000      -0.388951       -10.5839
  33   1.0000      -0.369583       -10.0569
  34   1.0000      -0.353926        -9.6308
  35   1.0000      -0.344596        -9.3769
  36   1.0000      -0.343805        -9.3554
  37   1.0000      -0.320797        -8.7293
  38   1.0000      -0.298519        -8.1231
  39   1.0000      -0.271618        -7.3911
  40   1.0000      -0.270786        -7.3685
  41   1.0000      -0.261526        -7.1165
  42   1.0000      -0.123052        -3.3484
  43   0.0000       0.001397         0.0380
  44   0.0000       0.001773         0.0483
  45   0.0000       0.012914         0.3514
  46   0.0000       0.018894         0.5141
  47   0.0000       0.023765         0.6467

                 SPIN DOWN ORBITALS
  NO   OCC          E(Eh)            E(eV)
   0   1.0000     -19.225463      -523.1514
   1   1.0000     -19.160231      -521.3764
   2   1.0000     -14.361391      -390.7933
   3   1.0000     -10.313954      -280.6569
   4   1.0000     -10.253490      -279.0117
   5   1.0000     -10.253087      -279.0007
   6   1.0000     -10.233037      -278.4551
   7   1.0000     -10.223041      -278.1831
   8   1.0000     -10.222978      -278.1814
   9   1.0000     -10.217246      -278.0254
  10   1.0000     -10.216148      -277.9955
  11   1.0000     -10.210521      -277.8424
  12   1.0000      -1.102689       -30.0057
  13   1.0000      -1.008870       -27.4527
  14   1.0000      -0.912553       -24.8318
  15   1.0000      -0.864842       -23.5335
  16   1.0000      -0.782286       -21.2871
  17   1.0000      -0.757448       -20.6112
  18   1.0000      -0.720713       -19.6116
  19   1.0000      -0.654959       -17.8223
  20   1.0000      -0.607151       -16.5214
  21   1.0000      -0.567594       -15.4450
  22   1.0000      -0.545810       -14.8523
  23   1.0000      -0.520273       -14.1574
  24   1.0000      -0.476090       -12.9551
  25   1.0000      -0.471411       -12.8277
  26   1.0000      -0.445471       -12.1219
  27   1.0000      -0.438976       -11.9452
  28   1.0000      -0.421510       -11.4699
  29   1.0000      -0.418093       -11.3769
  30   1.0000      -0.393684       -10.7127
  31   1.0000      -0.385769       -10.4973
  32   1.0000      -0.374310       -10.1855
  33   1.0000      -0.365784        -9.9535
  34   1.0000      -0.352509        -9.5922
  35   1.0000      -0.342450        -9.3185
  36   1.0000      -0.330996        -9.0068
  37   1.0000      -0.319336        -8.6896
  38   1.0000      -0.288765        -7.8577
  39   1.0000      -0.268543        -7.3074
  40   1.0000      -0.257938        -7.0189
  41   1.0000      -0.235968        -6.4210
  42   0.0000      -0.048510        -1.3200
  43   0.0000       0.003006         0.0818
  44   0.0000       0.004245         0.1155
  45   0.0000       0.013533         0.3683
  46   0.0000       0.020238         0.5507

MULLIKEN ATOMIC CHARGES AND SPIN POPULATIONS
--------------------------------------------
   0 C :   -1.232327    0.067309
   1 C :   -1.207479    0.050852
   2 C :    1.463631    0.249769
   3 C :   -1.379693    0.051033
   4 C :   -0.447361    0.070761
   5 C :    1.725286    0.229314
   6 C :    0.684207    0.062227
   7 O :   -0.951204    0.116538
   8 O :   -0.367323    0.024426
   9 C :   -0.696406   -0.003127
  10 H :    0.288511    0.001772
  11 H :    0.274639   -0.000692
  12 H :    0.288972    0.001751
  13 H :    0.243457   -0.013733
  14 H :    0.147173   -0.009268
  15 C :    0.756177   -0.043820
  16 N :   -0.902185    0.168762
  17 H :    0.155586   -0.011471
  18 H :    0.156339   -0.012403
Sum of atomic charges         :   -1.0000000

LOEWDIN ATOMIC CHARGES AND SPIN POPULATIONS
-------------------------------------------
   0 C :    0.150345    0.065809
   1 C :    0.147496    0.062490
   2 C :   -0.263937    0.139423
   3 C :    0.146497    0.062483
   4 C :    0.156134    0.067267
   5 C :   -0.207211    0.144625
   6 C :   -0.898930    0.103459
   7 O :    0.423936    0.101744
   8 O :    0.557915    0.030522
   9 C :    0.254356    0.002375
  10 H :   -0.180980    0.000760
  11 H :   -0.178893    0.000018
  12 H :   -0.181102    0.000757
  13 H :   -0.198460    0.008491
  14 H :   -0.177863    0.006997
  15 C :   -0.335958    0.064011
  16 N :    0.157666    0.123450
  17 H :   -0.178156    0.007014
  18 H :   -0.192856    0.008303

  Mayer bond orders larger than 0.100000
B(  0-C ,  1-C ) :   1.9555 B(  0-C ,  3-C ) :   0.1400 B(  0-C ,  4-C ) :  -0.7887
B(  0-C ,  6-C ) :   0.4242 B(  0-C , 15-C ) :  -0.1992 B(  0-C , 18-H ) :   1.1278
B(  1-C ,  2-C ) :   0.2182 B(  1-C ,  3-C ) :  -0.1457 B(  1-C ,  4-C ) :   0.1347
B(  1-C ,  5-C ) :  -0.2033 B(  1-C ,  6-C ) :  -0.1742 B(  1-C , 15-C ) :   0.3194
B(  1-C , 17-H ) :   1.1973 B(  1-C , 18-H ) :   0.1018 B(  2-C ,  3-C ) :   0.1751
B(  2-C ,  4-C ) :   0.1714 B(  2-C ,  5-C ) :  -0.1388 B(  2-C ,  6-C ) :   0.2801
B(  2-C , 14-H ) :  -0.2197 B(  2-C , 15-C ) :   0.8672 B(  2-C , 16-N ) :   0.5760
B(  2-C , 17-H ) :  -0.2075 B(  3-C ,  4-C ) :   1.5279 B(  3-C , 14-H ) :   1.2508
B(  3-C , 15-C ) :   0.3562 B(  3-C , 18-H ) :  -0.1121 B(  4-C ,  5-C ) :   0.3640
B(  4-C ,  6-C ) :   0.2288 B(  4-C , 13-H ) :   1.1222 B(  4-C , 15-C ) :  -0.2655
B(  5-C ,  6-C ) :   0.4974 B(  5-C ,  8-O ) :   0.1108 B(  5-C , 13-H ) :  -0.1368
B(  5-C , 15-C ) :   0.3893 B(  6-C ,  7-O ) :   0.9721 B(  6-C ,  8-O ) :   0.7966
B(  6-C , 15-C ) :   0.2019 B(  7-O , 18-H ) :   0.1629 B(  8-O ,  9-C ) :   1.0139
B(  9-C , 10-H ) :   0.9003 B(  9-C , 11-H ) :   0.9100 B(  9-C , 12-H ) :   0.8992
B( 13-H , 18-H ) :   0.1792 B( 14-H , 17-H ) :   0.1401 B( 15-C , 16-N ) :   1.2624

Dispersion correction           -0.017889812
FINAL SINGLE POINT ENERGY      -552.061620150322

DIPOLE MOMENT
-------------

Method             : SCF
Type of density    : Electron Density
Multiplicity       :   2
Irrep              :   0
Energy             :  -552.0437303384279630 Eh
Relativity type    :
Basis              : AO
                                X                 Y                 Z
Electronic contribution:      6.625910468      -1.041080420      -0.001117764
Nuclear contribution   :     -9.634977547       1.865335493       0.000753927
                        -----------------------------------------
Total Dipole Moment    :     -3.009067080       0.824255073      -0.000363836
                        -----------------------------------------
Magnitude (a.u.)       :      3.119916866
Magnitude (Debye)      :      7.930198449

Rotational constants in cm-1:             0.113906             0.014521             0.012911
Rotational constants in MHz :          3414.805321           435.337364           387.058045

                             ****ORCA TERMINATED NORMALLY****
TOTAL RUN TIME: 0 days 0 hours 8 minutes 5 seconds 968 msec
