                         Program Version 6.0.0  -   RELEASE  -
|  1> !TPSSh aug-cc-pVTZ d3 TightSCF SlowConv RIJCOSX defgrid2
|  2>
|  3> %pal
|  4> nprocs 4
|  5> end
|  6>
|  7> %scf
|  8> MaxIter 1500
|  9> end
| 10>
| 11> %maxcore 3000
| 12>
| 13> !CPCM
| 14> %cpcm smd true
| 15> SMDsolvent "MeCN"
| 16> surfacetype gepol_ses
| 17> rsolv 2.19
| 18> end
| 19>
| 20> * xyz 1 2
| 21> C           2.44830417164420     -0.69527642473796      0.00000945881878
| 22> C           2.44832214826430      0.69521603339414      0.00001009734484
| 23> C           1.23352505326865      1.40025135317577      0.00000577718412
| 24> C           0.00001141556131      0.71453178803145      0.00000268426234
| 25> C          -1.23348320904465      1.40028329659239      0.00000107782236
| 26> C          -2.44830108548662      0.69527938835391      0.00000695148737
| 27> C          -2.44832067103510     -0.69521530453956      0.00000530486429
| 28> C          -1.23352061718470     -1.40025032772324     -0.00000393184308
| 29> C          -0.00000717114678     -0.71452684352053     -0.00000494703196
| 30> C           1.23348727294566     -1.40028215170085     -0.00000132918117
| 31> H           1.23935708532449     -2.49454817867840      0.00000050523970
| 32> H          -1.23942268133971     -2.49451730914708     -0.00000545360366
| 33> H          -3.39340211959580     -1.24489598698530      0.00000832828244
| 34> H          -3.39336678788360      1.24498332942293      0.00000859404642
| 35> H          -1.23935478912557      2.49455128204595      0.00000167009943
| 36> H           1.23942795953164      2.49451607920762      0.00000299068588
| 37> H           3.39340268697296      1.24489500413589      0.00001313139295
| 38> H           3.39337233832933     -1.24497302732713      0.00001569012894
| 39> *
| 40>
| 41>                          ****END OF INPUT****

CARTESIAN COORDINATES (ANGSTROEM)
---------------------------------
  C      2.448304   -0.695276    0.000009
  C      2.448322    0.695216    0.000010
  C      1.233525    1.400251    0.000006
  C      0.000011    0.714532    0.000003
  C     -1.233483    1.400283    0.000001
  C     -2.448301    0.695279    0.000007
  C     -2.448321   -0.695215    0.000005
  C     -1.233521   -1.400250   -0.000004
  C     -0.000007   -0.714527   -0.000005
  C      1.233487   -1.400282   -0.000001
  H      1.239357   -2.494548    0.000001
  H     -1.239423   -2.494517   -0.000005
  H     -3.393402   -1.244896    0.000008
  H     -3.393367    1.244983    0.000009
  H     -1.239355    2.494551    0.000002
  H      1.239428    2.494516    0.000003
  H      3.393403    1.244895    0.000013
  H      3.393372   -1.244973    0.000016

 Total Charge           Charge          ....    1
 Multiplicity           Mult            ....    2
 Number of Electrons    NEL             ....   67
 Basis Dimension        Dim             ....  644

ORBITAL ENERGIES
----------------
                 SPIN UP ORBITALS
  NO   OCC          E(Eh)            E(eV)
   0   1.0000     -10.174581      -276.8644
   1   1.0000     -10.174568      -276.8641
   2   1.0000     -10.174560      -276.8639
   3   1.0000     -10.174551      -276.8636
   4   1.0000     -10.162032      -276.5230
   5   1.0000     -10.161655      -276.5127
   6   1.0000     -10.159744      -276.4607
   7   1.0000     -10.159743      -276.4607
   8   1.0000     -10.159236      -276.4469
   9   1.0000     -10.159228      -276.4466
  10   1.0000      -0.896713       -24.4008
  11   1.0000      -0.842880       -22.9359
  12   1.0000      -0.796982       -21.6870
  13   1.0000      -0.761598       -20.7241
  14   1.0000      -0.738922       -20.1071
  15   1.0000      -0.648861       -17.6564
  16   1.0000      -0.627419       -17.0729
  17   1.0000      -0.614029       -16.7086
  18   1.0000      -0.528997       -14.3947
  19   1.0000      -0.525588       -14.3020
  20   1.0000      -0.509193       -13.8558
  21   1.0000      -0.461833       -12.5671
  22   1.0000      -0.457593       -12.4517
  23   1.0000      -0.434981       -11.8364
  24   1.0000      -0.432291       -11.7632
  25   1.0000      -0.421930       -11.4813
  26   1.0000      -0.409027       -11.1302
  27   1.0000      -0.387468       -10.5435
  28   1.0000      -0.360529        -9.8105
  29   1.0000      -0.353971        -9.6320
  30   1.0000      -0.348340        -9.4788
  31   1.0000      -0.324428        -8.8281
  32   1.0000      -0.277480        -7.5506
  33   1.0000      -0.257459        -7.0058
  34   0.0000      -0.110601        -3.0096
  35   0.0000      -0.061093        -1.6624
  36   0.0000      -0.039288        -1.0691
  37   0.0000      -0.006679        -0.1817
  38   0.0000       0.005077         0.1381

                 SPIN DOWN ORBITALS
  NO   OCC          E(Eh)            E(eV)
   0   1.0000     -10.170648      -276.7574
   1   1.0000     -10.170631      -276.7569
   2   1.0000     -10.170629      -276.7569
   3   1.0000     -10.170615      -276.7565
   4   1.0000     -10.163098      -276.5520
   5   1.0000     -10.162722      -276.5417
   6   1.0000     -10.159110      -276.4434
   7   1.0000     -10.159109      -276.4434
   8   1.0000     -10.158597      -276.4295
   9   1.0000     -10.158589      -276.4293
  10   1.0000      -0.892612       -24.2892
  11   1.0000      -0.836888       -22.7729
  12   1.0000      -0.789032       -21.4707
  13   1.0000      -0.761067       -20.7097
  14   1.0000      -0.727812       -19.8048
  15   1.0000      -0.644218       -17.5301
  16   1.0000      -0.624458       -16.9924
  17   1.0000      -0.609762       -16.5925
  18   1.0000      -0.526503       -14.3269
  19   1.0000      -0.521665       -14.1952
  20   1.0000      -0.507452       -13.8085
  21   1.0000      -0.460083       -12.5195
  22   1.0000      -0.456799       -12.4301
  23   1.0000      -0.433148       -11.7866
  24   1.0000      -0.429948       -11.6995
  25   1.0000      -0.409560       -11.1447
  26   1.0000      -0.406646       -11.0654
  27   1.0000      -0.386639       -10.5210
  28   1.0000      -0.351927        -9.5764
  29   1.0000      -0.347758        -9.4630
  30   1.0000      -0.342703        -9.3254
  31   1.0000      -0.298853        -8.1322
  32   1.0000      -0.275879        -7.5070
  33   0.0000      -0.207261        -5.6399
  34   0.0000      -0.085449        -2.3252
  35   0.0000      -0.053995        -1.4693
  36   0.0000      -0.022034        -0.5996
  37   0.0000      -0.005770        -0.1570

MULLIKEN ATOMIC CHARGES AND SPIN POPULATIONS
--------------------------------------------
   0 C :   -0.250694    0.027107
   1 C :   -0.250277    0.027095
   2 C :   -0.762530    0.270922
   3 C :    1.290385   -0.098220
   4 C :   -0.760204    0.270925
   5 C :   -0.250846    0.027097
   6 C :   -0.247970    0.027093
   7 C :   -0.762426    0.270892
   8 C :    1.289251   -0.098222
   9 C :   -0.763445    0.270900
  10 H :    0.018860    0.002828
  11 H :    0.018037    0.002766
  12 H :    0.602108   -0.001678
  13 H :    0.592205   -0.001719
  14 H :    0.020465    0.002797
  15 H :    0.017973    0.002790
  16 H :    0.598704   -0.001688
  17 H :    0.600402   -0.001683
Sum of atomic charges         :    1.0000000

LOEWDIN ATOMIC CHARGES AND SPIN POPULATIONS
-------------------------------------------
   0 C :    0.274728    0.072109
   1 C :    0.274728    0.072107
   2 C :    0.296959    0.131417
   3 C :   -0.092235    0.030194
   4 C :    0.296960    0.131418
   5 C :    0.274728    0.072108
   6 C :    0.274729    0.072107
   7 C :    0.296963    0.131417
   8 C :   -0.092232    0.030193
   9 C :    0.296962    0.131417
  10 H :   -0.131370    0.024665
  11 H :   -0.131370    0.024665
  12 H :   -0.144201    0.006713
  13 H :   -0.144204    0.006713
  14 H :   -0.131367    0.024665
  15 H :   -0.131371    0.024665
  16 H :   -0.144202    0.006713
  17 H :   -0.144204    0.006713

  Mayer bond orders larger than 0.100000
B(  0-C ,  1-C ) :   1.3968 B(  0-C ,  3-C ) :  -0.2061 B(  0-C ,  9-C ) :   1.3639
B(  0-C , 16-H ) :   0.1665 B(  0-C , 17-H ) :   0.2877 B(  1-C ,  2-C ) :   1.3615
B(  1-C ,  8-C ) :  -0.2079 B(  1-C , 16-H ) :   0.2891 B(  1-C , 17-H ) :   0.1669
B(  2-C ,  3-C ) :   0.3558 B(  2-C ,  4-C ) :   0.3049 B(  2-C ,  8-C ) :  -0.2392
B(  2-C ,  9-C ) :   0.1039 B(  2-C , 15-H ) :   1.1625 B(  2-C , 16-H ) :  -0.1026
B(  3-C ,  4-C ) :   0.3553 B(  3-C ,  6-C ) :  -0.2070 B(  3-C ,  7-C ) :  -0.2397
B(  3-C ,  8-C ) :   1.2028 B(  3-C ,  9-C ) :  -0.2389 B(  4-C ,  5-C ) :   1.3586
B(  4-C ,  7-C ) :   0.1039 B(  4-C ,  8-C ) :  -0.2397 B(  4-C , 13-H ) :  -0.1019
B(  4-C , 14-H ) :   1.1606 B(  5-C ,  6-C ) :   1.3932 B(  5-C ,  8-C ) :  -0.2049
B(  5-C , 12-H ) :   0.1646 B(  5-C , 13-H ) :   0.2989 B(  6-C ,  7-C ) :   1.3618
B(  6-C , 12-H ) :   0.2867 B(  6-C , 13-H ) :   0.1668 B(  7-C ,  8-C ) :   0.3558
B(  7-C ,  9-C ) :   0.3015 B(  7-C , 11-H ) :   1.1641 B(  7-C , 12-H ) :  -0.1043
B(  8-C ,  9-C ) :   0.3560 B(  9-C , 10-H ) :   1.1617 B(  9-C , 17-H ) :  -0.1031
B( 12-H , 13-H ) :   0.1175 B( 16-H , 17-H ) :   0.1199

Dispersion correction           -0.024676401
FINAL SINGLE POINT ENERGY      -385.877524329437

DIPOLE MOMENT
-------------

Method             : SCF
Type of density    : Electron Density
Multiplicity       :   2
Irrep              :   0
Energy             :  -385.8528479287404593 Eh
Relativity type    :
Basis              : AO
                                X                 Y                 Z
Electronic contribution:     -0.000002529      -0.000011339      -0.000015277
Nuclear contribution   :     -0.000000135       0.000002239       0.000018059
                        -----------------------------------------
Total Dipole Moment    :     -0.000002664      -0.000009100       0.000002782
                        -----------------------------------------
Magnitude (a.u.)       :      0.000009882
Magnitude (Debye)      :      0.000025117

Rotational constants in cm-1:             0.104687             0.040748             0.029331
Rotational constants in MHz :          3138.446851          1221.580167           879.321255

                             ****ORCA TERMINATED NORMALLY****
TOTAL RUN TIME: 0 days 0 hours 7 minutes 50 seconds 503 msec
