                         Program Version 6.0.0  -   RELEASE  -
|  1> !PBE0 aug-cc-pVTZ d3 TightSCF SlowConv RIJCOSX defgrid2
|  2>
|  3> %pal
|  4> nprocs 15
|  5> end
|  6>
|  7> %scf
|  8> MaxIter 1500
|  9> end
| 10>
| 11> %maxcore 3500
| 12>
| 13> !CPCM
| 14> %cpcm smd true
| 15> SMDsolvent "WATER"
| 16> surfacetype gepol_ses
| 17> rsolv 1.40
| 18> end
| 19>
| 20> * xyz 0 1
| 21> C          -0.00000020978988      0.00000073694249     -0.05069100410522
| 22> C          -1.20906788297771     -0.37099775736022      0.72498240348112
| 23> C           1.20906839531154      0.37099639744085      0.72498233629225
| 24> H          -2.08965714718270     -0.64109787483542      0.13413739306601
| 25> H           2.08965862753959      0.64109516807399      0.13413744999163
| 26> C          -1.20906829311347     -0.37099671339690      2.06767561532039
| 27> C           1.20906814538816      0.37099731197670      2.06767588420582
| 28> H          -2.08965863090342     -0.64109537543156      2.65852032753444
| 29> H           2.08965866999056      0.64109660483906      2.65852006555801
| 30> C          -0.00000017070001      0.00000032151215      2.84334909378969
| 31> O          -0.00000037912842     -0.00000048181393      4.05737768473263
| 32> O          -0.00000112443423      0.00000166205280     -1.26471924986679
| 33> *
| 34>
| 35>                          ****END OF INPUT****

CARTESIAN COORDINATES (ANGSTROEM)
---------------------------------
  C     -0.000000    0.000001   -0.050691
  C     -1.209068   -0.370998    0.724982
  C      1.209068    0.370996    0.724982
  H     -2.089657   -0.641098    0.134137
  H      2.089659    0.641095    0.134137
  C     -1.209068   -0.370997    2.067676
  C      1.209068    0.370997    2.067676
  H     -2.089659   -0.641095    2.658520
  H      2.089659    0.641097    2.658520
  C     -0.000000    0.000000    2.843349
  O     -0.000000   -0.000000    4.057378
  O     -0.000001    0.000002   -1.264719

 Total Charge           Charge          ....    0
 Multiplicity           Mult            ....    1
 Number of Electrons    NEL             ....   56
 Basis Dimension        Dim             ....  460

ORBITAL ENERGIES
----------------

  NO   OCC          E(Eh)            E(eV)
   0   2.0000     -19.230210      -523.2806
   1   2.0000     -19.230207      -523.2805
   2   2.0000     -10.340067      -281.3675
   3   2.0000     -10.340040      -281.3668
   4   2.0000     -10.262936      -279.2687
   5   2.0000     -10.262908      -279.2679
   6   2.0000     -10.262005      -279.2434
   7   2.0000     -10.261985      -279.2428
   8   2.0000      -1.104712       -30.0607
   9   2.0000      -1.103061       -30.0158
  10   2.0000      -0.881872       -23.9970
  11   2.0000      -0.808016       -21.9872
  12   2.0000      -0.728048       -19.8112
  13   2.0000      -0.655495       -17.8369
  14   2.0000      -0.619362       -16.8537
  15   2.0000      -0.533237       -14.5101
  16   2.0000      -0.528656       -14.3854
  17   2.0000      -0.504560       -13.7298
  18   2.0000      -0.464753       -12.6466
  19   2.0000      -0.463384       -12.6093
  20   2.0000      -0.457997       -12.4627
  21   2.0000      -0.439732       -11.9657
  22   2.0000      -0.437605       -11.9078
  23   2.0000      -0.411965       -11.2101
  24   2.0000      -0.323851        -8.8124
  25   2.0000      -0.308649        -8.3988
  26   2.0000      -0.306507        -8.3405
  27   2.0000      -0.291575        -7.9342
  28   0.0000      -0.130371        -3.5476
  29   0.0000      -0.021836        -0.5942
  30   0.0000       0.006416         0.1746
  31   0.0000       0.006614         0.1800
  32   0.0000       0.019378         0.5273

MULLIKEN ATOMIC CHARGES
-----------------------
   0 C :    0.948253
   1 C :   -0.568621
   2 C :   -0.568831
   3 H :    0.556130
   4 H :    0.555966
   5 C :   -0.568703
   6 C :   -0.568843
   7 H :    0.556151
   8 H :    0.556231
   9 C :    0.947587
  10 O :   -0.922698
  11 O :   -0.922623
Sum of atomic charges:    0.0000000

LOEWDIN ATOMIC CHARGES
----------------------
   0 C :   -0.583118
   1 C :    0.222883
   2 C :    0.222890
   3 H :   -0.162465
   4 H :   -0.162457
   5 C :    0.222890
   6 C :    0.222883
   7 H :   -0.162457
   8 H :   -0.162465
   9 C :   -0.583118
  10 O :    0.462266
  11 O :    0.462268

  Mayer bond orders larger than 0.100000
B(  0-C ,  1-C ) :   0.9659 B(  0-C ,  2-C ) :   0.9664 B(  0-C ,  9-C ) :   0.1127
B(  0-C , 11-O ) :   0.8383 B(  1-C ,  2-C ) :   0.3020 B(  1-C ,  3-H ) :   0.3815
B(  1-C ,  5-C ) :   1.8148 B(  1-C ,  6-C ) :  -0.1333 B(  1-C , 11-O ) :   0.1498
B(  2-C ,  4-H ) :   0.3818 B(  2-C ,  5-C ) :  -0.1332 B(  2-C ,  6-C ) :   1.8147
B(  2-C , 11-O ) :   0.1499 B(  5-C ,  6-C ) :   0.3023 B(  5-C ,  7-H ) :   0.3817
B(  5-C ,  9-C ) :   0.9664 B(  5-C , 10-O ) :   0.1497 B(  6-C ,  8-H ) :   0.3813
B(  6-C ,  9-C ) :   0.9664 B(  6-C , 10-O ) :   0.1498 B(  9-C , 10-O ) :   0.8391

Dispersion correction           -0.010380638
FINAL SINGLE POINT ENERGY      -381.175652487293

DIPOLE MOMENT
-------------

Method             : SCF
Type of density    : Electron Density
Multiplicity       :   1
Irrep              :   0
Energy             :  -381.1652718496565058 Eh
Relativity type    :
Basis              : AO
                                X                 Y                 Z
Electronic contribution:     -0.000001451       0.000001368      -0.000001037
Nuclear contribution   :      0.000002198      -0.000002102      -0.000001065
                        -----------------------------------------
Total Dipole Moment    :      0.000000747      -0.000000734      -0.000002102
                        -----------------------------------------
Magnitude (a.u.)       :      0.000002348
Magnitude (Debye)      :      0.000005969

Rotational constants in cm-1:             0.175401             0.055278             0.042032
Rotational constants in MHz :          5258.386443          1657.201068          1260.081464

                             ****ORCA TERMINATED NORMALLY****
TOTAL RUN TIME: 0 days 0 hours 2 minutes 18 seconds 585 msec
