                         Program Version 6.0.0  -   RELEASE  -
|  1> !TPSSh aug-cc-pVTZ d3 TightSCF SlowConv RIJCOSX defgrid2
|  2>
|  3> %pal
|  4> nprocs 15
|  5> end
|  6>
|  7> %scf
|  8> MaxIter 1500
|  9> end
| 10>
| 11> %maxcore 3500
| 12>
| 13> !CPCM
| 14> %cpcm smd true
| 15> SMDsolvent "WATER"
| 16> surfacetype gepol_ses
| 17> rsolv 1.40
| 18> end
| 19>
| 20> * xyz 1 1
| 21> O           1.78804094605451      3.57407180225234      1.26949194793146
| 22> N           2.67789422851893      2.80320165261973      1.24235605674492
| 23> C           3.71778316034813      2.91642565718559      0.16690169044367
| 24> C           4.00336272113038      1.49623261444906     -0.34502278805979
| 25> C           4.25766982671167      0.52191894036115      0.75815899662553
| 26> C           3.72478741138320      0.67902204568292      1.96909401147761
| 27> C           2.74959286644548      1.76027704323926      2.33487529589660
| 28> C           4.95479041346433      3.52595927403589      0.85716379705375
| 29> C           3.19004706306109      3.83072822434414     -0.92224433141749
| 30> C           3.15485574167612      2.51408579594002      3.61549894601635
| 31> C           1.33516544733407      1.17999753290778      2.47825951823241
| 32> H           4.87996183732221      1.57668875415100     -1.00999500614608
| 33> H           3.17021668262368      1.15296792938084     -0.98863220317568
| 34> H           4.90337590828949     -0.33836578770133      0.55566284253488
| 35> H           3.92357861346000     -0.03968109815672      2.77061581286109
| 36> H           4.70844618705422      4.48811332405391      1.33490279509444
| 37> H           5.40761709603610      2.84446172249759      1.59225247734595
| 38> H           5.69483505273624      3.71884274386665      0.06263108376658
| 39> H           3.04024511163629      4.86095117972371     -0.56406719285224
| 40> H           2.23933329941609      3.45894408996336     -1.33920228019874
| 41> H           3.93412607430717      3.85508376979621     -1.73438810478811
| 42> H           2.42690041381949      3.30933728300165      3.84390224235101
| 43> H           4.16701870887203      2.94082178104930      3.54605561909481
| 44> H           3.14478541414984      1.78516218068988      4.44194641182067
| 45> H           0.61276609896706      1.95074174596123      2.78900733696933
| 46> H           1.00104681299372      0.70960454278176      1.53898778688725
| 47> H           1.37065586218837      0.39927625592302      3.25432923748977
| 48> *
| 49>
| 50>                          ****END OF INPUT****

CARTESIAN COORDINATES (ANGSTROEM)
---------------------------------
  O      1.788041    3.574072    1.269492
  N      2.677894    2.803202    1.242356
  C      3.717783    2.916426    0.166902
  C      4.003363    1.496233   -0.345023
  C      4.257670    0.521919    0.758159
  C      3.724787    0.679022    1.969094
  C      2.749593    1.760277    2.334875
  C      4.954790    3.525959    0.857164
  C      3.190047    3.830728   -0.922244
  C      3.154856    2.514086    3.615499
  C      1.335165    1.179998    2.478260
  H      4.879962    1.576689   -1.009995
  H      3.170217    1.152968   -0.988632
  H      4.903376   -0.338366    0.555663
  H      3.923579   -0.039681    2.770616
  H      4.708446    4.488113    1.334903
  H      5.407617    2.844462    1.592252
  H      5.694835    3.718843    0.062631
  H      3.040245    4.860951   -0.564067
  H      2.239333    3.458944   -1.339202
  H      3.934126    3.855084   -1.734388
  H      2.426900    3.309337    3.843902
  H      4.167019    2.940822    3.546056
  H      3.144785    1.785162    4.441946
  H      0.612766    1.950742    2.789007
  H      1.001047    0.709605    1.538988
  H      1.370656    0.399276    3.254329

 Total Charge           Charge          ....    1
 Multiplicity           Mult            ....    1
 Number of Electrons    NEL             ....   84
 Basis Dimension        Dim             ....  874

ORBITAL ENERGIES
----------------

  NO   OCC          E(Eh)            E(eV)
   0   2.0000     -19.187389      -522.1154
   1   2.0000     -14.484243      -394.1363
   2   2.0000     -10.211125      -277.8588
   3   2.0000     -10.208468      -277.7865
   4   2.0000     -10.142855      -276.0011
   5   2.0000     -10.134135      -275.7638
   6   2.0000     -10.133648      -275.7506
   7   2.0000     -10.133345      -275.7423
   8   2.0000     -10.132810      -275.7278
   9   2.0000     -10.128968      -275.6232
  10   2.0000     -10.123505      -275.4746
  11   2.0000      -1.243931       -33.8491
  12   2.0000      -0.910781       -24.7836
  13   2.0000      -0.841480       -22.8978
  14   2.0000      -0.781302       -21.2603
  15   2.0000      -0.737321       -20.0635
  16   2.0000      -0.700581       -19.0638
  17   2.0000      -0.689929       -18.7739
  18   2.0000      -0.687892       -18.7185
  19   2.0000      -0.637638       -17.3510
  20   2.0000      -0.600842       -16.3497
  21   2.0000      -0.562761       -15.3135
  22   2.0000      -0.541913       -14.7462
  23   2.0000      -0.516118       -14.0443
  24   2.0000      -0.483748       -13.1635
  25   2.0000      -0.467433       -12.7195
  26   2.0000      -0.449112       -12.2210
  27   2.0000      -0.444754       -12.1024
  28   2.0000      -0.420022       -11.4294
  29   2.0000      -0.416171       -11.3246
  30   2.0000      -0.405803       -11.0425
  31   2.0000      -0.403903       -10.9908
  32   2.0000      -0.384180       -10.4541
  33   2.0000      -0.381979       -10.3942
  34   2.0000      -0.379526       -10.3274
  35   2.0000      -0.372936       -10.1481
  36   2.0000      -0.359300        -9.7770
  37   2.0000      -0.357693        -9.7333
  38   2.0000      -0.351753        -9.5717
  39   2.0000      -0.331214        -9.0128
  40   2.0000      -0.314027        -8.5451
  41   2.0000      -0.259527        -7.0621
  42   0.0000      -0.177349        -4.8259
  43   0.0000      -0.023927        -0.6511
  44   0.0000      -0.005809        -0.1581
  45   0.0000       0.006044         0.1645
  46   0.0000       0.008065         0.2195

MULLIKEN ATOMIC CHARGES
-----------------------
   0 O :   -1.012387
   1 N :    1.041191
   2 C :    1.067522
   3 C :    0.247803
   4 C :   -0.382353
   5 C :   -0.520435
   6 C :    1.053791
   7 C :   -0.293315
   8 C :   -0.649164
   9 C :   -0.443506
  10 C :   -0.532741
  11 H :   -0.010461
  12 H :    0.075100
  13 H :    0.519798
  14 H :    0.079225
  15 H :    0.069131
  16 H :    0.216830
  17 H :   -0.094964
  18 H :    0.076983
  19 H :    0.086860
  20 H :    0.007761
  21 H :    0.013841
  22 H :    0.143802
  23 H :    0.040323
  24 H :    0.060845
  25 H :    0.087154
  26 H :    0.051364
Sum of atomic charges:    1.0000000

LOEWDIN ATOMIC CHARGES
----------------------
   0 O :    0.655541
   1 N :   -0.013588
   2 C :   -0.381686
   3 C :    0.310245
   4 C :    0.263060
   5 C :    0.241749
   6 C :   -0.400866
   7 C :    0.632138
   8 C :    0.595916
   9 C :    0.625197
  10 C :    0.609871
  11 H :   -0.111741
  12 H :   -0.106631
  13 H :   -0.142473
  14 H :   -0.136716
  15 H :   -0.124460
  16 H :   -0.153936
  17 H :   -0.120249
  18 H :   -0.146084
  19 H :   -0.136959
  20 H :   -0.130258
  21 H :   -0.138284
  22 H :   -0.147492
  23 H :   -0.127632
  24 H :   -0.151773
  25 H :   -0.130677
  26 H :   -0.132210

  Mayer bond orders larger than 0.100000
B(  0-O ,  1-N ) :   0.3726 B(  0-O ,  6-C ) :  -0.1668 B(  0-O , 10-C ) :   0.1057
B(  1-N ,  2-C ) :   0.9730 B(  1-N ,  3-C ) :   0.1599 B(  1-N ,  6-C ) :   0.7721
B(  1-N ,  7-C ) :   0.1087 B(  1-N ,  8-C ) :  -0.1457 B(  2-C ,  3-C ) :   0.8109
B(  2-C ,  4-C ) :   0.2772 B(  2-C ,  5-C ) :   0.1315 B(  2-C ,  6-C ) :  -0.1092
B(  2-C ,  7-C ) :   0.7783 B(  2-C ,  8-C ) :   0.7726 B(  2-C , 12-H ) :   0.1350
B(  3-C ,  4-C ) :   0.6553 B(  3-C , 11-H ) :   0.8940 B(  3-C , 12-H ) :   0.9037
B(  3-C , 13-H ) :   0.1957 B(  4-C ,  5-C ) :   1.7825 B(  4-C , 13-H ) :   0.2281
B(  5-C ,  6-C ) :   0.8224 B(  5-C , 10-C ) :  -0.1040 B(  5-C , 13-H ) :   0.1118
B(  5-C , 14-H ) :   1.0585 B(  6-C ,  9-C ) :   0.9056 B(  6-C , 10-C ) :   0.8523
B(  7-C , 15-H ) :   0.9298 B(  7-C , 16-H ) :   0.8499 B(  7-C , 17-H ) :   1.1084
B(  8-C , 18-H ) :   0.9874 B(  8-C , 19-H ) :   0.9883 B(  8-C , 20-H ) :   1.1020
B(  9-C , 21-H ) :   1.0417 B(  9-C , 22-H ) :   0.9125 B(  9-C , 23-H ) :   1.0365
B( 10-C , 24-H ) :   1.0177 B( 10-C , 25-H ) :   0.9687 B( 10-C , 26-H ) :   1.0255

Dispersion correction           -0.035738170
FINAL SINGLE POINT ENERGY      -482.549621399251

DIPOLE MOMENT
-------------

Method             : SCF
Type of density    : Electron Density
Multiplicity       :   1
Irrep              :   0
Energy             :  -482.5138832294592817 Eh
Relativity type    :
Basis              : AO
                                X                 Y                 Z
Electronic contribution:     -2.682543953       0.021162584      -0.532095355
Nuclear contribution   :      3.088927410      -0.095134284       0.454097178
                        -----------------------------------------
Total Dipole Moment    :      0.406383457      -0.073971699      -0.077998177
                        -----------------------------------------
Magnitude (a.u.)       :      0.420360610
Magnitude (Debye)      :      1.068471757

Rotational constants in cm-1:             0.051995             0.036397             0.030146
Rotational constants in MHz :          1558.765882          1091.144705           903.756196

                             ****ORCA TERMINATED NORMALLY****
TOTAL RUN TIME: 0 days 0 hours 5 minutes 51 seconds 21 msec
