                         Program Version 6.0.0  -   RELEASE  -
|  1> !r2SCANh aug-cc-pVTZ d3 TightSCF SlowConv RIJCOSX defgrid2
|  2>
|  3> %pal
|  4> nprocs 4
|  5> end
|  6>
|  7> %scf
|  8> MaxIter 1500
|  9> end
| 10>
| 11> %maxcore 3000
| 12>
| 13> !CPCM
| 14> %cpcm smd true
| 15> SMDsolvent "MeCN"
| 16> surfacetype gepol_ses
| 17> rsolv 2.19
| 18> end
| 19>
| 20> * xyz 1 2
| 21> C           2.44830417164420     -0.69527642473796      0.00000945881878
| 22> C           2.44832214826430      0.69521603339414      0.00001009734484
| 23> C           1.23352505326865      1.40025135317577      0.00000577718412
| 24> C           0.00001141556131      0.71453178803145      0.00000268426234
| 25> C          -1.23348320904465      1.40028329659239      0.00000107782236
| 26> C          -2.44830108548662      0.69527938835391      0.00000695148737
| 27> C          -2.44832067103510     -0.69521530453956      0.00000530486429
| 28> C          -1.23352061718470     -1.40025032772324     -0.00000393184308
| 29> C          -0.00000717114678     -0.71452684352053     -0.00000494703196
| 30> C           1.23348727294566     -1.40028215170085     -0.00000132918117
| 31> H           1.23935708532449     -2.49454817867840      0.00000050523970
| 32> H          -1.23942268133971     -2.49451730914708     -0.00000545360366
| 33> H          -3.39340211959580     -1.24489598698530      0.00000832828244
| 34> H          -3.39336678788360      1.24498332942293      0.00000859404642
| 35> H          -1.23935478912557      2.49455128204595      0.00000167009943
| 36> H           1.23942795953164      2.49451607920762      0.00000299068588
| 37> H           3.39340268697296      1.24489500413589      0.00001313139295
| 38> H           3.39337233832933     -1.24497302732713      0.00001569012894
| 39> *
| 40>
| 41>                          ****END OF INPUT****

CARTESIAN COORDINATES (ANGSTROEM)
---------------------------------
  C      2.448304   -0.695276    0.000009
  C      2.448322    0.695216    0.000010
  C      1.233525    1.400251    0.000006
  C      0.000011    0.714532    0.000003
  C     -1.233483    1.400283    0.000001
  C     -2.448301    0.695279    0.000007
  C     -2.448321   -0.695215    0.000005
  C     -1.233521   -1.400250   -0.000004
  C     -0.000007   -0.714527   -0.000005
  C      1.233487   -1.400282   -0.000001
  H      1.239357   -2.494548    0.000001
  H     -1.239423   -2.494517   -0.000005
  H     -3.393402   -1.244896    0.000008
  H     -3.393367    1.244983    0.000009
  H     -1.239355    2.494551    0.000002
  H      1.239428    2.494516    0.000003
  H      3.393403    1.244895    0.000013
  H      3.393372   -1.244973    0.000016

 Total Charge           Charge          ....    1
 Multiplicity           Mult            ....    2
 Number of Electrons    NEL             ....   67
 Basis Dimension        Dim             ....  644

ORBITAL ENERGIES
----------------
                 SPIN UP ORBITALS
  NO   OCC          E(Eh)            E(eV)
   0   1.0000     -10.219745      -278.0934
   1   1.0000     -10.219731      -278.0930
   2   1.0000     -10.219724      -278.0928
   3   1.0000     -10.219712      -278.0925
   4   1.0000     -10.207708      -277.7659
   5   1.0000     -10.207309      -277.7550
   6   1.0000     -10.204398      -277.6758
   7   1.0000     -10.204397      -277.6758
   8   1.0000     -10.203859      -277.6611
   9   1.0000     -10.203851      -277.6609
  10   1.0000      -0.920482       -25.0476
  11   1.0000      -0.865265       -23.5450
  12   1.0000      -0.818717       -22.2784
  13   1.0000      -0.781394       -21.2628
  14   1.0000      -0.759236       -20.6599
  15   1.0000      -0.665189       -18.1007
  16   1.0000      -0.642915       -17.4946
  17   1.0000      -0.628506       -17.1025
  18   1.0000      -0.539609       -14.6835
  19   1.0000      -0.536688       -14.6040
  20   1.0000      -0.520664       -14.1680
  21   1.0000      -0.469538       -12.7768
  22   1.0000      -0.467509       -12.7216
  23   1.0000      -0.445092       -12.1116
  24   1.0000      -0.439709       -11.9651
  25   1.0000      -0.433397       -11.7933
  26   1.0000      -0.415682       -11.3113
  27   1.0000      -0.393681       -10.7126
  28   1.0000      -0.370920       -10.0932
  29   1.0000      -0.359954        -9.7948
  30   1.0000      -0.353452        -9.6179
  31   1.0000      -0.334928        -9.1139
  32   1.0000      -0.282990        -7.7006
  33   1.0000      -0.267367        -7.2754
  34   0.0000      -0.115350        -3.1388
  35   0.0000      -0.060881        -1.6567
  36   0.0000      -0.040545        -1.1033
  37   0.0000       0.007568         0.2059
  38   0.0000       0.020661         0.5622

                 SPIN DOWN ORBITALS
  NO   OCC          E(Eh)            E(eV)
   0   1.0000     -10.215138      -277.9680
   1   1.0000     -10.215120      -277.9676
   2   1.0000     -10.215113      -277.9674
   3   1.0000     -10.215098      -277.9669
   4   1.0000     -10.209074      -277.8030
   5   1.0000     -10.208675      -277.7922
   6   1.0000     -10.203816      -277.6600
   7   1.0000     -10.203815      -277.6599
   8   1.0000     -10.203272      -277.6452
   9   1.0000     -10.203264      -277.6449
  10   1.0000      -0.915421       -24.9099
  11   1.0000      -0.857650       -23.3378
  12   1.0000      -0.807940       -21.9852
  13   1.0000      -0.781512       -21.2660
  14   1.0000      -0.744123       -20.2486
  15   1.0000      -0.658769       -17.9260
  16   1.0000      -0.640084       -17.4176
  17   1.0000      -0.622819       -16.9478
  18   1.0000      -0.537285       -14.6203
  19   1.0000      -0.531701       -14.4683
  20   1.0000      -0.519317       -14.1313
  21   1.0000      -0.467707       -12.7269
  22   1.0000      -0.467500       -12.7213
  23   1.0000      -0.443362       -12.0645
  24   1.0000      -0.437542       -11.9061
  25   1.0000      -0.418997       -11.4015
  26   1.0000      -0.413077       -11.2404
  27   1.0000      -0.392986       -10.6937
  28   1.0000      -0.358023        -9.7423
  29   1.0000      -0.352967        -9.6047
  30   1.0000      -0.349828        -9.5193
  31   1.0000      -0.302941        -8.2434
  32   1.0000      -0.283870        -7.7245
  33   0.0000      -0.206956        -5.6316
  34   0.0000      -0.082266        -2.2386
  35   0.0000      -0.054817        -1.4916
  36   0.0000      -0.017130        -0.4661
  37   0.0000       0.008731         0.2376

MULLIKEN ATOMIC CHARGES AND SPIN POPULATIONS
--------------------------------------------
   0 C :   -0.351672    0.013021
   1 C :   -0.351277    0.013011
   2 C :   -1.050632    0.266503
   3 C :    1.870911   -0.099885
   4 C :   -1.048355    0.266503
   5 C :   -0.351890    0.013019
   6 C :   -0.349125    0.013004
   7 C :   -1.050528    0.266466
   8 C :    1.869844   -0.099890
   9 C :   -1.051417    0.266489
  10 H :    0.073721    0.026426
  11 H :    0.073117    0.026396
  12 H :    0.645866   -0.005959
  13 H :    0.636406   -0.005969
  14 H :    0.075273    0.026377
  15 H :    0.072923    0.026413
  16 H :    0.642670   -0.005964
  17 H :    0.644164   -0.005961
Sum of atomic charges         :    1.0000000

LOEWDIN ATOMIC CHARGES AND SPIN POPULATIONS
-------------------------------------------
   0 C :    0.275384    0.069236
   1 C :    0.275384    0.069234
   2 C :    0.296658    0.135676
   3 C :   -0.094531    0.025122
   4 C :    0.296659    0.135676
   5 C :    0.275384    0.069235
   6 C :    0.275385    0.069234
   7 C :    0.296662    0.135676
   8 C :   -0.094527    0.025122
   9 C :    0.296662    0.135675
  10 H :   -0.130868    0.026478
  11 H :   -0.130868    0.026478
  12 H :   -0.143911    0.006050
  13 H :   -0.143914    0.006050
  14 H :   -0.130865    0.026478
  15 H :   -0.130869    0.026478
  16 H :   -0.143912    0.006050
  17 H :   -0.143914    0.006050

  Mayer bond orders larger than 0.100000
B(  0-C ,  1-C ) :   1.1152 B(  0-C ,  3-C ) :  -0.3396 B(  0-C ,  9-C ) :   1.0627
B(  0-C , 17-H ) :   0.2934 B(  1-C ,  2-C ) :   1.0604 B(  1-C ,  8-C ) :  -0.3416
B(  1-C , 16-H ) :   0.2949 B(  2-C ,  3-C ) :  -0.2126 B(  2-C ,  4-C ) :   0.4612
B(  2-C ,  8-C ) :  -0.3732 B(  2-C , 15-H ) :   1.3658 B(  2-C , 16-H ) :  -0.1721
B(  3-C ,  4-C ) :  -0.2129 B(  3-C ,  6-C ) :  -0.3404 B(  3-C ,  7-C ) :  -0.3735
B(  3-C ,  8-C ) :   1.4893 B(  3-C ,  9-C ) :  -0.3729 B(  3-C , 14-H ) :  -0.1111
B(  3-C , 15-H ) :  -0.1109 B(  4-C ,  5-C ) :   1.0569 B(  4-C ,  8-C ) :  -0.3749
B(  4-C , 13-H ) :  -0.1712 B(  4-C , 14-H ) :   1.3628 B(  5-C ,  6-C ) :   1.1114
B(  5-C ,  8-C ) :  -0.3388 B(  5-C , 13-H ) :   0.3055 B(  6-C ,  7-C ) :   1.0611
B(  6-C , 12-H ) :   0.2916 B(  7-C ,  8-C ) :  -0.2123 B(  7-C ,  9-C ) :   0.4573
B(  7-C , 11-H ) :   1.3674 B(  7-C , 12-H ) :  -0.1735 B(  8-C ,  9-C ) :  -0.2127
B(  8-C , 10-H ) :  -0.1094 B(  8-C , 11-H ) :  -0.1107 B(  9-C , 10-H ) :   1.3649
B(  9-C , 17-H ) :  -0.1724

Dispersion correction           -0.006574164
FINAL SINGLE POINT ENERGY      -385.584983602868

DIPOLE MOMENT
-------------

Method             : SCF
Type of density    : Electron Density
Multiplicity       :   2
Irrep              :   0
Energy             :  -385.5784094386758625 Eh
Relativity type    :
Basis              : AO
                                X                 Y                 Z
Electronic contribution:     -0.000002624      -0.000011619      -0.000015081
Nuclear contribution   :     -0.000000135       0.000002239       0.000018059
                        -----------------------------------------
Total Dipole Moment    :     -0.000002759      -0.000009380       0.000002978
                        -----------------------------------------
Magnitude (a.u.)       :      0.000010221
Magnitude (Debye)      :      0.000025979

Rotational constants in cm-1:             0.104687             0.040748             0.029331
Rotational constants in MHz :          3138.446851          1221.580167           879.321255

                             ****ORCA TERMINATED NORMALLY****
TOTAL RUN TIME: 0 days 0 hours 6 minutes 13 seconds 522 msec
