                         Program Version 6.0.0  -   RELEASE  -
|  1> !TPSSh aug-cc-pVTZ d3 TightSCF SlowConv RIJCOSX defgrid2
|  2>
|  3> %pal
|  4> nprocs 4
|  5> end
|  6>
|  7> %scf
|  8> MaxIter 1500
|  9> end
| 10>
| 11> %maxcore 3000
| 12>
| 13> !CPCM
| 14> %cpcm smd true
| 15> SMDsolvent "MeCN"
| 16> surfacetype gepol_ses
| 17> rsolv 2.19
| 18> end
| 19>
| 20> * xyz 0 1
| 21> C          -1.38053685940747     -1.21804540995532     -0.00011060626091
| 22> C           0.00880673788646     -1.21761505772678     -0.00009043075416
| 23> C           0.68407451418940     -0.00000826905018      0.00002079320919
| 24> C           0.00881895322689      1.21760888927779      0.00010917128456
| 25> C          -1.38052397185078      1.21805873995267      0.00009090964868
| 26> C          -2.05580079114724      0.00001020724702     -0.00001816987555
| 27> F          -3.38048726341071      0.00001804396249     -0.00003514545168
| 28> H          -1.95216629027619      2.14893818448022      0.00016183253789
| 29> H           0.58216467537740      2.14580924232628      0.00018829183514
| 30> N           2.15012174350491     -0.00002110651836      0.00004214105770
| 31> O           2.70660121926706     -1.07534719974692     -0.00006677256489
| 32> O           2.70659645313172      1.07532442371150     -0.00002414626605
| 33> H           0.58214126111558     -2.14581854067801     -0.00015767613729
| 34> H          -1.95219098160703     -2.14891564728239     -0.00019689226262
| 35> *
| 36>
| 37>                          ****END OF INPUT****

CARTESIAN COORDINATES (ANGSTROEM)
---------------------------------
  C     -1.380537   -1.218045   -0.000111
  C      0.008807   -1.217615   -0.000090
  C      0.684075   -0.000008    0.000021
  C      0.008819    1.217609    0.000109
  C     -1.380524    1.218059    0.000091
  C     -2.055801    0.000010   -0.000018
  F     -3.380487    0.000018   -0.000035
  H     -1.952166    2.148938    0.000162
  H      0.582165    2.145809    0.000188
  N      2.150122   -0.000021    0.000042
  O      2.706601   -1.075347   -0.000067
  O      2.706596    1.075324   -0.000024
  H      0.582141   -2.145819   -0.000158
  H     -1.952191   -2.148916   -0.000197

 Total Charge           Charge          ....    0
 Multiplicity           Mult            ....    1
 Number of Electrons    NEL             ....   72
 Basis Dimension        Dim             ....  552

ORBITAL ENERGIES
----------------

  NO   OCC          E(Eh)            E(eV)
   0   2.0000     -24.634469      -670.3380
   1   2.0000     -19.092588      -519.5357
   2   2.0000     -19.092580      -519.5355
   3   2.0000     -14.488471      -394.2513
   4   2.0000     -10.220454      -278.1127
   5   2.0000     -10.176199      -276.9085
   6   2.0000     -10.147626      -276.1309
   7   2.0000     -10.147625      -276.1309
   8   2.0000     -10.139424      -275.9077
   9   2.0000     -10.139420      -275.9076
  10   2.0000      -1.230824       -33.4924
  11   2.0000      -1.221431       -33.2368
  12   2.0000      -1.047608       -28.5069
  13   2.0000      -0.872424       -23.7399
  14   2.0000      -0.788552       -21.4576
  15   2.0000      -0.756933       -20.5972
  16   2.0000      -0.683281       -18.5930
  17   2.0000      -0.626382       -17.0447
  18   2.0000      -0.587858       -15.9964
  19   2.0000      -0.551464       -15.0061
  20   2.0000      -0.537360       -14.6223
  21   2.0000      -0.530428       -14.4337
  22   2.0000      -0.511874       -13.9288
  23   2.0000      -0.484509       -13.1842
  24   2.0000      -0.469870       -12.7858
  25   2.0000      -0.446612       -12.1529
  26   2.0000      -0.428300       -11.6546
  27   2.0000      -0.414772       -11.2865
  28   2.0000      -0.399100       -10.8601
  29   2.0000      -0.369189       -10.0462
  30   2.0000      -0.343997        -9.3606
  31   2.0000      -0.312404        -8.5010
  32   2.0000      -0.301449        -8.2028
  33   2.0000      -0.286133        -7.7861
  34   2.0000      -0.270171        -7.3517
  35   2.0000      -0.261180        -7.1071
  36   0.0000      -0.105991        -2.8842
  37   0.0000      -0.045738        -1.2446
  38   0.0000      -0.013236        -0.3602
  39   0.0000      -0.002149        -0.0585
  40   0.0000       0.012784         0.3479

MULLIKEN ATOMIC CHARGES
-----------------------
   0 C :   -0.405407
   1 C :   -0.300423
   2 C :    0.163998
   3 C :   -0.301338
   4 C :   -0.405846
   5 C :    0.603860
   6 F :   -0.468675
   7 H :    0.254960
   8 H :    0.560384
   9 N :    1.030356
  10 O :   -0.773511
  11 O :   -0.773508
  12 H :    0.560599
  13 H :    0.254548
Sum of atomic charges:   -0.0000000

LOEWDIN ATOMIC CHARGES
----------------------
   0 C :    0.214485
   1 C :    0.199479
   2 C :   -0.241572
   3 C :    0.199476
   4 C :    0.214482
   5 C :   -0.537038
   6 F :    0.569513
   7 H :   -0.160560
   8 H :   -0.184161
   9 N :   -0.761087
  10 O :    0.415858
  11 O :    0.415849
  12 H :   -0.184160
  13 H :   -0.160563

  Mayer bond orders larger than 0.100000
B(  0-C ,  1-C ) :   1.4439 B(  0-C ,  2-C ) :  -0.3053 B(  0-C ,  4-C ) :   0.1712
B(  0-C ,  5-C ) :   1.3550 B(  0-C ,  6-F ) :   0.2382 B(  0-C , 13-H ) :   0.7081
B(  1-C ,  2-C ) :   1.1055 B(  1-C ,  3-C ) :   0.1086 B(  1-C ,  9-N ) :  -0.1696
B(  1-C , 12-H ) :   0.3297 B(  2-C ,  3-C ) :   1.1061 B(  2-C ,  4-C ) :  -0.3050
B(  2-C ,  9-N ) :   1.0727 B(  2-C , 10-O ) :   0.4815 B(  2-C , 11-O ) :   0.4819
B(  3-C ,  4-C ) :   1.4442 B(  3-C ,  8-H ) :   0.3298 B(  3-C ,  9-N ) :  -0.1684
B(  4-C ,  5-C ) :   1.3550 B(  4-C ,  6-F ) :   0.2394 B(  4-C ,  7-H ) :   0.7079
B(  6-F ,  7-H ) :   0.1821 B(  6-F , 13-H ) :   0.1825 B(  9-N , 10-O ) :   0.6249
B(  9-N , 11-O ) :   0.6252 B( 10-O , 11-O ) :   0.2112

Dispersion correction           -0.016959067
FINAL SINGLE POINT ENERGY      -536.235799300060

DIPOLE MOMENT
-------------

Method             : SCF
Type of density    : Electron Density
Multiplicity       :   1
Irrep              :   0
Energy             :  -536.2188402329901464 Eh
Relativity type    :
Basis              : AO
                                X                 Y                 Z
Electronic contribution:     -2.315575857      -0.000031833       0.000149800
Nuclear contribution   :      0.647078379      -0.000000805       0.000058033
                        -----------------------------------------
Total Dipole Moment    :     -1.668497478      -0.000032638       0.000207833
                        -----------------------------------------
Magnitude (a.u.)       :      1.668497491
Magnitude (Debye)      :      4.240983586

Rotational constants in cm-1:             0.132896             0.026895             0.022368
Rotational constants in MHz :          3984.136470           806.287592           670.579423

                             ****ORCA TERMINATED NORMALLY****
TOTAL RUN TIME: 0 days 0 hours 4 minutes 15 seconds 896 msec
