                         Program Version 6.0.0  -   RELEASE  -
|  1> !PBE0 aug-cc-pVTZ d3 TightSCF SlowConv RIJCOSX defgrid2
|  2>
|  3> %pal
|  4> nprocs 4
|  5> end
|  6>
|  7> %scf
|  8> MaxIter 1500
|  9> end
| 10>
| 11> %maxcore 3000
| 12>
| 13> !CPCM
| 14> %cpcm smd true
| 15> SMDsolvent "MeCN"
| 16> surfacetype gepol_ses
| 17> rsolv 2.19
| 18> end
| 19>
| 20> * xyz 1 2
| 21> C           2.10074069713964     -0.03623551022709      0.33749659871253
| 22> C           2.28528308407684     -1.00752299995307     -0.66845525084634
| 23> C           3.55854065372565     -1.40796132368585     -1.00587360020280
| 24> C           4.68249131779385     -0.86605497847815     -0.34228468182816
| 25> C           4.49410486888580      0.09282810810827      0.67448234828818
| 26> C           3.21443563230482      0.50407669582157      1.00485264191955
| 27> H           3.07723883642763      1.26509156223799      1.77871020660964
| 28> H           5.34504061581579      0.52911655526770      1.19977321493419
| 29> O           5.85957111079757     -1.32009234548199     -0.73263129283529
| 30> C           7.04850127917866     -0.86024283407437     -0.12168488196846
| 31> H           7.05512576176798     -1.09734211644688      0.95677335906268
| 32> H           7.17453578603241      0.22645663792845     -0.27205541020094
| 33> H           7.86948886250749     -1.39474999506796     -0.61807937295301
| 34> H           3.72936926674930     -2.16465573433241     -1.77503931686740
| 35> H           1.42319555532723     -1.45115446559524     -1.17357438144306
| 36> S           0.53310799676805      0.50835431053803      0.87944925726859
| 37> S          -0.53256657645917      0.51157250736075     -0.87298747821769
| 38> C          -2.10050433131834     -0.03456082645027     -0.33376593608310
| 39> C          -2.28614846748860     -1.00654106417423      0.67133142906854
| 40> C          -3.55972901842260     -1.40767887923690      1.00664018727382
| 41> C          -4.68294557147944     -0.86577074838656      0.34176687797768
| 42> C          -4.49345078730343      0.09376398773271     -0.67420576981618
| 43> C          -3.21349104560759      0.50568127921148     -1.00247721129044
| 44> H          -3.07548115689053      1.26718515114297     -1.77571342523042
| 45> H          -5.34379775111145      0.53000288222862     -1.20048622064007
| 46> O          -5.86039219693820     -1.32045276361291      0.73014290561810
| 47> C          -7.04863669150853     -0.86088719818355      0.11760799023957
| 48> H          -7.05349716792618     -1.09749864586999     -0.96096207362486
| 49> H          -7.87010373607049     -1.39602142441654      0.61252372140508
| 50> H          -7.17540081825230      0.22567978049243      0.26830217206131
| 51> H          -3.73137732634319     -2.16495328714636      1.77505264858787
| 52> H          -1.42462428217865     -1.45015721725065      1.17741544502090
| 53> *
| 54>
| 55>                          ****END OF INPUT****

CARTESIAN COORDINATES (ANGSTROEM)
---------------------------------
  C      2.100741   -0.036236    0.337497
  C      2.285283   -1.007523   -0.668455
  C      3.558541   -1.407961   -1.005874
  C      4.682491   -0.866055   -0.342285
  C      4.494105    0.092828    0.674482
  C      3.214436    0.504077    1.004853
  H      3.077239    1.265092    1.778710
  H      5.345041    0.529117    1.199773
  O      5.859571   -1.320092   -0.732631
  C      7.048501   -0.860243   -0.121685
  H      7.055126   -1.097342    0.956773
  H      7.174536    0.226457   -0.272055
  H      7.869489   -1.394750   -0.618079
  H      3.729369   -2.164656   -1.775039
  H      1.423196   -1.451154   -1.173574
  S      0.533108    0.508354    0.879449
  S     -0.532567    0.511573   -0.872987
  C     -2.100504   -0.034561   -0.333766
  C     -2.286148   -1.006541    0.671331
  C     -3.559729   -1.407679    1.006640
  C     -4.682946   -0.865771    0.341767
  C     -4.493451    0.093764   -0.674206
  C     -3.213491    0.505681   -1.002477
  H     -3.075481    1.267185   -1.775713
  H     -5.343798    0.530003   -1.200486
  O     -5.860392   -1.320453    0.730143
  C     -7.048637   -0.860887    0.117608
  H     -7.053497   -1.097499   -0.960962
  H     -7.870104   -1.396021    0.612524
  H     -7.175401    0.225680    0.268302
  H     -3.731377   -2.164953    1.775053
  H     -1.424624   -1.450157    1.177415

 Total Charge           Charge          ....    1
 Multiplicity           Mult            ....    2
 Number of Electrons    NEL             ....  145
 Basis Dimension        Dim             .... 1158

ORBITAL ENERGIES
----------------
                 SPIN UP ORBITALS
  NO   OCC          E(Eh)            E(eV)
   0   1.0000     -89.144892     -2425.7558
   1   1.0000     -89.144780     -2425.7528
   2   1.0000     -19.274023      -524.4728
   3   1.0000     -19.273903      -524.4696
   4   1.0000     -10.326043      -280.9859
   5   1.0000     -10.325930      -280.9828
   6   1.0000     -10.302098      -280.3343
   7   1.0000     -10.301967      -280.3308
   8   1.0000     -10.278546      -279.6935
   9   1.0000     -10.278508      -279.6924
  10   1.0000     -10.269383      -279.4441
  11   1.0000     -10.269293      -279.4417
  12   1.0000     -10.267995      -279.4063
  13   1.0000     -10.267926      -279.4045
  14   1.0000     -10.255410      -279.0639
  15   1.0000     -10.255331      -279.0618
  16   1.0000     -10.253361      -279.0081
  17   1.0000     -10.253262      -279.0055
  18   1.0000      -8.098599      -220.3741
  19   1.0000      -8.098463      -220.3704
  20   1.0000      -6.035812      -164.2428
  21   1.0000      -6.035526      -164.2350
  22   1.0000      -6.031474      -164.1248
  23   1.0000      -6.031356      -164.1215
  24   1.0000      -6.030983      -164.1114
  25   1.0000      -6.030875      -164.1084
  26   1.0000      -1.138698       -30.9856
  27   1.0000      -1.138590       -30.9826
  28   1.0000      -0.939626       -25.5685
  29   1.0000      -0.920718       -25.0540
  30   1.0000      -0.883820       -24.0500
  31   1.0000      -0.834510       -22.7082
  32   1.0000      -0.807721       -21.9792
  33   1.0000      -0.804381       -21.8883
  34   1.0000      -0.790443       -21.5090
  35   1.0000      -0.763401       -20.7732
  36   1.0000      -0.729840       -19.8600
  37   1.0000      -0.697416       -18.9777
  38   1.0000      -0.661898       -18.0112
  39   1.0000      -0.661287       -17.9945
  40   1.0000      -0.630434       -17.1550
  41   1.0000      -0.615484       -16.7482
  42   1.0000      -0.573782       -15.6134
  43   1.0000      -0.572348       -15.5744
  44   1.0000      -0.542317       -14.7572
  45   1.0000      -0.532555       -14.4915
  46   1.0000      -0.519054       -14.1242
  47   1.0000      -0.509654       -13.8684
  48   1.0000      -0.506419       -13.7804
  49   1.0000      -0.506161       -13.7733
  50   1.0000      -0.481835       -13.1114
  51   1.0000      -0.481341       -13.0980
  52   1.0000      -0.462627       -12.5887
  53   1.0000      -0.462175       -12.5764
  54   1.0000      -0.454122       -12.3573
  55   1.0000      -0.446064       -12.1380
  56   1.0000      -0.442267       -12.0347
  57   1.0000      -0.432180       -11.7602
  58   1.0000      -0.415923       -11.3178
  59   1.0000      -0.412770       -11.2320
  60   1.0000      -0.400109       -10.8875
  61   1.0000      -0.395929       -10.7738
  62   1.0000      -0.387399       -10.5417
  63   1.0000      -0.383280       -10.4296
  64   1.0000      -0.376895       -10.2558
  65   1.0000      -0.357806        -9.7364
  66   1.0000      -0.357450        -9.7267
  67   1.0000      -0.349749        -9.5172
  68   1.0000      -0.311600        -8.4791
  69   1.0000      -0.300190        -8.1686
  70   1.0000      -0.299190        -8.1414
  71   1.0000      -0.259582        -7.0636
  72   1.0000      -0.243721        -6.6320
  73   0.0000      -0.081068        -2.2060
  74   0.0000      -0.042666        -1.1610
  75   0.0000      -0.036231        -0.9859
  76   0.0000      -0.031445        -0.8557
  77   0.0000      -0.022843        -0.6216

                 SPIN DOWN ORBITALS
  NO   OCC          E(Eh)            E(eV)
   0   1.0000     -89.143013     -2425.7047
   1   1.0000     -89.142908     -2425.7018
   2   1.0000     -19.272525      -524.4321
   3   1.0000     -19.272417      -524.4291
   4   1.0000     -10.324893      -280.9546
   5   1.0000     -10.324789      -280.9518
   6   1.0000     -10.301119      -280.3077
   7   1.0000     -10.300995      -280.3043
   8   1.0000     -10.278605      -279.6951
   9   1.0000     -10.278567      -279.6940
  10   1.0000     -10.268840      -279.4293
  11   1.0000     -10.268755      -279.4270
  12   1.0000     -10.267450      -279.3915
  13   1.0000     -10.267382      -279.3897
  14   1.0000     -10.255278      -279.0603
  15   1.0000     -10.255198      -279.0581
  16   1.0000     -10.253483      -279.0115
  17   1.0000     -10.253387      -279.0088
  18   1.0000      -8.096679      -220.3218
  19   1.0000      -8.096543      -220.3181
  20   1.0000      -6.034576      -164.2092
  21   1.0000      -6.034285      -164.2012
  22   1.0000      -6.030078      -164.0868
  23   1.0000      -6.029979      -164.0841
  24   1.0000      -6.024860      -163.9448
  25   1.0000      -6.024758      -163.9420
  26   1.0000      -1.135821       -30.9073
  27   1.0000      -1.135737       -30.9050
  28   1.0000      -0.934580       -25.4312
  29   1.0000      -0.917794       -24.9745
  30   1.0000      -0.878863       -23.9151
  31   1.0000      -0.830326       -22.5943
  32   1.0000      -0.806607       -21.9489
  33   1.0000      -0.803363       -21.8606
  34   1.0000      -0.787136       -21.4191
  35   1.0000      -0.760499       -20.6942
  36   1.0000      -0.727624       -19.7997
  37   1.0000      -0.690737       -18.7959
  38   1.0000      -0.660267       -17.9668
  39   1.0000      -0.659532       -17.9468
  40   1.0000      -0.628888       -17.1129
  41   1.0000      -0.612313       -16.6619
  42   1.0000      -0.572919       -15.5899
  43   1.0000      -0.570954       -15.5364
  44   1.0000      -0.540943       -14.7198
  45   1.0000      -0.531624       -14.4662
  46   1.0000      -0.517628       -14.0854
  47   1.0000      -0.504700       -13.7336
  48   1.0000      -0.501171       -13.6375
  49   1.0000      -0.500990       -13.6326
  50   1.0000      -0.480489       -13.0748
  51   1.0000      -0.480002       -13.0615
  52   1.0000      -0.462069       -12.5735
  53   1.0000      -0.461659       -12.5624
  54   1.0000      -0.451898       -12.2968
  55   1.0000      -0.445404       -12.1201
  56   1.0000      -0.436869       -11.8878
  57   1.0000      -0.427184       -11.6243
  58   1.0000      -0.412051       -11.2125
  59   1.0000      -0.409797       -11.1511
  60   1.0000      -0.395894       -10.7728
  61   1.0000      -0.394908       -10.7460
  62   1.0000      -0.378594       -10.3021
  63   1.0000      -0.374690       -10.1958
  64   1.0000      -0.369286       -10.0488
  65   1.0000      -0.356765        -9.7081
  66   1.0000      -0.356108        -9.6902
  67   1.0000      -0.336377        -9.1533
  68   1.0000      -0.298228        -8.1152
  69   1.0000      -0.297939        -8.1073
  70   1.0000      -0.289205        -7.8697
  71   1.0000      -0.242049        -6.5865
  72   0.0000      -0.180620        -4.9149
  73   0.0000      -0.074192        -2.0189
  74   0.0000      -0.037603        -1.0232
  75   0.0000      -0.030535        -0.8309
  76   0.0000      -0.024435        -0.6649

MULLIKEN ATOMIC CHARGES AND SPIN POPULATIONS
--------------------------------------------
   0 C :    0.952441    0.021236
   1 C :   -0.559216    0.020646
   2 C :   -1.037554   -0.007759
   3 C :    0.924063    0.067658
   4 C :   -0.357406    0.010967
   5 C :   -1.091228    0.024687
   6 H :    0.519347   -0.006375
   7 H :    0.527903    0.003436
   8 O :   -0.579777    0.047611
   9 C :   -0.729366   -0.004218
  10 H :    0.325937    0.002800
  11 H :    0.318389    0.002183
  12 H :    0.258382    0.000281
  13 H :    0.583482    0.002263
  14 H :    0.649889    0.006451
  15 S :   -0.206872    0.306691
  16 S :   -0.206064    0.307991
  17 C :    0.956526    0.021729
  18 C :   -0.520598    0.020370
  19 C :   -1.064384   -0.007710
  20 C :    0.924907    0.068296
  21 C :   -0.354322    0.010829
  22 C :   -1.096851    0.024690
  23 H :    0.520688   -0.006380
  24 H :    0.521959    0.003533
  25 O :   -0.576880    0.048014
  26 C :   -0.728327   -0.004295
  27 H :    0.326376    0.002876
  28 H :    0.259539    0.000282
  29 H :    0.319028    0.002191
  30 H :    0.559585    0.002328
  31 H :    0.660404    0.006699
Sum of atomic charges         :    1.0000000

LOEWDIN ATOMIC CHARGES AND SPIN POPULATIONS
-------------------------------------------
   0 C :   -0.582817    0.071773
   1 C :    0.111391    0.025461
   2 C :    0.225784    0.012218
   3 C :   -0.385804    0.044638
   4 C :    0.230604    0.022017
   5 C :    0.123503    0.028731
   6 H :   -0.167992    0.004905
   7 H :   -0.170263    0.001568
   8 O :    0.618194    0.044243
   9 C :    0.365398    0.004476
  10 H :   -0.152347    0.001183
  11 H :   -0.152248    0.001188
  12 H :   -0.161943   -0.000139
  13 H :   -0.153939   -0.000261
  14 H :   -0.202069    0.004363
  15 S :    0.953886    0.232394
  16 S :    0.954170    0.233114
  17 C :   -0.582576    0.072127
  18 C :    0.111508    0.025588
  19 C :    0.225922    0.012397
  20 C :   -0.385658    0.044993
  21 C :    0.230711    0.022104
  22 C :    0.123597    0.028917
  23 H :   -0.167932    0.004920
  24 H :   -0.170219    0.001560
  25 O :    0.618305    0.044613
  26 C :    0.365524    0.004514
  27 H :   -0.152314    0.001194
  28 H :   -0.161918   -0.000140
  29 H :   -0.152223    0.001198
  30 H :   -0.153899   -0.000245
  31 H :   -0.202334    0.004387

  Mayer bond orders larger than 0.100000
B(  0-C ,  1-C ) :   0.8103 B(  0-C ,  2-C ) :  -0.1513 B(  0-C ,  5-C ) :   0.8643
B(  0-C , 15-S ) :   0.5169 B(  1-C ,  2-C ) :   1.2868 B(  1-C ,  3-C ) :  -0.2053
B(  1-C ,  8-O ) :   0.1070 B(  1-C , 13-H ) :   0.1196 B(  1-C , 14-H ) :   0.4093
B(  1-C , 16-S ) :   0.1604 B(  1-C , 18-C ) :   0.1019 B(  2-C ,  3-C ) :   0.8889
B(  2-C ,  8-O ) :   0.2907 B(  2-C , 13-H ) :   0.3362 B(  3-C ,  4-C ) :   1.0861
B(  3-C ,  5-C ) :  -0.1187 B(  3-C ,  8-O ) :   0.4489 B(  4-C ,  5-C ) :   1.2311
B(  4-C ,  7-H ) :   0.4343 B(  4-C ,  8-O ) :  -0.1734 B(  5-C ,  6-H ) :   0.4821
B(  8-O ,  9-C ) :   0.9826 B(  9-C , 10-H ) :   0.8701 B(  9-C , 11-H ) :   0.8771
B(  9-C , 12-H ) :   0.9651 B( 15-S , 16-S ) :   1.0856 B( 15-S , 18-C ) :   0.1544
B( 16-S , 17-C ) :   0.5101 B( 17-C , 18-C ) :   0.8142 B( 17-C , 19-C ) :  -0.1622
B( 17-C , 22-C ) :   0.8626 B( 18-C , 19-C ) :   1.2170 B( 18-C , 20-C ) :  -0.2083
B( 18-C , 25-O ) :   0.1100 B( 18-C , 30-H ) :   0.1177 B( 18-C , 31-H ) :   0.3932
B( 19-C , 20-C ) :   0.8972 B( 19-C , 21-C ) :   0.1062 B( 19-C , 25-O ) :   0.2918
B( 19-C , 30-H ) :   0.3774 B( 20-C , 21-C ) :   1.0799 B( 20-C , 22-C ) :  -0.1120
B( 20-C , 25-O ) :   0.4452 B( 21-C , 22-C ) :   1.2404 B( 21-C , 24-H ) :   0.4469
B( 21-C , 25-O ) :  -0.1780 B( 22-C , 23-H ) :   0.4781 B( 25-O , 26-C ) :   0.9791
B( 26-C , 27-H ) :   0.8700 B( 26-C , 28-H ) :   0.9633 B( 26-C , 29-H ) :   0.8764

Dispersion correction           -0.036325890
FINAL SINGLE POINT ENERGY     -1487.784812110301

DIPOLE MOMENT
-------------

Method             : SCF
Type of density    : Electron Density
Multiplicity       :   2
Irrep              :   0
Energy             : -1487.7484862202916247 Eh
Relativity type    :
Basis              : AO
                                X                 Y                 Z
Electronic contribution:     -0.010128806       3.336807183       0.016173589
Nuclear contribution   :     -0.000025572      -2.851825111      -0.017728862
                        -----------------------------------------
Total Dipole Moment    :     -0.010154378       0.484982072      -0.001555273
                        -----------------------------------------
Magnitude (a.u.)       :      0.485090858
Magnitude (Debye)      :      1.233002973

Rotational constants in cm-1:             0.050702             0.003581             0.003572
Rotational constants in MHz :          1519.993315           107.353371           107.097515

                             ****ORCA TERMINATED NORMALLY****
TOTAL RUN TIME: 0 days 0 hours 21 minutes 36 seconds 351 msec
