                         Program Version 6.0.0  -   RELEASE  -
|  1> !r2SCANh aug-cc-pVTZ d3 TightSCF SlowConv RIJCOSX defgrid2
|  2>
|  3> %pal
|  4> nprocs 4
|  5> end
|  6>
|  7> %scf
|  8> MaxIter 1500
|  9> end
| 10>
| 11> %maxcore 3000
| 12>
| 13> !CPCM
| 14> %cpcm smd true
| 15> SMDsolvent "MeCN"
| 16> surfacetype gepol_ses
| 17> rsolv 2.19
| 18> end
| 19>
| 20> * xyz 1 2
| 21> C          -1.37570161970798      1.24248775146081      0.14964467519830
| 22> C          -2.72328606993136      1.33933244972942     -0.12972549489389
| 23> C          -3.50332136231250      0.18456023805622     -0.29662204383798
| 24> C          -2.90850381676726     -1.08060950224510     -0.17914577968731
| 25> C          -1.56009156673199     -1.19946806950118      0.08819160883999
| 26> C          -0.74929788406068     -0.03596298254245      0.25549211350325
| 27> N           0.58169156042701     -0.14755492533350      0.51923516368239
| 28> C           1.35906971560407     -1.35389965269269      0.28665855372844
| 29> H           1.88509976437755     -1.61600692768801      1.22001003582768
| 30> H           0.72298603517521     -2.19210005080425     -0.01631674285562
| 31> C           2.39456488415066     -1.05887336973135     -0.81777740540371
| 32> H           1.85949130432221     -0.86633084185637     -1.77045067834009
| 33> H           3.04102795891331     -1.94051290095387     -0.94478618718467
| 34> O           3.20182115584000      0.01450222304714     -0.46263444369679
| 35> C           2.47636872597331      1.18215324578846     -0.25260675546455
| 36> H           3.18364575605233      1.96931206906534      0.04942966335265
| 37> H           1.95240344881149      1.50557330797809     -1.17560901565404
| 38> C           1.44564375796760      0.96716490649827      0.86894476596378
| 39> H           0.87103596845838      1.87677062866973      1.07105968779003
| 40> H           1.98209056577574      0.68782297194295      1.79196599824839
| 41> H          -1.13914062593493     -2.19705534469310      0.21352347531936
| 42> H          -3.51569254322193     -1.98314623006578     -0.28645384104721
| 43> H          -4.57208793284479      0.27077776097684     -0.51046305441418
| 44> H          -3.18143391858996      2.32714955314318     -0.22534185944500
| 45> H          -0.79875706174547      2.16114869175120      0.25195876047079
| 46> *
| 47>
| 48>                          ****END OF INPUT****

CARTESIAN COORDINATES (ANGSTROEM)
---------------------------------
  C     -1.375702    1.242488    0.149645
  C     -2.723286    1.339332   -0.129725
  C     -3.503321    0.184560   -0.296622
  C     -2.908504   -1.080610   -0.179146
  C     -1.560092   -1.199468    0.088192
  C     -0.749298   -0.035963    0.255492
  N      0.581692   -0.147555    0.519235
  C      1.359070   -1.353900    0.286659
  H      1.885100   -1.616007    1.220010
  H      0.722986   -2.192100   -0.016317
  C      2.394565   -1.058873   -0.817777
  H      1.859491   -0.866331   -1.770451
  H      3.041028   -1.940513   -0.944786
  O      3.201821    0.014502   -0.462634
  C      2.476369    1.182153   -0.252607
  H      3.183646    1.969312    0.049430
  H      1.952403    1.505573   -1.175609
  C      1.445644    0.967165    0.868945
  H      0.871036    1.876771    1.071060
  H      1.982091    0.687823    1.791966
  H     -1.139141   -2.197055    0.213523
  H     -3.515693   -1.983146   -0.286454
  H     -4.572088    0.270778   -0.510463
  H     -3.181434    2.327150   -0.225342
  H     -0.798757    2.161149    0.251959

 Total Charge           Charge          ....    1
 Multiplicity           Mult            ....    2
 Number of Electrons    NEL             ....   87
 Basis Dimension        Dim             ....  851

ORBITAL ENERGIES
----------------
                 SPIN UP ORBITALS
  NO   OCC          E(Eh)            E(eV)
   0   1.0000     -19.150512      -521.1119
   1   1.0000     -14.428263      -392.6130
   2   1.0000     -10.252810      -278.9931
   3   1.0000     -10.224601      -278.2256
   4   1.0000     -10.224155      -278.2134
   5   1.0000     -10.217401      -278.0296
   6   1.0000     -10.216869      -278.0151
   7   1.0000     -10.199003      -277.5290
   8   1.0000     -10.198765      -277.5225
   9   1.0000     -10.196155      -277.4515
  10   1.0000     -10.185744      -277.1682
  11   1.0000     -10.185414      -277.1592
  12   1.0000      -1.088111       -29.6090
  13   1.0000      -1.026014       -27.9193
  14   1.0000      -0.884958       -24.0809
  15   1.0000      -0.806168       -21.9370
  16   1.0000      -0.794522       -21.6200
  17   1.0000      -0.778015       -21.1709
  18   1.0000      -0.718912       -19.5626
  19   1.0000      -0.693113       -18.8606
  20   1.0000      -0.641800       -17.4643
  21   1.0000      -0.623275       -16.9602
  22   1.0000      -0.589441       -16.0395
  23   1.0000      -0.564015       -15.3476
  24   1.0000      -0.514624       -14.0036
  25   1.0000      -0.512574       -13.9478
  26   1.0000      -0.494836       -13.4652
  27   1.0000      -0.493845       -13.4382
  28   1.0000      -0.482114       -13.1190
  29   1.0000      -0.464730       -12.6459
  30   1.0000      -0.452549       -12.3145
  31   1.0000      -0.442240       -12.0340
  32   1.0000      -0.440664       -11.9911
  33   1.0000      -0.406947       -11.0736
  34   1.0000      -0.401085       -10.9141
  35   1.0000      -0.383970       -10.4483
  36   1.0000      -0.374583       -10.1929
  37   1.0000      -0.367994       -10.0136
  38   1.0000      -0.355231        -9.6663
  39   1.0000      -0.346869        -9.4388
  40   1.0000      -0.320250        -8.7144
  41   1.0000      -0.287068        -7.8115
  42   1.0000      -0.281183        -7.6514
  43   1.0000      -0.243303        -6.6206
  44   0.0000      -0.051126        -1.3912
  45   0.0000      -0.046892        -1.2760
  46   0.0000       0.006663         0.1813
  47   0.0000       0.020111         0.5472
  48   0.0000       0.021001         0.5715

                 SPIN DOWN ORBITALS
  NO   OCC          E(Eh)            E(eV)
   0   1.0000     -19.149411      -521.0820
   1   1.0000     -14.415008      -392.2523
   2   1.0000     -10.254548      -279.0404
   3   1.0000     -10.223697      -278.2009
   4   1.0000     -10.223341      -278.1912
   5   1.0000     -10.217617      -278.0355
   6   1.0000     -10.217129      -278.0222
   7   1.0000     -10.194840      -277.4157
   8   1.0000     -10.194680      -277.4113
   9   1.0000     -10.190605      -277.3005
  10   1.0000     -10.188204      -277.2351
  11   1.0000     -10.187930      -277.2277
  12   1.0000      -1.085607       -29.5409
  13   1.0000      -1.008218       -27.4350
  14   1.0000      -0.878877       -23.9155
  15   1.0000      -0.803783       -21.8720
  16   1.0000      -0.790869       -21.5207
  17   1.0000      -0.774882       -21.0856
  18   1.0000      -0.707035       -19.2394
  19   1.0000      -0.692126       -18.8337
  20   1.0000      -0.636386       -17.3169
  21   1.0000      -0.620433       -16.8828
  22   1.0000      -0.585493       -15.9321
  23   1.0000      -0.560133       -15.2420
  24   1.0000      -0.508897       -13.8478
  25   1.0000      -0.508174       -13.8281
  26   1.0000      -0.492669       -13.4062
  27   1.0000      -0.485799       -13.2193
  28   1.0000      -0.478398       -13.0179
  29   1.0000      -0.457224       -12.4417
  30   1.0000      -0.449967       -12.2442
  31   1.0000      -0.441343       -12.0096
  32   1.0000      -0.433882       -11.8065
  33   1.0000      -0.402446       -10.9511
  34   1.0000      -0.392033       -10.6678
  35   1.0000      -0.381997       -10.3947
  36   1.0000      -0.372823       -10.1450
  37   1.0000      -0.365312        -9.9406
  38   1.0000      -0.347137        -9.4461
  39   1.0000      -0.334377        -9.0989
  40   1.0000      -0.310729        -8.4554
  41   1.0000      -0.278260        -7.5718
  42   1.0000      -0.271309        -7.3827
  43   0.0000      -0.172753        -4.7009
  44   0.0000      -0.041932        -1.1410
  45   0.0000      -0.027560        -0.7500
  46   0.0000       0.007690         0.2093
  47   0.0000       0.021411         0.5826

MULLIKEN ATOMIC CHARGES AND SPIN POPULATIONS
--------------------------------------------
   0 C :   -0.331147    0.247338
   1 C :   -0.811125   -0.167685
   2 C :   -0.535876    0.349140
   3 C :   -0.711170   -0.179529
   4 C :   -0.555137    0.262060
   5 C :    1.733908   -0.070349
   6 N :    0.246413    0.476583
   7 C :   -0.626597   -0.034298
   8 H :    0.191986    0.013208
   9 H :    0.236382    0.003622
  10 C :   -0.058097    0.044583
  11 H :    0.231315    0.003576
  12 H :    0.250610    0.006281
  13 O :   -0.648450    0.034290
  14 C :   -0.032199    0.037036
  15 H :    0.285782    0.005586
  16 H :    0.249548    0.003907
  17 C :   -0.699169   -0.040378
  18 H :    0.180982   -0.000748
  19 H :    0.181344    0.025764
  20 H :    0.447342   -0.007551
  21 H :    0.400763   -0.005499
  22 H :    0.507282    0.007438
  23 H :    0.339769   -0.003142
  24 H :    0.525541   -0.011233
Sum of atomic charges         :    1.0000000

LOEWDIN ATOMIC CHARGES AND SPIN POPULATIONS
-------------------------------------------
   0 C :    0.273671    0.098868
   1 C :    0.239663    0.009805
   2 C :    0.242764    0.135166
   3 C :    0.239068    0.008853
   4 C :    0.274306    0.100203
   5 C :   -0.132752    0.074835
   6 N :    0.340869    0.301641
   7 C :    0.277570    0.047200
   8 H :   -0.096053    0.010433
   9 H :   -0.154237    0.001740
  10 C :    0.074533    0.026318
  11 H :   -0.120265    0.002762
  12 H :   -0.125160    0.004933
  13 O :    0.610852    0.029182
  14 C :    0.073849    0.024680
  15 H :   -0.125133    0.004276
  16 H :   -0.120563    0.003183
  17 C :    0.273434    0.047039
  18 H :   -0.149500    0.001377
  19 H :   -0.098438    0.012073
  20 H :   -0.171018    0.022563
  21 H :   -0.152379   -0.012540
  22 H :   -0.150513    0.035166
  23 H :   -0.152220   -0.012241
  24 H :   -0.172347    0.022485

  Mayer bond orders larger than 0.100000
B(  0-C ,  1-C ) :   1.1145 B(  0-C ,  2-C ) :   0.3478 B(  0-C ,  3-C ) :  -0.2017
B(  0-C ,  4-C ) :   0.1510 B(  0-C ,  5-C ) :   0.1683 B(  0-C ,  6-N ) :  -0.1916
B(  0-C , 24-H ) :   0.2831 B(  1-C ,  2-C ) :   1.0558 B(  1-C ,  4-C ) :  -0.1871
B(  1-C ,  5-C ) :  -0.4721 B(  1-C , 23-H ) :   0.8100 B(  2-C ,  3-C ) :   1.0447
B(  2-C ,  4-C ) :   0.3261 B(  2-C ,  5-C ) :  -0.2950 B(  2-C , 22-H ) :   0.5247
B(  2-C , 24-H ) :  -0.1100 B(  3-C ,  4-C ) :   1.2667 B(  3-C ,  5-C ) :  -0.3902
B(  3-C , 21-H ) :   0.6987 B(  4-C , 20-H ) :   0.4299 B(  5-C ,  6-N ) :   0.3690
B(  5-C , 17-C ) :  -0.1233 B(  6-N ,  7-C ) :   1.1159 B(  6-N , 17-C ) :   1.0974
B(  6-N , 20-H ) :   0.1069 B(  7-C ,  8-H ) :   0.9496 B(  7-C ,  9-H ) :   0.9264
B(  7-C , 10-C ) :   0.8966 B(  7-C , 13-O ) :   0.1071 B(  7-C , 17-C ) :   0.2316
B( 10-C , 11-H ) :   0.9444 B( 10-C , 12-H ) :   0.9348 B( 10-C , 13-O ) :   0.8373
B( 13-O , 14-C ) :   0.8452 B( 14-C , 15-H ) :   0.9025 B( 14-C , 16-H ) :   0.9463
B( 14-C , 17-C ) :   0.8732 B( 17-C , 18-H ) :   1.0036 B( 17-C , 19-H ) :   0.9426

Dispersion correction           -0.009004475
FINAL SINGLE POINT ENERGY      -518.554302277496

DIPOLE MOMENT
-------------

Method             : SCF
Type of density    : Electron Density
Multiplicity       :   2
Irrep              :   0
Energy             :  -518.5452978024504773 Eh
Relativity type    :
Basis              : AO
                                X                 Y                 Z
Electronic contribution:     -2.684266828      -0.057157840       0.652684769
Nuclear contribution   :      2.207733299      -0.028342032      -0.256093747
                        -----------------------------------------
Total Dipole Moment    :     -0.476533529      -0.085499872       0.396591023
                        -----------------------------------------
Magnitude (a.u.)       :      0.625842529
Magnitude (Debye)      :      1.590765289

Rotational constants in cm-1:             0.077620             0.019238             0.016602
Rotational constants in MHz :          2326.988545           576.750143           497.725802

                             ****ORCA TERMINATED NORMALLY****
TOTAL RUN TIME: 0 days 0 hours 18 minutes 18 seconds 342 msec
