                         Program Version 6.0.0  -   RELEASE  -
|  1> !TPSSh freq aug-cc-pVTZ d3 TightSCF SlowConv RIJCOSX defgrid2
|  2>
|  3> %pal
|  4> nprocs 12
|  5> end
|  6>
|  7> %scf
|  8> MaxIter 1500
|  9> end
| 10>
| 11> %maxcore 5000
| 12>
| 13> !CPCM
| 14> %cpcm smd true
| 15> SMDsolvent "MeCN"
| 16> surfacetype gepol_ses
| 17> rsolv 2.19
| 18> end
| 19>
| 20> * xyz -1 2
| 21> C           0.68355979744343     -1.23233805491240     -0.00270902478089
| 22> C          -0.69027636142312     -1.22700346039737     -0.00127801157050
| 23> C          -1.38829174097614      0.00351904541520     -0.00002480592004
| 24> C          -0.66167707504376      1.21510153723095     -0.00130961424499
| 25> C           0.71510097319947      1.18854910056856     -0.00277614509448
| 26> C           1.43167710166750     -0.03062630314336     -0.00330347160683
| 27> C           2.89057677766921     -0.08320705411670     -0.00443115368703
| 28> O           3.50306504638823     -1.16263393936499     -0.00467192793704
| 29> C           3.66532757826343      1.21781647187012     -0.00170293630889
| 30> H           3.42572370194753      1.81811130341291      0.88040204386018
| 31> H           4.73166740522208      0.99742394419405     -0.00356570147795
| 32> H           3.42372881738100      1.82307373995138     -0.87975540677306
| 33> H           1.25146369262411      2.12918927616923     -0.00388512601506
| 34> H          -1.20385304163826      2.14959574039076     -0.00093010083165
| 35> N          -2.78123074779986      0.02004777993450      0.00273113770264
| 36> O          -3.39196776930306      1.14143013058875      0.00469279893728
| 37> O          -3.41913043588465     -1.08615088650624      0.00468213238809
| 38> H          -1.25653714041547     -2.14739434142382     -0.00087418482233
| 39> H           1.22203892067832     -2.17195382986154     -0.00337600181746
| 40> *
| 41>
| 42>                          ****END OF INPUT****

CARTESIAN COORDINATES (ANGSTROEM)
---------------------------------
  C      0.683560   -1.232338   -0.002709
  C     -0.690276   -1.227003   -0.001278
  C     -1.388292    0.003519   -0.000025
  C     -0.661677    1.215102   -0.001310
  C      0.715101    1.188549   -0.002776
  C      1.431677   -0.030626   -0.003303
  C      2.890577   -0.083207   -0.004431
  O      3.503065   -1.162634   -0.004672
  C      3.665328    1.217816   -0.001703
  H      3.425724    1.818111    0.880402
  H      4.731667    0.997424   -0.003566
  H      3.423729    1.823074   -0.879755
  H      1.251464    2.129189   -0.003885
  H     -1.203853    2.149596   -0.000930
  N     -2.781231    0.020048    0.002731
  O     -3.391968    1.141430    0.004693
  O     -3.419130   -1.086151    0.004682
  H     -1.256537   -2.147394   -0.000874
  H      1.222039   -2.171954   -0.003376

 Total Charge           Charge          ....   -1
 Multiplicity           Mult            ....    2
 Number of Electrons    NEL             ....   87
 Basis Dimension        Dim             ....  713

ORBITAL ENERGIES
----------------
                 SPIN UP ORBITALS
  NO   OCC          E(Eh)            E(eV)
   0   1.0000     -19.021951      -517.6136
   1   1.0000     -19.021876      -517.6115
   2   1.0000     -19.016980      -517.4783
   3   1.0000     -14.399515      -391.8307
   4   1.0000     -10.174879      -276.8725
   5   1.0000     -10.141541      -275.9654
   6   1.0000     -10.111584      -275.1502
   7   1.0000     -10.108463      -275.0653
   8   1.0000     -10.107879      -275.0494
   9   1.0000     -10.107861      -275.0489
  10   1.0000     -10.106315      -275.0068
  11   1.0000     -10.096624      -274.7431
  12   1.0000      -1.109605       -30.1939
  13   1.0000      -0.986080       -26.8326
  14   1.0000      -0.941990       -25.6329
  15   1.0000      -0.836790       -22.7702
  16   1.0000      -0.766730       -20.8638
  17   1.0000      -0.726098       -19.7581
  18   1.0000      -0.708379       -19.2760
  19   1.0000      -0.660308       -17.9679
  20   1.0000      -0.578933       -15.7536
  21   1.0000      -0.563962       -15.3462
  22   1.0000      -0.522167       -14.2089
  23   1.0000      -0.487274       -13.2594
  24   1.0000      -0.458690       -12.4816
  25   1.0000      -0.452524       -12.3138
  26   1.0000      -0.441513       -12.0142
  27   1.0000      -0.418685       -11.3930
  28   1.0000      -0.415625       -11.3097
  29   1.0000      -0.410692       -11.1755
  30   1.0000      -0.397633       -10.8201
  31   1.0000      -0.375671       -10.2225
  32   1.0000      -0.373802       -10.1717
  33   1.0000      -0.352180        -9.5833
  34   1.0000      -0.344040        -9.3618
  35   1.0000      -0.323677        -8.8077
  36   1.0000      -0.311082        -8.4650
  37   1.0000      -0.259197        -7.0531
  38   1.0000      -0.248342        -6.7577
  39   1.0000      -0.246387        -6.7045
  40   1.0000      -0.243623        -6.6293
  41   1.0000      -0.220030        -5.9873
  42   1.0000      -0.218398        -5.9429
  43   1.0000      -0.126524        -3.4429
  44   0.0000      -0.045987        -1.2514
  45   0.0000      -0.016337        -0.4445
  46   0.0000      -0.002848        -0.0775
  47   0.0000       0.010087         0.2745
  48   0.0000       0.014651         0.3987

                 SPIN DOWN ORBITALS
  NO   OCC          E(Eh)            E(eV)
   0   1.0000     -19.017175      -517.4836
   1   1.0000     -19.017167      -517.4834
   2   1.0000     -19.014396      -517.4080
   3   1.0000     -14.394068      -391.6825
   4   1.0000     -10.174193      -276.8539
   5   1.0000     -10.140659      -275.9414
   6   1.0000     -10.111986      -275.1611
   7   1.0000     -10.108615      -275.0694
   8   1.0000     -10.106833      -275.0209
   9   1.0000     -10.106478      -275.0112
  10   1.0000     -10.103874      -274.9404
  11   1.0000     -10.096695      -274.7450
  12   1.0000      -1.100697       -29.9515
  13   1.0000      -0.981862       -26.7178
  14   1.0000      -0.933730       -25.4081
  15   1.0000      -0.833820       -22.6894
  16   1.0000      -0.760825       -20.7031
  17   1.0000      -0.723820       -19.6961
  18   1.0000      -0.705495       -19.1975
  19   1.0000      -0.654010       -17.7965
  20   1.0000      -0.578219       -15.7341
  21   1.0000      -0.559547       -15.2260
  22   1.0000      -0.520375       -14.1601
  23   1.0000      -0.482155       -13.1201
  24   1.0000      -0.449160       -12.2223
  25   1.0000      -0.439371       -11.9559
  26   1.0000      -0.432293       -11.7633
  27   1.0000      -0.417568       -11.3626
  28   1.0000      -0.412500       -11.2247
  29   1.0000      -0.405784       -11.0420
  30   1.0000      -0.397041       -10.8040
  31   1.0000      -0.374193       -10.1823
  32   1.0000      -0.373061       -10.1515
  33   1.0000      -0.344973        -9.3872
  34   1.0000      -0.342918        -9.3313
  35   1.0000      -0.313837        -8.5399
  36   1.0000      -0.310537        -8.4501
  37   1.0000      -0.244981        -6.6663
  38   1.0000      -0.243373        -6.6225
  39   1.0000      -0.230278        -6.2662
  40   1.0000      -0.225401        -6.1335
  41   1.0000      -0.217473        -5.9178
  42   1.0000      -0.215561        -5.8657
  43   0.0000      -0.082540        -2.2460
  44   0.0000      -0.023131        -0.6294
  45   0.0000      -0.013186        -0.3588
  46   0.0000      -0.001546        -0.0421
  47   0.0000       0.011301         0.3075

MULLIKEN ATOMIC CHARGES AND SPIN POPULATIONS
--------------------------------------------
   0 C :   -0.651626   -0.010853
   1 C :   -0.279473    0.097755
   2 C :    0.290679    0.046287
   3 C :   -0.524525    0.110703
   4 C :   -0.274796   -0.015052
   5 C :    0.885481    0.143674
   6 C :    0.800030    0.041030
   7 O :   -1.087553    0.095213
   8 C :   -0.239192   -0.008685
   9 H :    0.185951    0.003503
  10 H :   -0.044716   -0.001638
  11 H :    0.185303    0.003487
  12 H :    0.058074   -0.003176
  13 H :    0.358047   -0.001722
  14 N :    0.724628    0.133659
  15 O :   -0.895677    0.185017
  16 O :   -0.894109    0.187259
  17 H :    0.429460   -0.002291
  18 H :   -0.025989   -0.004169
Sum of atomic charges         :   -1.0000000

LOEWDIN ATOMIC CHARGES AND SPIN POPULATIONS
-------------------------------------------
   0 C :    0.177988    0.024369
   1 C :    0.183406    0.047166
   2 C :   -0.307813    0.066898
   3 C :    0.188409    0.053141
   4 C :    0.188080    0.026832
   5 C :   -0.159041    0.084154
   6 C :   -0.581860    0.062899
   7 O :    0.432083    0.081228
   8 C :    0.553908    0.008314
   9 H :   -0.171378    0.001970
  10 H :   -0.190794   -0.000133
  11 H :   -0.171741    0.001960
  12 H :   -0.194370   -0.000106
  13 H :   -0.218064    0.010891
  14 N :   -0.812579    0.186209
  15 O :    0.251410    0.166459
  16 O :    0.251631    0.168501
  17 H :   -0.218689    0.009450
  18 H :   -0.200588   -0.000202

  Mayer bond orders larger than 0.100000
B(  0-C ,  1-C ) :   1.6284 B(  0-C ,  2-C ) :  -0.3347 B(  0-C ,  4-C ) :  -0.3273
B(  0-C ,  5-C ) :   0.4418 B(  0-C ,  6-C ) :   0.1800 B(  0-C , 16-O ) :  -0.1509
B(  0-C , 18-H ) :   1.1331 B(  1-C ,  2-C ) :   0.9769 B(  1-C ,  3-C ) :   0.1642
B(  1-C ,  4-C ) :  -0.1512 B(  1-C ,  5-C ) :   0.1115 B(  1-C ,  7-O ) :  -0.1063
B(  1-C , 14-N ) :  -0.1233 B(  1-C , 16-O ) :  -0.1295 B(  1-C , 17-H ) :   0.4215
B(  2-C ,  3-C ) :   0.8545 B(  2-C ,  4-C ) :  -0.2665 B(  2-C , 13-H ) :   0.1348
B(  2-C , 14-N ) :   1.3357 B(  2-C , 15-O ) :   0.5328 B(  2-C , 16-O ) :   0.5471
B(  2-C , 17-H ) :   0.1484 B(  3-C ,  4-C ) :   1.3495 B(  3-C ,  5-C ) :   0.1658
B(  3-C , 13-H ) :   0.5113 B(  3-C , 14-N ) :  -0.1906 B(  3-C , 15-O ) :  -0.1184
B(  4-C ,  5-C ) :   0.5397 B(  4-C ,  6-C ) :   0.1033 B(  4-C , 12-H ) :   1.1643
B(  4-C , 15-O ) :  -0.1446 B(  5-C ,  6-C ) :   0.5265 B(  5-C ,  7-O ) :   0.3615
B(  6-C ,  7-O ) :   0.3368 B(  6-C ,  8-C ) :   1.0513 B(  6-C , 18-H ) :  -0.1062
B(  7-O , 18-H ) :   0.1974 B(  8-C ,  9-H ) :   0.9481 B(  8-C , 10-H ) :   1.0351
B(  8-C , 11-H ) :   0.9490 B( 14-N , 15-O ) :   0.5560 B( 14-N , 16-O ) :   0.5535
B( 15-O , 16-O ) :   0.1403

Dispersion correction           -0.024477030
FINAL SINGLE POINT ENERGY      -589.805851283945

DIPOLE MOMENT
-------------

Method             : SCF
Type of density    : Electron Density
Multiplicity       :   2
Irrep              :   0
Energy             :  -589.7813742539068471 Eh
Relativity type    :
Basis              : AO
                                X                 Y                 Z
Electronic contribution:     -7.656015851      -2.975825872       0.001640194
Nuclear contribution   :     10.828016252       4.304227837      -0.006783690
                        -----------------------------------------
Total Dipole Moment    :      3.172000401       1.328401965      -0.005143497
                        -----------------------------------------
Magnitude (a.u.)       :      3.438933669
Magnitude (Debye)      :      8.741074722

VIBRATIONAL FREQUENCIES
-----------------------

Scaling factor for frequencies =  1.000000000  (already applied!)

     0:       0.00 cm**-1
     1:       0.00 cm**-1
     2:       0.00 cm**-1
     3:       0.00 cm**-1
     4:       0.00 cm**-1
     5:       0.00 cm**-1
     6:      64.79 cm**-1
     7:      73.26 cm**-1
     8:     105.32 cm**-1
     9:     117.23 cm**-1
    10:     151.66 cm**-1
    11:     223.59 cm**-1
    12:     256.76 cm**-1
    13:     291.52 cm**-1
    14:     401.10 cm**-1
    15:     432.98 cm**-1
    16:     438.15 cm**-1
    17:     508.31 cm**-1
    18:     534.67 cm**-1
    19:     573.21 cm**-1
    20:     607.78 cm**-1
    21:     608.39 cm**-1
    22:     626.14 cm**-1
    23:     713.28 cm**-1
    24:     729.55 cm**-1
    25:     807.96 cm**-1
    26:     815.99 cm**-1
    27:     833.72 cm**-1
    28:     947.79 cm**-1
    29:     976.29 cm**-1
    30:     995.06 cm**-1
    31:     995.86 cm**-1
    32:    1026.51 cm**-1
    33:    1058.27 cm**-1
    34:    1092.65 cm**-1
    35:    1106.35 cm**-1
    36:    1173.54 cm**-1
    37:    1290.45 cm**-1
    38:    1291.01 cm**-1
    39:    1312.37 cm**-1
    40:    1357.41 cm**-1
    41:    1369.45 cm**-1
    42:    1382.72 cm**-1
    43:    1456.27 cm**-1
    44:    1459.00 cm**-1
    45:    1466.19 cm**-1
    46:    1494.23 cm**-1
    47:    1542.50 cm**-1
    48:    1599.43 cm**-1
    49:    1632.88 cm**-1
    50:    3024.69 cm**-1
    51:    3080.45 cm**-1
    52:    3125.48 cm**-1
    53:    3176.95 cm**-1
    54:    3178.01 cm**-1
    55:    3208.77 cm**-1
    56:    3211.56 cm**-1

IR SPECTRUM
-----------

 Mode   freq       eps      Int      T**2         TX        TY        TZ
       cm**-1   L/(mol*cm) km/mol    a.u.
----------------------------------------------------------------------------
  6:     64.79   0.000520    2.63  0.002503  (-0.000032 -0.000431 -0.050025)
  7:     73.26   0.002150   10.87  0.009160  (-0.000894  0.000468  0.095703)
  8:    105.32   0.000280    1.41  0.000830  ( 0.000755  0.000842 -0.028779)
  9:    117.23   0.000065    0.33  0.000173  (-0.000231 -0.000036 -0.013167)
 10:    151.66   0.002338   11.82  0.004811  ( 0.049220  0.048867 -0.000101)
 11:    223.59   0.000457    2.31  0.000637  ( 0.000309  0.000018 -0.025247)
 12:    256.76   0.001685    8.51  0.002048  (-0.040733  0.019706 -0.000075)
 13:    291.52   0.001160    5.86  0.001242  ( 0.034012 -0.009202 -0.000051)
 14:    401.10   0.000542    2.74  0.000422  ( 0.000544  0.000264 -0.020525)
 15:    432.98   0.001641    8.29  0.001183  ( 0.021281  0.027021 -0.000120)
 16:    438.15   0.000033    0.17  0.000024  (-0.000350 -0.000180 -0.004859)
 17:    508.31   0.009301   47.00  0.005710  (-0.074999  0.009213  0.000149)
 18:    534.67   0.003884   19.63  0.002267  (-0.041090 -0.024053  0.000046)
 19:    573.21   0.000114    0.58  0.000062  (-0.000807 -0.000151 -0.007847)
 20:    607.78   0.010942   55.30  0.005618  (-0.000673  0.000015  0.074953)
 21:    608.39   0.005113   25.84  0.002622  ( 0.048465  0.016539 -0.000047)
 22:    626.14   0.000040    0.20  0.000020  ( 0.003622 -0.002646  0.000089)
 23:    713.28   0.013651   68.98  0.005972  ( 0.077011 -0.006437  0.000036)
 24:    729.55   0.000001    0.01  0.000001  (-0.000143 -0.000016 -0.000779)
 25:    807.96   0.023625  119.39  0.009125  ( 0.095453 -0.003680 -0.000334)
 26:    815.99   0.004906   24.79  0.001876  (-0.000218  0.000126 -0.043314)
 27:    833.72   0.016425   83.00  0.006148  ( 0.000068  0.000133 -0.078408)
 28:    947.79   0.086237  435.81  0.028394  (-0.167569 -0.017740  0.000005)
 29:    976.29   0.000036    0.18  0.000011  ( 0.002261 -0.000042  0.002519)
 30:    995.06   0.006698   33.85  0.002101  ( 0.045826  0.000819 -0.000162)
 31:    995.86   0.000034    0.17  0.000011  ( 0.000197  0.000375  0.003250)
 32:   1026.51   0.000449    2.27  0.000137  ( 0.000693  0.000326  0.011664)
 33:   1058.27   0.201034  1015.95  0.059281  ( 0.242969 -0.015727 -0.000227)
 34:   1092.65   0.065561  331.32  0.018724  ( 0.136634  0.007445 -0.000174)
 35:   1106.35   0.010322   52.16  0.002911  (-0.021392  0.049535 -0.000058)
 36:   1173.54   0.004573   23.11  0.001216  ( 0.034868 -0.000387 -0.000099)
 37:   1290.45   0.272334  1376.26  0.065857  ( 0.245862  0.073547 -0.000276)
 38:   1291.01   0.126795  640.77  0.030649  ( 0.161442 -0.067716 -0.000133)
 39:   1312.37   0.075013  379.08  0.017837  ( 0.091378 -0.097401 -0.000136)
 40:   1357.41   0.179252  905.87  0.041210  ( 0.202547  0.013567 -0.000297)
 41:   1369.45   0.007141   36.09  0.001627  (-0.029095  0.027939  0.000144)
 42:   1382.72   0.023956  121.07  0.005407  (-0.012542 -0.072453  0.000058)
 43:   1456.27   0.015254   77.09  0.003269  ( 0.050306 -0.027166 -0.000248)
 44:   1459.00   0.004321   21.83  0.000924  (-0.001817 -0.030345 -0.000117)
 45:   1466.19   0.002370   11.98  0.000505  ( 0.000243 -0.000072  0.022460)
 46:   1494.23   0.085120  430.16  0.017777  ( 0.132986 -0.009579 -0.000134)
 47:   1542.50   0.014575   73.66  0.002949  ( 0.050368 -0.020292 -0.000012)
 48:   1599.43   0.261641  1322.23  0.051049  (-0.211425  0.079674  0.000330)
 49:   1632.88   0.017682   89.36  0.003379  (-0.027959  0.050966 -0.000036)
 50:   3024.69   0.004392   22.20  0.000453  (-0.017040 -0.012759 -0.000083)
 51:   3080.45   0.004028   20.36  0.000408  ( 0.000096  0.000246 -0.020198)
 52:   3125.48   0.008425   42.58  0.000841  ( 0.028489 -0.005440  0.000054)
 53:   3176.95   0.002846   14.38  0.000280  (-0.006244 -0.015509 -0.000050)
 54:   3178.01   0.001356    6.85  0.000133  (-0.000370 -0.011532  0.000044)
 55:   3208.77   0.001899    9.60  0.000185  ( 0.002650 -0.013330 -0.000040)
 56:   3211.56   0.001064    5.38  0.000103  (-0.005620 -0.008472  0.000050)

--------------------------
THERMOCHEMISTRY AT 298.15K
--------------------------

Temperature         ...   298.15 K
Pressure            ...     1.00 atm
Total Mass          ...   165.15 AMU
Quasi RRHO          ...     True
Cut-Off Frequency   ...     1.00 cm^-1

Throughout the following assumptions are being made:
  (1) The electronic state is orbitally nondegenerate
      but the spin degeneracy is treated
  (2) There are no thermally accessible electronically excited states
  (3) Hindered rotations indicated by low frequency modes are not
      treated as such but are treated as vibrations and this may
      cause some error
  (4) All equations used are the standard statistical mechanics
      equations for an ideal gas
  (5) All vibrations are strictly harmonic

freq.      64.79  E(vib)   ...       0.50
freq.      73.26  E(vib)   ...       0.49
freq.     105.32  E(vib)   ...       0.45
freq.     117.23  E(vib)   ...       0.44
freq.     151.66  E(vib)   ...       0.40
freq.     223.59  E(vib)   ...       0.33
freq.     256.76  E(vib)   ...       0.30
freq.     291.52  E(vib)   ...       0.27
freq.     401.10  E(vib)   ...       0.19
freq.     432.98  E(vib)   ...       0.17
freq.     438.15  E(vib)   ...       0.17
freq.     508.31  E(vib)   ...       0.14
freq.     534.67  E(vib)   ...       0.13
freq.     573.21  E(vib)   ...       0.11
freq.     607.78  E(vib)   ...       0.10
freq.     608.39  E(vib)   ...       0.10
freq.     626.14  E(vib)   ...       0.09
freq.     713.28  E(vib)   ...       0.07
freq.     729.55  E(vib)   ...       0.06
freq.     807.96  E(vib)   ...       0.05
freq.     815.99  E(vib)   ...       0.05
freq.     833.72  E(vib)   ...       0.04
freq.     947.79  E(vib)   ...       0.03
freq.     976.29  E(vib)   ...       0.03
freq.     995.06  E(vib)   ...       0.02
freq.     995.86  E(vib)   ...       0.02
freq.    1026.51  E(vib)   ...       0.02
freq.    1058.27  E(vib)   ...       0.02
freq.    1092.65  E(vib)   ...       0.02
freq.    1106.35  E(vib)   ...       0.02
freq.    1173.54  E(vib)   ...       0.01
freq.    1290.45  E(vib)   ...       0.01
freq.    1291.01  E(vib)   ...       0.01
freq.    1312.37  E(vib)   ...       0.01
freq.    1357.41  E(vib)   ...       0.01
freq.    1369.45  E(vib)   ...       0.01
freq.    1382.72  E(vib)   ...       0.01
freq.    1456.27  E(vib)   ...       0.00
freq.    1459.00  E(vib)   ...       0.00
freq.    1466.19  E(vib)   ...       0.00
freq.    1494.23  E(vib)   ...       0.00
freq.    1542.50  E(vib)   ...       0.00
freq.    1599.43  E(vib)   ...       0.00
freq.    1632.88  E(vib)   ...       0.00
freq.    3024.69  E(vib)   ...       0.00
freq.    3080.45  E(vib)   ...       0.00
freq.    3125.48  E(vib)   ...       0.00
freq.    3176.95  E(vib)   ...       0.00
freq.    3178.01  E(vib)   ...       0.00
freq.    3208.77  E(vib)   ...       0.00
freq.    3211.56  E(vib)   ...       0.00

------------
INNER ENERGY
------------

The inner energy is: U= E(el) + E(ZPE) + E(vib) + E(rot) + E(trans)
    E(el)   - is the total energy from the electronic structure calculation
              = E(kin-el) + E(nuc-el) + E(el-el) + E(nuc-nuc)
    E(ZPE)  - the the zero temperature vibrational energy from the frequency calculation
    E(vib)  - the the finite temperature correction to E(ZPE) due to population
              of excited vibrational states
    E(rot)  - is the rotational thermal energy
    E(trans)- is the translational thermal energy

Summary of contributions to the inner energy U:
Electronic energy                ...   -589.80585128 Eh
Zero point energy                ...      0.13657036 Eh      85.70 kcal/mol
Thermal vibrational correction   ...      0.00781415 Eh       4.90 kcal/mol
Thermal rotational correction    ...      0.00141627 Eh       0.89 kcal/mol
Thermal translational correction ...      0.00141627 Eh       0.89 kcal/mol
-----------------------------------------------------------------------
Total thermal energy                   -589.65863423 Eh

Summary of corrections to the electronic energy:
(perhaps to be used in another calculation)
Total thermal correction                  0.01064669 Eh       6.68 kcal/mol
Non-thermal (ZPE) correction              0.13657036 Eh      85.70 kcal/mol
-----------------------------------------------------------------------
Total correction                          0.14721706 Eh      92.38 kcal/mol

--------
ENTHALPY
--------

The enthalpy is H = U + kB*T
                kB is Boltzmann's constant
Total thermal energy              ...   -589.65863423 Eh
Thermal Enthalpy correction       ...      0.00094421 Eh       0.59 kcal/mol
-----------------------------------------------------------------------
Total Enthalpy                    ...   -589.65769002 Eh

Note: Only C1 symmetry has been detected, increase convergence thresholds
      if your molecule has a higher symmetry. Symmetry factor of 1.0 is
      used for the rotational entropy correction.

Note: Rotational entropy computed according to Herzberg
Infrared and Raman Spectra, Chapter V,1, Van Nostrand Reinhold, 1945
Point Group:  C1, Symmetry Number:   1
Rotational constants in cm-1:     0.094620     0.015875     0.013628

Vibrational entropy computed according to the QRRHO of S. Grimme
Chem.Eur.J. 2012 18 9955 using a reference frequency of 100.0 cm-1

-------
ENTROPY
-------

The entropy contributions are T*S = T*(S(el)+S(vib)+S(rot)+S(trans))
     S(el)   - electronic entropy
     S(vib)  - vibrational entropy
     S(rot)  - rotational entropy
     S(trans)- translational entropy
The entropies will be listed as multiplied by the temperature to get
units of energy

Electronic entropy                ...      0.00065446 Eh      0.41 kcal/mol
Vibrational entropy               ...      0.01347240 Eh      8.45 kcal/mol
Rotational entropy                ...      0.01460775 Eh      9.17 kcal/mol
Translational entropy             ...      0.01958175 Eh     12.29 kcal/mol
-----------------------------------------------------------------------
Final entropy term                ...      0.04831635 Eh     30.32 kcal/mol

In case the symmetry of your molecule has not been determined correctly
or in case you have a reason to use a different symmetry number we print
out the resulting rotational entropy values for sn=1,12:

 non-linear molecules -----------------------------------
|  sn= 1 | S(rot)=       0.01460775 Eh      9.17 kcal/mol|
|  sn= 2 | S(rot)=       0.01395329 Eh      8.76 kcal/mol|
|  sn= 3 | S(rot)=       0.01357046 Eh      8.52 kcal/mol|
|  sn= 4 | S(rot)=       0.01329884 Eh      8.35 kcal/mol|
|  sn= 5 | S(rot)=       0.01308815 Eh      8.21 kcal/mol|
|  sn= 6 | S(rot)=       0.01291600 Eh      8.10 kcal/mol|
|  sn= 7 | S(rot)=       0.01277046 Eh      8.01 kcal/mol|
|  sn= 8 | S(rot)=       0.01264438 Eh      7.93 kcal/mol|

                             ****ORCA TERMINATED NORMALLY****
TOTAL RUN TIME: 0 days 1 hours 20 minutes 15 seconds 315 msec
