                         Program Version 6.0.0  -   RELEASE  -
|  1> !TPSSh freq aug-cc-pVTZ d3 TightSCF SlowConv RIJCOSX defgrid2
|  2>
|  3> %pal
|  4> nprocs 12
|  5> end
|  6>
|  7> %scf
|  8> MaxIter 1500
|  9> end
| 10>
| 11> %maxcore 5000
| 12>
| 13> !CPCM
| 14> %cpcm smd true
| 15> SMDsolvent "MeCN"
| 16> surfacetype gepol_ses
| 17> rsolv 2.19
| 18> end
| 19>
| 20> * xyz 0 1
| 21> C           0.89951819636883     -1.41741453495000     -0.00035995304677
| 22> C           2.11575985075161     -0.74222548498087      0.00002604213887
| 23> C           2.17240672694708      0.66086968716566     -0.00008465831586
| 24> C           1.01832621119051      1.43248048557171     -0.00044960793270
| 25> C          -0.21838570649764      0.77598483777759     -0.00066682308037
| 26> C          -0.23799655980913     -0.62747935009571     -0.00073599317581
| 27> O          -1.53066025999417     -1.08179370180256     -0.00054149492914
| 28> C          -2.32491654509518      0.04034890848086     -0.00006746206541
| 29> C          -1.59980403662339      1.18097268053085     -0.00024625202854
| 30> H          -1.99372101022256      2.18476724262282      0.00091699461199
| 31> H          -3.38536007700665     -0.15049646196641      0.00111899221035
| 32> H           1.07385929408536      2.51419255586280     -0.00045532324324
| 33> H           3.13994203917291      1.14807965440578      0.00056711388835
| 34> H           3.03726779851783     -1.31117419751031      0.00111839809117
| 35> H           0.84281417821458     -2.49813602111219     -0.00005517312290
| 36> *
| 37>
| 38>                          ****END OF INPUT****

CARTESIAN COORDINATES (ANGSTROEM)
---------------------------------
  C      0.899518   -1.417415   -0.000360
  C      2.115760   -0.742225    0.000026
  C      2.172407    0.660870   -0.000085
  C      1.018326    1.432480   -0.000450
  C     -0.218386    0.775985   -0.000667
  C     -0.237997   -0.627479   -0.000736
  O     -1.530660   -1.081794   -0.000541
  C     -2.324917    0.040349   -0.000067
  C     -1.599804    1.180973   -0.000246
  H     -1.993721    2.184767    0.000917
  H     -3.385360   -0.150496    0.001119
  H      1.073859    2.514193   -0.000455
  H      3.139942    1.148080    0.000567
  H      3.037268   -1.311174    0.001118
  H      0.842814   -2.498136   -0.000055

 Total Charge           Charge          ....    0
 Multiplicity           Mult            ....    1
 Number of Electrons    NEL             ....   62
 Basis Dimension        Dim             ....  552

ORBITAL ENERGIES
----------------

  NO   OCC          E(Eh)            E(eV)
   0   2.0000     -19.119854      -520.2777
   1   2.0000     -10.169486      -276.7258
   2   2.0000     -10.169285      -276.7203
   3   2.0000     -10.124385      -275.4985
   4   2.0000     -10.121017      -275.4069
   5   2.0000     -10.119139      -275.3558
   6   2.0000     -10.117171      -275.3022
   7   2.0000     -10.115609      -275.2597
   8   2.0000     -10.113648      -275.2064
   9   2.0000      -1.085536       -29.5389
  10   2.0000      -0.838854       -22.8264
  11   2.0000      -0.780643       -21.2424
  12   2.0000      -0.730363       -19.8742
  13   2.0000      -0.710601       -19.3364
  14   2.0000      -0.613664       -16.6986
  15   2.0000      -0.581885       -15.8339
  16   2.0000      -0.566983       -15.4284
  17   2.0000      -0.502398       -13.6709
  18   2.0000      -0.475541       -12.9401
  19   2.0000      -0.461244       -12.5511
  20   2.0000      -0.442142       -12.0313
  21   2.0000      -0.422566       -11.4986
  22   2.0000      -0.405120       -11.0239
  23   2.0000      -0.387637       -10.5481
  24   2.0000      -0.369469       -10.0538
  25   2.0000      -0.347284        -9.4501
  26   2.0000      -0.343801        -9.3553
  27   2.0000      -0.322899        -8.7865
  28   2.0000      -0.287715        -7.8291
  29   2.0000      -0.235175        -6.3994
  30   2.0000      -0.217630        -5.9220
  31   0.0000      -0.040119        -1.0917
  32   0.0000      -0.011375        -0.3095
  33   0.0000      -0.001485        -0.0404
  34   0.0000       0.010008         0.2723
  35   0.0000       0.013899         0.3782

MULLIKEN ATOMIC CHARGES
-----------------------
   0 C :   -0.838895
   1 C :   -0.101639
   2 C :   -0.410397
   3 C :   -0.485040
   4 C :    0.929525
   5 C :    0.299296
   6 O :   -0.607069
   7 C :   -0.237741
   8 C :   -0.499048
   9 H :    0.270250
  10 H :    0.424559
  11 H :   -0.084143
  12 H :    0.576832
  13 H :    0.300122
  14 H :    0.463387
Sum of atomic charges:    0.0000000

LOEWDIN ATOMIC CHARGES
----------------------
   0 C :    0.224126
   1 C :    0.182431
   2 C :    0.183567
   3 C :    0.220560
   4 C :   -0.165847
   5 C :   -0.398898
   6 O :    0.616174
   7 C :   -0.006300
   8 C :    0.223555
   9 H :   -0.177596
  10 H :   -0.183240
  11 H :   -0.173993
  12 H :   -0.186359
  13 H :   -0.184505
  14 H :   -0.173675

  Mayer bond orders larger than 0.100000
B(  0-C ,  1-C ) :   1.4919 B(  0-C ,  2-C ) :   0.3019 B(  0-C ,  4-C ) :   0.1258
B(  0-C ,  5-C ) :   1.2975 B(  0-C ,  6-O ) :   0.1260 B(  0-C , 13-H ) :   0.1070
B(  0-C , 14-H ) :   0.2755 B(  1-C ,  2-C ) :   1.2443 B(  1-C ,  3-C ) :  -0.3189
B(  1-C ,  5-C ) :  -0.4907 B(  1-C ,  8-C ) :   0.1401 B(  1-C , 12-H ) :   0.1939
B(  1-C , 13-H ) :   0.7205 B(  1-C , 14-H ) :   0.1677 B(  2-C ,  3-C ) :   1.3256
B(  2-C ,  5-C ) :   0.2116 B(  2-C ,  8-C ) :   0.1791 B(  2-C , 12-H ) :   0.3047
B(  3-C ,  4-C ) :   0.8383 B(  3-C ,  5-C ) :  -0.6102 B(  3-C , 11-H ) :   1.4667
B(  4-C ,  5-C ) :   1.1844 B(  4-C ,  6-O ) :  -0.1053 B(  4-C ,  7-C ) :  -0.2932
B(  4-C ,  8-C ) :   0.6303 B(  4-C , 13-H ) :  -0.1216 B(  4-C , 14-H ) :   0.1823
B(  5-C ,  6-O ) :   0.3867 B(  5-C ,  8-C ) :   0.2682 B(  5-C , 11-H ) :   0.1318
B(  5-C , 13-H ) :   0.1532 B(  6-O ,  7-C ) :   1.1730 B(  7-C ,  8-C ) :   1.3599
B(  7-C , 10-H ) :   0.7590 B(  8-C ,  9-H ) :   0.9062 B(  8-C , 11-H ) :  -0.1008

Dispersion correction           -0.018389617
FINAL SINGLE POINT ENERGY      -383.863761542257

DIPOLE MOMENT
-------------

Method             : SCF
Type of density    : Electron Density
Multiplicity       :   1
Irrep              :   0
Energy             :  -383.8453719251474467 Eh
Relativity type    :
Basis              : AO
                                X                 Y                 Z
Electronic contribution:     -2.687815039      -1.388560024      -0.002482851
Nuclear contribution   :      2.516373535       1.742543062       0.004746894
                        -----------------------------------------
Total Dipole Moment    :     -0.171441504       0.353983038       0.002264042
                        -----------------------------------------
Magnitude (a.u.)       :      0.393320870
Magnitude (Debye)      :      0.999742200

VIBRATIONAL FREQUENCIES
-----------------------

Scaling factor for frequencies =  1.000000000  (already applied!)

     0:       0.00 cm**-1
     1:       0.00 cm**-1
     2:       0.00 cm**-1
     3:       0.00 cm**-1
     4:       0.00 cm**-1
     5:       0.00 cm**-1
     6:     213.94 cm**-1
     7:     248.56 cm**-1
     8:     401.83 cm**-1
     9:     424.74 cm**-1
    10:     539.64 cm**-1
    11:     577.20 cm**-1
    12:     592.75 cm**-1
    13:     611.59 cm**-1
    14:     746.79 cm**-1
    15:     757.63 cm**-1
    16:     770.03 cm**-1
    17:     782.38 cm**-1
    18:     862.61 cm**-1
    19:     868.28 cm**-1
    20:     877.99 cm**-1
    21:     903.49 cm**-1
    22:     951.87 cm**-1
    23:     990.09 cm**-1
    24:    1024.26 cm**-1
    25:    1045.17 cm**-1
    26:    1115.11 cm**-1
    27:    1138.64 cm**-1
    28:    1156.81 cm**-1
    29:    1183.94 cm**-1
    30:    1267.62 cm**-1
    31:    1286.77 cm**-1
    32:    1358.23 cm**-1
    33:    1393.39 cm**-1
    34:    1473.42 cm**-1
    35:    1498.52 cm**-1
    36:    1565.62 cm**-1
    37:    1619.01 cm**-1
    38:    1645.22 cm**-1
    39:    3166.13 cm**-1
    40:    3177.41 cm**-1
    41:    3186.63 cm**-1
    42:    3197.06 cm**-1
    43:    3239.24 cm**-1
    44:    3267.06 cm**-1

IR SPECTRUM
-----------

 Mode   freq       eps      Int      T**2         TX        TY        TZ
       cm**-1   L/(mol*cm) km/mol    a.u.
----------------------------------------------------------------------------
  6:    213.94   0.002372   11.99  0.003460  (-0.000104  0.000005  0.058825)
  7:    248.56   0.000057    0.29  0.000071  ( 0.000034 -0.000047  0.008450)
  8:    401.83   0.002245   11.35  0.001744  ( 0.021482  0.035810  0.000016)
  9:    424.74   0.003269   16.52  0.002402  ( 0.000102  0.000000 -0.049008)
 10:    539.64   0.000212    1.07  0.000123  ( 0.009662  0.005420  0.000080)
 11:    577.20   0.000047    0.24  0.000025  (-0.000110 -0.000004  0.005021)
 12:    592.75   0.000001    0.01  0.000001  ( 0.000166  0.000109 -0.000742)
 13:    611.59   0.000546    2.76  0.000279  ( 0.016248 -0.003812 -0.000025)
 14:    746.79   0.000884    4.47  0.000369  ( 0.000101  0.000069  0.019215)
 15:    757.63   0.040307  203.70  0.016602  ( 0.000335 -0.000096 -0.128850)
 16:    770.03   0.002793   14.12  0.001132  ( 0.030630 -0.013887  0.000987)
 17:    782.38   0.007488   37.84  0.002987  ( 0.000006  0.000024  0.054650)
 18:    862.61   0.003738   18.89  0.001352  ( 0.020864  0.030280 -0.000246)
 19:    868.28   0.000083    0.42  0.000030  (-0.000107 -0.000277 -0.005454)
 20:    877.99   0.000402    2.03  0.000143  ( 0.000216  0.000233  0.011946)
 21:    903.49   0.001021    5.16  0.000353  (-0.010991  0.015227 -0.000006)
 22:    951.87   0.001010    5.10  0.000331  ( 0.000144 -0.000129 -0.018196)
 23:    990.09   0.000006    0.03  0.000002  ( 0.000006  0.000223 -0.001366)
 24:   1024.26   0.003531   17.85  0.001076  (-0.032015  0.007133 -0.000145)
 25:   1045.17   0.008127   41.07  0.002427  (-0.000496 -0.049258 -0.000000)
 26:   1115.11   0.006391   32.30  0.001788  (-0.015629 -0.039296  0.000069)
 27:   1138.64   0.005795   29.28  0.001588  (-0.018397  0.035351 -0.000056)
 28:   1156.81   0.001102    5.57  0.000297  (-0.010885  0.013370 -0.000020)
 29:   1183.94   0.009158   46.28  0.002414  ( 0.045073 -0.019551 -0.000029)
 30:   1267.62   0.015496   78.31  0.003815  (-0.061764 -0.000144 -0.000014)
 31:   1286.77   0.000163    0.82  0.000040  ( 0.006182 -0.001170  0.000036)
 32:   1358.23   0.002350   11.87  0.000540  (-0.015639 -0.017183  0.000005)
 33:   1393.39   0.000301    1.52  0.000067  ( 0.004107 -0.007108 -0.000002)
 34:   1473.42   0.013013   65.76  0.002756  (-0.046970 -0.023449  0.000013)
 35:   1498.52   0.001632    8.25  0.000340  ( 0.012660 -0.013405  0.000011)
 36:   1565.62   0.006077   30.71  0.001211  (-0.001384 -0.034777  0.000064)
 37:   1619.01   0.000087    0.44  0.000017  (-0.002654  0.003113  0.000019)
 38:   1645.22   0.000020    0.10  0.000004  (-0.001924 -0.000428 -0.000004)
 39:   3166.13   0.000570    2.88  0.000056  (-0.006892 -0.002941 -0.000003)
 40:   3177.41   0.003349   16.92  0.000329  (-0.011327  0.014163  0.000065)
 41:   3186.63   0.006412   32.40  0.000628  ( 0.017346  0.018085 -0.000026)
 42:   3197.06   0.002106   10.64  0.000206  (-0.010468  0.009797  0.000047)
 43:   3239.24   0.000651    3.29  0.000063  ( 0.007867 -0.000885  0.000056)
 44:   3267.06   0.000024    0.12  0.000002  ( 0.000439 -0.001450  0.000083)

--------------------------
THERMOCHEMISTRY AT 298.15K
--------------------------

Temperature         ...   298.15 K
Pressure            ...     1.00 atm
Total Mass          ...   118.13 AMU
Quasi RRHO          ...     True
Cut-Off Frequency   ...     1.00 cm^-1

Throughout the following assumptions are being made:
  (1) The electronic state is orbitally nondegenerate
  (2) There are no thermally accessible electronically excited states
  (3) Hindered rotations indicated by low frequency modes are not
      treated as such but are treated as vibrations and this may
      cause some error
  (4) All equations used are the standard statistical mechanics
      equations for an ideal gas
  (5) All vibrations are strictly harmonic

freq.     213.94  E(vib)   ...       0.34
freq.     248.56  E(vib)   ...       0.31
freq.     401.83  E(vib)   ...       0.19
freq.     424.74  E(vib)   ...       0.18
freq.     539.64  E(vib)   ...       0.12
freq.     577.20  E(vib)   ...       0.11
freq.     592.75  E(vib)   ...       0.10
freq.     611.59  E(vib)   ...       0.10
freq.     746.79  E(vib)   ...       0.06
freq.     757.63  E(vib)   ...       0.06
freq.     770.03  E(vib)   ...       0.05
freq.     782.38  E(vib)   ...       0.05
freq.     862.61  E(vib)   ...       0.04
freq.     868.28  E(vib)   ...       0.04
freq.     877.99  E(vib)   ...       0.04
freq.     903.49  E(vib)   ...       0.03
freq.     951.87  E(vib)   ...       0.03
freq.     990.09  E(vib)   ...       0.02
freq.    1024.26  E(vib)   ...       0.02
freq.    1045.17  E(vib)   ...       0.02
freq.    1115.11  E(vib)   ...       0.01
freq.    1138.64  E(vib)   ...       0.01
freq.    1156.81  E(vib)   ...       0.01
freq.    1183.94  E(vib)   ...       0.01
freq.    1267.62  E(vib)   ...       0.01
freq.    1286.77  E(vib)   ...       0.01
freq.    1358.23  E(vib)   ...       0.01
freq.    1393.39  E(vib)   ...       0.00
freq.    1473.42  E(vib)   ...       0.00
freq.    1498.52  E(vib)   ...       0.00
freq.    1565.62  E(vib)   ...       0.00
freq.    1619.01  E(vib)   ...       0.00
freq.    1645.22  E(vib)   ...       0.00
freq.    3166.13  E(vib)   ...       0.00
freq.    3177.41  E(vib)   ...       0.00
freq.    3186.63  E(vib)   ...       0.00
freq.    3197.06  E(vib)   ...       0.00
freq.    3239.24  E(vib)   ...       0.00
freq.    3267.06  E(vib)   ...       0.00

------------
INNER ENERGY
------------

The inner energy is: U= E(el) + E(ZPE) + E(vib) + E(rot) + E(trans)
    E(el)   - is the total energy from the electronic structure calculation
              = E(kin-el) + E(nuc-el) + E(el-el) + E(nuc-nuc)
    E(ZPE)  - the the zero temperature vibrational energy from the frequency calculation
    E(vib)  - the the finite temperature correction to E(ZPE) due to population
              of excited vibrational states
    E(rot)  - is the rotational thermal energy
    E(trans)- is the translational thermal energy

Summary of contributions to the inner energy U:
Electronic energy                ...   -383.86376154 Eh
Zero point energy                ...      0.11647516 Eh      73.09 kcal/mol
Thermal vibrational correction   ...      0.00319205 Eh       2.00 kcal/mol
Thermal rotational correction    ...      0.00141627 Eh       0.89 kcal/mol
Thermal translational correction ...      0.00141627 Eh       0.89 kcal/mol
-----------------------------------------------------------------------
Total thermal energy                   -383.74126179 Eh

Summary of corrections to the electronic energy:
(perhaps to be used in another calculation)
Total thermal correction                  0.00602459 Eh       3.78 kcal/mol
Non-thermal (ZPE) correction              0.11647516 Eh      73.09 kcal/mol
-----------------------------------------------------------------------
Total correction                          0.12249975 Eh      76.87 kcal/mol

--------
ENTHALPY
--------

The enthalpy is H = U + kB*T
                kB is Boltzmann's constant
Total thermal energy              ...   -383.74126179 Eh
Thermal Enthalpy correction       ...      0.00094421 Eh       0.59 kcal/mol
-----------------------------------------------------------------------
Total Enthalpy                    ...   -383.74031758 Eh

Note: Only C1 symmetry has been detected, increase convergence thresholds
      if your molecule has a higher symmetry. Symmetry factor of 1.0 is
      used for the rotational entropy correction.

Note: Rotational entropy computed according to Herzberg
Infrared and Raman Spectra, Chapter V,1, Van Nostrand Reinhold, 1945
Point Group:  C1, Symmetry Number:   1
Rotational constants in cm-1:     0.131033     0.055507     0.038990

Vibrational entropy computed according to the QRRHO of S. Grimme
Chem.Eur.J. 2012 18 9955 using a reference frequency of 100.0 cm-1

-------
ENTROPY
-------

The entropy contributions are T*S = T*(S(el)+S(vib)+S(rot)+S(trans))
     S(el)   - electronic entropy
     S(vib)  - vibrational entropy
     S(rot)  - rotational entropy
     S(trans)- translational entropy
The entropies will be listed as multiplied by the temperature to get
units of energy

Electronic entropy                ...      0.00000000 Eh      0.00 kcal/mol
Vibrational entropy               ...      0.00467562 Eh      2.93 kcal/mol
Rotational entropy                ...      0.01336684 Eh      8.39 kcal/mol
Translational entropy             ...      0.01910727 Eh     11.99 kcal/mol
-----------------------------------------------------------------------
Final entropy term                ...      0.03714973 Eh     23.31 kcal/mol

In case the symmetry of your molecule has not been determined correctly
or in case you have a reason to use a different symmetry number we print
out the resulting rotational entropy values for sn=1,12:

 non-linear molecules -----------------------------------
|  sn= 1 | S(rot)=       0.01336684 Eh      8.39 kcal/mol|
|  sn= 2 | S(rot)=       0.01271238 Eh      7.98 kcal/mol|
|  sn= 3 | S(rot)=       0.01232955 Eh      7.74 kcal/mol|
|  sn= 4 | S(rot)=       0.01205792 Eh      7.57 kcal/mol|
|  sn= 5 | S(rot)=       0.01184724 Eh      7.43 kcal/mol|
|  sn= 6 | S(rot)=       0.01167509 Eh      7.33 kcal/mol|
|  sn= 7 | S(rot)=       0.01152954 Eh      7.23 kcal/mol|
|  sn= 8 | S(rot)=       0.01140347 Eh      7.16 kcal/mol|
|  sn= 9 | S(rot)=       0.01129226 Eh      7.09 kcal/mol|
|  sn=10 | S(rot)=       0.01119278 Eh      7.02 kcal/mol|
|  sn=11 | S(rot)=       0.01110279 Eh      6.97 kcal/mol|
|  sn=12 | S(rot)=       0.01102063 Eh      6.92 kcal/mol|
 linear molecules ---------------------------------------
|  Dinfh | S(rot)=       0.00838914 Eh      5.26 kcal/mol|
|  Cinfv | S(rot)=       0.00904360 Eh      5.67 kcal/mol|
 --------------------------------------------------------

-------------------
GIBBS FREE ENERGY
-------------------

                             ****ORCA TERMINATED NORMALLY****
TOTAL RUN TIME: 0 days 0 hours 29 minutes 33 seconds 207 msec
