                         Program Version 6.0.0  -   RELEASE  -
|  1> !r2SCANh aug-cc-pVTZ d3 TightSCF SlowConv RIJCOSX defgrid2
|  2>
|  3> %pal
|  4> nprocs 4
|  5> end
|  6>
|  7> %scf
|  8> MaxIter 1500
|  9> end
| 10>
| 11> %maxcore 3000
| 12>
| 13> !CPCM
| 14> %cpcm smd true
| 15> SMDsolvent "MeCN"
| 16> surfacetype gepol_ses
| 17> rsolv 2.19
| 18> end
| 19>
| 20> * xyz 0 1
| 21> C          -1.64824126618017      1.17962905218596     -0.27640852251821
| 22> C          -2.36732067057951      0.01222657741033      0.01013723312640
| 23> C          -1.65681369830039     -1.16061817519344      0.29208568093245
| 24> C          -0.26626323928183     -1.16443624467977      0.28791791148105
| 25> C           0.45854663028887      0.00217454247658      0.00256283796462
| 26> C          -0.26127971202858      1.17549258128224     -0.27984384623215
| 27> H           0.28089631587743      2.09137892779172     -0.53113220855770
| 28> C           1.93696149154138     -0.00279971672945      0.00051608331538
| 29> C           2.65303791085162     -1.10978954515941     -0.47925860702356
| 30> C           4.04531433476339     -1.11398347683307     -0.48167578797554
| 31> C           4.75102098587613     -0.01129559121339     -0.00116086906809
| 32> C           4.05248382144489      1.09572154879970      0.47984618566416
| 33> C           2.66020581714669      1.10014601648294      0.47888547594482
| 34> H           2.12182100458790      1.96339836557137      0.88035790986018
| 35> H           4.59686021513246      1.96228462828998      0.86676809069055
| 36> H           5.84493441172309     -0.01451276377516     -0.00190011189447
| 37> H           4.58410302781916     -1.98346854512299     -0.86991334409081
| 38> H           2.10898948157834     -1.96925435572582     -0.88135237996202
| 39> H           0.27006313897588     -2.08418650265354      0.53693846273009
| 40> H          -2.18747776526920     -2.08664808126969      0.52830693817217
| 41> C          -3.86122618809550      0.08310521129981     -0.00075253917882
| 42> O          -4.42728606147296      1.12411459370127     -0.25389321491014
| 43> C          -4.64225327233386     -1.17234258475983      0.31143142335015
| 44> H          -5.71614646164934     -0.94073069402301      0.26216108811743
| 45> H          -4.40777348323050     -1.97432489828778     -0.41030103402591
| 46> H          -4.39571168425506     -1.55218269043734      1.31835323175607
| 47> H          -2.21343058493032      2.08711072057180     -0.50408998766811
| 48> *
| 49>
| 50>                          ****END OF INPUT****

CARTESIAN COORDINATES (ANGSTROEM)
---------------------------------
  C     -1.648241    1.179629   -0.276409
  C     -2.367321    0.012227    0.010137
  C     -1.656814   -1.160618    0.292086
  C     -0.266263   -1.164436    0.287918
  C      0.458547    0.002175    0.002563
  C     -0.261280    1.175493   -0.279844
  H      0.280896    2.091379   -0.531132
  C      1.936961   -0.002800    0.000516
  C      2.653038   -1.109790   -0.479259
  C      4.045314   -1.113983   -0.481676
  C      4.751021   -0.011296   -0.001161
  C      4.052484    1.095722    0.479846
  C      2.660206    1.100146    0.478885
  H      2.121821    1.963398    0.880358
  H      4.596860    1.962285    0.866768
  H      5.844934   -0.014513   -0.001900
  H      4.584103   -1.983469   -0.869913
  H      2.108989   -1.969254   -0.881352
  H      0.270063   -2.084187    0.536938
  H     -2.187478   -2.086648    0.528307
  C     -3.861226    0.083105   -0.000753
  O     -4.427286    1.124115   -0.253893
  C     -4.642253   -1.172343    0.311431
  H     -5.716146   -0.940731    0.262161
  H     -4.407773   -1.974325   -0.410301
  H     -4.395712   -1.552183    1.318353
  H     -2.213431    2.087111   -0.504090

 Total Charge           Charge          ....    0
 Multiplicity           Mult            ....    1
 Number of Electrons    NEL             ....  104
 Basis Dimension        Dim             ....  966

ORBITAL ENERGIES
----------------

  NO   OCC          E(Eh)            E(eV)
   0   2.0000     -19.105043      -519.8747
   1   2.0000     -10.247346      -278.8445
   2   2.0000     -10.184909      -277.1455
   3   2.0000     -10.178249      -276.9642
   4   2.0000     -10.172562      -276.8095
   5   2.0000     -10.172004      -276.7943
   6   2.0000     -10.168525      -276.6996
   7   2.0000     -10.167613      -276.6748
   8   2.0000     -10.167335      -276.6672
   9   2.0000     -10.164887      -276.6006
  10   2.0000     -10.164841      -276.5994
  11   2.0000     -10.163872      -276.5730
  12   2.0000     -10.163636      -276.5666
  13   2.0000     -10.163056      -276.5508
  14   2.0000     -10.149730      -276.1882
  15   2.0000      -1.050217       -28.5778
  16   2.0000      -0.879504       -23.9325
  17   2.0000      -0.856184       -23.2979
  18   2.0000      -0.792014       -21.5518
  19   2.0000      -0.757256       -20.6060
  20   2.0000      -0.747984       -20.3537
  21   2.0000      -0.743489       -20.2314
  22   2.0000      -0.716865       -19.5069
  23   2.0000      -0.637864       -17.3572
  24   2.0000      -0.618365       -16.8266
  25   2.0000      -0.589944       -16.0532
  26   2.0000      -0.583866       -15.8878
  27   2.0000      -0.546087       -14.8598
  28   2.0000      -0.520317       -14.1586
  29   2.0000      -0.483684       -13.1617
  30   2.0000      -0.468041       -12.7361
  31   2.0000      -0.458744       -12.4831
  32   2.0000      -0.438968       -11.9449
  33   2.0000      -0.433038       -11.7836
  34   2.0000      -0.432485       -11.7685
  35   2.0000      -0.426680       -11.6106
  36   2.0000      -0.416264       -11.3271
  37   2.0000      -0.410521       -11.1708
  38   2.0000      -0.407276       -11.0826
  39   2.0000      -0.382165       -10.3992
  40   2.0000      -0.379662       -10.3311
  41   2.0000      -0.365913        -9.9570
  42   2.0000      -0.359912        -9.7937
  43   2.0000      -0.349282        -9.5044
  44   2.0000      -0.339327        -9.2336
  45   2.0000      -0.331837        -9.0298
  46   2.0000      -0.322953        -8.7880
  47   2.0000      -0.282092        -7.6761
  48   2.0000      -0.261225        -7.1083
  49   2.0000      -0.257029        -6.9941
  50   2.0000      -0.244766        -6.6604
  51   2.0000      -0.234127        -6.3709
  52   0.0000      -0.081968        -2.2305
  53   0.0000      -0.033396        -0.9088
  54   0.0000      -0.027567        -0.7501
  55   0.0000      -0.026262        -0.7146
  56   0.0000       0.007130         0.1940

MULLIKEN ATOMIC CHARGES
-----------------------
   0 C :   -1.217189
   1 C :    1.544852
   2 C :   -0.660234
   3 C :   -1.042925
   4 C :    2.107841
   5 C :   -0.963857
   6 H :    0.106812
   7 C :    2.271087
   8 C :   -0.926444
   9 C :   -0.781768
  10 C :   -0.118208
  11 C :   -0.778431
  12 C :   -0.949295
  13 H :    0.009237
  14 H :    0.421560
  15 H :    0.560624
  16 H :    0.395830
  17 H :    0.008131
  18 H :    0.087808
  19 H :   -0.068380
  20 C :    0.952614
  21 O :   -0.986505
  22 C :   -0.612655
  23 H :    0.183054
  24 H :    0.254628
  25 H :    0.253329
  26 H :   -0.051514
Sum of atomic charges:   -0.0000000

LOEWDIN ATOMIC CHARGES
----------------------
   0 C :    0.206125
   1 C :   -0.132054
   2 C :    0.219860
   3 C :    0.233573
   4 C :   -0.115137
   5 C :    0.230347
   6 H :   -0.164946
   7 C :   -0.126081
   8 C :    0.209008
   9 C :    0.196864
  10 C :    0.188667
  11 C :    0.196868
  12 C :    0.209010
  13 H :   -0.167790
  14 H :   -0.168389
  15 H :   -0.170059
  16 H :   -0.168366
  17 H :   -0.167691
  18 H :   -0.163622
  19 H :   -0.171691
  20 C :   -0.550474
  21 O :    0.481057
  22 C :    0.571088
  23 H :   -0.177442
  24 H :   -0.157475
  25 H :   -0.157833
  26 H :   -0.183416

  Mayer bond orders larger than 0.100000
B(  0-C ,  1-C ) :   0.1526 B(  0-C ,  2-C ) :  -0.4051 B(  0-C ,  3-C ) :   0.1288
B(  0-C ,  4-C ) :  -0.2525 B(  0-C ,  5-C ) :   1.6161 B(  0-C , 18-H ) :  -0.1111
B(  0-C , 19-H ) :   0.1002 B(  0-C , 20-C ) :   0.2476 B(  0-C , 21-O ) :  -0.1060
B(  0-C , 26-H ) :   1.3376 B(  1-C ,  2-C ) :   0.4036 B(  1-C ,  3-C ) :   0.1527
B(  1-C ,  5-C ) :   0.1506 B(  1-C ,  7-C ) :   0.1863 B(  1-C , 15-H ) :  -0.1168
B(  1-C , 19-H ) :  -0.3673 B(  1-C , 20-C ) :   0.4373 B(  1-C , 21-O ) :   0.4246
B(  1-C , 22-C ) :   0.1099 B(  1-C , 26-H ) :  -0.3044 B(  2-C ,  3-C ) :   1.0597
B(  2-C ,  4-C ) :  -0.2278 B(  2-C ,  6-H ) :  -0.1343 B(  2-C , 19-H ) :   1.5972
B(  2-C , 20-C ) :   0.2000 B(  2-C , 26-H ) :   0.1407 B(  3-C ,  4-C ) :  -0.1814
B(  3-C ,  5-C ) :  -0.5185 B(  3-C ,  7-C ) :   0.2344 B(  3-C ,  8-C ) :  -0.1458
B(  3-C , 17-H ) :  -0.1069 B(  3-C , 18-H ) :   1.3218 B(  3-C , 19-H ) :  -0.1062
B(  3-C , 20-C ) :  -0.1761 B(  4-C ,  6-H ) :  -0.1301 B(  4-C ,  7-C ) :  -0.3105
B(  4-C ,  8-C ) :   0.5160 B(  4-C , 10-C ) :   0.1425 B(  4-C , 12-C ) :   0.4088
B(  4-C , 15-H ) :   0.1398 B(  4-C , 18-H ) :  -0.1097 B(  4-C , 20-C ) :   0.2075
B(  4-C , 26-H ) :  -0.1210 B(  5-C ,  6-H ) :   1.2830 B(  5-C ,  7-C ) :   0.2528
B(  5-C , 20-C ) :  -0.1287 B(  5-C , 21-O ) :  -0.1024 B(  6-H ,  7-C ) :  -0.1126
B(  6-H , 18-H ) :   0.1169 B(  7-C ,  9-C ) :  -0.1199 B(  7-C , 10-C ) :  -0.1795
B(  7-C , 13-H ) :  -0.1658 B(  7-C , 14-H ) :   0.1040 B(  7-C , 16-H ) :   0.1164
B(  7-C , 17-H ) :  -0.1683 B(  8-C ,  9-C ) :   1.2324 B(  8-C , 12-C ) :  -0.5956
B(  8-C , 17-H ) :   1.4747 B(  9-C , 10-C ) :   1.1172 B(  9-C , 11-C ) :   0.1215
B(  9-C , 16-H ) :   0.7233 B(  9-C , 20-C ) :   0.1021 B( 10-C , 11-C ) :   1.1241
B( 10-C , 15-H ) :   0.4777 B( 11-C , 12-C ) :   1.2404 B( 11-C , 14-H ) :   0.6713
B( 12-C , 13-H ) :   1.4875 B( 13-H , 17-H ) :   0.1497 B( 19-H , 26-H ) :   0.1082
B( 20-C , 21-O ) :   0.6397 B( 20-C , 22-C ) :   0.8968 B( 20-C , 26-H ) :  -0.1073
B( 21-O , 26-H ) :   0.2130 B( 22-C , 23-H ) :   0.9381 B( 22-C , 24-H ) :   0.9602
B( 22-C , 25-H ) :   0.9688

Dispersion correction           -0.010670352
FINAL SINGLE POINT ENERGY      -615.817755809859

DIPOLE MOMENT
-------------

Method             : SCF
Type of density    : Electron Density
Multiplicity       :   1
Irrep              :   0
Energy             :  -615.8070854581623053 Eh
Relativity type    :
Basis              : AO
                                X                 Y                 Z
Electronic contribution:      0.500451352       2.931166817      -0.728600348
Nuclear contribution   :      0.745176245      -4.228888147       1.043265209
                        -----------------------------------------
Total Dipole Moment    :      1.245627597      -1.297721330       0.314664862
                        -----------------------------------------
Magnitude (a.u.)       :      1.826111371
Magnitude (Debye)      :      4.641606230

Rotational constants in cm-1:             0.074921             0.008604             0.007886
Rotational constants in MHz :          2246.083248           257.938515           236.409814

                             ****ORCA TERMINATED NORMALLY****
TOTAL RUN TIME: 0 days 0 hours 13 minutes 2 seconds 733 msec
