                         Program Version 6.0.0  -   RELEASE  -
|  1> !r2SCAN aug-cc-pVTZ d3 TightSCF SlowConv RIJCOSX defgrid2
|  2>
|  3> %pal
|  4> nprocs 4
|  5> end
|  6>
|  7> %scf
|  8> MaxIter 1500
|  9> end
| 10>
| 11> %maxcore 3000
| 12>
| 13> !CPCM
| 14> %cpcm smd true
| 15> SMDsolvent "MeCN"
| 16> surfacetype gepol_ses
| 17> rsolv 2.19
| 18> end
| 19>
| 20> * xyz 0 1
| 21> C           0.40845561541467      1.09654851965361      0.00002153601786
| 22> C           1.22157048240356     -0.02055925058461     -0.00001124146046
| 23> C           0.31627509804411     -1.10552037144195      0.00002465926407
| 24> N          -0.94362721428629     -0.69407804717258     -0.00003818172667
| 25> N          -0.86222699991342      0.63149016796153     -0.00002192547512
| 26> H          -1.71469887339655      1.17729476555237     -0.00003850624553
| 27> H           0.53586137989645     -2.17396458772866      0.00003582780905
| 28> H           2.30976241169899     -0.04700402205514     -0.00001651155181
| 29> H           0.63234930013847      2.16236532581542      0.00003934336862
| 30> *
| 31>
| 32>                          ****END OF INPUT****

CARTESIAN COORDINATES (ANGSTROEM)
---------------------------------
  C      0.408456    1.096549    0.000022
  C      1.221570   -0.020559   -0.000011
  C      0.316275   -1.105520    0.000025
  N     -0.943627   -0.694078   -0.000038
  N     -0.862227    0.631490   -0.000022
  H     -1.714699    1.177295   -0.000039
  H      0.535861   -2.173965    0.000036
  H      2.309762   -0.047004   -0.000017
  H      0.632349    2.162365    0.000039

 Total Charge           Charge          ....    0
 Multiplicity           Mult            ....    1
 Number of Electrons    NEL             ....   36
 Basis Dimension        Dim             ....  322

ORBITAL ENERGIES
----------------

  NO   OCC          E(Eh)            E(eV)
   0   2.0000     -14.235360      -387.3638
   1   2.0000     -14.182226      -385.9180
   2   2.0000     -10.068885      -273.9883
   3   2.0000     -10.052540      -273.5435
   4   2.0000     -10.030865      -272.9537
   5   2.0000      -1.019280       -27.7360
   6   2.0000      -0.783042       -21.3077
   7   2.0000      -0.746511       -20.3136
   8   2.0000      -0.572179       -15.5698
   9   2.0000      -0.564126       -15.3506
  10   2.0000      -0.507507       -13.8100
  11   2.0000      -0.416455       -11.3323
  12   2.0000      -0.408779       -11.1234
  13   2.0000      -0.391764       -10.6604
  14   2.0000      -0.362191        -9.8557
  15   2.0000      -0.270562        -7.3624
  16   2.0000      -0.241600        -6.5743
  17   2.0000      -0.235209        -6.4004
  18   0.0000      -0.014762        -0.4017
  19   0.0000       0.011868         0.3229
  20   0.0000       0.029527         0.8035
  21   0.0000       0.029905         0.8138
  22   0.0000       0.032681         0.8893

MULLIKEN ATOMIC CHARGES
-----------------------
   0 C :   -0.776426
   1 C :    0.084892
   2 C :   -0.476816
   3 N :   -0.687654
   4 N :    0.363243
   5 H :    0.122698
   6 H :    0.533869
   7 H :    0.338171
   8 H :    0.498022
Sum of atomic charges:    0.0000000

LOEWDIN ATOMIC CHARGES
----------------------
   0 C :    0.107162
   1 C :    0.167963
   2 C :   -0.056265
   3 N :    0.250973
   4 N :    0.305954
   5 H :   -0.232889
   6 H :   -0.197832
   7 H :   -0.188692
   8 H :   -0.156374

  Mayer bond orders larger than 0.100000
B(  0-C ,  1-C ) :   0.8751 B(  0-C ,  2-C ) :   0.1837 B(  0-C ,  4-N ) :   1.2217
B(  0-C ,  8-H ) :   0.6538 B(  1-C ,  2-C ) :   0.9033 B(  1-C ,  4-N ) :  -0.1314
B(  1-C ,  7-H ) :   0.9116 B(  2-C ,  3-N ) :   1.3727 B(  2-C ,  6-H ) :   0.6179
B(  3-N ,  4-N ) :   0.3191 B(  4-N ,  5-H ) :   1.0701

Dispersion correction           -0.001745560
FINAL SINGLE POINT ENERGY      -226.174952834293

DIPOLE MOMENT
-------------

Method             : SCF
Type of density    : Electron Density
Multiplicity       :   1
Irrep              :   0
Energy             :  -226.1732072739349633 Eh
Relativity type    :
Basis              : AO
                                X                 Y                 Z
Electronic contribution:     -1.371288455       0.175181336      -0.001202836
Nuclear contribution   :      1.652068746       1.054919735       0.000040788
                        -----------------------------------------
Total Dipole Moment    :      0.280780290       1.230101071      -0.001162048
                        -----------------------------------------
Magnitude (a.u.)       :      1.261739897
Magnitude (Debye)      :      3.207087947

Rotational constants in cm-1:             0.323621             0.316316             0.159963
Rotational constants in MHz :          9701.899385          9482.912680          4795.578108

                             ****ORCA TERMINATED NORMALLY****
TOTAL RUN TIME: 0 days 0 hours 1 minutes 7 seconds 705 msec
