                         Program Version 6.0.0  -   RELEASE  -
|  1> !PBE0 aug-cc-pVTZ d3 TightSCF SlowConv RIJCOSX defgrid2
|  2>
|  3> %pal
|  4> nprocs 4
|  5> end
|  6>
|  7> %scf
|  8> MaxIter 1500
|  9> end
| 10>
| 11> %maxcore 3000
| 12>
| 13> !CPCM
| 14> %cpcm smd true
| 15> SMDsolvent "MeCN"
| 16> surfacetype gepol_ses
| 17> rsolv 2.19
| 18> end
| 19>
| 20> * xyz 0 1
| 21> C           1.12535933003909      1.22184876665946      0.00445520319991
| 22> C          -0.26421837966179      1.23081993194340      0.01317294666685
| 23> C          -0.96286430889490      0.02291905897302      0.02071941900053
| 24> C          -0.27116790812085     -1.18968803907145      0.02233603706903
| 25> C           1.11927983593575     -1.19274556967928      0.01192236383456
| 26> C           1.83042608643697      0.01361001085842      0.00235629509897
| 27> C           3.33037499820744      0.07812373067826     -0.00830505647652
| 28> O           3.89335056176083      1.14924412695364     -0.01221784590005
| 29> C           4.10529699500755     -1.21691160959464     -0.01456211029497
| 30> H           3.87147665667906     -1.82176550317243      0.87909273734606
| 31> H           3.85275608025563     -1.82519649459447     -0.90071459246678
| 32> H           5.18018449663339     -0.98545182796753     -0.02600819379244
| 33> H           1.64770213714144     -2.14919199620359      0.01366659940447
| 34> H          -0.82322456445574     -2.13316803225065      0.03516466443551
| 35> C          -2.46760978555516      0.00136363107126     -0.00390087802805
| 36> F          -2.92475509769190     -0.39380754718327     -1.19713617306479
| 37> F          -2.95620262622450     -0.85163753941636      0.90171536543609
| 38> F          -2.99122934584873      1.20180958170133      0.24662255340156
| 39> H          -0.81146024395866      2.17606304264227      0.01753239307008
| 40> H           1.69903008231505      2.15205687765261      0.00003667206000
| 41> *
| 42>
| 43>                          ****END OF INPUT****

CARTESIAN COORDINATES (ANGSTROEM)
---------------------------------
  C      1.125359    1.221849    0.004455
  C     -0.264218    1.230820    0.013173
  C     -0.962864    0.022919    0.020719
  C     -0.271168   -1.189688    0.022336
  C      1.119280   -1.192746    0.011922
  C      1.830426    0.013610    0.002356
  C      3.330375    0.078124   -0.008305
  O      3.893351    1.149244   -0.012218
  C      4.105297   -1.216912   -0.014562
  H      3.871477   -1.821766    0.879093
  H      3.852756   -1.825196   -0.900715
  H      5.180184   -0.985452   -0.026008
  H      1.647702   -2.149192    0.013667
  H     -0.823225   -2.133168    0.035165
  C     -2.467610    0.001364   -0.003901
  F     -2.924755   -0.393808   -1.197136
  F     -2.956203   -0.851638    0.901715
  F     -2.991229    1.201810    0.246623
  H     -0.811460    2.176063    0.017532
  H      1.699030    2.152057    0.000037

 Total Charge           Charge          ....    0
 Multiplicity           Mult            ....    1
 Number of Electrons    NEL             ....   96
 Basis Dimension        Dim             ....  759

ORBITAL ENERGIES
----------------

  NO   OCC          E(Eh)            E(eV)
   0   2.0000     -24.817417      -675.3163
   1   2.0000     -24.815487      -675.2637
   2   2.0000     -24.814703      -675.2424
   3   2.0000     -19.204878      -522.5913
   4   2.0000     -10.482560      -285.2449
   5   2.0000     -10.322905      -280.9005
   6   2.0000     -10.267190      -279.3844
   7   2.0000     -10.253314      -279.0069
   8   2.0000     -10.251814      -278.9660
   9   2.0000     -10.251144      -278.9478
  10   2.0000     -10.250439      -278.9286
  11   2.0000     -10.246626      -278.8249
  12   2.0000     -10.221652      -278.1453
  13   2.0000      -1.364554       -37.1314
  14   2.0000      -1.274018       -34.6678
  15   2.0000      -1.271001       -34.5857
  16   2.0000      -1.083754       -29.4904
  17   2.0000      -0.909909       -24.7599
  18   2.0000      -0.828493       -22.5445
  19   2.0000      -0.790032       -21.4979
  20   2.0000      -0.766151       -20.8480
  21   2.0000      -0.733976       -19.9725
  22   2.0000      -0.670235       -18.2380
  23   2.0000      -0.651366       -17.7246
  24   2.0000      -0.625909       -17.0319
  25   2.0000      -0.617404       -16.8004
  26   2.0000      -0.596620       -16.2348
  27   2.0000      -0.577874       -15.7248
  28   2.0000      -0.512415       -13.9435
  29   2.0000      -0.504548       -13.7294
  30   2.0000      -0.501972       -13.6593
  31   2.0000      -0.492702       -13.4071
  32   2.0000      -0.471904       -12.8412
  33   2.0000      -0.464256       -12.6331
  34   2.0000      -0.460726       -12.5370
  35   2.0000      -0.459192       -12.4953
  36   2.0000      -0.449761       -12.2386
  37   2.0000      -0.445327       -12.1180
  38   2.0000      -0.440276       -11.9805
  39   2.0000      -0.439194       -11.9511
  40   2.0000      -0.402291       -10.9469
  41   2.0000      -0.397777       -10.8241
  42   2.0000      -0.381254       -10.3745
  43   2.0000      -0.376756       -10.2520
  44   2.0000      -0.366666        -9.9775
  45   2.0000      -0.289747        -7.8844
  46   2.0000      -0.284748        -7.7484
  47   2.0000      -0.276037        -7.5114
  48   0.0000      -0.071378        -1.9423
  49   0.0000      -0.024704        -0.6722
  50   0.0000       0.000761         0.0207
  51   0.0000       0.013594         0.3699
  52   0.0000       0.018003         0.4899

MULLIKEN ATOMIC CHARGES
-----------------------
   0 C :   -1.096662
   1 C :   -0.657213
   2 C :    0.600747
   3 C :   -1.006786
   4 C :   -0.665381
   5 C :    1.211845
   6 C :    0.782888
   7 O :   -0.905560
   8 C :   -0.640978
   9 H :    0.301834
  10 H :    0.299713
  11 H :    0.190316
  12 H :    0.260286
  13 H :    0.491625
  14 C :    1.108659
  15 F :   -0.370526
  16 F :   -0.379822
  17 F :   -0.354801
  18 H :    0.493082
  19 H :    0.336733
Sum of atomic charges:   -0.0000000

LOEWDIN ATOMIC CHARGES
----------------------
   0 C :    0.209772
   1 C :    0.215761
   2 C :   -0.174017
   3 C :    0.216854
   4 C :    0.224503
   5 C :   -0.120979
   6 C :   -0.544300
   7 O :    0.495959
   8 C :    0.569460
   9 H :   -0.153455
  10 H :   -0.153533
  11 H :   -0.172825
  12 H :   -0.165501
  13 H :   -0.155113
  14 C :   -1.594745
  15 F :    0.542925
  16 F :    0.548580
  17 F :    0.560802
  18 H :   -0.171764
  19 H :   -0.178385

  Mayer bond orders larger than 0.100000
B(  0-C ,  1-C ) :   1.4204 B(  0-C ,  2-C ) :  -0.1013 B(  0-C ,  4-C ) :  -0.3405
B(  0-C ,  5-C ) :   0.5407 B(  0-C ,  6-C ) :   0.1459 B(  0-C , 19-H ) :   0.7706
B(  1-C ,  2-C ) :   0.8555 B(  1-C , 18-H ) :   0.5367 B(  2-C ,  3-C ) :   0.9148
B(  2-C , 14-C ) :   1.0031 B(  2-C , 15-F ) :   0.1511 B(  2-C , 16-F ) :   0.1218
B(  2-C , 17-F ) :   0.1324 B(  3-C ,  4-C ) :   1.1895 B(  3-C , 13-H ) :   0.5412
B(  4-C ,  5-C ) :   0.6280 B(  4-C , 12-H ) :   1.0615 B(  5-C ,  6-C ) :   0.4634
B(  5-C ,  7-O ) :   0.2438 B(  6-C ,  7-O ) :   0.8420 B(  6-C ,  8-C ) :   0.9714
B(  7-O , 19-H ) :   0.1496 B(  8-C ,  9-H ) :   0.9031 B(  8-C , 10-H ) :   0.9044
B(  8-C , 11-H ) :   0.9534 B( 14-C , 15-F ) :   0.7491 B( 14-C , 16-F ) :   0.7381
B( 14-C , 17-F ) :   0.6726

Dispersion correction           -0.018679590
FINAL SINGLE POINT ENERGY      -721.469813815013

DIPOLE MOMENT
-------------

Method             : SCF
Type of density    : Electron Density
Multiplicity       :   1
Irrep              :   0
Energy             :  -721.4511342248752044 Eh
Relativity type    :
Basis              : AO
                                X                 Y                 Z
Electronic contribution:    -21.612678280       2.957420153      -0.048455082
Nuclear contribution   :     22.009157676      -4.256883990       0.073247664
                        -----------------------------------------
Total Dipole Moment    :      0.396479396      -1.299463837       0.024792581
                        -----------------------------------------
Magnitude (a.u.)       :      1.358829219
Magnitude (Debye)      :      3.453869391

Rotational constants in cm-1:             0.074861             0.012555             0.011413
Rotational constants in MHz :          2244.280303           376.379088           342.159113

                             ****ORCA TERMINATED NORMALLY****
TOTAL RUN TIME: 0 days 0 hours 7 minutes 30 seconds 990 msec
