                         Program Version 6.0.0  -   RELEASE  -
|  1> !TPSSh aug-cc-pVTZ d3 TightSCF SlowConv RIJCOSX defgrid2
|  2>
|  3> %pal
|  4> nprocs 4
|  5> end
|  6>
|  7> %scf
|  8> MaxIter 1500
|  9> end
| 10>
| 11> %maxcore 3000
| 12>
| 13> !CPCM
| 14> %cpcm smd true
| 15> SMDsolvent "MeCN"
| 16> surfacetype gepol_ses
| 17> rsolv 2.19
| 18> end
| 19>
| 20> * xyz 1 2
| 21> C           1.36337197862367      0.00925782782262      0.00042331345329
| 22> C           0.74822645901465      1.29296895528656      0.00038316234352
| 23> C          -0.61529602246028      1.39626207073000      0.00023060917101
| 24> C          -1.42835414240665      0.22289484643639      0.00009324782531
| 25> C          -0.81975705014986     -1.06228254929373      0.00009847310954
| 26> C           0.54832834357610     -1.16073135173507      0.00023403456932
| 27> H           1.01965556748509     -2.14817388841103      0.00023835116044
| 28> H          -1.42717703035162     -1.96898347753981      0.00000365697629
| 29> O          -2.71426815111900      0.42982708435483     -0.00003024655139
| 30> C          -3.65743877124361     -0.63904368121668     -0.00016458675956
| 31> H          -4.64491010243250     -0.16049105257969     -0.00025717007063
| 32> H          -3.53752517507174     -1.25276547158578     -0.90821236062697
| 33> H          -3.53771725035146     -1.25281703649443      0.90787613291043
| 34> H          -1.11664261012245      2.36720004312394      0.00019734665612
| 35> H           1.36186872975284      2.19800021241604      0.00046058429736
| 36> S           3.05618464536732     -0.23274264105176      0.00049319565771
| 37> H           3.42654608188951      1.07420050973759     -0.00198104412179
| 38> *
| 39>
| 40>                          ****END OF INPUT****

CARTESIAN COORDINATES (ANGSTROEM)
---------------------------------
  C      1.363372    0.009258    0.000423
  C      0.748226    1.292969    0.000383
  C     -0.615296    1.396262    0.000231
  C     -1.428354    0.222895    0.000093
  C     -0.819757   -1.062283    0.000098
  C      0.548328   -1.160731    0.000234
  H      1.019656   -2.148174    0.000238
  H     -1.427177   -1.968983    0.000004
  O     -2.714268    0.429827   -0.000030
  C     -3.657439   -0.639044   -0.000165
  H     -4.644910   -0.160491   -0.000257
  H     -3.537525   -1.252765   -0.908212
  H     -3.537717   -1.252817    0.907876
  H     -1.116643    2.367200    0.000197
  H      1.361869    2.198000    0.000461
  S      3.056185   -0.232743    0.000493
  H      3.426546    1.074201   -0.001981

 Total Charge           Charge          ....    1
 Multiplicity           Mult            ....    2
 Number of Electrons    NEL             ....   73
 Basis Dimension        Dim             ....  602

ORBITAL ENERGIES
----------------
                 SPIN UP ORBITALS
  NO   OCC          E(Eh)            E(eV)
   0   1.0000     -88.815508     -2416.7928
   1   1.0000     -19.150954      -521.1239
   2   1.0000     -10.239307      -278.6257
   3   1.0000     -10.213828      -277.9324
   4   1.0000     -10.182571      -277.0818
   5   1.0000     -10.170773      -276.7608
   6   1.0000     -10.166962      -276.6571
   7   1.0000     -10.162258      -276.5291
   8   1.0000     -10.161997      -276.5220
   9   1.0000      -7.940517      -216.0725
  10   1.0000      -5.890616      -160.2918
  11   1.0000      -5.887259      -160.2005
  12   1.0000      -5.886269      -160.1735
  13   1.0000      -1.116818       -30.3902
  14   1.0000      -0.893445       -24.3119
  15   1.0000      -0.824106       -22.4251
  16   1.0000      -0.780364       -21.2348
  17   1.0000      -0.752717       -20.4825
  18   1.0000      -0.695558       -18.9271
  19   1.0000      -0.638459       -17.3734
  20   1.0000      -0.606166       -16.4946
  21   1.0000      -0.553571       -15.0634
  22   1.0000      -0.522611       -14.2210
  23   1.0000      -0.498968       -13.5776
  24   1.0000      -0.496191       -13.5020
  25   1.0000      -0.460948       -12.5430
  26   1.0000      -0.447070       -12.1654
  27   1.0000      -0.439591       -11.9619
  28   1.0000      -0.418726       -11.3941
  29   1.0000      -0.414711       -11.2849
  30   1.0000      -0.382823       -10.4172
  31   1.0000      -0.378476       -10.2989
  32   1.0000      -0.374449       -10.1893
  33   1.0000      -0.343786        -9.3549
  34   1.0000      -0.318252        -8.6601
  35   1.0000      -0.294515        -8.0142
  36   1.0000      -0.243490        -6.6257
  37   0.0000      -0.071075        -1.9340
  38   0.0000      -0.063675        -1.7327
  39   0.0000      -0.030981        -0.8430
  40   0.0000      -0.005238        -0.1425
  41   0.0000      -0.002061        -0.0561

                 SPIN DOWN ORBITALS
  NO   OCC          E(Eh)            E(eV)
   0   1.0000     -88.813835     -2416.7473
   1   1.0000     -19.146018      -520.9896
   2   1.0000     -10.236570      -278.5512
   3   1.0000     -10.209872      -277.8247
   4   1.0000     -10.182741      -277.0865
   5   1.0000     -10.170053      -276.7412
   6   1.0000     -10.166949      -276.6567
   7   1.0000     -10.161260      -276.5019
   8   1.0000     -10.161046      -276.4961
   9   1.0000      -7.938945      -216.0297
  10   1.0000      -5.889720      -160.2674
  11   1.0000      -5.885451      -160.1513
  12   1.0000      -5.881914      -160.0550
  13   1.0000      -1.108598       -30.1665
  14   1.0000      -0.886904       -24.1339
  15   1.0000      -0.816723       -22.2242
  16   1.0000      -0.778323       -21.1793
  17   1.0000      -0.748781       -20.3754
  18   1.0000      -0.688206       -18.7270
  19   1.0000      -0.634841       -17.2749
  20   1.0000      -0.601753       -16.3745
  21   1.0000      -0.551210       -14.9992
  22   1.0000      -0.520903       -14.1745
  23   1.0000      -0.496057       -13.4984
  24   1.0000      -0.480648       -13.0791
  25   1.0000      -0.458534       -12.4774
  26   1.0000      -0.446345       -12.1457
  27   1.0000      -0.437566       -11.9068
  28   1.0000      -0.413257       -11.2453
  29   1.0000      -0.403259       -10.9732
  30   1.0000      -0.380990       -10.3673
  31   1.0000      -0.370765       -10.0890
  32   1.0000      -0.361203        -9.8288
  33   1.0000      -0.341364        -9.2890
  34   1.0000      -0.294860        -8.0236
  35   1.0000      -0.288306        -7.8452
  36   0.0000      -0.194419        -5.2904
  37   0.0000      -0.054644        -1.4869
  38   0.0000      -0.046020        -1.2523
  39   0.0000      -0.028262        -0.7691
  40   0.0000      -0.004012        -0.1092

MULLIKEN ATOMIC CHARGES AND SPIN POPULATIONS
--------------------------------------------
   0 C :    0.528084    0.196352
   1 C :   -0.410595   -0.016504
   2 C :   -0.551526    0.051745
   3 C :    0.984984    0.180683
   4 C :   -0.151538    0.042412
   5 C :   -0.484907    0.050011
   6 H :    0.437618   -0.001701
   7 H :    0.342956    0.008450
   8 O :   -0.626649    0.155801
   9 C :   -0.261385   -0.013525
  10 H :    0.074565    0.001272
  11 H :    0.226551    0.008993
  12 H :    0.226294    0.008882
  13 H :    0.470330    0.002301
  14 H :    0.311036    0.000086
  15 S :   -0.237572    0.352371
  16 H :    0.121752   -0.027627
Sum of atomic charges         :    1.0000000

LOEWDIN ATOMIC CHARGES AND SPIN POPULATIONS
-------------------------------------------
   0 C :   -0.544285    0.166218
   1 C :    0.179055    0.044812
   2 C :    0.260885    0.066931
   3 C :   -0.347205    0.130224
   4 C :    0.263173    0.063296
   5 C :    0.159748    0.061095
   6 H :   -0.160086    0.003402
   7 H :   -0.158016    0.006156
   8 O :    0.650579    0.142395
   9 C :    0.419866    0.016706
  10 H :   -0.156202   -0.000259
  11 H :   -0.146034    0.004648
  12 H :   -0.145984    0.004649
  13 H :   -0.143582    0.007373
  14 H :   -0.160747   -0.000051
  15 S :    1.493107    0.246153
  16 H :   -0.464272    0.036251

  Mayer bond orders larger than 0.100000
B(  0-C ,  1-C ) :   0.9564 B(  0-C ,  5-C ) :   1.1758 B(  0-C , 15-S ) :   0.6663
B(  1-C ,  2-C ) :   1.7328 B(  1-C ,  3-C ) :  -0.2102 B(  1-C , 13-H ) :   0.1355
B(  1-C , 14-H ) :   0.6729 B(  1-C , 15-S ) :  -0.1041 B(  2-C ,  3-C ) :   0.8606
B(  2-C ,  4-C ) :   0.1010 B(  2-C ,  8-O ) :   0.3378 B(  2-C , 13-H ) :   0.3785
B(  2-C , 14-H ) :   0.1202 B(  3-C ,  4-C ) :   1.0195 B(  3-C ,  5-C ) :  -0.1635
B(  3-C ,  8-O ) :   0.3403 B(  3-C ,  9-C ) :   0.1011 B(  4-C ,  5-C ) :   1.3912
B(  4-C ,  7-H ) :   0.5675 B(  4-C ,  8-O ) :  -0.1737 B(  5-C ,  6-H ) :   0.5989
B(  5-C ,  7-H ) :   0.1011 B(  6-H , 15-S ) :  -0.1190 B(  8-O ,  9-C ) :   0.9639
B(  9-C , 10-H ) :   1.0529 B(  9-C , 11-H ) :   0.9065 B(  9-C , 12-H ) :   0.9067
B( 15-S , 16-H ) :   1.0334

Dispersion correction           -0.021397116
FINAL SINGLE POINT ENERGY      -744.979056476049

DIPOLE MOMENT
-------------

Method             : SCF
Type of density    : Electron Density
Multiplicity       :   2
Irrep              :   0
Energy             :  -744.9576593597737428 Eh
Relativity type    :
Basis              : AO
                                X                 Y                 Z
Electronic contribution:      7.694205279       0.883931815       0.001707497
Nuclear contribution   :     -8.043505047      -1.005233306      -0.003147719
                        -----------------------------------------
Total Dipole Moment    :     -0.349299768      -0.121301490      -0.001440222
                        -----------------------------------------
Magnitude (a.u.)       :      0.369765404
Magnitude (Debye)      :      0.939868964

Rotational constants in cm-1:             0.155356             0.023594             0.020567
Rotational constants in MHz :          4657.467859           707.342014           616.570776

                             ****ORCA TERMINATED NORMALLY****
TOTAL RUN TIME: 0 days 0 hours 7 minutes 30 seconds 752 msec
