                         Program Version 6.0.0  -   RELEASE  -
|  1> !TPSSh aug-cc-pVTZ d3 TightSCF SlowConv RIJCOSX defgrid2
|  2>
|  3> %pal
|  4> nprocs 15
|  5> end
|  6>
|  7> %scf
|  8> MaxIter 1500
|  9> end
| 10>
| 11> %maxcore 3500
| 12>
| 13> !CPCM
| 14> %cpcm smd true
| 15> SMDsolvent "WATER"
| 16> surfacetype gepol_ses
| 17> rsolv 1.40
| 18> end
| 19>
| 20> * xyz -1 2
| 21> C          -0.06058974015319     -0.02786640637996     -0.06636687374245
| 22> C          -0.02915253757207      1.41200889322469      0.08669635331984
| 23> C           0.02798442423532      2.03233434330205      1.32981811902407
| 24> C           0.05891841826264      1.28851377532912      2.57222906271290
| 25> C           0.02788466230184     -0.17442785622153      2.44488354658359
| 26> C          -0.02912762559812     -0.80604792656199      1.17894588306731
| 27> C          -0.05600083532212     -2.21190043304611      1.11490808218194
| 28> C          -0.02778223638882     -2.97912152092029      2.26676120872945
| 29> C           0.02864253401367     -2.35043181295908      3.52692854346035
| 30> C           0.05574276936416     -0.96875665770795      3.60660845784379
| 31> H           0.09961725693663     -0.44137362844551      4.56397519772263
| 32> H           0.05097367878843     -2.95610213708649      4.44040440744309
| 33> H          -0.04909796692647     -4.07320599895043      2.20123731713864
| 34> H          -0.09984497496410     -2.65971392423461      0.11785465933687
| 35> C           0.06118565181994      3.52761243856941      1.44630550499102
| 36> H          -0.83631875455019      3.99924775120952      0.99973118694746
| 37> H           0.10955815705607      3.79661097587730      2.51364550587021
| 38> H           0.93630443757164      3.96465252836867      0.92646488630537
| 39> C          -0.06070223464566      2.21802482702039     -1.17830606330920
| 40> H           0.83706819273596      2.85838996312933     -1.28473705482212
| 41> H          -0.10791860033235      1.52690469530484     -2.03502370536211
| 42> H          -0.93579834377862      2.89621056380490     -1.21654993473529
| 43> O           0.10927738480662      1.83885022543947      3.69657300623271
| 44> O          -0.11082371766120     -0.59470609206575     -1.18250068694010
| 45> *
| 46>
| 47>                          ****END OF INPUT****

CARTESIAN COORDINATES (ANGSTROEM)
---------------------------------
  C     -0.060590   -0.027866   -0.066367
  C     -0.029153    1.412009    0.086696
  C      0.027984    2.032334    1.329818
  C      0.058918    1.288514    2.572229
  C      0.027885   -0.174428    2.444884
  C     -0.029128   -0.806048    1.178946
  C     -0.056001   -2.211900    1.114908
  C     -0.027782   -2.979122    2.266761
  C      0.028643   -2.350432    3.526929
  C      0.055743   -0.968757    3.606608
  H      0.099617   -0.441374    4.563975
  H      0.050974   -2.956102    4.440404
  H     -0.049098   -4.073206    2.201237
  H     -0.099845   -2.659714    0.117855
  C      0.061186    3.527612    1.446306
  H     -0.836319    3.999248    0.999731
  H      0.109558    3.796611    2.513646
  H      0.936304    3.964653    0.926465
  C     -0.060702    2.218025   -1.178306
  H      0.837068    2.858390   -1.284737
  H     -0.107919    1.526905   -2.035024
  H     -0.935798    2.896211   -1.216550
  O      0.109277    1.838850    3.696573
  O     -0.110824   -0.594706   -1.182501

 Total Charge           Charge          ....   -1
 Multiplicity           Mult            ....    2
 Number of Electrons    NEL             ....   99
 Basis Dimension        Dim             ....  874

ORBITAL ENERGIES
----------------
                 SPIN UP ORBITALS
  NO   OCC          E(Eh)            E(eV)
   0   1.0000     -19.011175      -517.3204
   1   1.0000     -19.011118      -517.3188
   2   1.0000     -10.159682      -276.4590
   3   1.0000     -10.159644      -276.4580
   4   1.0000     -10.113461      -275.2013
   5   1.0000     -10.113025      -275.1894
   6   1.0000     -10.111341      -275.1436
   7   1.0000     -10.110956      -275.1331
   8   1.0000     -10.110353      -275.1167
   9   1.0000     -10.110333      -275.1161
  10   1.0000     -10.108589      -275.0687
  11   1.0000     -10.108082      -275.0549
  12   1.0000     -10.097045      -274.7546
  13   1.0000     -10.097030      -274.7542
  14   1.0000      -0.983757       -26.7694
  15   1.0000      -0.981506       -26.7081
  16   1.0000      -0.833411       -22.6783
  17   1.0000      -0.793304       -21.5869
  18   1.0000      -0.733592       -19.9621
  19   1.0000      -0.726321       -19.7642
  20   1.0000      -0.702517       -19.1165
  21   1.0000      -0.648892       -17.6573
  22   1.0000      -0.631172       -17.1751
  23   1.0000      -0.575550       -15.6615
  24   1.0000      -0.563137       -15.3237
  25   1.0000      -0.530117       -14.4252
  26   1.0000      -0.491702       -13.3799
  27   1.0000      -0.466881       -12.7045
  28   1.0000      -0.444526       -12.0962
  29   1.0000      -0.425006       -11.5650
  30   1.0000      -0.418460       -11.3869
  31   1.0000      -0.402993       -10.9660
  32   1.0000      -0.397934       -10.8283
  33   1.0000      -0.397239       -10.8094
  34   1.0000      -0.379635       -10.3304
  35   1.0000      -0.378832       -10.3085
  36   1.0000      -0.364239        -9.9114
  37   1.0000      -0.361469        -9.8361
  38   1.0000      -0.355029        -9.6608
  39   1.0000      -0.353095        -9.6082
  40   1.0000      -0.334944        -9.1143
  41   1.0000      -0.333789        -9.0829
  42   1.0000      -0.316679        -8.6173
  43   1.0000      -0.313344        -8.5265
  44   1.0000      -0.255693        -6.9578
  45   1.0000      -0.244034        -6.6405
  46   1.0000      -0.232416        -6.3244
  47   1.0000      -0.227833        -6.1996
  48   1.0000      -0.218022        -5.9327
  49   1.0000      -0.142783        -3.8853
  50   0.0000      -0.041133        -1.1193
  51   0.0000      -0.022613        -0.6153
  52   0.0000      -0.004216        -0.1147
  53   0.0000       0.006375         0.1735
  54   0.0000       0.012082         0.3288

                 SPIN DOWN ORBITALS
  NO   OCC          E(Eh)            E(eV)
   0   1.0000     -19.005481      -517.1654
   1   1.0000     -19.005419      -517.1637
   2   1.0000     -10.157514      -276.4000
   3   1.0000     -10.157481      -276.3991
   4   1.0000     -10.113074      -275.1907
   5   1.0000     -10.112637      -275.1789
   6   1.0000     -10.110842      -275.1300
   7   1.0000     -10.110543      -275.1219
   8   1.0000     -10.110212      -275.1128
   9   1.0000     -10.110102      -275.1099
  10   1.0000     -10.107145      -275.0294
  11   1.0000     -10.106631      -275.0154
  12   1.0000     -10.097176      -274.7581
  13   1.0000     -10.097161      -274.7577
  14   1.0000      -0.974462       -26.5165
  15   1.0000      -0.972058       -26.4510
  16   1.0000      -0.831416       -22.6240
  17   1.0000      -0.789361       -21.4796
  18   1.0000      -0.731674       -19.9099
  19   1.0000      -0.724457       -19.7135
  20   1.0000      -0.699349       -19.0303
  21   1.0000      -0.647020       -17.6063
  22   1.0000      -0.624908       -17.0046
  23   1.0000      -0.574673       -15.6376
  24   1.0000      -0.559776       -15.2323
  25   1.0000      -0.527251       -14.3472
  26   1.0000      -0.489846       -13.3294
  27   1.0000      -0.464545       -12.6409
  28   1.0000      -0.441998       -12.0274
  29   1.0000      -0.423977       -11.5370
  30   1.0000      -0.409139       -11.1333
  31   1.0000      -0.401729       -10.9316
  32   1.0000      -0.395457       -10.7609
  33   1.0000      -0.393868       -10.7177
  34   1.0000      -0.372503       -10.1363
  35   1.0000      -0.370317       -10.0768
  36   1.0000      -0.363340        -9.8870
  37   1.0000      -0.360414        -9.8074
  38   1.0000      -0.353711        -9.6250
  39   1.0000      -0.335447        -9.1280
  40   1.0000      -0.334169        -9.0932
  41   1.0000      -0.322668        -8.7802
  42   1.0000      -0.315369        -8.5816
  43   1.0000      -0.312118        -8.4932
  44   1.0000      -0.238056        -6.4778
  45   1.0000      -0.237757        -6.4697
  46   1.0000      -0.228483        -6.2173
  47   1.0000      -0.218228        -5.9383
  48   1.0000      -0.214187        -5.8283
  49   0.0000      -0.096541        -2.6270
  50   0.0000      -0.033617        -0.9148
  51   0.0000      -0.011915        -0.3242
  52   0.0000      -0.003379        -0.0919
  53   0.0000       0.006773         0.1843

MULLIKEN ATOMIC CHARGES AND SPIN POPULATIONS
--------------------------------------------
   0 C :    1.635165    0.130814
   1 C :   -0.235837    0.091194
   2 C :   -0.244010    0.091049
   3 C :    1.636098    0.131285
   4 C :    0.647673    0.015000
   5 C :    0.642441    0.015162
   6 C :   -0.976325    0.025275
   7 C :   -0.268601    0.023458
   8 C :   -0.254361    0.023418
   9 C :   -0.967496    0.025244
  10 H :   -0.028930   -0.000733
  11 H :    0.505420   -0.001276
  12 H :    0.509844   -0.001252
  13 H :   -0.029096   -0.000789
  14 C :   -0.406611   -0.002456
  15 H :    0.121013    0.004737
  16 H :   -0.044646   -0.001321
  17 H :    0.120983    0.004679
  18 C :   -0.408149   -0.002459
  19 H :    0.123259    0.004739
  20 H :   -0.044631   -0.001301
  21 H :    0.124022    0.004670
  22 O :   -1.581588    0.210316
  23 O :   -1.575638    0.210546
Sum of atomic charges         :   -1.0000000

LOEWDIN ATOMIC CHARGES AND SPIN POPULATIONS
-------------------------------------------
   0 C :   -0.605953    0.128335
   1 C :   -0.129952    0.086140
   2 C :   -0.129931    0.086040
   3 C :   -0.606064    0.128386
   4 C :   -0.150014    0.046894
   5 C :   -0.149983    0.046886
   6 C :    0.181755    0.013653
   7 C :    0.187442    0.019030
   8 C :    0.187457    0.019014
   9 C :    0.181684    0.013661
  10 H :   -0.199259    0.001044
  11 H :   -0.175168    0.003314
  12 H :   -0.175168    0.003320
  13 H :   -0.199158    0.001038
  14 C :    0.537573    0.012412
  15 H :   -0.155467    0.002658
  16 H :   -0.222278   -0.000875
  17 H :   -0.155900    0.002620
  18 C :    0.537580    0.012445
  19 H :   -0.155604    0.002660
  20 H :   -0.222448   -0.000876
  21 H :   -0.155759    0.002631
  22 O :    0.387156    0.184717
  23 O :    0.387457    0.184855

  Mayer bond orders larger than 0.100000
B(  0-C ,  1-C ) :   1.1926 B(  0-C ,  2-C ) :  -0.3256 B(  0-C ,  3-C ) :   0.7686
B(  0-C ,  4-C ) :  -0.2742 B(  0-C ,  5-C ) :   0.6943 B(  0-C ,  6-C ) :   0.4425
B(  0-C ,  7-C ) :   0.1359 B(  0-C ,  8-C ) :   0.1051 B(  0-C , 13-H ) :  -0.1535
B(  0-C , 20-H ) :  -0.1342 B(  0-C , 23-O ) :  -1.2431 B(  1-C ,  2-C ) :   0.9766
B(  1-C ,  3-C ) :  -0.3214 B(  1-C ,  4-C ) :  -0.1093 B(  1-C ,  5-C ) :   0.6955
B(  1-C , 18-C ) :   0.6526 B(  1-C , 22-O ) :   0.1049 B(  1-C , 23-O ) :   0.5379
B(  2-C ,  3-C ) :   1.1939 B(  2-C ,  4-C ) :   0.6919 B(  2-C , 14-C ) :   0.6415
B(  2-C , 22-O ) :   0.5466 B(  2-C , 23-O ) :   0.1076 B(  3-C ,  4-C ) :   0.6908
B(  3-C ,  5-C ) :  -0.2512 B(  3-C ,  6-C ) :  -0.1110 B(  3-C ,  7-C ) :   0.1017
B(  3-C ,  8-C ) :   0.1318 B(  3-C ,  9-C ) :   0.4461 B(  3-C , 10-H ) :  -0.1564
B(  3-C , 16-H ) :  -0.1324 B(  3-C , 22-O ) :  -1.2498 B(  4-C ,  5-C ) :   0.5884
B(  4-C ,  6-C ) :  -0.4340 B(  4-C ,  7-C ) :  -0.1318 B(  4-C ,  8-C ) :  -0.1446
B(  4-C ,  9-C ) :   0.1226 B(  4-C , 22-O ) :   0.5394 B(  5-C ,  6-C ) :   0.1054
B(  5-C ,  7-C ) :  -0.1433 B(  5-C ,  8-C ) :  -0.1300 B(  5-C ,  9-C ) :  -0.4557
B(  5-C , 23-O ) :   0.5498 B(  6-C ,  7-C ) :   1.4527 B(  6-C , 13-H ) :   1.0190
B(  7-C ,  8-C ) :   1.2637 B(  7-C , 11-H ) :   0.1327 B(  7-C , 12-H ) :   0.3748
B(  8-C ,  9-C ) :   1.4346 B(  8-C , 11-H ) :   0.3853 B(  8-C , 12-H ) :   0.1347
B(  9-C , 10-H ) :   1.0127 B( 10-H , 22-O ) :   0.3006 B( 13-H , 23-O ) :   0.3003
B( 14-C , 15-H ) :   1.0280 B( 14-C , 16-H ) :   0.9792 B( 14-C , 17-H ) :   1.0300
B( 18-C , 19-H ) :   1.0243 B( 18-C , 20-H ) :   0.9847 B( 18-C , 21-H ) :   1.0239

Dispersion correction           -0.035207706
FINAL SINGLE POINT ENERGY      -614.180995724036

DIPOLE MOMENT
-------------

Method             : SCF
Type of density    : Electron Density
Multiplicity       :   2
Irrep              :   0
Energy             :  -614.1457880176243407 Eh
Relativity type    :
Basis              : AO
                                X                 Y                 Z
Electronic contribution:     -0.006404433      -6.794376980       3.387151307
Nuclear contribution   :      0.007077470       6.336292283      -3.161748014
                        -----------------------------------------
Total Dipole Moment    :      0.000673037      -0.458084698       0.225403293
                        -----------------------------------------
Magnitude (a.u.)       :      0.510537646
Magnitude (Debye)      :      1.297683566

Rotational constants in cm-1:             0.036449             0.021992             0.013787
Rotational constants in MHz :          1092.703549           659.301071           413.332938

                             ****ORCA TERMINATED NORMALLY****
TOTAL RUN TIME: 0 days 0 hours 8 minutes 10 seconds 477 msec
