                         Program Version 6.0.0  -   RELEASE  -
|  1> !r2SCAN aug-cc-pVTZ d3 TightSCF SlowConv RIJCOSX defgrid2
|  2>
|  3> %pal
|  4> nprocs 4
|  5> end
|  6>
|  7> %scf
|  8> MaxIter 1500
|  9> end
| 10>
| 11> %maxcore 3000
| 12>
| 13> !CPCM
| 14> %cpcm smd true
| 15> SMDsolvent "MeCN"
| 16> surfacetype gepol_ses
| 17> rsolv 2.19
| 18> end
| 19>
| 20> * xyz 1 2
| 21> C          -0.34270275561118      0.84711240516987     -0.00000461392678
| 22> C          -1.62114214149599      0.28310666085248      0.00005036258773
| 23> C          -1.76655845984461     -1.14534797316706      0.00015902441429
| 24> C          -0.64047775510568     -1.96124661886859      0.00020951229865
| 25> C           0.62711717490611     -1.39778631503778      0.00015498102973
| 26> C           0.79382657036915      0.03758278475822      0.00002872344792
| 27> C           2.09240943022637      0.64547974379403     -0.00003830185520
| 28> C           3.29430838690790     -0.01032166453559      0.00000281703843
| 29> C           4.60760132054960      0.65947907504340     -0.00004889316533
| 30> H           5.19809781171836      0.33504540056372     -0.87962451212125
| 31> H           5.19805381830583      0.33523637975460      0.87962749612829
| 32> H           4.53047503370681      1.75742824935659     -0.00016451192059
| 33> H           3.31318609028762     -1.10737767604801      0.00008430734855
| 34> H           2.10926613216247      1.74179274962735     -0.00012792598686
| 35> H           1.50121349078302     -2.05141955010833      0.00019397364887
| 36> H          -0.75915141594404     -3.04749102718735      0.00029347430122
| 37> H          -2.76100240605802     -1.59669233225998      0.00020413991672
| 38> O          -2.63949171539410      1.10870001849501     -0.00000818654028
| 39> C          -3.98618237230029      0.65565691136091      0.00006847700849
| 40> H          -4.60288239689184      1.56371892248403      0.00002378375357
| 41> H          -4.19996760244314      0.06636471722196      0.90775693220812
| 42> H          -4.20002007511970      0.06623874429631     -0.90752475328728
| 43> H          -0.25881356371464      1.93607439443420     -0.00008040632701
| 44> *
| 45>
| 46>                          ****END OF INPUT****

CARTESIAN COORDINATES (ANGSTROEM)
---------------------------------
  C     -0.342703    0.847112   -0.000005
  C     -1.621142    0.283107    0.000050
  C     -1.766558   -1.145348    0.000159
  C     -0.640478   -1.961247    0.000210
  C      0.627117   -1.397786    0.000155
  C      0.793827    0.037583    0.000029
  C      2.092409    0.645480   -0.000038
  C      3.294308   -0.010322    0.000003
  C      4.607601    0.659479   -0.000049
  H      5.198098    0.335045   -0.879625
  H      5.198054    0.335236    0.879627
  H      4.530475    1.757428   -0.000165
  H      3.313186   -1.107378    0.000084
  H      2.109266    1.741793   -0.000128
  H      1.501213   -2.051420    0.000194
  H     -0.759151   -3.047491    0.000293
  H     -2.761002   -1.596692    0.000204
  O     -2.639492    1.108700   -0.000008
  C     -3.986182    0.655657    0.000068
  H     -4.602882    1.563719    0.000024
  H     -4.199968    0.066365    0.907757
  H     -4.200020    0.066239   -0.907525
  H     -0.258814    1.936074   -0.000080

 Total Charge           Charge          ....    1
 Multiplicity           Mult            ....    2
 Number of Electrons    NEL             ....   79
 Basis Dimension        Dim             ....  782

ORBITAL ENERGIES
----------------
                 SPIN UP ORBITALS
  NO   OCC          E(Eh)            E(eV)
   0   1.0000     -19.038780      -518.0715
   1   1.0000     -10.150817      -276.2178
   2   1.0000     -10.101895      -274.8865
   3   1.0000     -10.097708      -274.7726
   4   1.0000     -10.095833      -274.7216
   5   1.0000     -10.094367      -274.6817
   6   1.0000     -10.094073      -274.6737
   7   1.0000     -10.078321      -274.2451
   8   1.0000     -10.073289      -274.1081
   9   1.0000     -10.065467      -273.8953
  10   1.0000     -10.045858      -273.3617
  11   1.0000      -1.089017       -29.6337
  12   1.0000      -0.866037       -23.5661
  13   1.0000      -0.806591       -21.9485
  14   1.0000      -0.763666       -20.7804
  15   1.0000      -0.755138       -20.5484
  16   1.0000      -0.695582       -18.9278
  17   1.0000      -0.677727       -18.4419
  18   1.0000      -0.607033       -16.5182
  19   1.0000      -0.600713       -16.3462
  20   1.0000      -0.548256       -14.9188
  21   1.0000      -0.522133       -14.2080
  22   1.0000      -0.491694       -13.3797
  23   1.0000      -0.484626       -13.1874
  24   1.0000      -0.468956       -12.7609
  25   1.0000      -0.460572       -12.5328
  26   1.0000      -0.430282       -11.7086
  27   1.0000      -0.416821       -11.3423
  28   1.0000      -0.404263       -11.0005
  29   1.0000      -0.394944       -10.7470
  30   1.0000      -0.390018       -10.6129
  31   1.0000      -0.381252       -10.3744
  32   1.0000      -0.368754       -10.0343
  33   1.0000      -0.353774        -9.6267
  34   1.0000      -0.344893        -9.3850
  35   1.0000      -0.338986        -9.2243
  36   1.0000      -0.320400        -8.7185
  37   1.0000      -0.310118        -8.4387
  38   1.0000      -0.248495        -6.7619
  39   1.0000      -0.246625        -6.7110
  40   0.0000      -0.109507        -2.9798
  41   0.0000      -0.062289        -1.6950
  42   0.0000      -0.013277        -0.3613
  43   0.0000       0.004338         0.1180
  44   0.0000       0.015841         0.4311

                 SPIN DOWN ORBITALS
  NO   OCC          E(Eh)            E(eV)
   0   1.0000     -19.036001      -517.9959
   1   1.0000     -10.150362      -276.2054
   2   1.0000     -10.101063      -274.8639
   3   1.0000     -10.097808      -274.7753
   4   1.0000     -10.089899      -274.5601
   5   1.0000     -10.089678      -274.5541
   6   1.0000     -10.087743      -274.5014
   7   1.0000     -10.077500      -274.2227
   8   1.0000     -10.075929      -274.1800
   9   1.0000     -10.066005      -273.9099
  10   1.0000     -10.045924      -273.3635
  11   1.0000      -1.085079       -29.5265
  12   1.0000      -0.859258       -23.3816
  13   1.0000      -0.798856       -21.7380
  14   1.0000      -0.761746       -20.7282
  15   1.0000      -0.746356       -20.3094
  16   1.0000      -0.688121       -18.7247
  17   1.0000      -0.674284       -18.3482
  18   1.0000      -0.604474       -16.4486
  19   1.0000      -0.595879       -16.2147
  20   1.0000      -0.545143       -14.8341
  21   1.0000      -0.519904       -14.1473
  22   1.0000      -0.489683       -13.3249
  23   1.0000      -0.481598       -13.1049
  24   1.0000      -0.461815       -12.5666
  25   1.0000      -0.457965       -12.4619
  26   1.0000      -0.429354       -11.6833
  27   1.0000      -0.416269       -11.3272
  28   1.0000      -0.394167       -10.7258
  29   1.0000      -0.393538       -10.7087
  30   1.0000      -0.379638       -10.3305
  31   1.0000      -0.379469       -10.3259
  32   1.0000      -0.367588       -10.0026
  33   1.0000      -0.352632        -9.5956
  34   1.0000      -0.337507        -9.1840
  35   1.0000      -0.333533        -9.0759
  36   1.0000      -0.318351        -8.6628
  37   1.0000      -0.296962        -8.0807
  38   1.0000      -0.238103        -6.4791
  39   0.0000      -0.206266        -5.6128
  40   0.0000      -0.082485        -2.2445
  41   0.0000      -0.053011        -1.4425
  42   0.0000       0.005155         0.1403
  43   0.0000       0.006565         0.1786

MULLIKEN ATOMIC CHARGES AND SPIN POPULATIONS
--------------------------------------------
   0 C :   -0.986815   -0.066887
   1 C :    0.903388    0.023075
   2 C :   -0.008425    0.370832
   3 C :   -0.852098   -0.219386
   4 C :   -0.442686    0.378721
   5 C :    1.992018    0.066434
   6 C :   -0.119194    0.028490
   7 C :   -0.147942    0.209188
   8 C :   -0.740512   -0.024047
   9 H :    0.181838    0.025227
  10 H :    0.182186    0.025225
  11 H :    0.246838   -0.004919
  12 H :    0.128785    0.018870
  13 H :   -0.050431    0.009072
  14 H :    0.254711    0.040759
  15 H :    0.462623   -0.007685
  16 H :    0.315973    0.049349
  17 O :   -0.575271    0.083495
  18 C :   -0.605245   -0.007424
  19 H :    0.216843   -0.000709
  20 H :    0.270655    0.003408
  21 H :    0.270449    0.003407
  22 H :    0.102310   -0.004495
Sum of atomic charges         :    1.0000000

LOEWDIN ATOMIC CHARGES AND SPIN POPULATIONS
-------------------------------------------
   0 C :    0.252670   -0.001071
   1 C :   -0.346959    0.073220
   2 C :    0.287845    0.176803
   3 C :    0.263402    0.034971
   4 C :    0.284631    0.186026
   5 C :   -0.097451    0.080484
   6 C :    0.271360    0.075127
   7 C :    0.277983    0.133458
   8 C :    0.604638    0.044771
   9 H :   -0.142728    0.010534
  10 H :   -0.142766    0.010534
  11 H :   -0.157821    0.000958
  12 H :   -0.159800    0.021519
  13 H :   -0.155931    0.007480
  14 H :   -0.162028    0.039048
  15 H :   -0.147384   -0.012881
  16 H :   -0.157261    0.038887
  17 O :    0.634907    0.070218
  18 C :    0.404017    0.008305
  19 H :   -0.160657   -0.000323
  20 H :   -0.149976    0.002480
  21 H :   -0.149941    0.002480
  22 H :   -0.150750   -0.003030

  Mayer bond orders larger than 0.100000
B(  0-C ,  1-C ) :   0.5711 B(  0-C ,  4-C ) :  -0.2784 B(  0-C ,  6-C ) :  -0.2521
B(  0-C ,  7-C ) :   0.1989 B(  0-C , 17-O ) :   0.3529 B(  0-C , 22-H ) :   1.2276
B(  1-C ,  2-C ) :   0.9715 B(  1-C ,  4-C ) :  -0.2688 B(  1-C ,  6-C ) :   0.1126
B(  1-C ,  7-C ) :   0.1143 B(  1-C , 17-O ) :   0.1655 B(  1-C , 22-H ) :  -0.1128
B(  2-C ,  3-C ) :   0.9196 B(  2-C ,  5-C ) :  -0.1855 B(  2-C ,  6-C ) :   0.1048
B(  2-C , 16-H ) :   0.8512 B(  2-C , 17-O ) :  -0.2231 B(  2-C , 18-C ) :  -0.1645
B(  3-C ,  4-C ) :   0.8956 B(  3-C ,  5-C ) :  -0.1549 B(  3-C ,  7-C ) :  -0.1064
B(  3-C , 14-H ) :  -0.1346 B(  3-C , 15-H ) :   0.4765 B(  4-C ,  5-C ) :   0.3553
B(  4-C , 14-H ) :   0.9663 B(  5-C ,  7-C ) :  -0.1491 B(  5-C ,  8-C ) :   0.1187
B(  5-C , 12-H ) :  -0.2433 B(  5-C , 13-H ) :  -0.1027 B(  5-C , 17-O ) :   0.1866
B(  5-C , 22-H ) :  -0.1046 B(  6-C ,  7-C ) :   0.7601 B(  6-C , 12-H ) :   0.1052
B(  6-C , 13-H ) :   1.3518 B(  7-C ,  8-C ) :   0.5904 B(  7-C , 12-H ) :   1.3802
B(  7-C , 13-H ) :  -0.1726 B(  8-C ,  9-H ) :   1.0258 B(  8-C , 10-H ) :   1.0257
B(  8-C , 11-H ) :   0.9442 B(  8-C , 12-H ) :  -0.1638 B( 16-H , 18-C ) :  -0.1398
B( 17-O , 18-C ) :   0.9746 B( 18-C , 19-H ) :   0.9766 B( 18-C , 20-H ) :   0.9124
B( 18-C , 21-H ) :   0.9126

Dispersion correction           -0.006991320
FINAL SINGLE POINT ENERGY      -463.200603343216

DIPOLE MOMENT
-------------

Method             : SCF
Type of density    : Electron Density
Multiplicity       :   2
Irrep              :   0
Energy             :  -463.1936120234717578 Eh
Relativity type    :
Basis              : AO
                                X                 Y                 Z
Electronic contribution:     -4.516211731      -0.759719597      -0.000356056
Nuclear contribution   :      4.745595693      -0.067246961       0.000048364
                        -----------------------------------------
Total Dipole Moment    :      0.229383963      -0.826966558      -0.000307692
                        -----------------------------------------
Magnitude (a.u.)       :      0.858190413
Magnitude (Debye)      :      2.181346677

Rotational constants in cm-1:             0.103199             0.017039             0.014706
Rotational constants in MHz :          3093.817468           510.805508           440.883670

                             ****ORCA TERMINATED NORMALLY****
TOTAL RUN TIME: 0 days 0 hours 7 minutes 17 seconds 571 msec
