                         Program Version 6.0.0  -   RELEASE  -
|  1> !PBE0 aug-cc-pVTZ d3 TightSCF SlowConv RIJCOSX defgrid2
|  2>
|  3> %pal
|  4> nprocs 4
|  5> end
|  6>
|  7> %scf
|  8> MaxIter 1500
|  9> end
| 10>
| 11> %maxcore 3000
| 12>
| 13> !CPCM
| 14> %cpcm smd true
| 15> SMDsolvent "MeCN"
| 16> surfacetype gepol_ses
| 17> rsolv 2.19
| 18> end
| 19>
| 20> * xyz 0 1
| 21> C          -1.45296729722658     -1.28151002156026      0.14194546330159
| 22> C          -0.60306064093871     -0.04446072545809      0.33193281816932
| 23> C          -1.12567582222179      1.18572814043815      0.12630733698000
| 24> C          -2.55837598067552      1.44742458580996     -0.24068448507496
| 25> C          -3.28245282065203      0.19560476706937     -0.72004405890606
| 26> C          -2.94627665247128     -0.98032771771694      0.18458848750905
| 27> H          -3.24213594686381     -0.73932071348069      1.22299729825620
| 28> H          -3.51449794303560     -1.88061999821498     -0.10780941455212
| 29> H          -2.96673003571617     -0.04268032662380     -1.75366325316112
| 30> H          -4.37226581908345      0.36951687899438     -0.75213967938313
| 31> H          -3.09908269921816      1.87422825597419      0.63030428128422
| 32> H          -2.60322712915400      2.23069777526909     -1.02025270689355
| 33> H          -0.49994736161941      2.07353459912717      0.25424693160649
| 34> N           0.69303529191099     -0.28438264709477      0.79958397475949
| 35> C           1.57818723018607      0.82467461252518      1.08644856048943
| 36> H           1.00739506236315      1.66619965765170      1.50706427051622
| 37> C           2.37028080978361      1.23291703973064     -0.15041034302315
| 38> H           3.11077065191675      2.01322480282712      0.09126019237819
| 39> H           1.68417673001968      1.63130127074136     -0.92725467919408
| 40> O           3.09036409417407      0.13568205210303     -0.65709465576006
| 41> C           2.25560936007911     -0.95058613299193     -0.96380125980268
| 42> H           1.55178445834774     -0.67753645106666     -1.78072161009415
| 43> C           1.45943271566799     -1.39404343918770      0.25851152105089
| 44> H           2.16510802761640     -1.74198715640152      1.03622997878760
| 45> H           0.80313522562159     -2.23935561078539      0.00674701884856
| 46> H           2.90949410693522     -1.76130630349583     -1.32634069968529
| 47> H           2.29502525894536      0.49140375143543      1.86065453402124
| 48> H          -1.20950686050662     -1.76150886737077     -0.82651158365816
| 49> H          -1.19559941418460     -2.01612497824744      0.92558666123002
| 50> *
| 51>
| 52>                          ****END OF INPUT****

CARTESIAN COORDINATES (ANGSTROEM)
---------------------------------
  C     -1.452967   -1.281510    0.141945
  C     -0.603061   -0.044461    0.331933
  C     -1.125676    1.185728    0.126307
  C     -2.558376    1.447425   -0.240684
  C     -3.282453    0.195605   -0.720044
  C     -2.946277   -0.980328    0.184588
  H     -3.242136   -0.739321    1.222997
  H     -3.514498   -1.880620   -0.107809
  H     -2.966730   -0.042680   -1.753663
  H     -4.372266    0.369517   -0.752140
  H     -3.099083    1.874228    0.630304
  H     -2.603227    2.230698   -1.020253
  H     -0.499947    2.073535    0.254247
  N      0.693035   -0.284383    0.799584
  C      1.578187    0.824675    1.086449
  H      1.007395    1.666200    1.507064
  C      2.370281    1.232917   -0.150410
  H      3.110771    2.013225    0.091260
  H      1.684177    1.631301   -0.927255
  O      3.090364    0.135682   -0.657095
  C      2.255609   -0.950586   -0.963801
  H      1.551784   -0.677536   -1.780722
  C      1.459433   -1.394043    0.258512
  H      2.165108   -1.741987    1.036230
  H      0.803135   -2.239356    0.006747
  H      2.909494   -1.761306   -1.326341
  H      2.295025    0.491404    1.860655
  H     -1.209507   -1.761509   -0.826512
  H     -1.195599   -2.016125    0.925587

 Total Charge           Charge          ....    0
 Multiplicity           Mult            ....    1
 Number of Electrons    NEL             ....   92
 Basis Dimension        Dim             ....  943

ORBITAL ENERGIES
----------------

  NO   OCC          E(Eh)            E(eV)
   0   2.0000     -19.210698      -522.7497
   1   2.0000     -14.392326      -391.6351
   2   2.0000     -10.261172      -279.2207
   3   2.0000     -10.260787      -279.2102
   4   2.0000     -10.251710      -278.9632
   5   2.0000     -10.244532      -278.7679
   6   2.0000     -10.242549      -278.7139
   7   2.0000     -10.218005      -278.0461
   8   2.0000     -10.213279      -277.9174
   9   2.0000     -10.212478      -277.8956
  10   2.0000     -10.209846      -277.8240
  11   2.0000     -10.197008      -277.4747
  12   2.0000      -1.074023       -29.2257
  13   2.0000      -0.966237       -26.2926
  14   2.0000      -0.846402       -23.0318
  15   2.0000      -0.791938       -21.5497
  16   2.0000      -0.764381       -20.7999
  17   2.0000      -0.753993       -20.5172
  18   2.0000      -0.692604       -18.8467
  19   2.0000      -0.675361       -18.3775
  20   2.0000      -0.628013       -17.0891
  21   2.0000      -0.614457       -16.7202
  22   2.0000      -0.579275       -15.7629
  23   2.0000      -0.534665       -14.5490
  24   2.0000      -0.514564       -14.0020
  25   2.0000      -0.487582       -13.2678
  26   2.0000      -0.485837       -13.2203
  27   2.0000      -0.473771       -12.8920
  28   2.0000      -0.471698       -12.8356
  29   2.0000      -0.455196       -12.3865
  30   2.0000      -0.433772       -11.8035
  31   2.0000      -0.428411       -11.6577
  32   2.0000      -0.416053       -11.3214
  33   2.0000      -0.403038       -10.9672
  34   2.0000      -0.394407       -10.7324
  35   2.0000      -0.381196       -10.3729
  36   2.0000      -0.377837       -10.2815
  37   2.0000      -0.360259        -9.8032
  38   2.0000      -0.355526        -9.6744
  39   2.0000      -0.335002        -9.1159
  40   2.0000      -0.327672        -8.9164
  41   2.0000      -0.322891        -8.7863
  42   2.0000      -0.309778        -8.4295
  43   2.0000      -0.295417        -8.0387
  44   2.0000      -0.265448        -7.2232
  45   2.0000      -0.192475        -5.2375
  46   0.0000       0.000597         0.0163
  47   0.0000       0.011520         0.3135
  48   0.0000       0.013027         0.3545
  49   0.0000       0.014931         0.4063
  50   0.0000       0.027385         0.7452

MULLIKEN ATOMIC CHARGES
-----------------------
   0 C :   -0.192011
   1 C :    1.440356
   2 C :   -0.932498
   3 C :   -0.315662
   4 C :   -0.365702
   5 C :   -0.579204
   6 H :    0.170894
   7 H :    0.181700
   8 H :    0.192155
   9 H :    0.188863
  10 H :    0.195159
  11 H :    0.218009
  12 H :   -0.042053
  13 N :   -0.145298
  14 C :   -0.696814
  15 H :    0.155342
  16 C :   -0.107332
  17 H :    0.275014
  18 H :    0.271206
  19 O :   -0.688718
  20 C :   -0.145309
  21 H :    0.284465
  22 C :   -0.630629
  23 H :    0.245828
  24 H :    0.182385
  25 H :    0.229952
  26 H :    0.183312
  27 H :    0.213451
  28 H :    0.213138
Sum of atomic charges:    0.0000000

LOEWDIN ATOMIC CHARGES
----------------------
   0 C :    0.264326
   1 C :   -0.197324
   2 C :    0.238558
   3 C :    0.237671
   4 C :    0.258547
   5 C :    0.270378
   6 H :   -0.124063
   7 H :   -0.125607
   8 H :   -0.127359
   9 H :   -0.129030
  10 H :   -0.135608
  11 H :   -0.140651
  12 H :   -0.198448
  13 N :    0.277335
  14 C :    0.166457
  15 H :   -0.150372
  16 C :    0.027909
  17 H :   -0.139700
  18 H :   -0.140552
  19 O :    0.594452
  20 C :    0.027799
  21 H :   -0.130809
  22 C :    0.173908
  23 H :   -0.120910
  24 H :   -0.157457
  25 H :   -0.140397
  26 H :   -0.124175
  27 H :   -0.123042
  28 H :   -0.131836

  Mayer bond orders larger than 0.100000
B(  0-C ,  1-C ) :   0.7615 B(  0-C ,  2-C ) :  -0.1389 B(  0-C ,  5-C ) :   0.9127
B(  0-C , 27-H ) :   0.9699 B(  0-C , 28-H ) :   0.9361 B(  1-C ,  2-C ) :   0.3306
B(  1-C ,  3-C ) :  -0.1440 B(  1-C , 12-H ) :  -0.1318 B(  1-C , 13-N ) :   0.2616
B(  1-C , 14-C ) :  -0.1245 B(  2-C ,  3-C ) :   0.7822 B(  2-C ,  4-C ) :   0.1123
B(  2-C , 12-H ) :   1.4633 B(  2-C , 13-N ) :  -0.1586 B(  3-C ,  4-C ) :   1.0047
B(  3-C , 10-H ) :   0.9714 B(  3-C , 11-H ) :   0.9350 B(  4-C ,  5-C ) :   1.0245
B(  4-C ,  8-H ) :   0.9712 B(  4-C ,  9-H ) :   0.9485 B(  5-C ,  6-H ) :   1.0193
B(  5-C ,  7-H ) :   0.9443 B( 13-N , 14-C ) :   1.1235 B( 13-N , 22-C ) :   0.9711
B( 14-C , 15-H ) :   1.0141 B( 14-C , 16-C ) :   0.9218 B( 14-C , 19-O ) :   0.1178
B( 14-C , 22-C ) :   0.2567 B( 14-C , 26-H ) :   0.9338 B( 16-C , 17-H ) :   0.9269
B( 16-C , 18-H ) :   0.9239 B( 16-C , 19-O ) :   0.7830 B( 19-O , 20-C ) :   0.8362
B( 20-C , 21-H ) :   0.9036 B( 20-C , 22-C ) :   0.9971 B( 20-C , 25-H ) :   0.9503
B( 22-C , 23-H ) :   0.9357 B( 22-C , 24-H ) :   0.9381

Dispersion correction           -0.027775996
FINAL SINGLE POINT ENERGY      -520.853129302782

DIPOLE MOMENT
-------------

Method             : SCF
Type of density    : Electron Density
Multiplicity       :   1
Irrep              :   0
Energy             :  -520.8253533070442245 Eh
Relativity type    :
Basis              : AO
                                X                 Y                 Z
Electronic contribution:      6.403983369       0.176020388       0.914823623
Nuclear contribution   :     -6.702563356      -0.526145010      -0.941660721
                        -----------------------------------------
Total Dipole Moment    :     -0.298579986      -0.350124622      -0.026837098
                        -----------------------------------------
Magnitude (a.u.)       :      0.460931111
Magnitude (Debye)      :      1.171593775

Rotational constants in cm-1:             0.066375             0.019173             0.017047
Rotational constants in MHz :          1989.867281           574.782651           511.066485

                             ****ORCA TERMINATED NORMALLY****
TOTAL RUN TIME: 0 days 0 hours 11 minutes 23 seconds 433 msec
