                         Program Version 6.0.0  -   RELEASE  -
|  1> !r2SCAN aug-cc-pVTZ d3 TightSCF SlowConv RIJCOSX defgrid2
|  2>
|  3> %pal
|  4> nprocs 4
|  5> end
|  6>
|  7> %scf
|  8> MaxIter 1500
|  9> end
| 10>
| 11> %maxcore 3000
| 12>
| 13> !CPCM
| 14> %cpcm smd true
| 15> SMDsolvent "MeCN"
| 16> surfacetype gepol_ses
| 17> rsolv 2.19
| 18> end
| 19>
| 20> * xyz 1 2
| 21> C           0.00952428511137      1.14381862948455     -0.00004241850549
| 22> C          -1.34405804782715      1.36835429039483     -0.00004501377751
| 23> C          -2.25803675623572      0.27994374569514     -0.00001444991813
| 24> C          -1.79893876317452     -1.05503699905501      0.00001836451112
| 25> C          -0.44966853213070     -1.30717096682290      0.00001901616088
| 26> C           0.47768132323041     -0.20754569072665     -0.00000570718377
| 27> O           1.72715481916077     -0.54575427099223      0.00000126933750
| 28> C           2.80134500679620      0.40109022692015     -0.00002708967268
| 29> H           2.75083060085294      1.02148240859275     -0.90936313619747
| 30> H           2.75076150937771      1.02163468660922      0.90919997962481
| 31> H           3.71874480964519     -0.20034761824646      0.00005825478275
| 32> H          -0.03837787308311     -2.31994207676691      0.00003911986652
| 33> H          -2.51564718597583     -1.88032469418672      0.00003900521605
| 34> H          -3.33291112256179      0.48384956913135     -0.00002166925602
| 35> H          -1.72762364845365      2.39229306604659     -0.00007349223884
| 36> H           0.71284737526787      1.97878939392230     -0.00006603274972
| 37> *
| 38>
| 39>                          ****END OF INPUT****

CARTESIAN COORDINATES (ANGSTROEM)
---------------------------------
  C      0.009524    1.143819   -0.000042
  C     -1.344058    1.368354   -0.000045
  C     -2.258037    0.279944   -0.000014
  C     -1.798939   -1.055037    0.000018
  C     -0.449669   -1.307171    0.000019
  C      0.477681   -0.207546   -0.000006
  O      1.727155   -0.545754    0.000001
  C      2.801345    0.401090   -0.000027
  H      2.750831    1.021482   -0.909363
  H      2.750762    1.021635    0.909200
  H      3.718745   -0.200348    0.000058
  H     -0.038378   -2.319942    0.000039
  H     -2.515647   -1.880325    0.000039
  H     -3.332911    0.483850   -0.000022
  H     -1.727624    2.392293   -0.000073
  H      0.712847    1.978789   -0.000066

 Total Charge           Charge          ....    1
 Multiplicity           Mult            ....    2
 Number of Electrons    NEL             ....   57
 Basis Dimension        Dim             ....  552

ORBITAL ENERGIES
----------------
                 SPIN UP ORBITALS
  NO   OCC          E(Eh)            E(eV)
   0   1.0000     -19.078193      -519.1440
   1   1.0000     -10.177963      -276.9564
   2   1.0000     -10.110241      -275.1136
   3   1.0000     -10.105377      -274.9813
   4   1.0000     -10.095332      -274.7079
   5   1.0000     -10.091568      -274.6055
   6   1.0000     -10.087976      -274.5078
   7   1.0000     -10.081881      -274.3419
   8   1.0000      -1.123814       -30.5805
   9   1.0000      -0.868649       -23.6371
  10   1.0000      -0.777320       -21.1520
  11   1.0000      -0.764082       -20.7917
  12   1.0000      -0.706075       -19.2133
  13   1.0000      -0.622976       -16.9520
  14   1.0000      -0.598572       -16.2880
  15   1.0000      -0.545584       -14.8461
  16   1.0000      -0.498765       -13.5721
  17   1.0000      -0.497398       -13.5349
  18   1.0000      -0.495345       -13.4790
  19   1.0000      -0.443387       -12.0652
  20   1.0000      -0.431821       -11.7504
  21   1.0000      -0.419413       -11.4128
  22   1.0000      -0.400127       -10.8880
  23   1.0000      -0.372460       -10.1351
  24   1.0000      -0.367131        -9.9902
  25   1.0000      -0.355000        -9.6600
  26   1.0000      -0.333469        -9.0742
  27   1.0000      -0.288126        -7.8403
  28   1.0000      -0.266419        -7.2496
  29   0.0000      -0.087041        -2.3685
  30   0.0000      -0.074625        -2.0306
  31   0.0000       0.004823         0.1312
  32   0.0000       0.019197         0.5224
  33   0.0000       0.021740         0.5916

                 SPIN DOWN ORBITALS
  NO   OCC          E(Eh)            E(eV)
   0   1.0000     -19.070127      -518.9245
   1   1.0000     -10.175359      -276.8856
   2   1.0000     -10.110453      -275.1194
   3   1.0000     -10.097956      -274.7794
   4   1.0000     -10.091543      -274.6048
   5   1.0000     -10.089361      -274.5455
   6   1.0000     -10.088785      -274.5298
   7   1.0000     -10.083936      -274.3979
   8   1.0000      -1.111910       -30.2566
   9   1.0000      -0.859651       -23.3923
  10   1.0000      -0.769570       -20.9411
  11   1.0000      -0.759381       -20.6638
  12   1.0000      -0.696361       -18.9489
  13   1.0000      -0.618328       -16.8256
  14   1.0000      -0.592543       -16.1239
  15   1.0000      -0.543018       -14.7763
  16   1.0000      -0.495884       -13.4937
  17   1.0000      -0.491138       -13.3645
  18   1.0000      -0.476008       -12.9528
  19   1.0000      -0.440798       -11.9947
  20   1.0000      -0.430595       -11.7171
  21   1.0000      -0.417133       -11.3508
  22   1.0000      -0.384058       -10.4508
  23   1.0000      -0.370511       -10.0821
  24   1.0000      -0.364842        -9.9279
  25   1.0000      -0.334363        -9.0985
  26   1.0000      -0.329684        -8.9711
  27   1.0000      -0.280005        -7.6193
  28   0.0000      -0.220258        -5.9935
  29   0.0000      -0.064325        -1.7504
  30   0.0000      -0.050452        -1.3729
  31   0.0000       0.006410         0.1744
  32   0.0000       0.020891         0.5685

MULLIKEN ATOMIC CHARGES AND SPIN POPULATIONS
--------------------------------------------
   0 C :   -0.284998    0.144152
   1 C :   -0.375414   -0.068519
   2 C :   -0.472401    0.423226
   3 C :   -0.270476   -0.151821
   4 C :   -0.843749    0.226668
   5 C :    1.227542    0.138094
   6 O :   -0.590426    0.246898
   7 C :   -0.604902   -0.018235
   8 H :    0.277957    0.012976
   9 H :    0.278152    0.012969
  10 H :    0.254811   -0.001666
  11 H :    0.630146    0.009125
  12 H :    0.334299   -0.007631
  13 H :    0.518773    0.018996
  14 H :    0.296814   -0.002666
  15 H :    0.623874    0.017436
Sum of atomic charges         :    1.0000000

LOEWDIN ATOMIC CHARGES AND SPIN POPULATIONS
-------------------------------------------
   0 C :    0.279236    0.098171
   1 C :    0.266367    0.059399
   2 C :    0.285674    0.208613
   3 C :    0.256793    0.038432
   4 C :    0.277949    0.123859
   5 C :   -0.329102    0.160497
   6 O :    0.663944    0.199579
   7 C :    0.453782    0.024638
   8 H :   -0.141372    0.007411
   9 H :   -0.141410    0.007411
  10 H :   -0.152794   -0.000350
  11 H :   -0.141698    0.021430
  12 H :   -0.145571   -0.009585
  13 H :   -0.135169    0.047637
  14 H :   -0.141798   -0.002614
  15 H :   -0.154831    0.015472

  Mayer bond orders larger than 0.100000
B(  0-C ,  1-C ) :   1.1441 B(  0-C ,  2-C ) :   0.2514 B(  0-C ,  3-C ) :  -0.1283
B(  0-C ,  4-C ) :   0.4576 B(  0-C ,  5-C ) :   0.7341 B(  0-C ,  6-O ) :  -0.1038
B(  0-C , 15-H ) :   0.1124 B(  1-C ,  2-C ) :   0.9882 B(  1-C ,  3-C ) :  -0.2220
B(  1-C ,  4-C ) :  -0.1323 B(  1-C ,  5-C ) :  -0.4630 B(  1-C , 11-H ) :   0.1042
B(  1-C , 14-H ) :   0.8987 B(  1-C , 15-H ) :   0.1763 B(  2-C ,  3-C ) :   0.9414
B(  2-C ,  4-C ) :   0.4177 B(  2-C ,  5-C ) :  -0.1436 B(  2-C , 13-H ) :   0.4751
B(  2-C , 15-H ) :  -0.1145 B(  3-C ,  4-C ) :   1.2972 B(  3-C ,  5-C ) :  -0.3479
B(  3-C , 12-H ) :   0.8589 B(  3-C , 15-H ) :   0.1638 B(  4-C ,  5-C ) :   0.5338
B(  4-C ,  6-O ) :   0.2640 B(  4-C , 11-H ) :   0.1172 B(  4-C , 15-H ) :  -0.1056
B(  5-C ,  6-O ) :   0.6727 B(  6-O ,  7-C ) :   0.9917 B(  7-C ,  8-H ) :   0.9003
B(  7-C ,  9-H ) :   0.8999 B(  7-C , 10-H ) :   0.9485 B(  7-C , 15-H ) :  -0.1119

Dispersion correction           -0.004365226
FINAL SINGLE POINT ENERGY      -346.497975386948

DIPOLE MOMENT
-------------

Method             : SCF
Type of density    : Electron Density
Multiplicity       :   2
Irrep              :   0
Energy             :  -346.4936101611743311 Eh
Relativity type    :
Basis              : AO
                                X                 Y                 Z
Electronic contribution:     -2.140781647      -1.607765294       0.000070656
Nuclear contribution   :      2.256738866       2.246354274      -0.000083298
                        -----------------------------------------
Total Dipole Moment    :      0.115957219       0.638588980      -0.000012642
                        -----------------------------------------
Magnitude (a.u.)       :      0.649031557
Magnitude (Debye)      :      1.649707114

Rotational constants in cm-1:             0.163746             0.052523             0.040083
Rotational constants in MHz :          4908.994994          1574.611095          1201.650329

                             ****ORCA TERMINATED NORMALLY****
TOTAL RUN TIME: 0 days 0 hours 3 minutes 7 seconds 16 msec
