                         Program Version 6.0.0  -   RELEASE  -
|  1> !PBE0 aug-cc-pVTZ d3 TightSCF SlowConv RIJCOSX defgrid2
|  2>
|  3> %pal
|  4> nprocs 4
|  5> end
|  6>
|  7> %scf
|  8> MaxIter 1500
|  9> end
| 10>
| 11> %maxcore 3000
| 12>
| 13> !CPCM
| 14> %cpcm smd true
| 15> SMDsolvent "MeCN"
| 16> surfacetype gepol_ses
| 17> rsolv 2.19
| 18> end
| 19>
| 20> * xyz 0 1
| 21> C          -0.69471715027891      1.20160424367180      0.00254330764544
| 22> C           0.69612063581105      1.19291899288814      0.00968566042107
| 23> C           1.42778733631965      0.00018404946816      0.01007822944484
| 24> C           2.93063058367763     -0.00027863689039     -0.01829178119376
| 25> H           3.34402418608942      0.90078695962724      0.46603728071123
| 26> H           3.31730142827762     -0.02014085009214     -1.05503454463859
| 27> H           3.34459568522108     -0.88206330588670      0.50008328858434
| 28> C           0.69618993551697     -1.19280776592252      0.00927470210724
| 29> C          -0.69448057691314     -1.20162515498911      0.00211243242400
| 30> C          -1.42112887903605      0.00001156196422     -0.00389874102897
| 31> N          -2.80457629708089     -0.00021726257641     -0.05900293362540
| 32> H          -3.26571318600359     -0.84658941152166      0.25460910629618
| 33> H          -3.26597866165769      0.84602614670405      0.25456635083211
| 34> H          -1.23244316710201     -2.15552812692684      0.00133757208656
| 35> H           1.23001055078301     -2.14947021386169      0.01854947119546
| 36> H           1.22985485991374      2.14960675922401      0.01926471808220
| 37> H          -1.23272228353791      2.15547551511983      0.00212038065604
| 38> *
| 39>
| 40>                          ****END OF INPUT****

CARTESIAN COORDINATES (ANGSTROEM)
---------------------------------
  C     -0.694717    1.201604    0.002543
  C      0.696121    1.192919    0.009686
  C      1.427787    0.000184    0.010078
  C      2.930631   -0.000279   -0.018292
  H      3.344024    0.900787    0.466037
  H      3.317301   -0.020141   -1.055035
  H      3.344596   -0.882063    0.500083
  C      0.696190   -1.192808    0.009275
  C     -0.694481   -1.201625    0.002112
  C     -1.421129    0.000012   -0.003899
  N     -2.804576   -0.000217   -0.059003
  H     -3.265713   -0.846589    0.254609
  H     -3.265979    0.846026    0.254566
  H     -1.232443   -2.155528    0.001338
  H      1.230011   -2.149470    0.018549
  H      1.229855    2.149607    0.019265
  H     -1.232722    2.155476    0.002120

 Total Charge           Charge          ....    0
 Multiplicity           Mult            ....    1
 Number of Electrons    NEL             ....   58
 Basis Dimension        Dim             ....  575

ORBITAL ENERGIES
----------------

  NO   OCC          E(Eh)            E(eV)
   0   2.0000     -14.383475      -391.3943
   1   2.0000     -10.266056      -279.3536
   2   2.0000     -10.226477      -278.2766
   3   2.0000     -10.223920      -278.2070
   4   2.0000     -10.223845      -278.2050
   5   2.0000     -10.220326      -278.1092
   6   2.0000     -10.220266      -278.1076
   7   2.0000     -10.212745      -277.9029
   8   2.0000      -0.941475       -25.6188
   9   2.0000      -0.865319       -23.5465
  10   2.0000      -0.774370       -21.0717
  11   2.0000      -0.763494       -20.7757
  12   2.0000      -0.688685       -18.7401
  13   2.0000      -0.627774       -17.0826
  14   2.0000      -0.596165       -16.2225
  15   2.0000      -0.530450       -14.4343
  16   2.0000      -0.519926       -14.1479
  17   2.0000      -0.469187       -12.7672
  18   2.0000      -0.447200       -12.1689
  19   2.0000      -0.434854       -11.8330
  20   2.0000      -0.424164       -11.5421
  21   2.0000      -0.422535       -11.4978
  22   2.0000      -0.392426       -10.6785
  23   2.0000      -0.382504       -10.4084
  24   2.0000      -0.360534        -9.8106
  25   2.0000      -0.339221        -9.2307
  26   2.0000      -0.317236        -8.6324
  27   2.0000      -0.265251        -7.2179
  28   2.0000      -0.211573        -5.7572
  29   0.0000      -0.008973        -0.2442
  30   0.0000       0.002259         0.0615
  31   0.0000       0.005597         0.1523
  32   0.0000       0.012093         0.3291
  33   0.0000       0.018583         0.5057

MULLIKEN ATOMIC CHARGES
-----------------------
   0 C :   -0.859335
   1 C :   -0.863454
   2 C :    1.007744
   3 C :   -0.724866
   4 H :    0.261547
   5 H :    0.258051
   6 H :    0.262187
   7 C :   -0.875410
   8 C :   -0.860449
   9 C :    1.037360
  10 N :   -0.620241
  11 H :    0.059476
  12 H :    0.059303
  13 H :    0.576150
  14 H :    0.351855
  15 H :    0.350902
  16 H :    0.579181
Sum of atomic charges:    0.0000000

LOEWDIN ATOMIC CHARGES
----------------------
   0 C :    0.200566
   1 C :    0.181781
   2 C :   -0.163903
   3 C :    0.553402
   4 H :   -0.166802
   5 H :   -0.154268
   6 H :   -0.166161
   7 C :    0.181771
   8 C :    0.200577
   9 C :   -0.278144
  10 N :    0.848395
  11 H :   -0.287118
  12 H :   -0.287106
  13 H :   -0.166939
  14 H :   -0.164348
  15 H :   -0.164734
  16 H :   -0.166970

  Mayer bond orders larger than 0.100000
B(  0-C ,  1-C ) :   1.4449 B(  0-C ,  2-C ) :   0.1495 B(  0-C ,  8-C ) :   0.2732
B(  0-C ,  9-C ) :   0.9575 B(  0-C , 16-H ) :   0.2736 B(  1-C ,  2-C ) :   0.7088
B(  1-C ,  7-C ) :  -0.1390 B(  1-C ,  9-C ) :  -0.2402 B(  1-C , 15-H ) :   0.8073
B(  2-C ,  3-C ) :   0.5033 B(  2-C ,  7-C ) :   0.7086 B(  2-C ,  8-C ) :   0.1480
B(  2-C ,  9-C ) :   0.1521 B(  3-C ,  4-H ) :   0.9247 B(  3-C ,  5-H ) :   0.9396
B(  3-C ,  6-H ) :   0.9251 B(  3-C ,  7-C ) :   0.1114 B(  7-C ,  8-C ) :   1.4483
B(  7-C ,  9-C ) :  -0.2387 B(  7-C , 14-H ) :   0.8046 B(  8-C ,  9-C ) :   0.9618
B(  8-C , 13-H ) :   0.2796 B(  9-C , 10-N ) :   0.4807 B(  9-C , 13-H ) :   0.1222
B(  9-C , 16-H ) :   0.1233 B( 10-N , 11-H ) :   1.0908 B( 10-N , 12-H ) :   1.0909

Dispersion correction           -0.014240512
FINAL SINGLE POINT ENERGY      -326.673357987395

DIPOLE MOMENT
-------------

Method             : SCF
Type of density    : Electron Density
Multiplicity       :   1
Irrep              :   0
Energy             :  -326.6591174749837592 Eh
Relativity type    :
Basis              : AO
                                X                 Y                 Z
Electronic contribution:     -3.868769582      -0.000339376      -0.007570561
Nuclear contribution   :      3.276071104      -0.001396692       0.450262688
                        -----------------------------------------
Total Dipole Moment    :     -0.592698478      -0.001736067       0.442692127
                        -----------------------------------------
Magnitude (a.u.)       :      0.739777547
Magnitude (Debye)      :      1.880365090

Rotational constants in cm-1:             0.182492             0.048394             0.038562
Rotational constants in MHz :          5470.963839          1450.824170          1156.068201

                             ****ORCA TERMINATED NORMALLY****
TOTAL RUN TIME: 0 days 0 hours 4 minutes 24 seconds 728 msec
