                         Program Version 6.0.0  -   RELEASE  -
|  1> !PBE0 opt aug-cc-pVTZ d3 TightSCF SlowConv RIJCOSX defgrid2
|  2>
|  3> %pal
|  4> nprocs 8
|  5> end
|  6>
|  7> %scf
|  8> MaxIter 1500
|  9> end
| 10>
| 11> %maxcore 3500
| 12>
| 13> !CPCM
| 14> %cpcm smd true
| 15> SMDsolvent "MeCN"
| 16> surfacetype gepol_ses
| 17> rsolv 2.19
| 18> end
| 19>
| 20> * xyz 1 2
| 21> C          -0.34270275561118      0.84711240516987     -0.00000461392678
| 22> C          -1.62114214149599      0.28310666085248      0.00005036258773
| 23> C          -1.76655845984461     -1.14534797316706      0.00015902441429
| 24> C          -0.64047775510568     -1.96124661886859      0.00020951229865
| 25> C           0.62711717490611     -1.39778631503778      0.00015498102973
| 26> C           0.79382657036915      0.03758278475822      0.00002872344792
| 27> C           2.09240943022637      0.64547974379403     -0.00003830185520
| 28> C           3.29430838690790     -0.01032166453559      0.00000281703843
| 29> C           4.60760132054960      0.65947907504340     -0.00004889316533
| 30> H           5.19809781171836      0.33504540056372     -0.87962451212125
| 31> H           5.19805381830583      0.33523637975460      0.87962749612829
| 32> H           4.53047503370681      1.75742824935659     -0.00016451192059
| 33> H           3.31318609028762     -1.10737767604801      0.00008430734855
| 34> H           2.10926613216247      1.74179274962735     -0.00012792598686
| 35> H           1.50121349078302     -2.05141955010833      0.00019397364887
| 36> H          -0.75915141594404     -3.04749102718735      0.00029347430122
| 37> H          -2.76100240605802     -1.59669233225998      0.00020413991672
| 38> O          -2.63949171539410      1.10870001849501     -0.00000818654028
| 39> C          -3.98618237230029      0.65565691136091      0.00006847700849
| 40> H          -4.60288239689184      1.56371892248403      0.00002378375357
| 41> H          -4.19996760244314      0.06636471722196      0.90775693220812
| 42> H          -4.20002007511970      0.06623874429631     -0.90752475328728
| 43> H          -0.25881356371464      1.93607439443420     -0.00008040632701
| 44> *
| 45>
| 46>                          ****END OF INPUT****
 Total Charge           Charge          ....    1
 Multiplicity           Mult            ....    2
 Number of Electrons    NEL             ....   79
Dispersion correction           -0.019943482
FINAL SINGLE POINT ENERGY      -462.920523820756
Dispersion correction             ... done (  0.1 sec)
Dispersion correction           -0.020088093
FINAL SINGLE POINT ENERGY      -462.922389521982
Dispersion correction             ... done (  0.1 sec)
Dispersion correction           -0.020114915
FINAL SINGLE POINT ENERGY      -462.922478037401
Dispersion correction             ... done (  0.1 sec)
FINAL SINGLE POINT ENERGY      -462.922502706883
Dispersion correction             ... done (  0.1 sec)
Dispersion correction           -0.020118476
FINAL SINGLE POINT ENERGY      -462.922514677818
Dispersion correction             ... done (  0.0 sec)
Dispersion correction           -0.020116974
FINAL SINGLE POINT ENERGY      -462.922516705895
Dispersion correction             ... done (  0.1 sec)
                    ***********************HURRAY********************

CARTESIAN COORDINATES (ANGSTROEM)
---------------------------------
  C     -0.336707    0.869463    0.002413
  C     -1.601275    0.307817    0.001262
  C     -1.751160   -1.109035    0.000739
  C     -0.632744   -1.924778    0.003677
  C      0.627109   -1.371370    0.005433
  C      0.791378    0.054935    0.003441
  C      2.080971    0.655476    0.003042
  C      3.264210   -0.019179   -0.002536
  C      4.576494    0.635157   -0.002828
  H      5.150724    0.306793   -0.877168
  H      5.155954    0.295368    0.863633
  H      4.508181    1.721709    0.004273
  H      3.269177   -1.103940   -0.007958
  H      2.108526    1.740691    0.005659
  H      1.492447   -2.017771    0.009196
  H     -0.755512   -2.999188    0.004667
  H     -2.737793   -1.550390   -0.002972
  O     -2.630430    1.136675    0.000673
  C     -3.961389    0.615932   -0.002993
  H     -4.611910    1.485815   -0.001157
  H     -4.144036    0.018952    0.891162
  H     -4.140557    0.025228   -0.901943
  H     -0.234496    1.946974    0.001521

 Multiplicity           Mult            ....    2
 Number of Electrons    NEL             ....   79
 Basis Dimension        Dim             ....  782

ORBITAL ENERGIES
----------------
                 SPIN UP ORBITALS
  NO   OCC          E(Eh)            E(eV)
   0   1.0000     -19.283719      -524.7367
   1   1.0000     -10.336568      -281.2723
   2   1.0000     -10.291955      -280.0583
   3   1.0000     -10.286008      -279.8965
   4   1.0000     -10.284470      -279.8546
   5   1.0000     -10.281544      -279.7750
   6   1.0000     -10.279441      -279.7178
   7   1.0000     -10.267494      -279.3927
   8   1.0000     -10.260121      -279.1921
   9   1.0000     -10.252163      -278.9755
  10   1.0000     -10.230386      -278.3830
  11   1.0000      -1.144661       -31.1478
  12   1.0000      -0.932285       -25.3688
  13   1.0000      -0.871192       -23.7064
  14   1.0000      -0.821608       -22.3571
  15   1.0000      -0.814236       -22.1565
  16   1.0000      -0.750603       -20.4249
  17   1.0000      -0.734375       -19.9834
  18   1.0000      -0.662578       -18.0297
  19   1.0000      -0.654522       -17.8105
  20   1.0000      -0.599399       -16.3105
  21   1.0000      -0.575630       -15.6637
  22   1.0000      -0.541700       -14.7404
  23   1.0000      -0.531947       -14.4750
  24   1.0000      -0.513908       -13.9841
  25   1.0000      -0.511586       -13.9210
  26   1.0000      -0.478580       -13.0228
  27   1.0000      -0.463454       -12.6112
  28   1.0000      -0.450792       -12.2667
  29   1.0000      -0.440990       -11.9999
  30   1.0000      -0.433987       -11.8094
  31   1.0000      -0.428197       -11.6518
  32   1.0000      -0.414879       -11.2894
  33   1.0000      -0.399309       -10.8658
  34   1.0000      -0.385642       -10.4939
  35   1.0000      -0.384429       -10.4609
  36   1.0000      -0.366644        -9.9769
  37   1.0000      -0.347589        -9.4584
  38   1.0000      -0.279030        -7.5928
  39   1.0000      -0.275993        -7.5102
  40   0.0000      -0.082901        -2.2559
  41   0.0000      -0.033711        -0.9173
  42   0.0000      -0.000957        -0.0261
  43   0.0000       0.007502         0.2042
  44   0.0000       0.011618         0.3161

                 SPIN DOWN ORBITALS
  NO   OCC          E(Eh)            E(eV)
   0   1.0000     -19.281978      -524.6893
   1   1.0000     -10.336155      -281.2611
   2   1.0000     -10.290718      -280.0247
   3   1.0000     -10.281682      -279.7788
   4   1.0000     -10.279516      -279.7198
   5   1.0000     -10.278973      -279.7051
   6   1.0000     -10.276104      -279.6270
   7   1.0000     -10.266782      -279.3733
   8   1.0000     -10.262310      -279.2517
   9   1.0000     -10.252886      -278.9952
  10   1.0000     -10.230495      -278.3859
  11   1.0000      -1.141351       -31.0577
  12   1.0000      -0.925417       -25.1819
  13   1.0000      -0.862697       -23.4752
  14   1.0000      -0.819920       -22.3112
  15   1.0000      -0.804843       -21.9009
  16   1.0000      -0.743877       -20.2419
  17   1.0000      -0.731110       -19.8945
  18   1.0000      -0.659388       -17.9429
  19   1.0000      -0.649754       -17.6807
  20   1.0000      -0.596041       -16.2191
  21   1.0000      -0.573031       -15.5930
  22   1.0000      -0.539440       -14.6789
  23   1.0000      -0.528715       -14.3871
  24   1.0000      -0.508187       -13.8285
  25   1.0000      -0.506770       -13.7899
  26   1.0000      -0.477796       -13.0015
  27   1.0000      -0.462584       -12.5875
  28   1.0000      -0.439212       -11.9516
  29   1.0000      -0.438728       -11.9384
  30   1.0000      -0.425816       -11.5870
  31   1.0000      -0.421746       -11.4763
  32   1.0000      -0.413288       -11.2461
  33   1.0000      -0.398003       -10.8302
  34   1.0000      -0.383698       -10.4410
  35   1.0000      -0.371510       -10.1093
  36   1.0000      -0.364807        -9.9269
  37   1.0000      -0.328455        -8.9377
  38   1.0000      -0.266083        -7.2405
  39   0.0000      -0.187905        -5.1132
  40   0.0000      -0.056486        -1.5370
  41   0.0000      -0.023249        -0.6326
  42   0.0000      -0.000310        -0.0084
  43   0.0000       0.008007         0.2179

MULLIKEN ATOMIC CHARGES AND SPIN POPULATIONS
--------------------------------------------
   0 C :   -0.778090   -0.077714
   1 C :    0.677748    0.044949
   2 C :   -0.193315    0.348336
   3 C :   -0.991942   -0.123733
   4 C :   -0.523776    0.341263
   5 C :    1.374910    0.107012
   6 C :   -0.191790    0.076718
   7 C :   -0.430831    0.263323
   8 C :   -0.754933   -0.023492
   9 H :    0.257677    0.021296
  10 H :    0.259709    0.021239
  11 H :    0.298577   -0.004994
  12 H :    0.268519   -0.019200
  13 H :    0.183152   -0.000652
  14 H :    0.469435   -0.022260
  15 H :    0.666194    0.003999
  16 H :    0.445293   -0.019134
  17 O :   -0.554362    0.058932
  18 C :   -0.692176   -0.000833
  19 H :    0.266575    0.000308
  20 H :    0.311695    0.000977
  21 H :    0.309274    0.001099
  22 H :    0.322458    0.002561
Sum of atomic charges         :    1.0000000

LOEWDIN ATOMIC CHARGES AND SPIN POPULATIONS
-------------------------------------------
   0 C :    0.253681   -0.003765
   1 C :   -0.351340    0.068662
   2 C :    0.290712    0.173982
   3 C :    0.268367    0.042160
   4 C :    0.288529    0.171423
   5 C :   -0.096613    0.089372
   6 C :    0.280443    0.084562
   7 C :    0.289835    0.150438
   8 C :    0.613355    0.050063
   9 H :   -0.144551    0.011147
  10 H :   -0.144702    0.011107
  11 H :   -0.159662    0.001268
  12 H :   -0.160956    0.024714
  13 H :   -0.154386    0.007655
  14 H :   -0.166121    0.035355
  15 H :   -0.149567   -0.010590
  16 H :   -0.164176    0.038829
  17 O :    0.639460    0.050222
  18 C :    0.400343    0.005114
  19 H :   -0.165732   -0.000292
  20 H :   -0.157870    0.001371
  21 H :   -0.157724    0.001364
  22 H :   -0.151324   -0.004162

  Mayer bond orders larger than 0.100000
B(  0-C ,  1-C ) :   0.7644 B(  0-C ,  2-C ) :  -0.1251 B(  0-C ,  3-C ) :   0.1222
B(  0-C ,  4-C ) :  -0.2330 B(  0-C ,  5-C ) :   0.4290 B(  0-C ,  6-C ) :  -0.3550
B(  0-C ,  7-C ) :   0.1432 B(  0-C , 17-O ) :   0.3610 B(  0-C , 22-H ) :   0.9062
B(  1-C ,  2-C ) :   1.1023 B(  1-C ,  4-C ) :  -0.1680 B(  1-C ,  6-C ) :   0.1310
B(  1-C , 17-O ) :   0.3230 B(  1-C , 18-C ) :   0.1104 B(  2-C ,  3-C ) :   1.2291
B(  2-C ,  5-C ) :  -0.1189 B(  2-C , 16-H ) :   0.7668 B(  2-C , 17-O ) :  -0.1615
B(  2-C , 18-C ) :  -0.1198 B(  3-C ,  4-C ) :   1.1547 B(  3-C ,  5-C ) :  -0.1138
B(  3-C , 15-H ) :   0.1528 B(  4-C ,  5-C ) :   0.6940 B(  4-C , 14-H ) :   0.6973
B(  5-C ,  6-C ) :   0.2787 B(  5-C ,  7-C ) :  -0.1303 B(  5-C , 12-H ) :  -0.1640
B(  5-C , 17-O ) :   0.1365 B(  6-C ,  7-C ) :   0.9368 B(  6-C , 12-H ) :   0.1567
B(  6-C , 13-H ) :   1.1063 B(  7-C ,  8-C ) :   0.8722 B(  7-C , 12-H ) :   1.1463
B(  8-C ,  9-H ) :   0.9288 B(  8-C , 10-H ) :   0.9278 B(  8-C , 11-H ) :   0.9029
B( 17-O , 18-C ) :   0.9677 B( 18-C , 19-H ) :   0.9435 B( 18-C , 20-H ) :   0.8908
B( 18-C , 21-H ) :   0.8938

Dispersion correction           -0.020116754
FINAL SINGLE POINT ENERGY      -462.922517804955

DIPOLE MOMENT
-------------

Method             : SCF
Type of density    : Electron Density
Multiplicity       :   2
Irrep              :   0
Energy             :  -462.9024010508322817 Eh
Relativity type    :
Basis              : AO
                                X                 Y                 Z
Electronic contribution:     -4.153130199      -0.637102747       0.016690703
Nuclear contribution   :      4.729223718      -0.303735344      -0.021002978
                        -----------------------------------------
Total Dipole Moment    :      0.576093518      -0.940838091      -0.004312275
                        -----------------------------------------
Magnitude (a.u.)       :      1.103212877
Magnitude (Debye)      :      2.804144283

Rotational constants in cm-1:             0.105658             0.017278             0.014932
Rotational constants in MHz :          3167.549709           517.979720           447.664219

                             ****ORCA TERMINATED NORMALLY****
TOTAL RUN TIME: 0 days 0 hours 56 minutes 44 seconds 211 msec
