                         Program Version 6.0.0  -   RELEASE  -
|  1> !TPSSh aug-cc-pVTZ d3 TightSCF SlowConv RIJCOSX defgrid2
|  2>
|  3> %pal
|  4> nprocs 4
|  5> end
|  6>
|  7> %scf
|  8> MaxIter 1500
|  9> end
| 10>
| 11> %maxcore 3000
| 12>
| 13> !CPCM
| 14> %cpcm smd true
| 15> SMDsolvent "MeCN"
| 16> surfacetype gepol_ses
| 17> rsolv 2.19
| 18> end
| 19>
| 20> * xyz 0 1
| 21> C          -1.45296729722658     -1.28151002156026      0.14194546330159
| 22> C          -0.60306064093871     -0.04446072545809      0.33193281816932
| 23> C          -1.12567582222179      1.18572814043815      0.12630733698000
| 24> C          -2.55837598067552      1.44742458580996     -0.24068448507496
| 25> C          -3.28245282065203      0.19560476706937     -0.72004405890606
| 26> C          -2.94627665247128     -0.98032771771694      0.18458848750905
| 27> H          -3.24213594686381     -0.73932071348069      1.22299729825620
| 28> H          -3.51449794303560     -1.88061999821498     -0.10780941455212
| 29> H          -2.96673003571617     -0.04268032662380     -1.75366325316112
| 30> H          -4.37226581908345      0.36951687899438     -0.75213967938313
| 31> H          -3.09908269921816      1.87422825597419      0.63030428128422
| 32> H          -2.60322712915400      2.23069777526909     -1.02025270689355
| 33> H          -0.49994736161941      2.07353459912717      0.25424693160649
| 34> N           0.69303529191099     -0.28438264709477      0.79958397475949
| 35> C           1.57818723018607      0.82467461252518      1.08644856048943
| 36> H           1.00739506236315      1.66619965765170      1.50706427051622
| 37> C           2.37028080978361      1.23291703973064     -0.15041034302315
| 38> H           3.11077065191675      2.01322480282712      0.09126019237819
| 39> H           1.68417673001968      1.63130127074136     -0.92725467919408
| 40> O           3.09036409417407      0.13568205210303     -0.65709465576006
| 41> C           2.25560936007911     -0.95058613299193     -0.96380125980268
| 42> H           1.55178445834774     -0.67753645106666     -1.78072161009415
| 43> C           1.45943271566799     -1.39404343918770      0.25851152105089
| 44> H           2.16510802761640     -1.74198715640152      1.03622997878760
| 45> H           0.80313522562159     -2.23935561078539      0.00674701884856
| 46> H           2.90949410693522     -1.76130630349583     -1.32634069968529
| 47> H           2.29502525894536      0.49140375143543      1.86065453402124
| 48> H          -1.20950686050662     -1.76150886737077     -0.82651158365816
| 49> H          -1.19559941418460     -2.01612497824744      0.92558666123002
| 50> *
| 51>
| 52>                          ****END OF INPUT****

CARTESIAN COORDINATES (ANGSTROEM)
---------------------------------
  C     -1.452967   -1.281510    0.141945
  C     -0.603061   -0.044461    0.331933
  C     -1.125676    1.185728    0.126307
  C     -2.558376    1.447425   -0.240684
  C     -3.282453    0.195605   -0.720044
  C     -2.946277   -0.980328    0.184588
  H     -3.242136   -0.739321    1.222997
  H     -3.514498   -1.880620   -0.107809
  H     -2.966730   -0.042680   -1.753663
  H     -4.372266    0.369517   -0.752140
  H     -3.099083    1.874228    0.630304
  H     -2.603227    2.230698   -1.020253
  H     -0.499947    2.073535    0.254247
  N      0.693035   -0.284383    0.799584
  C      1.578187    0.824675    1.086449
  H      1.007395    1.666200    1.507064
  C      2.370281    1.232917   -0.150410
  H      3.110771    2.013225    0.091260
  H      1.684177    1.631301   -0.927255
  O      3.090364    0.135682   -0.657095
  C      2.255609   -0.950586   -0.963801
  H      1.551784   -0.677536   -1.780722
  C      1.459433   -1.394043    0.258512
  H      2.165108   -1.741987    1.036230
  H      0.803135   -2.239356    0.006747
  H      2.909494   -1.761306   -1.326341
  H      2.295025    0.491404    1.860655
  H     -1.209507   -1.761509   -0.826512
  H     -1.195599   -2.016125    0.925587

 Total Charge           Charge          ....    0
 Multiplicity           Mult            ....    1
 Number of Electrons    NEL             ....   92
 Basis Dimension        Dim             ....  943

ORBITAL ENERGIES
----------------

  NO   OCC          E(Eh)            E(eV)
   0   2.0000     -19.053303      -518.4667
   1   2.0000     -14.253150      -387.8479
   2   2.0000     -10.150850      -276.2187
   3   2.0000     -10.150515      -276.2096
   4   2.0000     -10.135160      -275.7917
   5   2.0000     -10.134265      -275.7674
   6   2.0000     -10.132282      -275.7134
   7   2.0000     -10.106844      -275.0212
   8   2.0000     -10.102269      -274.8967
   9   2.0000     -10.101292      -274.8701
  10   2.0000     -10.098657      -274.7984
  11   2.0000     -10.082962      -274.3714
  12   2.0000      -1.020582       -27.7714
  13   2.0000      -0.915391       -24.9090
  14   2.0000      -0.799849       -21.7650
  15   2.0000      -0.748132       -20.3577
  16   2.0000      -0.720583       -19.6080
  17   2.0000      -0.711296       -19.3554
  18   2.0000      -0.652503       -17.7555
  19   2.0000      -0.635078       -17.2813
  20   2.0000      -0.590111       -16.0577
  21   2.0000      -0.577252       -15.7078
  22   2.0000      -0.544146       -14.8070
  23   2.0000      -0.499595       -13.5947
  24   2.0000      -0.481367       -13.0987
  25   2.0000      -0.453950       -12.3526
  26   2.0000      -0.451929       -12.2976
  27   2.0000      -0.440686       -11.9917
  28   2.0000      -0.439099       -11.9485
  29   2.0000      -0.424765       -11.5584
  30   2.0000      -0.403479       -10.9792
  31   2.0000      -0.398214       -10.8360
  32   2.0000      -0.383152       -10.4261
  33   2.0000      -0.374094       -10.1796
  34   2.0000      -0.364369        -9.9150
  35   2.0000      -0.351824        -9.5736
  36   2.0000      -0.349173        -9.5015
  37   2.0000      -0.333346        -9.0708
  38   2.0000      -0.329943        -8.9782
  39   2.0000      -0.306102        -8.3295
  40   2.0000      -0.302158        -8.2221
  41   2.0000      -0.295452        -8.0396
  42   2.0000      -0.282978        -7.7002
  43   2.0000      -0.266312        -7.2467
  44   2.0000      -0.236636        -6.4392
  45   2.0000      -0.168831        -4.5941
  46   0.0000      -0.005621        -0.1530
  47   0.0000       0.005794         0.1577
  48   0.0000       0.007434         0.2023
  49   0.0000       0.009906         0.2695
  50   0.0000       0.020716         0.5637

MULLIKEN ATOMIC CHARGES
-----------------------
   0 C :    0.151865
   1 C :    1.345050
   2 C :   -0.735719
   3 C :    0.107859
   4 C :    0.039173
   5 C :   -0.197625
   6 H :    0.031233
   7 H :   -0.073292
   8 H :    0.057223
   9 H :   -0.062619
  10 H :    0.085371
  11 H :    0.039376
  12 H :   -0.327747
  13 N :   -0.190620
  14 C :   -0.281928
  15 H :   -0.050265
  16 C :    0.322870
  17 H :    0.023264
  18 H :    0.153185
  19 O :   -0.748708
  20 C :    0.280147
  21 H :    0.145540
  22 C :   -0.199934
  23 H :    0.049572
  24 H :   -0.054494
  25 H :   -0.016052
  26 H :   -0.047605
  27 H :    0.126498
  28 H :    0.028383
Sum of atomic charges:   -0.0000000

LOEWDIN ATOMIC CHARGES
----------------------
   0 C :    0.267467
   1 C :   -0.193333
   2 C :    0.241861
   3 C :    0.241933
   4 C :    0.263582
   5 C :    0.275393
   6 H :   -0.126830
   7 H :   -0.128339
   8 H :   -0.130085
   9 H :   -0.131813
  10 H :   -0.138821
  11 H :   -0.143513
  12 H :   -0.201767
  13 N :    0.278237
  14 C :    0.171492
  15 H :   -0.152515
  16 C :    0.032380
  17 H :   -0.142078
  18 H :   -0.143125
  19 O :    0.595912
  20 C :    0.032268
  21 H :   -0.133750
  22 C :    0.179026
  23 H :   -0.123571
  24 H :   -0.159220
  25 H :   -0.142785
  26 H :   -0.126762
  27 H :   -0.126341
  28 H :   -0.134902

  Mayer bond orders larger than 0.100000
B(  0-C ,  1-C ) :   0.8386 B(  0-C ,  2-C ) :  -0.1176 B(  0-C ,  5-C ) :   1.0592
B(  0-C , 27-H ) :   0.9262 B(  0-C , 28-H ) :   0.9241 B(  1-C ,  2-C ) :   0.3004
B(  1-C ,  3-C ) :  -0.1302 B(  1-C , 12-H ) :  -0.2350 B(  1-C , 13-N ) :   0.1285
B(  2-C ,  3-C ) :   0.8498 B(  2-C ,  4-C ) :   0.1142 B(  2-C , 12-H ) :   1.6144
B(  2-C , 13-N ) :  -0.2096 B(  3-C ,  4-C ) :   1.0797 B(  3-C , 10-H ) :   0.9358
B(  3-C , 11-H ) :   0.9254 B(  3-C , 12-H ) :  -0.1045 B(  4-C ,  5-C ) :   1.0779
B(  4-C ,  8-H ) :   0.9516 B(  4-C ,  9-H ) :   0.9835 B(  5-C ,  6-H ) :   0.9932
B(  5-C ,  7-H ) :   0.9562 B( 13-N , 14-C ) :   1.1360 B( 13-N , 22-C ) :   0.9934
B( 14-C , 15-H ) :   1.0190 B( 14-C , 16-C ) :   0.9846 B( 14-C , 19-O ) :   0.1157
B( 14-C , 22-C ) :   0.2300 B( 14-C , 26-H ) :   0.9674 B( 16-C , 17-H ) :   1.0309
B( 16-C , 18-H ) :   0.9285 B( 16-C , 19-O ) :   0.7131 B( 16-C , 20-C ) :   0.1186
B( 19-O , 20-C ) :   0.7545 B( 19-O , 22-C ) :   0.1036 B( 20-C , 21-H ) :   0.9222
B( 20-C , 22-C ) :   1.0627 B( 20-C , 25-H ) :   1.0336 B( 22-C , 23-H ) :   0.9621
B( 22-C , 24-H ) :   0.9602

Dispersion correction           -0.036885166
FINAL SINGLE POINT ENERGY      -521.510520958372

DIPOLE MOMENT
-------------

Method             : SCF
Type of density    : Electron Density
Multiplicity       :   1
Irrep              :   0
Energy             :  -521.4736357923364949 Eh
Relativity type    :
Basis              : AO
                                X                 Y                 Z
Electronic contribution:      6.433360570       0.173718782       0.923792179
Nuclear contribution   :     -6.702563356      -0.526145010      -0.941660721
                        -----------------------------------------
Total Dipole Moment    :     -0.269202786      -0.352426228      -0.017868542
                        -----------------------------------------
Magnitude (a.u.)       :      0.443839690
Magnitude (Debye)      :      1.128150838

Rotational constants in cm-1:             0.066375             0.019173             0.017047
Rotational constants in MHz :          1989.867281           574.782651           511.066485

                             ****ORCA TERMINATED NORMALLY****
TOTAL RUN TIME: 0 days 0 hours 11 minutes 34 seconds 64 msec
