                         Program Version 6.0.0  -   RELEASE  -
|  1> !TPSSh opt aug-cc-pVTZ d3 TightSCF SlowConv RIJCOSX defgrid2
|  2>
|  3> %pal
|  4> nprocs 8
|  5> end
|  6>
|  7> %scf
|  8> MaxIter 1500
|  9> end
| 10>
| 11> %maxcore 3500
| 12>
| 13> !CPCM
| 14> %cpcm smd true
| 15> SMDsolvent "MeCN"
| 16> surfacetype gepol_ses
| 17> rsolv 2.19
| 18> end
| 19>
| 20> * xyz -1 2
| 21> C          -1.22535307927293     -0.03882807002799     -0.00002255469277
| 22> C          -1.22206264378164      1.41582015720061     -0.00002423880206
| 23> C           0.00004637420421      2.08121905033007     -0.00000415463824
| 24> C           1.22212161683371      1.41575862792076      0.00002170232485
| 25> C           1.22534433396412     -0.03888819251674      0.00002507087618
| 26> C          -0.00002135567409     -0.71608207495025      0.00000157424078
| 27> H          -0.00004774645346     -1.81053735349218      0.00000261550832
| 28> C           2.43402384370652     -0.77080587803239      0.00007579493229
| 29> N           3.44413671726320     -1.36247120639636      0.00011250089172
| 30> H           2.16848850432676      1.96074544120089      0.00003301965359
| 31> H           0.00007494156619      3.17901522614598     -0.00000842096167
| 32> H          -2.16840192148197      1.96085605610510     -0.00003754989011
| 33> C          -2.43406244869294     -0.77069683887805     -0.00005052688718
| 34> N          -3.44419623650770     -1.36232524460946     -0.00007393255569
| 35> *
| 36>
| 37>                          ****END OF INPUT****
 Total Charge           Charge          ....   -1
 Multiplicity           Mult            ....    2
 Number of Electrons    NEL             ....   67
Dispersion correction           -0.018903713
FINAL SINGLE POINT ENERGY      -417.023008968862
Dispersion correction             ... done (  0.1 sec)
Dispersion correction           -0.018967689
FINAL SINGLE POINT ENERGY      -417.023592068015
Dispersion correction             ... done (  0.1 sec)
Dispersion correction           -0.018982146
FINAL SINGLE POINT ENERGY      -417.023622883535
Dispersion correction             ... done (  0.1 sec)
Dispersion correction           -0.018984165
FINAL SINGLE POINT ENERGY      -417.023627555042
Dispersion correction             ... done (  0.1 sec)
                    ***********************HURRAY********************

CARTESIAN COORDINATES (ANGSTROEM)
---------------------------------
  C     -1.215930   -0.038369    0.000004
  C     -1.219026    1.414198   -0.000199
  C      0.000045    2.080184    0.000003
  C      1.219090    1.414147    0.000189
  C      1.215926   -0.038422    0.000011
  C     -0.000018   -0.726014    0.000022
  H     -0.000042   -1.809175    0.000038
  C      2.417076   -0.764541   -0.000160
  N      3.430205   -1.348679   -0.000310
  H      2.156369    1.953403    0.000824
  H      0.000065    3.165495    0.000011
  H     -2.156281    1.953491   -0.000858
  C     -2.417114   -0.764428    0.000168
  N     -3.430275   -1.348511    0.000306

 Multiplicity           Mult            ....    2
 Number of Electrons    NEL             ....   67
 Basis Dimension        Dim             ....  552

ORBITAL ENERGIES
----------------
                 SPIN UP ORBITALS
  NO   OCC          E(Eh)            E(eV)
   0   1.0000     -14.229174      -387.1955
   1   1.0000     -14.229173      -387.1955
   2   1.0000     -10.136937      -275.8401
   3   1.0000     -10.136932      -275.8400
   4   1.0000     -10.127745      -275.5899
   5   1.0000     -10.125632      -275.5325
   6   1.0000     -10.125582      -275.5311
   7   1.0000     -10.104945      -274.9695
   8   1.0000     -10.098796      -274.8022
   9   1.0000     -10.098777      -274.8017
  10   1.0000      -0.872146       -23.7323
  11   1.0000      -0.868462       -23.6320
  12   1.0000      -0.825646       -22.4670
  13   1.0000      -0.741421       -20.1751
  14   1.0000      -0.732322       -19.9275
  15   1.0000      -0.618645       -16.8342
  16   1.0000      -0.605213       -16.4687
  17   1.0000      -0.540330       -14.7031
  18   1.0000      -0.465376       -12.6635
  19   1.0000      -0.450109       -12.2481
  20   1.0000      -0.428346       -11.6559
  21   1.0000      -0.404051       -10.9948
  22   1.0000      -0.381838       -10.3903
  23   1.0000      -0.353493        -9.6190
  24   1.0000      -0.350591        -9.5401
  25   1.0000      -0.348491        -9.4829
  26   1.0000      -0.335935        -9.1413
  27   1.0000      -0.334875        -9.1124
  28   1.0000      -0.310556        -8.4507
  29   1.0000      -0.304048        -8.2736
  30   1.0000      -0.300550        -8.1784
  31   1.0000      -0.247628        -6.7383
  32   1.0000      -0.238877        -6.5002
  33   1.0000      -0.095878        -2.6090
  34   0.0000      -0.042467        -1.1556
  35   0.0000      -0.003739        -0.1017
  36   0.0000       0.012362         0.3364
  37   0.0000       0.012801         0.3483
  38   0.0000       0.017082         0.4648

                 SPIN DOWN ORBITALS
  NO   OCC          E(Eh)            E(eV)
   0   1.0000     -14.227162      -387.1408
   1   1.0000     -14.227160      -387.1407
   2   1.0000     -10.136769      -275.8355
   3   1.0000     -10.136765      -275.8354
   4   1.0000     -10.128446      -275.6090
   5   1.0000     -10.123970      -275.4872
   6   1.0000     -10.123950      -275.4867
   7   1.0000     -10.106996      -275.0254
   8   1.0000     -10.092816      -274.6395
   9   1.0000     -10.092812      -274.6394
  10   1.0000      -0.869113       -23.6498
  11   1.0000      -0.865622       -23.5548
  12   1.0000      -0.821348       -22.3500
  13   1.0000      -0.734102       -19.9759
  14   1.0000      -0.728463       -19.8225
  15   1.0000      -0.606734       -16.5101
  16   1.0000      -0.603452       -16.4208
  17   1.0000      -0.539347       -14.6764
  18   1.0000      -0.461050       -12.5458
  19   1.0000      -0.448110       -12.1937
  20   1.0000      -0.425877       -11.5887
  21   1.0000      -0.403525       -10.9805
  22   1.0000      -0.370042       -10.0694
  23   1.0000      -0.350831        -9.5466
  24   1.0000      -0.348033        -9.4705
  25   1.0000      -0.338054        -9.1989
  26   1.0000      -0.334285        -9.0964
  27   1.0000      -0.332671        -9.0524
  28   1.0000      -0.302715        -8.2373
  29   1.0000      -0.299320        -8.1449
  30   1.0000      -0.298182        -8.1140
  31   1.0000      -0.238544        -6.4911
  32   1.0000      -0.213428        -5.8077
  33   0.0000      -0.043211        -1.1758
  34   0.0000      -0.037652        -1.0246
  35   0.0000      -0.001751        -0.0477
  36   0.0000       0.014078         0.3831
  37   0.0000       0.014680         0.3995

MULLIKEN ATOMIC CHARGES AND SPIN POPULATIONS
--------------------------------------------
   0 C :    1.035840    0.066718
   1 C :   -0.721459    0.446588
   2 C :   -0.376541   -0.135444
   3 C :   -0.721975    0.446605
   4 C :    1.034818    0.066729
   5 C :   -0.847293   -0.028408
   6 H :   -0.224103    0.003445
   7 C :    0.802722   -0.004532
   8 N :   -1.092950    0.093852
   9 H :   -0.026418   -0.011899
  10 H :    0.453423   -0.021063
  11 H :   -0.026411   -0.011910
  12 C :    0.803546   -0.004533
  13 N :   -1.093200    0.093851
Sum of atomic charges         :   -1.0000000

LOEWDIN ATOMIC CHARGES AND SPIN POPULATIONS
-------------------------------------------
   0 C :   -0.257338    0.101083
   1 C :    0.163078    0.197017
   2 C :    0.132334    0.058015
   3 C :    0.163080    0.197019
   4 C :   -0.257336    0.101083
   5 C :    0.148199    0.015614
   6 H :   -0.173244   -0.000703
   7 C :   -0.327116    0.047527
   8 N :    0.171362    0.075053
   9 H :   -0.208217    0.045993
  10 H :   -0.190833   -0.006271
  11 H :   -0.208220    0.045993
  12 C :   -0.327114    0.047526
  13 N :    0.171365    0.075052

  Mayer bond orders larger than 0.100000
B(  0-C ,  1-C ) :   0.2101 B(  0-C ,  4-C ) :   0.2093 B(  0-C ,  5-C ) :   0.6397
B(  0-C ,  6-H ) :  -0.1179 B(  0-C , 11-H ) :  -0.1452 B(  0-C , 12-C ) :   0.8860
B(  0-C , 13-N ) :   0.2895 B(  1-C ,  2-C ) :   1.3406 B(  1-C ,  5-C ) :  -0.1060
B(  1-C , 11-H ) :   1.2304 B(  1-C , 12-C ) :   0.2846 B(  2-C ,  3-C ) :   1.3407
B(  2-C , 10-H ) :   0.6289 B(  3-C ,  4-C ) :   0.2113 B(  3-C ,  5-C ) :  -0.1053
B(  3-C ,  7-C ) :   0.2842 B(  3-C ,  9-H ) :   1.2299 B(  4-C ,  5-C ) :   0.6413
B(  4-C ,  6-H ) :  -0.1177 B(  4-C ,  7-C ) :   0.8866 B(  4-C ,  8-N ) :   0.2886
B(  4-C ,  9-H ) :  -0.1451 B(  5-C ,  6-H ) :   1.4219 B(  5-C ,  8-N ) :   0.1088
B(  5-C ,  9-H ) :   0.1026 B(  5-C , 11-H ) :   0.1029 B(  5-C , 13-N ) :   0.1091
B(  7-C ,  8-N ) :   0.9039 B(  7-C , 12-C ) :   0.2303 B( 12-C , 13-N ) :   0.9021

Dispersion correction           -0.018983759
FINAL SINGLE POINT ENERGY      -417.023629620756

DIPOLE MOMENT
-------------

Method             : SCF
Type of density    : Electron Density
Multiplicity       :   2
Irrep              :   0
Energy             :  -417.0046458621906709 Eh
Relativity type    :
Basis              : AO
                                X                 Y                 Z
Electronic contribution:     -0.000083079      -3.132633318       0.000006492
Nuclear contribution   :      0.000112706       4.967759033       0.000000773
                        -----------------------------------------
Total Dipole Moment    :      0.000029627       1.835125715       0.000007265
                        -----------------------------------------
Magnitude (a.u.)       :      1.835125715
Magnitude (Debye)      :      4.664518872

Rotational constants in cm-1:             0.087597             0.030619             0.022688
Rotational constants in MHz :          2626.105928           917.933798           680.181827

                             ****ORCA TERMINATED NORMALLY****
TOTAL RUN TIME: 0 days 0 hours 19 minutes 45 seconds 332 msec
