                         Program Version 6.0.0  -   RELEASE  -
|  1> !r2SCANh aug-cc-pVTZ d3 TightSCF SlowConv RIJCOSX defgrid2
|  2>
|  3> %pal
|  4> nprocs 15
|  5> end
|  6>
|  7> %scf
|  8> MaxIter 1500
|  9> end
| 10>
| 11> %maxcore 3500
| 12>
| 13> !CPCM
| 14> %cpcm smd true
| 15> SMDsolvent "WATER"
| 16> surfacetype gepol_ses
| 17> rsolv 1.40
| 18> end
| 19>
| 20> * xyz -1 2
| 21> C          -0.71119473453608     -1.27753769603753     -1.66469193495667
| 22> C          -0.84757971737407     -1.37051300939389      2.56012596471587
| 23> C           0.17600407523538     -0.66718968097552      3.30203602345821
| 24> C           0.07441786205000     -0.73736210099662      4.72686229958031
| 25> C          -0.95819946382070     -1.44732964560191      5.30922921995402
| 26> C          -1.89246898961745     -2.08918221632698      4.48282869513414
| 27> N          -1.82946922247699     -2.04538372747969      3.14996632780079
| 28> H           0.82375813463839     -0.22230666320522      5.33950916179957
| 29> H          -1.05139748109670     -1.51180696271490      6.40034489381934
| 30> H          -2.72424323526883     -2.66100937066717      4.91891129019417
| 31> C          -0.79539610804297     -1.33457211558685      1.08568997656786
| 32> C           0.27704054129144     -0.59784286447255      0.45308262509050
| 33> C           0.27660122861131     -0.59863568883798     -0.97709504218512
| 34> C          -1.70061257174833     -1.95699542487128     -0.93863375126110
| 35> N          -1.73203419494814     -1.97823597597462      0.39590607204878
| 36> H           1.06664268699891     -0.05607062090082     -1.50961690897062
| 37> H          -0.72694279099019     -1.28881726054281     -2.76150198645861
| 38> H          -2.49859691297974     -2.50535045021093     -1.45973231485977
| 39> C           1.19223786884036      0.03130278829810      2.63097992514689
| 40> C           1.24199802211239      0.06547304417526      1.22748014190895
| 41> H           1.95294993788081      0.55389136062698      3.22288120162125
| 42> H           2.04173228124121      0.61487911869694      0.71689035185124
| 43> *
| 44>
| 45>                          ****END OF INPUT****

CARTESIAN COORDINATES (ANGSTROEM)
---------------------------------
  C     -0.711195   -1.277538   -1.664692
  C     -0.847580   -1.370513    2.560126
  C      0.176004   -0.667190    3.302036
  C      0.074418   -0.737362    4.726862
  C     -0.958199   -1.447330    5.309229
  C     -1.892469   -2.089182    4.482829
  N     -1.829469   -2.045384    3.149966
  H      0.823758   -0.222307    5.339509
  H     -1.051397   -1.511807    6.400345
  H     -2.724243   -2.661009    4.918911
  C     -0.795396   -1.334572    1.085690
  C      0.277041   -0.597843    0.453083
  C      0.276601   -0.598636   -0.977095
  C     -1.700613   -1.956995   -0.938634
  N     -1.732034   -1.978236    0.395906
  H      1.066643   -0.056071   -1.509617
  H     -0.726943   -1.288817   -2.761502
  H     -2.498597   -2.505350   -1.459732
  C      1.192238    0.031303    2.630980
  C      1.241998    0.065473    1.227480
  H      1.952950    0.553891    3.222881
  H      2.041732    0.614879    0.716890

 Total Charge           Charge          ....   -1
 Multiplicity           Mult            ....    2
 Number of Electrons    NEL             ....   95
 Basis Dimension        Dim             ....  828

ORBITAL ENERGIES
----------------
                 SPIN UP ORBITALS
  NO   OCC          E(Eh)            E(eV)
   0   1.0000     -14.280034      -388.5795
   1   1.0000     -14.280014      -388.5789
   2   1.0000     -10.178573      -276.9730
   3   1.0000     -10.178291      -276.9654
   4   1.0000     -10.164206      -276.5821
   5   1.0000     -10.164186      -276.5816
   6   1.0000     -10.154137      -276.3081
   7   1.0000     -10.154109      -276.3073
   8   1.0000     -10.149646      -276.1859
   9   1.0000     -10.149583      -276.1842
  10   1.0000     -10.148610      -276.1577
  11   1.0000     -10.148564      -276.1565
  12   1.0000     -10.131627      -275.6956
  13   1.0000     -10.131143      -275.6824
  14   1.0000      -0.939023       -25.5521
  15   1.0000      -0.915261       -24.9055
  16   1.0000      -0.821023       -22.3412
  17   1.0000      -0.784139       -21.3375
  18   1.0000      -0.779382       -21.2081
  19   1.0000      -0.727758       -19.8033
  20   1.0000      -0.712893       -19.3988
  21   1.0000      -0.627988       -17.0884
  22   1.0000      -0.626129       -17.0378
  23   1.0000      -0.600898       -16.3513
  24   1.0000      -0.570995       -15.5376
  25   1.0000      -0.526884       -14.3372
  26   1.0000      -0.501866       -13.6565
  27   1.0000      -0.480672       -13.0797
  28   1.0000      -0.452866       -12.3231
  29   1.0000      -0.452242       -12.3061
  30   1.0000      -0.434335       -11.8189
  31   1.0000      -0.408635       -11.1195
  32   1.0000      -0.401361       -10.9216
  33   1.0000      -0.382170       -10.3994
  34   1.0000      -0.373704       -10.1690
  35   1.0000      -0.372865       -10.1462
  36   1.0000      -0.371359       -10.1052
  37   1.0000      -0.363723        -9.8974
  38   1.0000      -0.337245        -9.1769
  39   1.0000      -0.321537        -8.7495
  40   1.0000      -0.316010        -8.5991
  41   1.0000      -0.286083        -7.7847
  42   1.0000      -0.279874        -7.6158
  43   1.0000      -0.236631        -6.4391
  44   1.0000      -0.232280        -6.3206
  45   1.0000      -0.222671        -6.0592
  46   1.0000      -0.211590        -5.7577
  47   1.0000      -0.091113        -2.4793
  48   0.0000      -0.055828        -1.5192
  49   0.0000      -0.015919        -0.4332
  50   0.0000       0.007815         0.2127
  51   0.0000       0.012874         0.3503
  52   0.0000       0.018946         0.5155

                 SPIN DOWN ORBITALS
  NO   OCC          E(Eh)            E(eV)
   0   1.0000     -14.280268      -388.5858
   1   1.0000     -14.280249      -388.5853
   2   1.0000     -10.177813      -276.9524
   3   1.0000     -10.177529      -276.9446
   4   1.0000     -10.160272      -276.4751
   5   1.0000     -10.160246      -276.4744
   6   1.0000     -10.154356      -276.3141
   7   1.0000     -10.154331      -276.3134
   8   1.0000     -10.150423      -276.2070
   9   1.0000     -10.150379      -276.2058
  10   1.0000     -10.145848      -276.0826
  11   1.0000     -10.145787      -276.0809
  12   1.0000     -10.128438      -275.6088
  13   1.0000     -10.127944      -275.5954
  14   1.0000      -0.936968       -25.4962
  15   1.0000      -0.913075       -24.8460
  16   1.0000      -0.816253       -22.2114
  17   1.0000      -0.780271       -21.2322
  18   1.0000      -0.775987       -21.1157
  19   1.0000      -0.724841       -19.7239
  20   1.0000      -0.706671       -19.2295
  21   1.0000      -0.625810       -17.0292
  22   1.0000      -0.617297       -16.7975
  23   1.0000      -0.598516       -16.2864
  24   1.0000      -0.567945       -15.4546
  25   1.0000      -0.523101       -14.2343
  26   1.0000      -0.499905       -13.6031
  27   1.0000      -0.479203       -13.0398
  28   1.0000      -0.450874       -12.2689
  29   1.0000      -0.450441       -12.2571
  30   1.0000      -0.433141       -11.7864
  31   1.0000      -0.401613       -10.9284
  32   1.0000      -0.400787       -10.9060
  33   1.0000      -0.380767       -10.3612
  34   1.0000      -0.372338       -10.1318
  35   1.0000      -0.371229       -10.1017
  36   1.0000      -0.362223        -9.8566
  37   1.0000      -0.362187        -9.8556
  38   1.0000      -0.335626        -9.1328
  39   1.0000      -0.314623        -8.5613
  40   1.0000      -0.305835        -8.3222
  41   1.0000      -0.277516        -7.5516
  42   1.0000      -0.266623        -7.2552
  43   1.0000      -0.236487        -6.4351
  44   1.0000      -0.226572        -6.1653
  45   1.0000      -0.222749        -6.0613
  46   1.0000      -0.190384        -5.1806
  47   0.0000      -0.050177        -1.3654
  48   0.0000      -0.043006        -1.1703
  49   0.0000      -0.002955        -0.0804
  50   0.0000       0.009262         0.2520
  51   0.0000       0.020742         0.5644

MULLIKEN ATOMIC CHARGES AND SPIN POPULATIONS
--------------------------------------------
   0 C :   -0.210297   -0.163439
   1 C :    1.061927    0.058094
   2 C :    2.054522   -0.054281
   3 C :   -1.317696    0.261598
   4 C :   -0.206759   -0.163564
   5 C :   -1.034993    0.284767
   6 N :   -0.845652   -0.033521
   7 H :    0.299595    0.007381
   8 H :    0.278668   -0.012617
   9 H :    0.586037    0.007857
  10 C :    1.055922    0.058882
  11 C :    2.049935   -0.054600
  12 C :   -1.303461    0.261413
  13 C :   -1.023237    0.284271
  14 N :   -0.842328   -0.033792
  15 H :    0.305920    0.007259
  16 H :    0.265867   -0.012563
  17 H :    0.584039    0.007784
  18 C :   -1.406606    0.157564
  19 C :   -1.409099    0.158876
  20 H :    0.026040   -0.013615
  21 H :    0.031656   -0.013752
Sum of atomic charges         :   -1.0000000

LOEWDIN ATOMIC CHARGES AND SPIN POPULATIONS
-------------------------------------------
   0 C :    0.150879    0.019245
   1 C :   -0.316367    0.018343
   2 C :   -0.172420    0.051467
   3 C :    0.179059    0.097521
   4 C :    0.150838    0.019345
   5 C :   -0.047338    0.108211
   6 N :    0.316040    0.025125
   7 H :   -0.175836    0.021064
   8 H :   -0.180851   -0.007102
   9 H :   -0.210782    0.026974
  10 C :   -0.316292    0.018390
  11 C :   -0.172105    0.051428
  12 C :    0.179487    0.097384
  13 C :   -0.047240    0.107965
  14 N :    0.316179    0.024900
  15 H :   -0.175603    0.021039
  16 H :   -0.180881   -0.007108
  17 H :   -0.210771    0.026925
  18 C :    0.150790    0.119760
  19 C :    0.150990    0.120021
  20 H :   -0.193980    0.019510
  21 H :   -0.193795    0.019595

  Mayer bond orders larger than 0.100000
B(  0-C , 11-C ) :  -0.1655 B(  0-C , 12-C ) :   1.2089 B(  0-C , 13-C ) :   0.5194
B(  0-C , 14-N ) :  -0.2261 B(  0-C , 16-H ) :   0.9876 B(  1-C ,  2-C ) :   0.6651
B(  1-C ,  3-C ) :   0.6753 B(  1-C ,  5-C ) :  -0.2551 B(  1-C ,  6-N ) :  -0.7073
B(  1-C ,  9-H ) :   0.2304 B(  1-C , 10-C ) :   0.4749 B(  1-C , 11-C ) :   0.3819
B(  1-C , 12-C ) :  -0.1076 B(  1-C , 13-C ) :   0.1027 B(  1-C , 14-N ) :   0.2403
B(  1-C , 18-C ) :  -0.4256 B(  2-C ,  3-C ) :  -0.6327 B(  2-C ,  4-C ) :  -0.1678
B(  2-C ,  5-C ) :  -0.6265 B(  2-C ,  9-H ) :   0.1249 B(  2-C , 10-C ) :   0.3907
B(  2-C , 11-C ) :  -0.3125 B(  2-C , 13-C ) :  -0.1411 B(  2-C , 18-C ) :  -0.4918
B(  2-C , 20-H ) :  -0.2453 B(  3-C ,  4-C ) :   1.2329 B(  3-C ,  5-C ) :   0.5665
B(  3-C ,  7-H ) :   0.9230 B(  3-C ,  9-H ) :  -0.1158 B(  3-C , 10-C ) :  -0.1081
B(  3-C , 18-C ) :   0.5134 B(  4-C ,  5-C ) :   0.5201 B(  4-C ,  6-N ) :  -0.2287
B(  4-C ,  8-H ) :   0.9666 B(  5-C ,  6-N ) :   1.8819 B(  5-C ,  7-H ) :  -0.1220
B(  5-C ,  9-H ) :   0.2788 B(  5-C , 10-C ) :   0.1049 B(  5-C , 11-C ) :  -0.1418
B(  5-C , 19-C ) :   0.1705 B(  6-N , 10-C ) :   0.2316 B(  6-N , 14-N ) :  -0.2865
B( 10-C , 11-C ) :   0.6729 B( 10-C , 12-C ) :   0.6793 B( 10-C , 13-C ) :  -0.2563
B( 10-C , 14-N ) :  -0.7086 B( 10-C , 17-H ) :   0.2313 B( 10-C , 19-C ) :  -0.4215
B( 11-C , 12-C ) :  -0.6107 B( 11-C , 13-C ) :  -0.6222 B( 11-C , 17-H ) :   0.1258
B( 11-C , 19-C ) :  -0.4977 B( 11-C , 21-H ) :  -0.2455 B( 12-C , 13-C ) :   0.5655
B( 12-C , 15-H ) :   0.9085 B( 12-C , 17-H ) :  -0.1175 B( 12-C , 19-C ) :   0.5144
B( 13-C , 14-N ) :   1.8683 B( 13-C , 15-H ) :  -0.1240 B( 13-C , 17-H ) :   0.2845
B( 13-C , 18-C ) :   0.1701 B( 14-N , 17-H ) :  -0.1012 B( 18-C , 19-C ) :   0.9961
B( 18-C , 20-H ) :   1.5839 B( 19-C , 21-H ) :   1.5777

Dispersion correction           -0.009384970
FINAL SINGLE POINT ENERGY      -571.561748121558

DIPOLE MOMENT
-------------

Method             : SCF
Type of density    : Electron Density
Multiplicity       :   2
Irrep              :   0
Energy             :  -571.5523631515906118 Eh
Relativity type    :
Basis              : AO
                                X                 Y                 Z
Electronic contribution:     -1.628830197      -1.117923877      -0.091647425
Nuclear contribution   :      2.898055306       1.988769949       0.150906317
                        -----------------------------------------
Total Dipole Moment    :      1.269225109       0.870846073       0.059258892
                        -----------------------------------------
Magnitude (a.u.)       :      1.540395039
Magnitude (Debye)      :      3.915373030

Rotational constants in cm-1:             0.053930             0.019113             0.014112
Rotational constants in MHz :          1616.774375           573.004447           423.065068

                             ****ORCA TERMINATED NORMALLY****
TOTAL RUN TIME: 0 days 0 hours 7 minutes 20 seconds 712 msec
