                         Program Version 6.0.0  -   RELEASE  -
|  1> !PBE0 aug-cc-pVTZ d3 TightSCF SlowConv RIJCOSX defgrid2
|  2>
|  3> %pal
|  4> nprocs 4
|  5> end
|  6>
|  7> %scf
|  8> MaxIter 1500
|  9> end
| 10>
| 11> %maxcore 3000
| 12>
| 13> !CPCM
| 14> %cpcm smd true
| 15> SMDsolvent "MeCN"
| 16> surfacetype gepol_ses
| 17> rsolv 2.19
| 18> end
| 19>
| 20> * xyz 0 1
| 21> C           2.55730705781469     -0.80272836948539      0.48102366137177
| 22> N           1.33294167009809     -1.43182229011705      0.05765766630002
| 23> C           0.34101911025700     -0.70024719108755     -0.29708224356517
| 24> N           0.31874552010949      0.68032432716300     -0.31461541058671
| 25> C          -0.89176882402801      1.43497112867922     -0.56114377570643
| 26> C          -1.99046257064471      1.26916813990179      0.49140268799889
| 27> C          -2.82765905468197      0.00715294881938      0.31516347050989
| 28> C          -2.04586918259982     -1.30153194326604      0.35164544445367
| 29> C          -0.92828974970724     -1.41500601198787     -0.69150138780777
| 30> H          -1.29203198403960     -1.06672742425397     -1.67656916039338
| 31> H          -0.63133731154972     -2.46745300434559     -0.80196281377539
| 32> H          -1.60570603630129     -1.45752170010282      1.35429556519630
| 33> H          -2.75596289666527     -2.13329897794767      0.19602041294681
| 34> H          -3.61539692476010     -0.01845840431235      1.08977014149609
| 35> H          -3.35605019663435      0.07487469231763     -0.65651142659301
| 36> H          -1.52340584005630      1.28855731350301      1.49408745577621
| 37> H          -2.66130549588890      2.14642124767486      0.44000200996492
| 38> H          -1.30052595544982      1.19153726692681     -1.56065100823810
| 39> H          -0.59215925219953      2.49412223128000     -0.60923298902630
| 40> C           1.46914234333312      1.40286101249685      0.18937626674719
| 41> C           2.73710761812345      0.60793735504758     -0.06280329082443
| 42> H           3.60249952280460      1.11378780244457      0.39882866501775
| 43> H           2.92030114355612      0.56196935074214     -1.15150232607945
| 44> H           1.52000693344937      2.38033435200841     -0.32184635939607
| 45> H           1.36269728052713      1.61326327329284      1.27517926988309
| 46> H           2.58886170713689     -0.78409197751190      1.58995809372292
| 47> H           3.40579976799671     -1.44067914787991      0.17257018060666
| 48> *
| 49>
| 50>                          ****END OF INPUT****

CARTESIAN COORDINATES (ANGSTROEM)
---------------------------------
  C      2.557307   -0.802728    0.481024
  N      1.332942   -1.431822    0.057658
  C      0.341019   -0.700247   -0.297082
  N      0.318746    0.680324   -0.314615
  C     -0.891769    1.434971   -0.561144
  C     -1.990463    1.269168    0.491403
  C     -2.827659    0.007153    0.315163
  C     -2.045869   -1.301532    0.351645
  C     -0.928290   -1.415006   -0.691501
  H     -1.292032   -1.066727   -1.676569
  H     -0.631337   -2.467453   -0.801963
  H     -1.605706   -1.457522    1.354296
  H     -2.755963   -2.133299    0.196020
  H     -3.615397   -0.018458    1.089770
  H     -3.356050    0.074875   -0.656511
  H     -1.523406    1.288557    1.494087
  H     -2.661305    2.146421    0.440002
  H     -1.300526    1.191537   -1.560651
  H     -0.592159    2.494122   -0.609233
  C      1.469142    1.402861    0.189376
  C      2.737108    0.607937   -0.062803
  H      3.602500    1.113788    0.398829
  H      2.920301    0.561969   -1.151502
  H      1.520007    2.380334   -0.321846
  H      1.362697    1.613263    1.275179
  H      2.588862   -0.784092    1.589958
  H      3.405800   -1.440679    0.172570

 Total Charge           Charge          ....    0
 Multiplicity           Mult            ....    1
 Number of Electrons    NEL             ....   84
 Basis Dimension        Dim             ....  874

ORBITAL ENERGIES
----------------

  NO   OCC          E(Eh)            E(eV)
   0   2.0000     -14.401021      -391.8717
   1   2.0000     -14.342882      -390.2897
   2   2.0000     -10.282923      -279.8125
   3   2.0000     -10.248324      -278.8711
   4   2.0000     -10.247989      -278.8620
   5   2.0000     -10.233398      -278.4649
   6   2.0000     -10.217834      -278.0414
   7   2.0000     -10.216892      -278.0158
   8   2.0000     -10.214345      -277.9465
   9   2.0000     -10.214290      -277.9450
  10   2.0000     -10.213176      -277.9146
  11   2.0000      -0.995280       -27.0829
  12   2.0000      -0.904799       -24.6208
  13   2.0000      -0.833165       -22.6716
  14   2.0000      -0.795617       -21.6498
  15   2.0000      -0.771062       -20.9817
  16   2.0000      -0.702279       -19.1100
  17   2.0000      -0.679739       -18.4967
  18   2.0000      -0.663671       -18.0594
  19   2.0000      -0.604307       -16.4440
  20   2.0000      -0.579524       -15.7697
  21   2.0000      -0.523774       -14.2526
  22   2.0000      -0.519177       -14.1275
  23   2.0000      -0.494205       -13.4480
  24   2.0000      -0.476062       -12.9543
  25   2.0000      -0.454371       -12.3641
  26   2.0000      -0.444506       -12.0956
  27   2.0000      -0.438303       -11.9268
  28   2.0000      -0.425183       -11.5698
  29   2.0000      -0.422263       -11.4903
  30   2.0000      -0.401142       -10.9156
  31   2.0000      -0.397293       -10.8109
  32   2.0000      -0.381882       -10.3915
  33   2.0000      -0.366656        -9.9772
  34   2.0000      -0.362607        -9.8670
  35   2.0000      -0.337983        -9.1970
  36   2.0000      -0.330129        -8.9833
  37   2.0000      -0.327949        -8.9239
  38   2.0000      -0.320976        -8.7342
  39   2.0000      -0.299389        -8.1468
  40   2.0000      -0.252498        -6.8708
  41   2.0000      -0.217445        -5.9170
  42   0.0000       0.001450         0.0395
  43   0.0000       0.011919         0.3243
  44   0.0000       0.013934         0.3792
  45   0.0000       0.014613         0.3976
  46   0.0000       0.025253         0.6872

MULLIKEN ATOMIC CHARGES
-----------------------
   0 C :   -0.329289
   1 N :   -0.906031
   2 C :    0.210782
   3 N :    0.235147
   4 C :   -0.423545
   5 C :   -0.309358
   6 C :   -0.281880
   7 C :   -0.412742
   8 C :    0.018088
   9 H :    0.224102
  10 H :    0.082937
  11 H :    0.168703
  12 H :    0.139194
  13 H :    0.200805
  14 H :    0.151821
  15 H :    0.153764
  16 H :    0.130327
  17 H :    0.251621
  18 H :    0.187766
  19 C :   -0.383946
  20 C :   -0.324531
  21 H :    0.215901
  22 H :    0.129750
  23 H :    0.241109
  24 H :    0.209666
  25 H :    0.190924
  26 H :    0.228914
Sum of atomic charges:    0.0000000

LOEWDIN ATOMIC CHARGES
----------------------
   0 C :    0.067852
   1 N :    0.391406
   2 C :   -0.413029
   3 N :    0.300684
   4 C :    0.194350
   5 C :    0.295649
   6 C :    0.268770
   7 C :    0.281172
   8 C :    0.271042
   9 H :   -0.131722
  10 H :   -0.164099
  11 H :   -0.127078
  12 H :   -0.129637
  13 H :   -0.129755
  14 H :   -0.129559
  15 H :   -0.124339
  16 H :   -0.128064
  17 H :   -0.124933
  18 H :   -0.137017
  19 C :    0.180515
  20 C :    0.273713
  21 H :   -0.123679
  22 H :   -0.127974
  23 H :   -0.128613
  24 H :   -0.105434
  25 H :   -0.143742
  26 H :   -0.156480

  Mayer bond orders larger than 0.100000
B(  0-C ,  1-N ) :   0.9621 B(  0-C , 20-C ) :   0.9636 B(  0-C , 25-H ) :   0.9358
B(  0-C , 26-H ) :   0.9334 B(  1-N ,  2-C ) :   0.6721 B(  2-C ,  3-N ) :   1.0259
B(  2-C ,  8-C ) :   0.6077 B(  3-N ,  4-C ) :   0.9863 B(  3-N , 19-C ) :   0.7434
B(  4-C ,  5-C ) :   0.9561 B(  4-C , 17-H ) :   0.8770 B(  4-C , 18-H ) :   0.9597
B(  5-C ,  6-C ) :   0.9874 B(  5-C , 15-H ) :   1.0027 B(  5-C , 16-H ) :   0.9672
B(  6-C ,  7-C ) :   0.9514 B(  6-C , 13-H ) :   0.9252 B(  6-C , 14-H ) :   0.9919
B(  7-C ,  8-C ) :   1.0033 B(  7-C , 11-H ) :   0.9673 B(  7-C , 12-H ) :   0.9936
B(  8-C ,  9-H ) :   0.9332 B(  8-C , 10-H ) :   0.9776 B( 19-C , 20-C ) :   0.9819
B( 19-C , 23-H ) :   0.9504 B( 19-C , 24-H ) :   0.9513 B( 20-C , 21-H ) :   0.8958
B( 20-C , 22-H ) :   1.0423

Dispersion correction           -0.025771614
FINAL SINGLE POINT ENERGY      -461.744774551949

DIPOLE MOMENT
-------------

Method             : SCF
Type of density    : Electron Density
Multiplicity       :   1
Irrep              :   0
Energy             :  -461.7190029380368514 Eh
Relativity type    :
Basis              : AO
                                X                 Y                 Z
Electronic contribution:      3.030690916      -1.618905150      -1.164355325
Nuclear contribution   :     -3.701053963       3.371558610       1.131300425
                        -----------------------------------------
Total Dipole Moment    :     -0.670363046       1.752653460      -0.033054900
                        -----------------------------------------
Magnitude (a.u.)       :      1.876772067
Magnitude (Debye)      :      4.770375486

Rotational constants in cm-1:             0.068815             0.029698             0.022944
Rotational constants in MHz :          2063.025702           890.322329           687.841442

                             ****ORCA TERMINATED NORMALLY****
TOTAL RUN TIME: 0 days 0 hours 10 minutes 15 seconds 323 msec
