                         Program Version 6.0.0  -   RELEASE  -
|  1> !r2SCANh aug-cc-pVTZ d3 TightSCF SlowConv RIJCOSX defgrid2
|  2>
|  3> %pal
|  4> nprocs 4
|  5> end
|  6>
|  7> %scf
|  8> MaxIter 1500
|  9> end
| 10>
| 11> %maxcore 3000
| 12>
| 13> !CPCM
| 14> %cpcm smd true
| 15> SMDsolvent "MeCN"
| 16> surfacetype gepol_ses
| 17> rsolv 2.19
| 18> end
| 19>
| 20> * xyz 1 2
| 21> C           0.36827679708562      1.12909958561368      0.00001201858489
| 22> C           1.23021186730918     -0.05147463040440     -0.00001068145654
| 23> C           0.32335488869874     -1.13603513764026      0.00001262805170
| 24> N          -0.92044080134995     -0.70993319155687     -0.00001608440871
| 25> N          -0.85103182536878      0.66975840476644     -0.00001794399136
| 26> H          -1.72751346867464      1.19655640497152     -0.00003121087121
| 27> H           0.53889211956751     -2.20626533221750      0.00002437345705
| 28> H           2.32274963721698     -0.05868473826387     -0.00000548893473
| 29> H           0.61922738551534      2.19354113473125      0.00001908956891
| 30> *
| 31>
| 32>                          ****END OF INPUT****

CARTESIAN COORDINATES (ANGSTROEM)
---------------------------------
  C      0.368277    1.129100    0.000012
  C      1.230212   -0.051475   -0.000011
  C      0.323355   -1.136035    0.000013
  N     -0.920441   -0.709933   -0.000016
  N     -0.851032    0.669758   -0.000018
  H     -1.727513    1.196556   -0.000031
  H      0.538892   -2.206265    0.000024
  H      2.322750   -0.058685   -0.000005
  H      0.619227    2.193541    0.000019

 Total Charge           Charge          ....    1
 Multiplicity           Mult            ....    2
 Number of Electrons    NEL             ....   35
 Basis Dimension        Dim             ....  322

ORBITAL ENERGIES
----------------
                 SPIN UP ORBITALS
  NO   OCC          E(Eh)            E(eV)
   0   1.0000     -14.446858      -393.1190
   1   1.0000     -14.410632      -392.1332
   2   1.0000     -10.292778      -280.0807
   3   1.0000     -10.262881      -279.2672
   4   1.0000     -10.234863      -278.5048
   5   1.0000      -1.123146       -30.5623
   6   1.0000      -0.901558       -24.5326
   7   1.0000      -0.848733       -23.0952
   8   1.0000      -0.671332       -18.2679
   9   1.0000      -0.648482       -17.6461
  10   1.0000      -0.598376       -16.2826
  11   1.0000      -0.513154       -13.9636
  12   1.0000      -0.487257       -13.2589
  13   1.0000      -0.484114       -13.1734
  14   1.0000      -0.447780       -12.1847
  15   1.0000      -0.354488        -9.6461
  16   1.0000      -0.342491        -9.3197
  17   1.0000      -0.334864        -9.1121
  18   0.0000      -0.079271        -2.1571
  19   0.0000      -0.026286        -0.7153
  20   0.0000       0.011288         0.3071
  21   0.0000       0.028892         0.7862
  22   0.0000       0.031703         0.8627

                 SPIN DOWN ORBITALS
  NO   OCC          E(Eh)            E(eV)
   0   1.0000     -14.447158      -393.1272
   1   1.0000     -14.401619      -391.8880
   2   1.0000     -10.288284      -279.9584
   3   1.0000     -10.252210      -278.9768
   4   1.0000     -10.238374      -278.6003
   5   1.0000      -1.113103       -30.2891
   6   1.0000      -0.894946       -24.3527
   7   1.0000      -0.821765       -22.3614
   8   1.0000      -0.657605       -17.8943
   9   1.0000      -0.647488       -17.6191
  10   1.0000      -0.591676       -16.1003
  11   1.0000      -0.484246       -13.1770
  12   1.0000      -0.482204       -13.1214
  13   1.0000      -0.479698       -13.0533
  14   1.0000      -0.443844       -12.0776
  15   1.0000      -0.345338        -9.3971
  16   1.0000      -0.325084        -8.8460
  17   0.0000      -0.229725        -6.2511
  18   0.0000      -0.038243        -1.0407
  19   0.0000       0.012839         0.3494
  20   0.0000       0.013827         0.3763
  21   0.0000       0.030333         0.8254

MULLIKEN ATOMIC CHARGES AND SPIN POPULATIONS
--------------------------------------------
   0 C :   -0.310055    0.231877
   1 C :    0.085194    0.608027
   2 C :   -0.206548   -0.203951
   3 N :   -0.574973    0.351414
   4 N :    0.330635   -0.003749
   5 H :    0.169306    0.000967
   6 H :    0.544316    0.004607
   7 H :    0.427401    0.004818
   8 H :    0.534725    0.005990
Sum of atomic charges         :    1.0000000

LOEWDIN ATOMIC CHARGES AND SPIN POPULATIONS
-------------------------------------------
   0 C :    0.281332    0.221512
   1 C :    0.365861    0.338733
   2 C :    0.079761    0.049371
   3 N :    0.374922    0.229477
   4 N :    0.429333    0.081477
   5 H :   -0.176088    0.001459
   6 H :   -0.150474   -0.017173
   7 H :   -0.117828    0.066659
   8 H :   -0.086821    0.028484

  Mayer bond orders larger than 0.100000
B(  0-C ,  1-C ) :   0.7886 B(  0-C ,  4-N ) :   1.5390 B(  0-C ,  8-H ) :   0.6199
B(  1-C ,  2-C ) :   0.8755 B(  1-C ,  7-H ) :   0.8225 B(  2-C ,  3-N ) :   1.3808
B(  2-C ,  6-H ) :   0.6190 B(  3-N ,  4-N ) :   0.2566 B(  4-N ,  5-H ) :   1.0505

Dispersion correction           -0.001810213
FINAL SINGLE POINT ENERGY      -225.920363764541

DIPOLE MOMENT
-------------

Method             : SCF
Type of density    : Electron Density
Multiplicity       :   2
Irrep              :   0
Energy             :  -225.9185535511119838 Eh
Relativity type    :
Basis              : AO
                                X                 Y                 Z
Electronic contribution:     -0.739533460       0.407335767       0.001003021
Nuclear contribution   :      1.633121789       1.062560564       0.000022858
                        -----------------------------------------
Total Dipole Moment    :      0.893588329       1.469896332       0.001025879
                        -----------------------------------------
Magnitude (a.u.)       :      1.720202424
Magnitude (Debye)      :      4.372407081

Rotational constants in cm-1:             0.324934             0.302591             0.156683
Rotational constants in MHz :          9741.285807          9071.463346          4697.225081

                             ****ORCA TERMINATED NORMALLY****
TOTAL RUN TIME: 0 days 0 hours 2 minutes 0 seconds 643 msec
