                         Program Version 6.0.0  -   RELEASE  -
|  1> !r2SCANh opt aug-cc-pVTZ d3 TightSCF SlowConv RIJCOSX defgrid2
|  2>
|  3> %pal
|  4> nprocs 8
|  5> end
|  6>
|  7> %scf
|  8> MaxIter 1500
|  9> end
| 10>
| 11> %maxcore 3500
| 12>
| 13> !CPCM
| 14> %cpcm smd true
| 15> SMDsolvent "MeCN"
| 16> surfacetype gepol_ses
| 17> rsolv 2.19
| 18> end
| 19>
| 20> * xyz 0 1
| 21> C           2.39749463161436     -0.83149819893554      0.67669387485363
| 22> C           1.27172397639116     -0.40047992295486     -0.03969915484816
| 23> C           1.38259238776027      0.76303550152059     -0.81642324820039
| 24> C           2.58576374302039      1.45963699946448     -0.89073073539891
| 25> C           3.70030483512470      1.01412413753758     -0.17987702815859
| 26> C           3.60056124987950     -0.13306932613824      0.60654243714533
| 27> H           4.46466138277505     -0.48209902986176      1.17996120108222
| 28> H           4.64383968195764      1.56540648474814     -0.23276704782048
| 29> H           2.65415437190379      2.35888092106518     -1.51038356423303
| 30> H           0.51264382726920      1.11680700092055     -1.37721808377949
| 31> C          -0.00001123541006     -1.16417502511622     -0.00002273576044
| 32> C          -0.00001884782649     -2.50996676952303     -0.00003277235160
| 33> H          -0.93225135885572     -3.07886784376654      0.08064455143521
| 34> H           0.93220419630722     -3.07888213761201     -0.08071574786352
| 35> C          -1.27174210287451     -0.40047320911747      0.03966757754902
| 36> C          -2.39750985071673     -0.83146289450512     -0.67674719863415
| 37> C          -3.60057439169967     -0.13303092760862     -0.60657919634084
| 38> C          -3.70031659242385      1.01413981080717      0.17987332068473
| 39> C          -2.58577653905984      1.45962201354211      0.89074922577948
| 40> C          -1.38260956202413      0.76301589591316      0.81642903255360
| 41> H          -0.51266418903044      1.11676009652396      1.37724534040847
| 42> H          -2.65416367308445      2.35884547498639      1.51043035509866
| 43> H          -4.64384894904450      1.56542539828851      0.23277593005599
| 44> H          -4.46467229568686     -0.48204204645132     -1.18001194866167
| 45> H          -2.31694066862491     -1.71619568559047     -1.31480317865473
| 46> H           2.31692587235889     -1.71625071813661      1.31472229405965
| 47> *
| 48>
| 49>                          ****END OF INPUT****
 Total Charge           Charge          ....    0
 Multiplicity           Mult            ....    1
 Number of Electrons    NEL             ....   96
Dispersion correction           -0.010817755
FINAL SINGLE POINT ENERGY      -540.569759169290
Dispersion correction             ... done (  0.0 sec)
Dispersion correction           -0.010852165
FINAL SINGLE POINT ENERGY      -540.571390559186
Dispersion correction             ... done (  0.0 sec)
Dispersion correction           -0.010851482
FINAL SINGLE POINT ENERGY      -540.571403386156
Dispersion correction             ... done (  0.0 sec)
                    ***********************HURRAY********************

CARTESIAN COORDINATES (ANGSTROEM)
---------------------------------
  C      2.393032   -0.838017    0.664497
  C      1.269942   -0.392049   -0.036121
  C      1.381402    0.774776   -0.797140
  C      2.583689    1.460713   -0.872698
  C      3.694933    1.002782   -0.176358
  C      3.593816   -0.147892    0.594642
  H      4.449701   -0.503992    1.152450
  H      4.630421    1.543337   -0.228005
  H      2.652805    2.355758   -1.476442
  H      0.522255    1.138301   -1.344930
  C     -0.000008   -1.151354    0.000236
  C      0.000045   -2.489829    0.000183
  H     -0.921163   -3.052146    0.066160
  H      0.921296   -3.052066   -0.065868
  C     -1.270024   -0.392167    0.036500
  C     -2.392886   -0.837960   -0.664575
  C     -3.593606   -0.147667   -0.595190
  C     -3.694899    1.002978    0.175823
  C     -2.583929    1.460640    0.872778
  C     -1.381739    0.774509    0.797675
  H     -0.522867    1.137714    1.346088
  H     -2.653167    2.355642    1.476563
  H     -4.630313    1.543706    0.227019
  H     -4.449283   -0.503588   -1.153422
  H     -2.315438   -1.722405   -1.282716
  H      2.315752   -1.722520    1.282578

 Multiplicity           Mult            ....    1
 Number of Electrons    NEL             ....   96
 Basis Dimension        Dim             ....  920

ORBITAL ENERGIES
----------------

  NO   OCC          E(Eh)            E(eV)
   0   2.0000     -10.175983      -276.9026
   1   2.0000     -10.172240      -276.8007
   2   2.0000     -10.172224      -276.8003
   3   2.0000     -10.159256      -276.4474
   4   2.0000     -10.159215      -276.4463
   5   2.0000     -10.159026      -276.4411
   6   2.0000     -10.159014      -276.4408
   7   2.0000     -10.158655      -276.4311
   8   2.0000     -10.158635      -276.4305
   9   2.0000     -10.158423      -276.4247
  10   2.0000     -10.158408      -276.4243
  11   2.0000     -10.157925      -276.4112
  12   2.0000     -10.157914      -276.4109
  13   2.0000     -10.147512      -276.1278
  14   2.0000      -0.876208       -23.8428
  15   2.0000      -0.859491       -23.3880
  16   2.0000      -0.808616       -22.0036
  17   2.0000      -0.750773       -20.4296
  18   2.0000      -0.750404       -20.4195
  19   2.0000      -0.744836       -20.2680
  20   2.0000      -0.718612       -19.5544
  21   2.0000      -0.629887       -17.1401
  22   2.0000      -0.606197       -16.4954
  23   2.0000      -0.597713       -16.2646
  24   2.0000      -0.594504       -16.1773
  25   2.0000      -0.546495       -14.8709
  26   2.0000      -0.518029       -14.0963
  27   2.0000      -0.493691       -13.4340
  28   2.0000      -0.459476       -12.5030
  29   2.0000      -0.453738       -12.3468
  30   2.0000      -0.442908       -12.0522
  31   2.0000      -0.433095       -11.7851
  32   2.0000      -0.430016       -11.7013
  33   2.0000      -0.410288       -11.1645
  34   2.0000      -0.409744       -11.1497
  35   2.0000      -0.406318       -11.0565
  36   2.0000      -0.373957       -10.1759
  37   2.0000      -0.369262       -10.0481
  38   2.0000      -0.367994       -10.0136
  39   2.0000      -0.344452        -9.3730
  40   2.0000      -0.333467        -9.0741
  41   2.0000      -0.325604        -8.8601
  42   2.0000      -0.320194        -8.7129
  43   2.0000      -0.298004        -8.1091
  44   2.0000      -0.259522        -7.0619
  45   2.0000      -0.255541        -6.9536
  46   2.0000      -0.252916        -6.8822
  47   2.0000      -0.222499        -6.0545
  48   0.0000      -0.057358        -1.5608
  49   0.0000      -0.033647        -0.9156
  50   0.0000      -0.028955        -0.7879
  51   0.0000      -0.016599        -0.4517
  52   0.0000       0.008106         0.2206

MULLIKEN ATOMIC CHARGES
-----------------------
   0 C :   -1.261003
   1 C :    2.515904
   2 C :   -0.786886
   3 C :   -0.885508
   4 C :   -0.135534
   5 C :   -0.793928
   6 H :    0.538499
   7 H :    0.489191
   8 H :    0.486151
   9 H :   -0.032288
  10 C :    0.922060
  11 C :   -1.344545
  12 H :    0.219400
  13 H :    0.218837
  14 C :    2.515361
  15 C :   -1.258810
  16 C :   -0.789226
  17 C :   -0.136758
  18 C :   -0.882736
  19 C :   -0.787567
  20 H :   -0.034638
  21 H :    0.487603
  22 H :    0.483453
  23 H :    0.530103
  24 H :   -0.136211
  25 H :   -0.140924
Sum of atomic charges:    0.0000000

LOEWDIN ATOMIC CHARGES
----------------------
   0 C :    0.211007
   1 C :   -0.144918
   2 C :    0.208534
   3 C :    0.204583
   4 C :    0.195093
   5 C :    0.202615
   6 H :   -0.177040
   7 H :   -0.178983
   8 H :   -0.176438
   9 H :   -0.169727
  10 C :   -0.143827
  11 C :    0.559835
  12 H :   -0.205177
  13 H :   -0.205185
  14 C :   -0.144941
  15 C :    0.211042
  16 C :    0.202639
  17 C :    0.195118
  18 C :    0.204599
  19 C :    0.208430
  20 H :   -0.169821
  21 H :   -0.176422
  22 H :   -0.178975
  23 H :   -0.177037
  24 H :   -0.177495
  25 H :   -0.177511

  Mayer bond orders larger than 0.100000
B(  0-C ,  1-C ) :  -0.1966 B(  0-C ,  2-C ) :  -0.7957 B(  0-C ,  3-C ) :   0.1154
B(  0-C ,  4-C ) :  -0.1890 B(  0-C ,  5-C ) :   1.3498 B(  0-C ,  6-H ) :  -0.1775
B(  0-C ,  7-H ) :   0.1116 B(  0-C ,  9-H ) :   0.1383 B(  0-C , 10-C ) :   0.3227
B(  0-C , 25-H ) :   1.9306 B(  1-C ,  2-C ) :   0.2632 B(  1-C ,  4-C ) :  -0.1325
B(  1-C ,  9-H ) :  -0.1314 B(  1-C , 10-C ) :  -0.2651 B(  1-C , 11-C ) :  -0.3455
B(  1-C , 14-C ) :  -0.1768 B(  1-C , 25-H ) :  -0.2098 B(  2-C ,  3-C ) :   1.2724
B(  2-C ,  4-C ) :  -0.1414 B(  2-C ,  9-H ) :   1.6186 B(  2-C , 10-C ) :   0.2696
B(  2-C , 11-C ) :   0.1455 B(  2-C , 19-C ) :   0.1450 B(  3-C ,  4-C ) :   1.2103
B(  3-C ,  5-C ) :   0.2959 B(  3-C ,  8-H ) :   0.4866 B(  3-C , 25-H ) :  -0.1410
B(  4-C ,  5-C ) :   1.0772 B(  4-C ,  7-H ) :   0.5914 B(  4-C ,  9-H ) :  -0.1116
B(  4-C , 10-C ) :   0.2088 B(  5-C ,  6-H ) :   0.4411 B(  5-C ,  9-H ) :  -0.1309
B(  9-H , 10-C ) :  -0.1049 B(  9-H , 25-H ) :   0.2323 B( 10-C , 11-C ) :   0.6897
B( 10-C , 14-C ) :  -0.2694 B( 10-C , 15-C ) :   0.3253 B( 10-C , 17-C ) :   0.2076
B( 10-C , 19-C ) :   0.2691 B( 10-C , 20-H ) :  -0.1043 B( 10-C , 24-H ) :  -0.2443
B( 10-C , 25-H ) :  -0.2461 B( 11-C , 12-H ) :   1.0194 B( 11-C , 13-H ) :   1.0197
B( 11-C , 14-C ) :  -0.3452 B( 11-C , 19-C ) :   0.1461 B( 14-C , 15-C ) :  -0.1955
B( 14-C , 17-C ) :  -0.1317 B( 14-C , 19-C ) :   0.2583 B( 14-C , 20-H ) :  -0.1341
B( 14-C , 24-H ) :  -0.2058 B( 15-C , 16-C ) :   1.3443 B( 15-C , 17-C ) :  -0.1864
B( 15-C , 18-C ) :   0.1106 B( 15-C , 19-C ) :  -0.7931 B( 15-C , 20-H ) :   0.1370
B( 15-C , 22-H ) :   0.1107 B( 15-C , 23-H ) :  -0.1743 B( 15-C , 24-H ) :   1.9181
B( 16-C , 17-C ) :   1.0758 B( 16-C , 18-C ) :   0.2905 B( 16-C , 20-H ) :  -0.1270
B( 16-C , 23-H ) :   0.4607 B( 17-C , 18-C ) :   1.2106 B( 17-C , 19-C ) :  -0.1433
B( 17-C , 20-H ) :  -0.1114 B( 17-C , 22-H ) :   0.6022 B( 18-C , 19-C ) :   1.2725
B( 18-C , 21-H ) :   0.4861 B( 18-C , 24-H ) :  -0.1416 B( 19-C , 20-H ) :   1.6230
B( 20-H , 24-H ) :   0.2295

Dispersion correction           -0.010851175
FINAL SINGLE POINT ENERGY      -540.571405081190

DIPOLE MOMENT
-------------

Method             : SCF
Type of density    : Electron Density
Multiplicity       :   1
Irrep              :   0
Energy             :  -540.5605539061499485 Eh
Relativity type    :
Basis              : AO
                                X                 Y                 Z
Electronic contribution:     -0.001020038       0.625435420      -0.000048570
Nuclear contribution   :      0.000172358      -0.481693575      -0.000650321
                        -----------------------------------------
Total Dipole Moment    :     -0.000847679       0.143741844      -0.000698891
                        -----------------------------------------
Magnitude (a.u.)       :      0.143746043
Magnitude (Debye)      :      0.365373404

Rotational constants in cm-1:             0.053897             0.014063             0.012249
Rotational constants in MHz :          1615.803279           421.595666           367.202824

                             ****ORCA TERMINATED NORMALLY****
TOTAL RUN TIME: 0 days 0 hours 35 minutes 26 seconds 952 msec
