                         Program Version 6.0.0  -   RELEASE  -
|  1> !r2SCANh opt aug-cc-pVTZ d3 TightSCF SlowConv RIJCOSX defgrid2
|  2>
|  3> %pal
|  4> nprocs 8
|  5> end
|  6>
|  7> %scf
|  8> MaxIter 1500
|  9> end
| 10>
| 11> %maxcore 3500
| 12>
| 13> !CPCM
| 14> %cpcm smd true
| 15> SMDsolvent "MeCN"
| 16> surfacetype gepol_ses
| 17> rsolv 2.19
| 18> end
| 19>
| 20> * xyz 1 2
| 21> C           2.44830417164420     -0.69527642473796      0.00000945881878
| 22> C           2.44832214826430      0.69521603339414      0.00001009734484
| 23> C           1.23352505326865      1.40025135317577      0.00000577718412
| 24> C           0.00001141556131      0.71453178803145      0.00000268426234
| 25> C          -1.23348320904465      1.40028329659239      0.00000107782236
| 26> C          -2.44830108548662      0.69527938835391      0.00000695148737
| 27> C          -2.44832067103510     -0.69521530453956      0.00000530486429
| 28> C          -1.23352061718470     -1.40025032772324     -0.00000393184308
| 29> C          -0.00000717114678     -0.71452684352053     -0.00000494703196
| 30> C           1.23348727294566     -1.40028215170085     -0.00000132918117
| 31> H           1.23935708532449     -2.49454817867840      0.00000050523970
| 32> H          -1.23942268133971     -2.49451730914708     -0.00000545360366
| 33> H          -3.39340211959580     -1.24489598698530      0.00000832828244
| 34> H          -3.39336678788360      1.24498332942293      0.00000859404642
| 35> H          -1.23935478912557      2.49455128204595      0.00000167009943
| 36> H           1.23942795953164      2.49451607920762      0.00000299068588
| 37> H           3.39340268697296      1.24489500413589      0.00001313139295
| 38> H           3.39337233832933     -1.24497302732713      0.00001569012894
| 39> *
| 40>
| 41>                          ****END OF INPUT****
 Total Charge           Charge          ....    1
 Multiplicity           Mult            ....    2
 Number of Electrons    NEL             ....   67
Dispersion correction           -0.006574164
FINAL SINGLE POINT ENERGY      -385.584983602618
Dispersion correction             ... done (  0.0 sec)
Dispersion correction           -0.006595505
FINAL SINGLE POINT ENERGY      -385.586419901401
Dispersion correction             ... done (  0.1 sec)
Dispersion correction           -0.006597760
FINAL SINGLE POINT ENERGY      -385.586431027403
Dispersion correction             ... done (  0.1 sec)
                    ***********************HURRAY********************

CARTESIAN COORDINATES (ANGSTROEM)
---------------------------------
  C      2.432600   -0.691260   -0.000112
  C      2.432622    0.691197   -0.000228
  C      1.225510    1.394469   -0.000239
  C      0.000012    0.711115   -0.000004
  C     -1.225468    1.394500    0.000247
  C     -2.432599    0.691257    0.000246
  C     -2.432613   -0.691200    0.000136
  C     -1.225497   -1.394461    0.000138
  C     -0.000006   -0.711098   -0.000009
  C      1.225464   -1.394491   -0.000146
  H      1.229453   -2.475760   -0.000122
  H     -1.229522   -2.475734    0.000105
  H     -3.365939   -1.234682   -0.000349
  H     -3.365916    1.234755   -0.000176
  H     -1.229469    2.475769    0.000274
  H      1.229543    2.475739   -0.000264
  H      3.365949    1.234672    0.000185
  H      3.365908   -1.234767    0.000393

 Multiplicity           Mult            ....    2
 Number of Electrons    NEL             ....   67
 Basis Dimension        Dim             ....  644

ORBITAL ENERGIES
----------------
                 SPIN UP ORBITALS
  NO   OCC          E(Eh)            E(eV)
   0   1.0000     -10.216046      -277.9927
   1   1.0000     -10.216031      -277.9923
   2   1.0000     -10.216025      -277.9922
   3   1.0000     -10.216013      -277.9918
   4   1.0000     -10.204157      -277.6692
   5   1.0000     -10.203737      -277.6578
   6   1.0000     -10.200534      -277.5706
   7   1.0000     -10.200533      -277.5706
   8   1.0000     -10.199961      -277.5550
   9   1.0000     -10.199952      -277.5548
  10   1.0000      -0.924470       -25.1561
  11   1.0000      -0.868730       -23.6393
  12   1.0000      -0.821893       -22.3649
  13   1.0000      -0.783576       -21.3222
  14   1.0000      -0.761627       -20.7249
  15   1.0000      -0.667359       -18.1598
  16   1.0000      -0.645169       -17.5559
  17   1.0000      -0.631654       -17.1882
  18   1.0000      -0.543486       -14.7890
  19   1.0000      -0.538341       -14.6490
  20   1.0000      -0.523447       -14.2437
  21   1.0000      -0.472125       -12.8472
  22   1.0000      -0.469877       -12.7860
  23   1.0000      -0.446091       -12.1387
  24   1.0000      -0.442365       -12.0374
  25   1.0000      -0.436074       -11.8662
  26   1.0000      -0.417027       -11.3479
  27   1.0000      -0.395485       -10.7617
  28   1.0000      -0.372689       -10.1414
  29   1.0000      -0.359946        -9.7946
  30   1.0000      -0.354503        -9.6465
  31   1.0000      -0.336338        -9.1522
  32   1.0000      -0.283605        -7.7173
  33   1.0000      -0.267585        -7.2814
  34   0.0000      -0.113864        -3.0984
  35   0.0000      -0.059040        -1.6066
  36   0.0000      -0.038655        -1.0519
  37   0.0000       0.007789         0.2119
  38   0.0000       0.020957         0.5703

                 SPIN DOWN ORBITALS
  NO   OCC          E(Eh)            E(eV)
   0   1.0000     -10.211462      -277.8680
   1   1.0000     -10.211445      -277.8676
   2   1.0000     -10.211435      -277.8673
   3   1.0000     -10.211420      -277.8669
   4   1.0000     -10.205499      -277.7058
   5   1.0000     -10.205080      -277.6943
   6   1.0000     -10.199940      -277.5545
   7   1.0000     -10.199939      -277.5545
   8   1.0000     -10.199361      -277.5387
   9   1.0000     -10.199353      -277.5385
  10   1.0000      -0.919377       -25.0175
  11   1.0000      -0.861095       -23.4316
  12   1.0000      -0.811132       -22.0720
  13   1.0000      -0.783641       -21.3240
  14   1.0000      -0.746536       -20.3143
  15   1.0000      -0.661014       -17.9871
  16   1.0000      -0.642279       -17.4773
  17   1.0000      -0.626045       -17.0355
  18   1.0000      -0.541131       -14.7249
  19   1.0000      -0.533357       -14.5134
  20   1.0000      -0.522054       -14.2058
  21   1.0000      -0.470289       -12.7972
  22   1.0000      -0.469867       -12.7857
  23   1.0000      -0.444327       -12.0908
  24   1.0000      -0.440173       -11.9777
  25   1.0000      -0.421613       -11.4727
  26   1.0000      -0.414386       -11.2760
  27   1.0000      -0.394788       -10.7427
  28   1.0000      -0.357988        -9.7414
  29   1.0000      -0.353992        -9.6326
  30   1.0000      -0.351535        -9.5657
  31   1.0000      -0.304381        -8.2826
  32   1.0000      -0.284345        -7.7374
  33   0.0000      -0.207121        -5.6360
  34   0.0000      -0.080899        -2.2014
  35   0.0000      -0.052774        -1.4360
  36   0.0000      -0.015488        -0.4215
  37   0.0000       0.008962         0.2439

MULLIKEN ATOMIC CHARGES AND SPIN POPULATIONS
--------------------------------------------
   0 C :   -0.380045    0.013824
   1 C :   -0.382118    0.013830
   2 C :   -1.063942    0.262301
   3 C :    1.907953   -0.093630
   4 C :   -1.068946    0.262320
   5 C :   -0.379065    0.013850
   6 C :   -0.380307    0.013852
   7 C :   -1.064963    0.262309
   8 C :    1.906520   -0.093609
   9 C :   -1.066006    0.262303
  10 H :    0.081197    0.027330
  11 H :    0.080348    0.027308
  12 H :    0.661675   -0.006660
  13 H :    0.660719   -0.006680
  14 H :    0.079467    0.027349
  15 H :    0.086431    0.027326
  16 H :    0.655401   -0.006643
  17 H :    0.665682   -0.006679
Sum of atomic charges         :    1.0000000

LOEWDIN ATOMIC CHARGES AND SPIN POPULATIONS
-------------------------------------------
   0 C :    0.282887    0.069601
   1 C :    0.282885    0.069597
   2 C :    0.303307    0.134023
   3 C :   -0.091641    0.026324
   4 C :    0.303307    0.134024
   5 C :    0.282886    0.069599
   6 C :    0.282885    0.069601
   7 C :    0.303308    0.134024
   8 C :   -0.091648    0.026324
   9 C :    0.303306    0.134022
  10 H :   -0.138278    0.026875
  11 H :   -0.138274    0.026875
  12 H :   -0.152093    0.006340
  13 H :   -0.152092    0.006340
  14 H :   -0.138281    0.026875
  15 H :   -0.138276    0.026875
  16 H :   -0.152096    0.006339
  17 H :   -0.152093    0.006341

  Mayer bond orders larger than 0.100000
B(  0-C ,  1-C ) :   1.1363 B(  0-C ,  3-C ) :  -0.3637 B(  0-C ,  7-C ) :   0.1042
B(  0-C ,  9-C ) :   1.0804 B(  0-C , 17-H ) :   0.2559 B(  1-C ,  2-C ) :   1.0797
B(  1-C ,  4-C ) :   0.1039 B(  1-C ,  8-C ) :  -0.3604 B(  1-C , 16-H ) :   0.2706
B(  2-C ,  3-C ) :  -0.2351 B(  2-C ,  4-C ) :   0.4382 B(  2-C ,  5-C ) :   0.1019
B(  2-C ,  8-C ) :  -0.4115 B(  2-C , 15-H ) :   1.3548 B(  2-C , 16-H ) :  -0.1912
B(  3-C ,  4-C ) :  -0.2478 B(  3-C ,  6-C ) :  -0.3631 B(  3-C ,  7-C ) :  -0.4175
B(  3-C ,  8-C ) :   1.5228 B(  3-C ,  9-C ) :  -0.4147 B(  3-C , 14-H ) :  -0.1216
B(  3-C , 15-H ) :  -0.1150 B(  4-C ,  5-C ) :   1.0784 B(  4-C ,  8-C ) :  -0.4208
B(  4-C , 13-H ) :  -0.1956 B(  4-C , 14-H ) :   1.3711 B(  5-C ,  6-C ) :   1.1353
B(  5-C ,  8-C ) :  -0.3609 B(  5-C , 13-H ) :   0.2634 B(  6-C ,  7-C ) :   1.0794
B(  6-C ,  9-C ) :   0.1029 B(  6-C , 12-H ) :   0.2610 B(  7-C ,  8-C ) :  -0.2432
B(  7-C ,  9-C ) :   0.4338 B(  7-C , 11-H ) :   1.3680 B(  7-C , 12-H ) :  -0.1949
B(  8-C ,  9-C ) :  -0.2419 B(  8-C , 10-H ) :  -0.1189 B(  8-C , 11-H ) :  -0.1204
B(  9-C , 10-H ) :   1.3664 B(  9-C , 17-H ) :  -0.1951

Dispersion correction           -0.006597951
FINAL SINGLE POINT ENERGY      -385.586432123065

DIPOLE MOMENT
-------------

Method             : SCF
Type of density    : Electron Density
Multiplicity       :   2
Irrep              :   0
Energy             :  -385.5798341717794528 Eh
Relativity type    :
Basis              : AO
                                X                 Y                 Z
Electronic contribution:     -0.000000980      -0.000006156      -0.000014183
Nuclear contribution   :     -0.000010163      -0.000026447       0.000019638
                        -----------------------------------------
Total Dipole Moment    :     -0.000011143      -0.000032603       0.000005455
                        -----------------------------------------
Magnitude (a.u.)       :      0.000034884
Magnitude (Debye)      :      0.000088668

Rotational constants in cm-1:             0.105765             0.041294             0.029699
Rotational constants in MHz :          3170.747499          1237.968285           890.346546

                             ****ORCA TERMINATED NORMALLY****
TOTAL RUN TIME: 0 days 0 hours 21 minutes 0 seconds 80 msec
