                         Program Version 6.0.0  -   RELEASE  -
|  1> !PBE0 freq def2-SV(p) d3 TightSCF SlowConv RIJCOSX defgrid2
|  2>
|  3> %pal
|  4> nprocs 12
|  5> end
|  6>
|  7> %scf
|  8> MaxIter 1500
|  9> end
| 10>
| 11> %maxcore 5000
| 12>
| 13> !CPCM
| 14> %cpcm smd true
| 15> SMDsolvent "MeCN"
| 16> surfacetype gepol_ses
| 17> rsolv 2.19
| 18> end
| 19>
| 20> * xyz 0 1
| 21> C           2.43158622070990     -0.70807682269040     -0.00020664635513
| 22> C           2.43159905145340      0.70804190147187     -0.00017646740949
| 23> C           1.24300892419007      1.40274114352424     -0.00005091559220
| 24> C           0.00000736952530      0.71560505519796      0.00000666471241
| 25> C          -1.24298370952689      1.40275978046541      0.00006618729304
| 26> C          -2.43158489384808      0.70807885033737      0.00018993225492
| 27> C          -2.43159441615545     -0.70804027513866      0.00021282611727
| 28> C          -1.24300385152013     -1.40273786438755      0.00008546981004
| 29> C          -0.00000427591476     -0.71560078121854      0.00000063765771
| 30> C           1.24298557919215     -1.40275668018698     -0.00008665342948
| 31> H           1.23985184523739     -2.49743016663090      0.00005839605857
| 32> H          -1.23988544791317     -2.49741127979994     -0.00006705198680
| 33> H          -3.38299912441403     -1.24855786853129     -0.00013635946133
| 34> H          -3.38298196753105      1.24860974449263     -0.00017706080004
| 35> H          -1.23985051111594      2.49743361368323     -0.00010143811879
| 36> H           1.23989357265858      2.49741523368873      0.00012152133618
| 37> H           3.38300433832019      1.24855748960134      0.00019499312268
| 38> H           3.38298259665254     -1.24860897387855      0.00014236479047
| 39> *
| 40>
| 41>                          ****END OF INPUT****

CARTESIAN COORDINATES (ANGSTROEM)
---------------------------------
  C      2.431586   -0.708077   -0.000207
  C      2.431599    0.708042   -0.000176
  C      1.243009    1.402741   -0.000051
  C      0.000007    0.715605    0.000007
  C     -1.242984    1.402760    0.000066
  C     -2.431585    0.708079    0.000190
  C     -2.431594   -0.708040    0.000213
  C     -1.243004   -1.402738    0.000085
  C     -0.000004   -0.715601    0.000001
  C      1.242986   -1.402757   -0.000087
  H      1.239852   -2.497430    0.000058
  H     -1.239885   -2.497411   -0.000067
  H     -3.382999   -1.248558   -0.000136
  H     -3.382982    1.248610   -0.000177
  H     -1.239851    2.497434   -0.000101
  H      1.239894    2.497415    0.000122
  H      3.383004    1.248557    0.000195
  H      3.382983   -1.248609    0.000142

 Total Charge           Charge          ....    0
 Multiplicity           Mult            ....    1
 Number of Electrons    NEL             ....   68
 Basis Dimension        Dim             ....  156

ORBITAL ENERGIES
----------------

  NO   OCC          E(Eh)            E(eV)
   0   2.0000     -10.249745      -278.9097
   1   2.0000     -10.249461      -278.9020
   2   2.0000     -10.238505      -278.6039
   3   2.0000     -10.238502      -278.6038
   4   2.0000     -10.238487      -278.6034
   5   2.0000     -10.238457      -278.6026
   6   2.0000     -10.237799      -278.5847
   7   2.0000     -10.237779      -278.5841
   8   2.0000     -10.237510      -278.5768
   9   2.0000     -10.237500      -278.5765
  10   2.0000      -0.897774       -24.4297
  11   2.0000      -0.842070       -22.9139
  12   2.0000      -0.792116       -21.5546
  13   2.0000      -0.758734       -20.6462
  14   2.0000      -0.735142       -20.0042
  15   2.0000      -0.640735       -17.4353
  16   2.0000      -0.627008       -17.0618
  17   2.0000      -0.611407       -16.6372
  18   2.0000      -0.530074       -14.4240
  19   2.0000      -0.520413       -14.1612
  20   2.0000      -0.510093       -13.8803
  21   2.0000      -0.457943       -12.4613
  22   2.0000      -0.457571       -12.4511
  23   2.0000      -0.433080       -11.7847
  24   2.0000      -0.430070       -11.7028
  25   2.0000      -0.414885       -11.2896
  26   2.0000      -0.410755       -11.1772
  27   2.0000      -0.381176       -10.3723
  28   2.0000      -0.351483        -9.5643
  29   2.0000      -0.348996        -9.4967
  30   2.0000      -0.342709        -9.3256
  31   2.0000      -0.306094        -8.3292
  32   2.0000      -0.263770        -7.1775
  33   2.0000      -0.234300        -6.3756
  34   0.0000      -0.044118        -1.2005
  35   0.0000      -0.015281        -0.4158
  36   0.0000       0.025969         0.7067
  37   0.0000       0.083131         2.2621
  38   0.0000       0.098834         2.6894

MULLIKEN ATOMIC CHARGES
-----------------------
   0 C :   -0.113889
   1 C :   -0.113885
   2 C :   -0.155678
   3 C :    0.054938
   4 C :   -0.155678
   5 C :   -0.113884
   6 C :   -0.113892
   7 C :   -0.155674
   8 C :    0.054937
   9 C :   -0.155676
  10 H :    0.115821
  11 H :    0.115821
  12 H :    0.126274
  13 H :    0.126275
  14 H :    0.115821
  15 H :    0.115821
  16 H :    0.126275
  17 H :    0.126274
Sum of atomic charges:    0.0000000

LOEWDIN ATOMIC CHARGES
----------------------
   0 C :   -0.139190
   1 C :   -0.139190
   2 C :   -0.125422
   3 C :   -0.043976
   4 C :   -0.125422
   5 C :   -0.139190
   6 C :   -0.139190
   7 C :   -0.125422
   8 C :   -0.043976
   9 C :   -0.125422
  10 H :    0.143402
  11 H :    0.143402
  12 H :    0.143198
  13 H :    0.143198
  14 H :    0.143402
  15 H :    0.143402
  16 H :    0.143198
  17 H :    0.143198

  Mayer bond orders larger than 0.100000
B(  0-C ,  1-C ) :   1.2475 B(  0-C ,  9-C ) :   1.4913 B(  0-C , 17-H ) :   0.9623
B(  1-C ,  2-C ) :   1.4913 B(  1-C , 16-H ) :   0.9623 B(  2-C ,  3-C ) :   1.2436
B(  2-C , 15-H ) :   0.9648 B(  3-C ,  4-C ) :   1.2436 B(  3-C ,  8-C ) :   1.2508
B(  4-C ,  5-C ) :   1.4913 B(  4-C , 14-H ) :   0.9648 B(  5-C ,  6-C ) :   1.2475
B(  5-C , 13-H ) :   0.9623 B(  6-C ,  7-C ) :   1.4913 B(  6-C , 12-H ) :   0.9623
B(  7-C ,  8-C ) :   1.2436 B(  7-C , 11-H ) :   0.9648 B(  8-C ,  9-C ) :   1.2436
B(  9-C , 10-H ) :   0.9648

Dispersion correction           -0.018479850
FINAL SINGLE POINT ENERGY      -385.171812409070

DIPOLE MOMENT
-------------

Method             : SCF
Type of density    : Electron Density
Multiplicity       :   1
Irrep              :   0
Energy             :  -385.1533325595390806 Eh
Relativity type    :
Basis              : AO
                                X                 Y                 Z
Electronic contribution:     -0.000001227       0.000004573      -0.000001600
Nuclear contribution   :      0.000002201      -0.000003212       0.000002230
                        -----------------------------------------
Total Dipole Moment    :      0.000000974       0.000001361       0.000000631
                        -----------------------------------------
Magnitude (a.u.)       :      0.000001789
Magnitude (Debye)      :      0.000004546

VIBRATIONAL FREQUENCIES
-----------------------

Scaling factor for frequencies =  1.000000000  (already applied!)

     0:       0.00 cm**-1
     1:       0.00 cm**-1
     2:       0.00 cm**-1
     3:       0.00 cm**-1
     4:       0.00 cm**-1
     5:       0.00 cm**-1
     6:     173.61 cm**-1
     7:     188.61 cm**-1
     8:     363.26 cm**-1
     9:     400.51 cm**-1
    10:     487.03 cm**-1
    11:     494.38 cm**-1
    12:     516.26 cm**-1
    13:     518.99 cm**-1
    14:     628.28 cm**-1
    15:     650.01 cm**-1
    16:     736.68 cm**-1
    17:     783.77 cm**-1
    18:     806.43 cm**-1
    19:     809.03 cm**-1
    20:     811.93 cm**-1
    21:     867.44 cm**-1
    22:     924.87 cm**-1
    23:     944.05 cm**-1
    24:     984.95 cm**-1
    25:    1003.28 cm**-1
    26:    1024.45 cm**-1
    27:    1029.69 cm**-1
    28:    1049.97 cm**-1
    29:    1056.63 cm**-1
    30:    1138.81 cm**-1
    31:    1151.65 cm**-1
    32:    1152.85 cm**-1
    33:    1156.67 cm**-1
    34:    1244.80 cm**-1
    35:    1266.84 cm**-1
    36:    1282.54 cm**-1
    37:    1413.45 cm**-1
    38:    1434.57 cm**-1
    39:    1457.60 cm**-1
    40:    1495.49 cm**-1
    41:    1504.72 cm**-1
    42:    1579.60 cm**-1
    43:    1658.52 cm**-1
    44:    1676.71 cm**-1
    45:    1718.27 cm**-1
    46:    3192.76 cm**-1
    47:    3192.80 cm**-1
    48:    3196.96 cm**-1
    49:    3197.19 cm**-1
    50:    3208.84 cm**-1
    51:    3208.92 cm**-1
    52:    3219.77 cm**-1
    53:    3220.49 cm**-1

IR SPECTRUM
-----------

 Mode   freq       eps      Int      T**2         TX        TY        TZ
       cm**-1   L/(mol*cm) km/mol    a.u.
----------------------------------------------------------------------------
  6:    173.61   0.000903    4.56  0.001624  ( 0.000070  0.000000  0.040293)
  7:    188.61   0.000000    0.00  0.000000  ( 0.000000  0.000185 -0.000004)
  8:    363.26   0.000983    4.97  0.000844  ( 0.000000  0.029057  0.000000)
  9:    400.51   0.000000    0.00  0.000000  ( 0.000000 -0.000000  0.000000)
 10:    487.03   0.000000    0.00  0.000000  ( 0.000001  0.000000  0.000026)
 11:    494.38   0.007871   39.78  0.004968  (-0.000008 -0.000000 -0.070488)
 12:    516.26   0.000000    0.00  0.000000  ( 0.000016 -0.000000  0.000006)
 13:    518.99   0.000000    0.00  0.000000  (-0.000001 -0.000001  0.000001)
 14:    628.28   0.001655    8.36  0.000822  (-0.028668  0.000000  0.000073)
 15:    650.01   0.000000    0.00  0.000000  ( 0.000000 -0.000009  0.000000)
 16:    736.68   0.000000    0.00  0.000000  ( 0.000000  0.000002  0.000001)
 17:    783.77   0.000000    0.00  0.000000  (-0.000000  0.000000  0.000001)
 18:    806.43   0.000002    0.01  0.000001  (-0.000000 -0.000948  0.000009)
 19:    809.03   0.033133  167.44  0.012780  (-0.000153  0.000000 -0.113049)
 20:    811.93   0.000000    0.00  0.000000  (-0.000017  0.000000  0.000190)
 21:    867.44   0.000000    0.00  0.000000  ( 0.000000 -0.000214  0.000000)
 22:    924.87   0.000000    0.00  0.000000  (-0.000006  0.000000  0.000012)
 23:    944.05   0.000000    0.00  0.000000  ( 0.000010  0.000000  0.000003)
 24:    984.95   0.000000    0.00  0.000000  (-0.000000  0.000001 -0.000000)
 25:   1003.28   0.001072    5.42  0.000333  (-0.000447 -0.000000  0.018253)
 26:   1024.45   0.000000    0.00  0.000000  (-0.000000 -0.000291  0.000000)
 27:   1029.69   0.000000    0.00  0.000000  ( 0.000000 -0.000000 -0.000000)
 28:   1049.97   0.005828   29.45  0.001732  (-0.041618 -0.000000 -0.000193)
 29:   1056.63   0.000000    0.00  0.000000  ( 0.000001 -0.000001 -0.000000)
 30:   1138.81   0.003162   15.98  0.000866  ( 0.000000 -0.029435 -0.000000)
 31:   1151.65   0.000328    1.66  0.000089  (-0.009433  0.000001 -0.000032)
 32:   1152.85   0.000000    0.00  0.000000  ( 0.000009  0.000001 -0.000000)
 33:   1156.67   0.000000    0.00  0.000000  (-0.000000 -0.000002  0.000003)
 34:   1244.80   0.000776    3.92  0.000195  (-0.013948 -0.000000 -0.000053)
 35:   1266.84   0.000000    0.00  0.000000  (-0.000004  0.000002 -0.000002)
 36:   1282.54   0.001137    5.75  0.000277  (-0.000000 -0.016632  0.000000)
 37:   1413.45   0.003175   16.04  0.000701  ( 0.000000 -0.026475 -0.000000)
 38:   1434.57   0.001137    5.75  0.000247  (-0.015729 -0.000000 -0.000042)
 39:   1457.60   0.000000    0.00  0.000000  ( 0.000001 -0.000001 -0.000000)
 40:   1495.49   0.000000    0.00  0.000000  (-0.000000 -0.000000  0.000000)
 41:   1504.72   0.000000    0.00  0.000000  (-0.000008 -0.000000 -0.000005)
 42:   1579.60   0.003741   18.90  0.000739  (-0.027185  0.000000  0.000013)
 43:   1658.52   0.000000    0.00  0.000000  ( 0.000000 -0.000001  0.000000)
 44:   1676.71   0.001341    6.78  0.000250  (-0.000000 -0.015796 -0.000000)
 45:   1718.27   0.000000    0.00  0.000000  (-0.000007 -0.000000 -0.000003)
 46:   3192.76   0.001957    9.89  0.000191  (-0.000001 -0.013829 -0.000000)
 47:   3192.80   0.000000    0.00  0.000000  ( 0.000002  0.000208  0.000001)
 48:   3196.96   0.000070    0.35  0.000007  ( 0.002615  0.000000 -0.000018)
 49:   3197.19   0.000000    0.00  0.000000  (-0.000007  0.000000  0.000000)
 50:   3208.84   0.011244   56.82  0.001094  (-0.000001  0.033068  0.000000)
 51:   3208.92   0.000001    0.01  0.000000  ( 0.000001 -0.000311  0.000001)
 52:   3219.77   0.008535   43.13  0.000827  ( 0.028762  0.000001 -0.000066)
 53:   3220.49   0.000000    0.00  0.000000  (-0.000045  0.000001  0.000000)

--------------------------
THERMOCHEMISTRY AT 298.15K
--------------------------

Temperature         ...   298.15 K
Pressure            ...     1.00 atm
Total Mass          ...   128.17 AMU
Quasi RRHO          ...     True
Cut-Off Frequency   ...     1.00 cm^-1

Throughout the following assumptions are being made:
  (1) The electronic state is orbitally nondegenerate
  (2) There are no thermally accessible electronically excited states
  (3) Hindered rotations indicated by low frequency modes are not
      treated as such but are treated as vibrations and this may
      cause some error
  (4) All equations used are the standard statistical mechanics
      equations for an ideal gas
  (5) All vibrations are strictly harmonic

freq.     173.61  E(vib)   ...       0.38
freq.     188.61  E(vib)   ...       0.36
freq.     363.26  E(vib)   ...       0.22
freq.     400.51  E(vib)   ...       0.19
freq.     487.03  E(vib)   ...       0.15
freq.     494.38  E(vib)   ...       0.14
freq.     516.26  E(vib)   ...       0.13
freq.     518.99  E(vib)   ...       0.13
freq.     628.28  E(vib)   ...       0.09
freq.     650.01  E(vib)   ...       0.08
freq.     736.68  E(vib)   ...       0.06
freq.     783.77  E(vib)   ...       0.05
freq.     806.43  E(vib)   ...       0.05
freq.     809.03  E(vib)   ...       0.05
freq.     811.93  E(vib)   ...       0.05
freq.     867.44  E(vib)   ...       0.04
freq.     924.87  E(vib)   ...       0.03
freq.     944.05  E(vib)   ...       0.03
freq.     984.95  E(vib)   ...       0.02
freq.    1003.28  E(vib)   ...       0.02
freq.    1024.45  E(vib)   ...       0.02
freq.    1029.69  E(vib)   ...       0.02
freq.    1049.97  E(vib)   ...       0.02
freq.    1056.63  E(vib)   ...       0.02
freq.    1138.81  E(vib)   ...       0.01
freq.    1151.65  E(vib)   ...       0.01
freq.    1152.85  E(vib)   ...       0.01
freq.    1156.67  E(vib)   ...       0.01
freq.    1244.80  E(vib)   ...       0.01
freq.    1266.84  E(vib)   ...       0.01
freq.    1282.54  E(vib)   ...       0.01
freq.    1413.45  E(vib)   ...       0.00
freq.    1434.57  E(vib)   ...       0.00
freq.    1457.60  E(vib)   ...       0.00
freq.    1495.49  E(vib)   ...       0.00
freq.    1504.72  E(vib)   ...       0.00
freq.    1579.60  E(vib)   ...       0.00
freq.    1658.52  E(vib)   ...       0.00
freq.    1676.71  E(vib)   ...       0.00
freq.    1718.27  E(vib)   ...       0.00
freq.    3192.76  E(vib)   ...       0.00
freq.    3192.80  E(vib)   ...       0.00
freq.    3196.96  E(vib)   ...       0.00
freq.    3197.19  E(vib)   ...       0.00
freq.    3208.84  E(vib)   ...       0.00
freq.    3208.92  E(vib)   ...       0.00
freq.    3219.77  E(vib)   ...       0.00
freq.    3220.49  E(vib)   ...       0.00

------------
INNER ENERGY
------------

The inner energy is: U= E(el) + E(ZPE) + E(vib) + E(rot) + E(trans)
    E(el)   - is the total energy from the electronic structure calculation
              = E(kin-el) + E(nuc-el) + E(el-el) + E(nuc-nuc)
    E(ZPE)  - the the zero temperature vibrational energy from the frequency calculation
    E(vib)  - the the finite temperature correction to E(ZPE) due to population
              of excited vibrational states
    E(rot)  - is the rotational thermal energy
    E(trans)- is the translational thermal energy

Summary of contributions to the inner energy U:
Electronic energy                ...   -385.17181241 Eh
Zero point energy                ...      0.14859330 Eh      93.24 kcal/mol
Thermal vibrational correction   ...      0.00392965 Eh       2.47 kcal/mol
Thermal rotational correction    ...      0.00141627 Eh       0.89 kcal/mol
Thermal translational correction ...      0.00141627 Eh       0.89 kcal/mol
-----------------------------------------------------------------------
Total thermal energy                   -385.01645691 Eh

Summary of corrections to the electronic energy:
(perhaps to be used in another calculation)
Total thermal correction                  0.00676219 Eh       4.24 kcal/mol
Non-thermal (ZPE) correction              0.14859330 Eh      93.24 kcal/mol
-----------------------------------------------------------------------
Total correction                          0.15535550 Eh      97.49 kcal/mol

--------
ENTHALPY
--------

The enthalpy is H = U + kB*T
                kB is Boltzmann's constant
Total thermal energy              ...   -385.01645691 Eh
Thermal Enthalpy correction       ...      0.00094421 Eh       0.59 kcal/mol
-----------------------------------------------------------------------
Total Enthalpy                    ...   -385.01551270 Eh

Note: Rotational entropy computed according to Herzberg
Infrared and Raman Spectra, Chapter V,1, Van Nostrand Reinhold, 1945
Point Group:  C2h, Symmetry Number:   2
Rotational constants in cm-1:     0.103830     0.041052     0.029420

Vibrational entropy computed according to the QRRHO of S. Grimme
Chem.Eur.J. 2012 18 9955 using a reference frequency of 100.0 cm-1

-------
ENTROPY
-------

The entropy contributions are T*S = T*(S(el)+S(vib)+S(rot)+S(trans))
     S(el)   - electronic entropy
     S(vib)  - vibrational entropy
     S(rot)  - rotational entropy
     S(trans)- translational entropy
The entropies will be listed as multiplied by the temperature to get
units of energy

Electronic entropy                ...      0.00000000 Eh      0.00 kcal/mol
Vibrational entropy               ...      0.00592437 Eh      3.72 kcal/mol
Rotational entropy                ...      0.01309761 Eh      8.22 kcal/mol
Translational entropy             ...      0.01922279 Eh     12.06 kcal/mol
-----------------------------------------------------------------------
Final entropy term                ...      0.03824477 Eh     24.00 kcal/mol

In case the symmetry of your molecule has not been determined correctly
or in case you have a reason to use a different symmetry number we print
out the resulting rotational entropy values for sn=1,12:

 non-linear molecules -----------------------------------
|  sn= 1 | S(rot)=       0.01375207 Eh      8.63 kcal/mol|
|  sn= 2 | S(rot)=       0.01309761 Eh      8.22 kcal/mol|
|  sn= 3 | S(rot)=       0.01271478 Eh      7.98 kcal/mol|
|  sn= 4 | S(rot)=       0.01244315 Eh      7.81 kcal/mol|
|  sn= 5 | S(rot)=       0.01223247 Eh      7.68 kcal/mol|
|  sn= 6 | S(rot)=       0.01206032 Eh      7.57 kcal/mol|
|  sn= 7 | S(rot)=       0.01191478 Eh      7.48 kcal/mol|
|  sn= 8 | S(rot)=       0.01178870 Eh      7.40 kcal/mol|
|  sn= 9 | S(rot)=       0.01167749 Eh      7.33 kcal/mol|
|  sn=10 | S(rot)=       0.01157801 Eh      7.27 kcal/mol|
|  sn=11 | S(rot)=       0.01148802 Eh      7.21 kcal/mol|
|  sn=12 | S(rot)=       0.01140587 Eh      7.16 kcal/mol|
 linear molecules ---------------------------------------
|  Dinfh | S(rot)=       0.00865506 Eh      5.43 kcal/mol|
|  Cinfv | S(rot)=       0.00930952 Eh      5.84 kcal/mol|
 --------------------------------------------------------

                             ****ORCA TERMINATED NORMALLY****
TOTAL RUN TIME: 0 days 0 hours 28 minutes 52 seconds 220 msec
