                         Program Version 6.0.0  -   RELEASE  -
|  1> !B3LYP aug-cc-pVTZ d3 TightSCF SlowConv RIJCOSX defgrid2
|  2>
|  3> %pal
|  4> nprocs 4
|  5> end
|  6>
|  7> %scf
|  8> MaxIter 1500
|  9> end
| 10>
| 11> %maxcore 3000
| 12>
| 13> !CPCM
| 14> %cpcm smd true
| 15> SMDsolvent "MeCN"
| 16> surfacetype gepol_ses
| 17> rsolv 2.19
| 18> end
| 19>
| 20> * xyz 1 2
| 21> C           1.51758494546740     -1.23435025814247     -0.00000948537283
| 22> C           2.20770781647749      0.00001697777377     -0.00002575082433
| 23> C           1.51757870176219      1.23438133176831     -0.00002376652717
| 24> C           0.14399615849667      1.24528780380919     -0.00000994709932
| 25> C          -0.57050335234681      0.00000980865076      0.00000339046104
| 26> C           0.14400107382655     -1.24526565590726      0.00000274901341
| 27> H          -0.41918051446955     -2.18175157250380      0.00001235664707
| 28> C          -1.95875076928202      0.00001227638427      0.00003168049002
| 29> C          -3.18886914512795      0.00003850956088      0.00015576875982
| 30> H          -4.27093083747358      0.00004174929515      0.00024791741498
| 31> H          -0.41918961682318      2.18177237850725     -0.00001398172647
| 32> H           2.07968932476853      2.17184704992506     -0.00003742036749
| 33> H           3.30249892053071      0.00001489531919     -0.00004324082103
| 34> H           2.07970099419353     -2.17181369444030     -0.00001477004770
| 35> *
| 36>
| 37>                          ****END OF INPUT****

CARTESIAN COORDINATES (ANGSTROEM)
---------------------------------
  C      1.517585   -1.234350   -0.000009
  C      2.207708    0.000017   -0.000026
  C      1.517579    1.234381   -0.000024
  C      0.143996    1.245288   -0.000010
  C     -0.570503    0.000010    0.000003
  C      0.144001   -1.245266    0.000003
  H     -0.419181   -2.181752    0.000012
  C     -1.958751    0.000012    0.000032
  C     -3.188869    0.000039    0.000156
  H     -4.270931    0.000042    0.000248
  H     -0.419190    2.181772   -0.000014
  H      2.079689    2.171847   -0.000037
  H      3.302499    0.000015   -0.000043
  H      2.079701   -2.171814   -0.000015

 Total Charge           Charge          ....    1
 Multiplicity           Mult            ....    2
 Number of Electrons    NEL             ....   53
 Basis Dimension        Dim             ....  506

ORBITAL ENERGIES
----------------
                 SPIN UP ORBITALS
  NO   OCC          E(Eh)            E(eV)
   0   1.0000     -10.275520      -279.6111
   1   1.0000     -10.252319      -278.9798
   2   1.0000     -10.247950      -278.8609
   3   1.0000     -10.242800      -278.7208
   4   1.0000     -10.234963      -278.5075
   5   1.0000     -10.234959      -278.5074
   6   1.0000     -10.220550      -278.1153
   7   1.0000     -10.220548      -278.1153
   8   1.0000      -0.914897       -24.8956
   9   1.0000      -0.841472       -22.8976
  10   1.0000      -0.795883       -21.6571
  11   1.0000      -0.784660       -21.3517
  12   1.0000      -0.678634       -18.4666
  13   1.0000      -0.648175       -17.6377
  14   1.0000      -0.588672       -16.0186
  15   1.0000      -0.553991       -15.0749
  16   1.0000      -0.517739       -14.0884
  17   1.0000      -0.506060       -13.7706
  18   1.0000      -0.467731       -12.7276
  19   1.0000      -0.463212       -12.6046
  20   1.0000      -0.437181       -11.8963
  21   1.0000      -0.399441       -10.8693
  22   1.0000      -0.388164       -10.5625
  23   1.0000      -0.371718       -10.1150
  24   1.0000      -0.332139        -9.0380
  25   1.0000      -0.304064        -8.2740
  26   1.0000      -0.295882        -8.0514
  27   0.0000      -0.101416        -2.7597
  28   0.0000      -0.051216        -1.3937
  29   0.0000      -0.014264        -0.3881
  30   0.0000      -0.007966        -0.2168
  31   0.0000       0.006986         0.1901

                 SPIN DOWN ORBITALS
  NO   OCC          E(Eh)            E(eV)
   0   1.0000     -10.271872      -279.5119
   1   1.0000     -10.246319      -278.8165
   2   1.0000     -10.243416      -278.7375
   3   1.0000     -10.243211      -278.7319
   4   1.0000     -10.233863      -278.4776
   5   1.0000     -10.233861      -278.4775
   6   1.0000     -10.220939      -278.1259
   7   1.0000     -10.220938      -278.1259
   8   1.0000      -0.907821       -24.7031
   9   1.0000      -0.832755       -22.6604
  10   1.0000      -0.794289       -21.6137
  11   1.0000      -0.768517       -20.9124
  12   1.0000      -0.672176       -18.2908
  13   1.0000      -0.644485       -17.5373
  14   1.0000      -0.585270       -15.9260
  15   1.0000      -0.549745       -14.9593
  16   1.0000      -0.515007       -14.0140
  17   1.0000      -0.503535       -13.7019
  18   1.0000      -0.464921       -12.6511
  19   1.0000      -0.462929       -12.5969
  20   1.0000      -0.416398       -11.3308
  21   1.0000      -0.398148       -10.8342
  22   1.0000      -0.386284       -10.5113
  23   1.0000      -0.342082        -9.3085
  24   1.0000      -0.327445        -8.9102
  25   1.0000      -0.300265        -8.1706
  26   0.0000      -0.217880        -5.9288
  27   0.0000      -0.074011        -2.0139
  28   0.0000      -0.042179        -1.1477
  29   0.0000      -0.012281        -0.3342
  30   0.0000      -0.007661        -0.2085

MULLIKEN ATOMIC CHARGES AND SPIN POPULATIONS
--------------------------------------------
   0 C :   -0.471199   -0.029098
   1 C :    0.083993    0.310148
   2 C :   -0.470698   -0.029106
   3 C :   -1.069952    0.061882
   4 C :    1.410869    0.277312
   5 C :   -1.070127    0.061870
   6 H :   -0.258808   -0.010692
   7 C :    1.508651   -0.053469
   8 C :   -0.365507    0.438893
   9 H :    0.392983   -0.015362
  10 H :   -0.258443   -0.010709
  11 H :    0.561480    0.002322
  12 H :    0.444993   -0.006310
  13 H :    0.561767    0.002319
Sum of atomic charges         :    1.0000000

LOEWDIN ATOMIC CHARGES AND SPIN POPULATIONS
-------------------------------------------
   0 C :    0.271653    0.049357
   1 C :    0.295467    0.161535
   2 C :    0.271655    0.049356
   3 C :    0.268622    0.068311
   4 C :   -0.139444    0.142803
   5 C :    0.268623    0.068310
   6 H :   -0.132426    0.007802
   7 C :    0.091409    0.113615
   8 C :    0.554096    0.246340
   9 H :   -0.210378    0.050507
  10 H :   -0.132425    0.007802
  11 H :   -0.140592   -0.000279
  12 H :   -0.125670    0.034821
  13 H :   -0.140591   -0.000279

  Mayer bond orders larger than 0.100000
B(  0-C ,  1-C ) :   1.0380 B(  0-C ,  2-C ) :   0.1007 B(  0-C ,  3-C ) :   0.1489
B(  0-C ,  4-C ) :   0.5040 B(  0-C ,  5-C ) :   1.4157 B(  0-C ,  6-H ) :  -0.1073
B(  0-C ,  7-C ) :  -0.2202 B(  0-C ,  8-C ) :  -0.1263 B(  0-C , 13-H ) :   0.5122
B(  1-C ,  2-C ) :   1.0376 B(  1-C ,  3-C ) :  -0.2884 B(  1-C ,  4-C ) :  -0.4577
B(  1-C ,  5-C ) :  -0.2881 B(  1-C ,  6-H ) :  -0.1028 B(  1-C ,  7-C ) :   0.4928
B(  1-C ,  8-C ) :   0.2331 B(  1-C , 10-H ) :  -0.1028 B(  1-C , 12-H ) :   0.7048
B(  2-C ,  3-C ) :   1.4158 B(  2-C ,  4-C ) :   0.5057 B(  2-C ,  5-C ) :   0.1498
B(  2-C ,  7-C ) :  -0.2216 B(  2-C ,  8-C ) :  -0.1273 B(  2-C , 10-H ) :  -0.1070
B(  2-C , 11-H ) :   0.5122 B(  3-C ,  4-C ) :   0.3310 B(  3-C ,  5-C ) :  -0.3981
B(  3-C ,  6-H ) :   0.3348 B(  3-C ,  7-C ) :   0.2467 B(  3-C ,  8-C ) :  -0.2175
B(  3-C , 10-H ) :   2.1339 B(  3-C , 11-H ) :  -0.2046 B(  4-C ,  5-C ) :   0.3287
B(  4-C ,  6-H ) :   0.1199 B(  4-C ,  8-C ) :   0.9182 B(  4-C ,  9-H ) :   0.1121
B(  4-C , 10-H ) :   0.1191 B(  5-C ,  6-H ) :   2.1351 B(  5-C ,  7-C ) :   0.2473
B(  5-C ,  8-C ) :  -0.2158 B(  5-C , 10-H ) :   0.3353 B(  5-C , 13-H ) :  -0.2047
B(  6-H ,  7-C ) :  -0.5061 B(  6-H ,  8-C ) :  -0.5411 B(  6-H , 10-H ) :   0.4843
B(  6-H , 11-H ) :  -0.1124 B(  6-H , 13-H ) :  -0.1083 B(  7-C ,  8-C ) :   2.1592
B(  7-C ,  9-H ) :  -0.1798 B(  7-C , 10-H ) :  -0.5048 B(  7-C , 11-H ) :   0.1695
B(  7-C , 13-H ) :   0.1692 B(  8-C ,  9-H ) :   1.0527 B(  8-C , 10-H ) :  -0.5400
B(  8-C , 11-H ) :   0.1728 B(  8-C , 13-H ) :   0.1722 B( 10-H , 11-H ) :  -0.1082
B( 10-H , 13-H ) :  -0.1131

Dispersion correction           -0.024513816
FINAL SINGLE POINT ENERGY      -308.112919614707

DIPOLE MOMENT
-------------

Method             : SCF
Type of density    : Electron Density
Multiplicity       :   2
Irrep              :   0
Energy             :  -308.0884057990349447 Eh
Relativity type    :
Basis              : AO
                                X                 Y                 Z
Electronic contribution:     -2.442845240      -0.000003516      -0.000322622
Nuclear contribution   :      2.200402781       0.000011219       0.000050647
                        -----------------------------------------
Total Dipole Moment    :     -0.242442459       0.000007703      -0.000271976
                        -----------------------------------------
Magnitude (a.u.)       :      0.242442612
Magnitude (Debye)      :      0.616240146

Rotational constants in cm-1:             0.181347             0.051878             0.040338
Rotational constants in MHz :          5436.638218          1555.263096          1209.313806

                             ****ORCA TERMINATED NORMALLY****
TOTAL RUN TIME: 0 days 0 hours 4 minutes 6 seconds 203 msec
