                         Program Version 6.0.0  -   RELEASE  -
|  1> !PBE0 def2-SV(p) Opt Freq d3 TightSCF SlowConv RIJCOSX defgrid2
|  2>
|  3> %pal
|  4> nprocs 4
|  5> end
|  6>
|  7> %scf
|  8> MaxIter 1500
|  9> end
| 10>
| 11> %maxcore 3000
| 12>
| 13>
| 14>
| 15> * xyz 1 2
| 16> C    -0.3311531    0.8043001   -0.0001791
| 17> C    -1.6163068    0.2577930   -0.0000218
| 18> C    -1.7656827   -1.1533754    0.0000720
| 19> C    -0.6436511   -1.9654869    0.0000256
| 20> C     0.6253806   -1.4202409   -0.0000780
| 21> C     0.8018053   -0.0055302   -0.0001689
| 22> C     2.0963451    0.6116125   -0.0002575
| 23> C     3.3016486   -0.0197148    0.0001849
| 24> C     4.5823563    0.6921738    0.0001044
| 25> H     5.1751988    0.3851188   -0.8661308
| 26> H     5.1748184    0.3859800    0.8669067
| 27> H     4.4621581    1.7722238   -0.0004505
| 28> H     3.3641278   -1.0991446    0.0006851
| 29> H     2.0921804    1.6945149   -0.0006559
| 30> H     1.4811271   -2.0745420   -0.0001459
| 31> H    -0.7678683   -3.0371591    0.0000757
| 32> H    -2.7474154   -1.6000463    0.0001631
| 33> O    -2.6241856    1.1227147    0.0000372
| 34> C    -3.9701241    0.6879264    0.0002854
| 35> H    -4.5668963    1.5979217    0.0003712
| 36> H    -4.1976147    0.1026133    0.8947735
| 37> H    -4.1979296    0.1025780   -0.8940999
| 38> H    -0.2411562    1.8791032   -0.0002606
| 39> *
| 40>
| 41>                          ****END OF INPUT****
 Total Charge           Charge          ....    1
 Multiplicity           Mult            ....    2
 Number of Electrons    NEL             ....   79
Dispersion correction           -0.019992521
FINAL SINGLE POINT ENERGY      -462.320087097902
Dispersion correction             ... done (  0.1 sec)
Dispersion correction           -0.019951009
FINAL SINGLE POINT ENERGY      -462.322642902356
Dispersion correction             ... done (  0.1 sec)
Dispersion correction           -0.019944561
FINAL SINGLE POINT ENERGY      -462.322780063454
Dispersion correction             ... done (  0.0 sec)
Dispersion correction           -0.019943458
FINAL SINGLE POINT ENERGY      -462.322811964554
Dispersion correction             ... done (  0.1 sec)
Dispersion correction           -0.019943516
FINAL SINGLE POINT ENERGY      -462.322815001892
Dispersion correction             ... done (  0.1 sec)
                    ***********************HURRAY********************

CARTESIAN COORDINATES (ANGSTROEM)
---------------------------------
  C     -0.342703    0.847112   -0.000005
  C     -1.621142    0.283107    0.000050
  C     -1.766558   -1.145348    0.000159
  C     -0.640478   -1.961247    0.000210
  C      0.627117   -1.397786    0.000155
  C      0.793827    0.037583    0.000029
  C      2.092409    0.645480   -0.000038
  C      3.294308   -0.010322    0.000003
  C      4.607601    0.659479   -0.000049
  H      5.198098    0.335045   -0.879625
  H      5.198054    0.335236    0.879627
  H      4.530475    1.757428   -0.000165
  H      3.313186   -1.107378    0.000084
  H      2.109266    1.741793   -0.000128
  H      1.501213   -2.051420    0.000194
  H     -0.759151   -3.047491    0.000293
  H     -2.761002   -1.596692    0.000204
  O     -2.639492    1.108700   -0.000008
  C     -3.986182    0.655657    0.000068
  H     -4.602882    1.563719    0.000024
  H     -4.199968    0.066365    0.907757
  H     -4.200020    0.066239   -0.907525
  H     -0.258814    1.936074   -0.000080

 Multiplicity           Mult            ....    2
 Number of Electrons    NEL             ....   79
 Basis Dimension        Dim             ....  178

ORBITAL ENERGIES
----------------
                 SPIN UP ORBITALS
  NO   OCC          E(Eh)            E(eV)
   0   1.0000     -19.425852      -528.6043
   1   1.0000     -10.489821      -285.4425
   2   1.0000     -10.440748      -284.1072
   3   1.0000     -10.436115      -283.9811
   4   1.0000     -10.435724      -283.9705
   5   1.0000     -10.432086      -283.8715
   6   1.0000     -10.425604      -283.6951
   7   1.0000     -10.414950      -283.4052
   8   1.0000     -10.413201      -283.3576
   9   1.0000     -10.399836      -282.9939
  10   1.0000     -10.370108      -282.1850
  11   1.0000      -1.278342       -34.7855
  12   1.0000      -1.064262       -28.9600
  13   1.0000      -1.000388       -27.2219
  14   1.0000      -0.955889       -26.0111
  15   1.0000      -0.946240       -25.7485
  16   1.0000      -0.886291       -24.1172
  17   1.0000      -0.864886       -23.5348
  18   1.0000      -0.799863       -21.7654
  19   1.0000      -0.787464       -21.4280
  20   1.0000      -0.735796       -20.0220
  21   1.0000      -0.715509       -19.4700
  22   1.0000      -0.683984       -18.6122
  23   1.0000      -0.675255       -18.3746
  24   1.0000      -0.655816       -17.8457
  25   1.0000      -0.652616       -17.7586
  26   1.0000      -0.620201       -16.8765
  27   1.0000      -0.603667       -16.4266
  28   1.0000      -0.585262       -15.9258
  29   1.0000      -0.583559       -15.8794
  30   1.0000      -0.571142       -15.5416
  31   1.0000      -0.569315       -15.4919
  32   1.0000      -0.558012       -15.1843
  33   1.0000      -0.538478       -14.6527
  34   1.0000      -0.525587       -14.3020
  35   1.0000      -0.524276       -14.2663
  36   1.0000      -0.503373       -13.6975
  37   1.0000      -0.487332       -13.2610
  38   1.0000      -0.419623       -11.4185
  39   1.0000      -0.415307       -11.3011
  40   0.0000      -0.222698        -6.0599
  41   0.0000      -0.172445        -4.6925
  42   0.0000      -0.117563        -3.1991
  43   0.0000      -0.071130        -1.9355
  44   0.0000      -0.059091        -1.6080

                 SPIN DOWN ORBITALS
  NO   OCC          E(Eh)            E(eV)
   0   1.0000     -19.423436      -528.5386
   1   1.0000     -10.489406      -285.4312
   2   1.0000     -10.439822      -284.0820
   3   1.0000     -10.430172      -283.8194
   4   1.0000     -10.429371      -283.7976
   5   1.0000     -10.428005      -283.7604
   6   1.0000     -10.425716      -283.6982
   7   1.0000     -10.415768      -283.4275
   8   1.0000     -10.414270      -283.3867
   9   1.0000     -10.400677      -283.0168
  10   1.0000     -10.370251      -282.1889
  11   1.0000      -1.273999       -34.6673
  12   1.0000      -1.057318       -28.7711
  13   1.0000      -0.992716       -27.0132
  14   1.0000      -0.954073       -25.9616
  15   1.0000      -0.936883       -25.4939
  16   1.0000      -0.879210       -23.9245
  17   1.0000      -0.861985       -23.4558
  18   1.0000      -0.796556       -21.6754
  19   1.0000      -0.783224       -21.3126
  20   1.0000      -0.732650       -19.9364
  21   1.0000      -0.712657       -19.3924
  22   1.0000      -0.681374       -18.5411
  23   1.0000      -0.672029       -18.2868
  24   1.0000      -0.649283       -17.6679
  25   1.0000      -0.646894       -17.6029
  26   1.0000      -0.619554       -16.8589
  27   1.0000      -0.602761       -16.4020
  28   1.0000      -0.581391       -15.8205
  29   1.0000      -0.572764       -15.5857
  30   1.0000      -0.567309       -15.4373
  31   1.0000      -0.559887       -15.2353
  32   1.0000      -0.556286       -15.1373
  33   1.0000      -0.537065       -14.6143
  34   1.0000      -0.522715       -14.2238
  35   1.0000      -0.511008       -13.9052
  36   1.0000      -0.501235       -13.6393
  37   1.0000      -0.469522       -12.7764
  38   1.0000      -0.402781       -10.9602
  39   0.0000      -0.330184        -8.9848
  40   0.0000      -0.195611        -5.3229
  41   0.0000      -0.160601        -4.3702
  42   0.0000      -0.097961        -2.6656
  43   0.0000      -0.069259        -1.8846

MULLIKEN ATOMIC CHARGES AND SPIN POPULATIONS
--------------------------------------------
   0 C :   -0.183807   -0.063321
   1 C :    0.291232    0.021160
   2 C :   -0.132705    0.420670
   3 C :   -0.065004   -0.211276
   4 C :   -0.058589    0.435519
   5 C :    0.104359    0.045866
   6 C :   -0.101343    0.040162
   7 C :   -0.109438    0.264330
   8 C :   -0.332270   -0.022537
   9 H :    0.196049    0.019196
  10 H :    0.196050    0.019197
  11 H :    0.176934    0.000045
  12 H :    0.168009   -0.012662
  13 H :    0.146905   -0.002974
  14 H :    0.151111   -0.020891
  15 H :    0.158669    0.007092
  16 H :    0.157189   -0.020454
  17 O :   -0.257587    0.075984
  18 C :   -0.193178   -0.007523
  19 H :    0.199930   -0.000041
  20 H :    0.173371    0.005428
  21 H :    0.173371    0.005429
  22 H :    0.140742    0.001599
Sum of atomic charges         :    1.0000000

LOEWDIN ATOMIC CHARGES AND SPIN POPULATIONS
-------------------------------------------
   0 C :   -0.129706   -0.041301
   1 C :    0.086389    0.039589
   2 C :   -0.057764    0.334746
   3 C :   -0.101529   -0.112607
   4 C :   -0.020312    0.351736
   5 C :    0.011415    0.062241
   6 C :   -0.090381    0.050671
   7 C :   -0.012951    0.225290
   8 C :   -0.334711    0.000362
   9 H :    0.171732    0.016639
  10 H :    0.171734    0.016641
  11 H :    0.149717    0.000045
  12 H :    0.146925   -0.006484
  13 H :    0.155687   -0.001624
  14 H :    0.156153   -0.010422
  15 H :    0.164055    0.003379
  16 H :    0.163828   -0.010042
  17 O :   -0.027227    0.076286
  18 C :   -0.194049   -0.003077
  19 H :    0.154356   -0.000037
  20 H :    0.136117    0.003695
  21 H :    0.136117    0.003695
  22 H :    0.164403    0.000581

  Mayer bond orders larger than 0.100000
B(  0-C ,  1-C ) :   1.3415 B(  0-C ,  5-C ) :   1.3440 B(  0-C , 22-H ) :   0.9622
B(  1-C ,  2-C ) :   1.1452 B(  1-C , 17-O ) :   1.2533 B(  2-C ,  3-C ) :   1.3848
B(  2-C , 16-H ) :   0.9453 B(  3-C ,  4-C ) :   1.4110 B(  3-C , 15-H ) :   0.9496
B(  4-C ,  5-C ) :   1.1417 B(  4-C , 14-H ) :   0.9388 B(  5-C ,  6-C ) :   1.2311
B(  6-C ,  7-C ) :   1.6221 B(  6-C , 13-H ) :   0.9305 B(  7-C ,  8-C ) :   1.1261
B(  7-C , 12-H ) :   0.9026 B(  8-C ,  9-H ) :   0.9026 B(  8-C , 10-H ) :   0.9026
B(  8-C , 11-H ) :   0.9447 B( 17-O , 18-C ) :   0.8841 B( 18-C , 19-H ) :   0.9449
B( 18-C , 20-H ) :   0.9367 B( 18-C , 21-H ) :   0.9367

Dispersion correction           -0.019943482
FINAL SINGLE POINT ENERGY      -462.322815419556

DIPOLE MOMENT
-------------

Method             : SCF
Type of density    : Electron Density
Multiplicity       :   2
Irrep              :   0
Energy             :  -462.3028719374029833 Eh
Relativity type    :
Basis              : AO
                                X                 Y                 Z
Electronic contribution:     -4.454713201      -0.587233759       0.000021595
Nuclear contribution   :      4.745595693      -0.067246961       0.000048364
                        -----------------------------------------
Total Dipole Moment    :      0.290882493      -0.654480721       0.000069959
                        -----------------------------------------
Magnitude (a.u.)       :      0.716210614
Magnitude (Debye)      :      1.820462705

VIBRATIONAL FREQUENCIES
-----------------------

Scaling factor for frequencies =  1.000000000  (already applied!)

     0:       0.00 cm**-1
     1:       0.00 cm**-1
     2:       0.00 cm**-1
     3:       0.00 cm**-1
     4:       0.00 cm**-1
     5:       0.00 cm**-1
     6:      59.03 cm**-1
     7:     118.03 cm**-1
     8:     127.52 cm**-1
     9:     131.75 cm**-1
    10:     183.73 cm**-1
    11:     189.89 cm**-1
    12:     234.65 cm**-1
    13:     251.57 cm**-1
    14:     273.79 cm**-1
    15:     336.12 cm**-1
    16:     367.45 cm**-1
    17:     419.65 cm**-1
    18:     446.39 cm**-1
    19:     560.98 cm**-1
    20:     605.78 cm**-1
    21:     625.16 cm**-1
    22:     628.68 cm**-1
    23:     764.56 cm**-1
    24:     795.45 cm**-1
    25:     831.74 cm**-1
    26:     901.38 cm**-1
    27:     909.26 cm**-1
    28:     915.03 cm**-1
    29:     970.32 cm**-1
    30:     977.06 cm**-1
    31:     993.54 cm**-1
    32:    1007.11 cm**-1
    33:    1039.40 cm**-1
    34:    1078.45 cm**-1
    35:    1138.62 cm**-1
    36:    1158.48 cm**-1
    37:    1164.32 cm**-1
    38:    1167.10 cm**-1
    39:    1203.51 cm**-1
    40:    1244.48 cm**-1
    41:    1310.86 cm**-1
    42:    1330.05 cm**-1
    43:    1344.12 cm**-1
    44:    1379.49 cm**-1
    45:    1388.76 cm**-1
    46:    1436.17 cm**-1
    47:    1444.15 cm**-1
    48:    1453.05 cm**-1
    49:    1469.31 cm**-1
    50:    1481.76 cm**-1
    51:    1487.39 cm**-1
    52:    1499.27 cm**-1
    53:    1540.81 cm**-1
    54:    1582.64 cm**-1
    55:    1611.45 cm**-1
    56:    1669.82 cm**-1
    57:    3018.26 cm**-1
    58:    3054.37 cm**-1
    59:    3087.76 cm**-1
    60:    3155.58 cm**-1
    61:    3164.50 cm**-1
    62:    3185.18 cm**-1
    63:    3193.04 cm**-1
    64:    3210.50 cm**-1
    65:    3230.15 cm**-1
    66:    3234.11 cm**-1
    67:    3244.55 cm**-1
    68:    3250.13 cm**-1

IR SPECTRUM
-----------

 Mode   freq       eps      Int      T**2         TX        TY        TZ
       cm**-1   L/(mol*cm) km/mol    a.u.
----------------------------------------------------------------------------
  6:     59.03   0.000763    3.86  0.004033  (-0.000010 -0.000005 -0.063505)
  7:    118.03   0.000129    0.65  0.000341  (-0.000008  0.000008  0.018465)
  8:    127.52   0.000030    0.15  0.000073  (-0.000006  0.000011 -0.008544)
  9:    131.75   0.000075    0.38  0.000177  (-0.000757  0.013281  0.000006)
 10:    183.73   0.000637    3.22  0.001082  ( 0.000003  0.000008  0.032893)
 11:    189.89   0.000093    0.47  0.000152  ( 0.000009 -0.000005 -0.012332)
 12:    234.65   0.000145    0.73  0.000193  (-0.000038  0.000010  0.013889)
 13:    251.57   0.002773   14.01  0.003440  (-0.056752  0.014796 -0.000005)
 14:    273.79   0.000005    0.02  0.000006  (-0.000019  0.000008 -0.002366)
 15:    336.12   0.002686   13.57  0.002494  ( 0.049905  0.001774 -0.000001)
 16:    367.45   0.000211    1.06  0.000179  (-0.008828 -0.010046  0.000001)
 17:    419.65   0.000019    0.09  0.000014  (-0.000004 -0.000003 -0.003715)
 18:    446.39   0.026609  134.47  0.018602  ( 0.136162  0.007862 -0.000002)
 19:    560.98   0.022350  112.95  0.012433  (-0.111126  0.009163  0.000000)
 20:    605.78   0.000043    0.22  0.000022  ( 0.000012 -0.000004 -0.004719)
 21:    625.16   0.003643   18.41  0.001818  (-0.042640 -0.000510  0.000002)
 22:    628.68   0.004489   22.69  0.002228  (-0.000002 -0.000002  0.047207)
 23:    764.56   0.011254   56.87  0.004594  ( 0.064671  0.020277 -0.000001)
 24:    795.45   0.004875   24.64  0.001912  ( 0.000005  0.000001  0.043732)
 25:    831.74   0.000348    1.76  0.000131  ( 0.000009 -0.000004  0.011433)
 26:    901.38   0.006058   30.61  0.002097  ( 0.040653  0.021083 -0.000005)
 27:    909.26   0.002475   12.51  0.000849  ( 0.000005 -0.000005 -0.029143)
 28:    915.03   0.000095    0.48  0.000032  ( 0.000006  0.000002  0.005690)
 29:    970.32   0.028062  141.81  0.009025  (-0.094986  0.001580  0.000015)
 30:    977.06   0.006519   32.94  0.002082  ( 0.000032  0.000001  0.045629)
 31:    993.54   0.010005   50.56  0.003143  (-0.056028 -0.001874  0.000001)
 32:   1007.11   0.000269    1.36  0.000083  (-0.000003  0.000002  0.009122)
 33:   1039.40   0.000417    2.11  0.000125  ( 0.000002  0.000003  0.011192)
 34:   1078.45   0.012613   63.74  0.003650  (-0.058840 -0.013691  0.000003)
 35:   1138.62   0.001264    6.39  0.000346  ( 0.002381  0.018460 -0.000002)
 36:   1158.48   0.087856  443.99  0.023666  ( 0.153617  0.008245 -0.000002)
 37:   1164.32   0.000179    0.91  0.000048  ( 0.006916 -0.000484 -0.000001)
 38:   1167.10   0.000089    0.45  0.000024  ( 0.000004 -0.000001 -0.004874)
 39:   1203.51   0.000826    4.17  0.000214  (-0.012012 -0.008353  0.000001)
 40:   1244.48   0.010340   52.25  0.002593  (-0.050220  0.008406  0.000000)
 41:   1310.86   0.057478  290.47  0.013683  ( 0.116868  0.005017 -0.000001)
 42:   1330.05   0.046119  233.07  0.010821  (-0.103386  0.011494  0.000000)
 43:   1344.12   0.001019    5.15  0.000237  (-0.006205 -0.014076  0.000001)
 44:   1379.49   0.045889  231.90  0.010381  (-0.101879  0.001269 -0.000002)
 45:   1388.76   0.065470  330.86  0.014712  (-0.120838  0.010471  0.000002)
 46:   1436.17   0.003935   19.89  0.000855  (-0.000005  0.000005  0.029243)
 47:   1444.15   0.021020  106.23  0.004542  (-0.067098 -0.006332  0.000001)
 48:   1453.05   0.037056  187.27  0.007958  ( 0.085334 -0.026007  0.000005)
 49:   1469.31   0.009329   47.15  0.001981  ( 0.039070 -0.021328 -0.000000)
 50:   1481.76   0.003121   15.77  0.000657  ( 0.025408  0.003412  0.000013)
 51:   1487.39   0.004020   20.32  0.000843  ( 0.000004  0.000002 -0.029043)
 52:   1499.27   0.009458   47.80  0.001969  ( 0.036451 -0.025299 -0.000000)
 53:   1540.81   0.011934   60.31  0.002417  ( 0.047946 -0.010869  0.000001)
 54:   1582.64   0.335094  1693.43  0.066074  (-0.257036 -0.002456  0.000004)
 55:   1611.45   0.106489  538.15  0.020622  ( 0.143318  0.009054 -0.000003)
 56:   1669.82   0.025963  131.20  0.004852  ( 0.053736  0.044323 -0.000004)
 57:   3018.26   0.013282   67.12  0.001373  (-0.036762 -0.004673  0.000000)
 58:   3054.37   0.007036   35.56  0.000719  ( 0.026168  0.005845 -0.000002)
 59:   3087.76   0.000501    2.53  0.000051  ( 0.000001  0.000001  0.007119)
 60:   3155.58   0.000844    4.26  0.000083  (-0.000001 -0.000001 -0.009134)
 61:   3164.50   0.004690   23.70  0.000463  (-0.021008 -0.004600  0.000001)
 62:   3185.18   0.000189    0.96  0.000019  (-0.003975  0.001657 -0.000000)
 63:   3193.04   0.000329    1.66  0.000032  ( 0.002496  0.005094 -0.000000)
 64:   3210.50   0.000165    0.84  0.000016  ( 0.003988  0.000430 -0.000000)
 65:   3230.15   0.000089    0.45  0.000009  (-0.000059  0.002937 -0.000000)
 66:   3234.11   0.000595    3.01  0.000057  (-0.001402 -0.007447  0.000000)
 67:   3244.55   0.000298    1.51  0.000029  (-0.001117  0.005238 -0.000000)
 68:   3250.13   0.000545    2.76  0.000052  (-0.001716 -0.007029  0.000000)

--------------------------
THERMOCHEMISTRY AT 298.15K
--------------------------

Temperature         ...   298.15 K
Pressure            ...     1.00 atm
Total Mass          ...   148.21 AMU
Quasi RRHO          ...     True
Cut-Off Frequency   ...     1.00 cm^-1

Throughout the following assumptions are being made:
  (1) The electronic state is orbitally nondegenerate
      but the spin degeneracy is treated
  (2) There are no thermally accessible electronically excited states
  (3) Hindered rotations indicated by low frequency modes are not
      treated as such but are treated as vibrations and this may
      cause some error
  (4) All equations used are the standard statistical mechanics
      equations for an ideal gas
  (5) All vibrations are strictly harmonic

freq.      59.03  E(vib)   ...       0.51
freq.     118.03  E(vib)   ...       0.44
freq.     127.52  E(vib)   ...       0.43
freq.     131.75  E(vib)   ...       0.42
freq.     183.73  E(vib)   ...       0.37
freq.     189.89  E(vib)   ...       0.36
freq.     234.65  E(vib)   ...       0.32
freq.     251.57  E(vib)   ...       0.30
freq.     273.79  E(vib)   ...       0.28
freq.     336.12  E(vib)   ...       0.24
freq.     367.45  E(vib)   ...       0.21
freq.     419.65  E(vib)   ...       0.18
freq.     446.39  E(vib)   ...       0.17
freq.     560.98  E(vib)   ...       0.11
freq.     605.78  E(vib)   ...       0.10
freq.     625.16  E(vib)   ...       0.09
freq.     628.68  E(vib)   ...       0.09
freq.     764.56  E(vib)   ...       0.06
freq.     795.45  E(vib)   ...       0.05
freq.     831.74  E(vib)   ...       0.04
freq.     901.38  E(vib)   ...       0.03
freq.     909.26  E(vib)   ...       0.03
freq.     915.03  E(vib)   ...       0.03
freq.     970.32  E(vib)   ...       0.03
freq.     977.06  E(vib)   ...       0.03
freq.     993.54  E(vib)   ...       0.02
freq.    1007.11  E(vib)   ...       0.02
freq.    1039.40  E(vib)   ...       0.02
freq.    1078.45  E(vib)   ...       0.02
freq.    1138.62  E(vib)   ...       0.01
freq.    1158.48  E(vib)   ...       0.01
freq.    1164.32  E(vib)   ...       0.01
freq.    1167.10  E(vib)   ...       0.01
freq.    1203.51  E(vib)   ...       0.01
freq.    1244.48  E(vib)   ...       0.01
freq.    1310.86  E(vib)   ...       0.01
freq.    1330.05  E(vib)   ...       0.01
freq.    1344.12  E(vib)   ...       0.01
freq.    1379.49  E(vib)   ...       0.01
freq.    1388.76  E(vib)   ...       0.00
freq.    1436.17  E(vib)   ...       0.00
freq.    1444.15  E(vib)   ...       0.00
freq.    1453.05  E(vib)   ...       0.00
freq.    1469.31  E(vib)   ...       0.00
freq.    1481.76  E(vib)   ...       0.00
freq.    1487.39  E(vib)   ...       0.00
freq.    1499.27  E(vib)   ...       0.00
freq.    1540.81  E(vib)   ...       0.00
freq.    1582.64  E(vib)   ...       0.00
freq.    1611.45  E(vib)   ...       0.00
freq.    1669.82  E(vib)   ...       0.00
freq.    3018.26  E(vib)   ...       0.00
freq.    3054.37  E(vib)   ...       0.00
freq.    3087.76  E(vib)   ...       0.00
freq.    3155.58  E(vib)   ...       0.00
freq.    3164.50  E(vib)   ...       0.00
freq.    3185.18  E(vib)   ...       0.00
freq.    3193.04  E(vib)   ...       0.00
freq.    3210.50  E(vib)   ...       0.00
freq.    3230.15  E(vib)   ...       0.00
freq.    3234.11  E(vib)   ...       0.00
freq.    3244.55  E(vib)   ...       0.00
freq.    3250.13  E(vib)   ...       0.00

------------
INNER ENERGY
------------

The inner energy is: U= E(el) + E(ZPE) + E(vib) + E(rot) + E(trans)
    E(el)   - is the total energy from the electronic structure calculation
              = E(kin-el) + E(nuc-el) + E(el-el) + E(nuc-nuc)
    E(ZPE)  - the the zero temperature vibrational energy from the frequency calculation
    E(vib)  - the the finite temperature correction to E(ZPE) due to population
              of excited vibrational states
    E(rot)  - is the rotational thermal energy
    E(trans)- is the translational thermal energy

Summary of contributions to the inner energy U:
Electronic energy                ...   -462.32281542 Eh
Zero point energy                ...      0.19427571 Eh     121.91 kcal/mol
Thermal vibrational correction   ...      0.00821234 Eh       5.15 kcal/mol
Thermal rotational correction    ...      0.00141627 Eh       0.89 kcal/mol
Thermal translational correction ...      0.00141627 Eh       0.89 kcal/mol
-----------------------------------------------------------------------
Total thermal energy                   -462.11749482 Eh

Summary of corrections to the electronic energy:
(perhaps to be used in another calculation)
Total thermal correction                  0.01104489 Eh       6.93 kcal/mol
Non-thermal (ZPE) correction              0.19427571 Eh     121.91 kcal/mol
-----------------------------------------------------------------------
Total correction                          0.20532060 Eh     128.84 kcal/mol

--------
ENTHALPY
--------

The enthalpy is H = U + kB*T
                kB is Boltzmann's constant
Total thermal energy              ...   -462.11749482 Eh
Thermal Enthalpy correction       ...      0.00094421 Eh       0.59 kcal/mol
-----------------------------------------------------------------------
Total Enthalpy                    ...   -462.11655061 Eh

Note: Only C1 symmetry has been detected, increase convergence thresholds
      if your molecule has a higher symmetry. Symmetry factor of 1.0 is
      used for the rotational entropy correction.

Note: Rotational entropy computed according to Herzberg
Infrared and Raman Spectra, Chapter V,1, Van Nostrand Reinhold, 1945
Point Group:  C1, Symmetry Number:   1
Rotational constants in cm-1:     0.103199     0.017039     0.014706

Vibrational entropy computed according to the QRRHO of S. Grimme
Chem.Eur.J. 2012 18 9955 using a reference frequency of 100.0 cm-1

-------
ENTROPY
-------

The entropy contributions are T*S = T*(S(el)+S(vib)+S(rot)+S(trans))
     S(el)   - electronic entropy
     S(vib)  - vibrational entropy
     S(rot)  - rotational entropy
     S(trans)- translational entropy
The entropies will be listed as multiplied by the temperature to get
units of energy

Electronic entropy                ...      0.00065446 Eh      0.41 kcal/mol
Vibrational entropy               ...      0.01414018 Eh      8.87 kcal/mol
Rotational entropy                ...      0.01449743 Eh      9.10 kcal/mol
Translational entropy             ...      0.01942844 Eh     12.19 kcal/mol
-----------------------------------------------------------------------
Final entropy term                ...      0.04872051 Eh     30.57 kcal/mol

In case the symmetry of your molecule has not been determined correctly

                             ****ORCA TERMINATED NORMALLY****
TOTAL RUN TIME: 0 days 0 hours 11 minutes 54 seconds 696 msec
