                         Program Version 6.0.0  -   RELEASE  -
|  1> !PBE0 opt def2-SV(p) d3 TightSCF SlowConv RIJCOSX defgrid2
|  2>
|  3> %pal
|  4> nprocs 8
|  5> end
|  6>
|  7> %scf
|  8> MaxIter 1500
|  9> end
| 10>
| 11> %maxcore 3500
| 12>
| 13> !CPCM
| 14> %cpcm smd true
| 15> SMDsolvent "MeCN"
| 16> surfacetype gepol_ses
| 17> rsolv 2.19
| 18> end
| 19>
| 20> * xyz 0 1
| 21> C           0.89625463995169     -1.41558669005642      0.00000212581931
| 22> C           2.11505403593339     -0.74430991173074     -0.00000149555587
| 23> C           2.17542044953981      0.66118914619392      0.00000118790347
| 24> C           1.02073349490689      1.43411488081899      0.00000740816991
| 25> C          -0.21978579987357      0.78024255664200      0.00000882693723
| 26> C          -0.24734548849214     -0.62587635066739      0.00000530658827
| 27> O          -1.52601546021974     -1.07032389872869      0.00001342203642
| 28> C          -2.31826979056253      0.02952741578344      0.00002075604744
| 29> C          -1.60215379632981      1.18293934552638      0.00000260268759
| 30> H          -2.00251324968155      2.19537072670951     -0.00000431996804
| 31> H          -3.38877681335679     -0.16931307117016      0.00002936397660
| 32> H           1.07767380530056      2.52621447644394      0.00000712336235
| 33> H           3.15304280126425      1.15182904763925     -0.00000361572869
| 34> H           3.04441141911605     -1.32116718166862     -0.00000606251848
| 35> H           0.83131985250349     -2.50587419173540      0.00000217024247
| 36> *
| 37>
| 38>                          ****END OF INPUT****
 Total Charge           Charge          ....    0
 Multiplicity           Mult            ....    1
 Number of Electrons    NEL             ....   62
Dispersion correction           -0.013704299
FINAL SINGLE POINT ENERGY      -382.968703909315
Dispersion correction             ... done (  0.1 sec)
Dispersion correction           -0.013706564
FINAL SINGLE POINT ENERGY      -382.968734603761
Dispersion correction             ... done (  0.1 sec)
                    ***********************HURRAY********************

CARTESIAN COORDINATES (ANGSTROEM)
---------------------------------
  C      0.897108   -1.417809   -0.000297
  C      2.116862   -0.745318   -0.000014
  C      2.176564    0.661426   -0.000092
  C      1.020713    1.435338   -0.000346
  C     -0.220537    0.780008   -0.000527
  C     -0.247001   -0.627341   -0.000581
  O     -1.526191   -1.070302   -0.000424
  C     -2.320594    0.030485   -0.000067
  C     -1.603711    1.183627   -0.000218
  H     -2.004332    2.196670    0.000718
  H     -3.392155   -0.167187    0.000911
  H      1.077468    2.527684   -0.000313
  H      3.154270    1.152656    0.000449
  H      3.046542   -1.322224    0.000889
  H      0.834043   -2.508737   -0.000005

 Multiplicity           Mult            ....    1
 Number of Electrons    NEL             ....   62
 Basis Dimension        Dim             ....  138

ORBITAL ENERGIES
----------------

  NO   OCC          E(Eh)            E(eV)
   0   2.0000     -19.282401      -524.7008
   1   2.0000     -10.292735      -280.0796
   2   2.0000     -10.289950      -280.0038
   3   2.0000     -10.246156      -278.8121
   4   2.0000     -10.241815      -278.6940
   5   2.0000     -10.240588      -278.6606
   6   2.0000     -10.238544      -278.6049
   7   2.0000     -10.235220      -278.5145
   8   2.0000     -10.235196      -278.5138
   9   2.0000      -1.143594       -31.1188
  10   2.0000      -0.879769       -23.9397
  11   2.0000      -0.820434       -22.3251
  12   2.0000      -0.769681       -20.9441
  13   2.0000      -0.747154       -20.3311
  14   2.0000      -0.653450       -17.7813
  15   2.0000      -0.618870       -16.8403
  16   2.0000      -0.599356       -16.3093
  17   2.0000      -0.538468       -14.6525
  18   2.0000      -0.509929       -13.8759
  19   2.0000      -0.493624       -13.4322
  20   2.0000      -0.486166       -13.2292
  21   2.0000      -0.453401       -12.3377
  22   2.0000      -0.440521       -11.9872
  23   2.0000      -0.422272       -11.4906
  24   2.0000      -0.404014       -10.9938
  25   2.0000      -0.378997       -10.3130
  26   2.0000      -0.375290       -10.2122
  27   2.0000      -0.353387        -9.6162
  28   2.0000      -0.314889        -8.5686
  29   2.0000      -0.258624        -7.0375
  30   2.0000      -0.239462        -6.5161
  31   0.0000      -0.023223        -0.6319
  32   0.0000       0.008882         0.2417
  33   0.0000       0.054597         1.4857
  34   0.0000       0.088050         2.3960
  35   0.0000       0.113932         3.1002

MULLIKEN ATOMIC CHARGES
-----------------------
   0 C :   -0.189785
   1 C :   -0.139809
   2 C :   -0.121616
   3 C :   -0.183353
   4 C :    0.043843
   5 C :    0.189408
   6 O :   -0.250693
   7 C :    0.054041
   8 C :   -0.191401
   9 H :    0.134701
  10 H :    0.159130
  11 H :    0.118738
  12 H :    0.124273
  13 H :    0.130184
  14 H :    0.122340
Sum of atomic charges:    0.0000000

LOEWDIN ATOMIC CHARGES
----------------------
   0 C :   -0.153076
   1 C :   -0.142843
   2 C :   -0.152408
   3 C :   -0.132872
   4 C :   -0.073918
   5 C :    0.024756
   6 O :   -0.021915
   7 C :   -0.044385
   8 C :   -0.190921
   9 H :    0.155122
  10 H :    0.150098
  11 H :    0.144785
  12 H :    0.141720
  13 H :    0.143410
  14 H :    0.152447

  Mayer bond orders larger than 0.100000
B(  0-C ,  1-C ) :   1.3934 B(  0-C ,  3-C ) :   0.1041 B(  0-C ,  5-C ) :   1.3407
B(  0-C , 14-H ) :   0.9751 B(  1-C ,  2-C ) :   1.3381 B(  1-C , 13-H ) :   0.9613
B(  2-C ,  3-C ) :   1.4277 B(  2-C , 12-H ) :   0.9627 B(  3-C ,  4-C ) :   1.2964
B(  3-C , 11-H ) :   0.9727 B(  4-C ,  5-C ) :   1.2840 B(  4-C ,  8-C ) :   1.1447
B(  5-C ,  6-O ) :   1.0943 B(  6-O ,  7-C ) :   1.0855 B(  7-C ,  8-C ) :   1.5888
B(  7-C , 10-H ) :   0.9643 B(  8-C ,  9-H ) :   0.9777

Dispersion correction           -0.013707342
FINAL SINGLE POINT ENERGY      -382.968738041922

DIPOLE MOMENT
-------------

Method             : SCF
Type of density    : Electron Density
Multiplicity       :   1
Irrep              :   0
Energy             :  -382.9550306995788560 Eh
Relativity type    :
Basis              : AO
                                X                 Y                 Z
Electronic contribution:     -2.707533399      -1.429531465      -0.002357589
Nuclear contribution   :      2.517100486       1.728270274       0.003904961
                        -----------------------------------------
Total Dipole Moment    :     -0.190432913       0.298738809       0.001547372
                        -----------------------------------------
Magnitude (a.u.)       :      0.354276678
Magnitude (Debye)      :      0.900499752

Rotational constants in cm-1:             0.130892             0.055459             0.038954
Rotational constants in MHz :          3924.038702          1662.620226          1167.815405

                             ****ORCA TERMINATED NORMALLY****
TOTAL RUN TIME: 0 days 0 hours 2 minutes 49 seconds 678 msec
