                         Program Version 6.0.0  -   RELEASE  -
|  1> !B3LYP aug-cc-pVTZ d3 TightSCF SlowConv RIJCOSX defgrid2
|  2>
|  3> %pal
|  4> nprocs 4
|  5> end
|  6>
|  7> %scf
|  8> MaxIter 1500
|  9> end
| 10>
| 11> %maxcore 3000
| 12>
| 13> !CPCM
| 14> %cpcm smd true
| 15> SMDsolvent "MeCN"
| 16> surfacetype gepol_ses
| 17> rsolv 2.19
| 18> end
| 19>
| 20> * xyz -1 2
| 21> C          -1.22535307927293     -0.03882807002799     -0.00002255469277
| 22> C          -1.22206264378164      1.41582015720061     -0.00002423880206
| 23> C           0.00004637420421      2.08121905033007     -0.00000415463824
| 24> C           1.22212161683371      1.41575862792076      0.00002170232485
| 25> C           1.22534433396412     -0.03888819251674      0.00002507087618
| 26> C          -0.00002135567409     -0.71608207495025      0.00000157424078
| 27> H          -0.00004774645346     -1.81053735349218      0.00000261550832
| 28> C           2.43402384370652     -0.77080587803239      0.00007579493229
| 29> N           3.44413671726320     -1.36247120639636      0.00011250089172
| 30> H           2.16848850432676      1.96074544120089      0.00003301965359
| 31> H           0.00007494156619      3.17901522614598     -0.00000842096167
| 32> H          -2.16840192148197      1.96085605610510     -0.00003754989011
| 33> C          -2.43406244869294     -0.77069683887805     -0.00005052688718
| 34> N          -3.44419623650770     -1.36232524460946     -0.00007393255569
| 35> *
| 36>
| 37>                          ****END OF INPUT****

CARTESIAN COORDINATES (ANGSTROEM)
---------------------------------
  C     -1.225353   -0.038828   -0.000023
  C     -1.222063    1.415820   -0.000024
  C      0.000046    2.081219   -0.000004
  C      1.222122    1.415759    0.000022
  C      1.225344   -0.038888    0.000025
  C     -0.000021   -0.716082    0.000002
  H     -0.000048   -1.810537    0.000003
  C      2.434024   -0.770806    0.000076
  N      3.444137   -1.362471    0.000113
  H      2.168489    1.960745    0.000033
  H      0.000075    3.179015   -0.000008
  H     -2.168402    1.960856   -0.000038
  C     -2.434062   -0.770697   -0.000051
  N     -3.444196   -1.362325   -0.000074

 Total Charge           Charge          ....   -1
 Multiplicity           Mult            ....    2
 Number of Electrons    NEL             ....   67
 Basis Dimension        Dim             ....  552

ORBITAL ENERGIES
----------------
                 SPIN UP ORBITALS
  NO   OCC          E(Eh)            E(eV)
   0   1.0000     -14.299317      -389.1042
   1   1.0000     -14.299314      -389.1041
   2   1.0000     -10.203425      -277.6493
   3   1.0000     -10.203419      -277.6492
   4   1.0000     -10.189067      -277.2586
   5   1.0000     -10.187068      -277.2042
   6   1.0000     -10.186995      -277.2022
   7   1.0000     -10.165970      -276.6301
   8   1.0000     -10.158396      -276.4240
   9   1.0000     -10.158377      -276.4235
  10   1.0000      -0.895656       -24.3721
  11   1.0000      -0.892808       -24.2946
  12   1.0000      -0.845489       -23.0069
  13   1.0000      -0.760508       -20.6945
  14   1.0000      -0.749548       -20.3962
  15   1.0000      -0.635501       -17.2928
  16   1.0000      -0.622629       -16.9426
  17   1.0000      -0.556272       -15.1369
  18   1.0000      -0.477764       -13.0006
  19   1.0000      -0.471191       -12.8218
  20   1.0000      -0.446836       -12.1590
  21   1.0000      -0.417631       -11.3643
  22   1.0000      -0.396211       -10.7814
  23   1.0000      -0.372028       -10.1234
  24   1.0000      -0.370524       -10.0825
  25   1.0000      -0.364676        -9.9233
  26   1.0000      -0.355208        -9.6657
  27   1.0000      -0.351669        -9.5694
  28   1.0000      -0.325888        -8.8679
  29   1.0000      -0.321751        -8.7553
  30   1.0000      -0.317202        -8.6315
  31   1.0000      -0.259155        -7.0520
  32   1.0000      -0.250671        -6.8211
  33   1.0000      -0.103798        -2.8245
  34   0.0000      -0.032591        -0.8868
  35   0.0000      -0.002139        -0.0582
  36   0.0000       0.014493         0.3944
  37   0.0000       0.015394         0.4189
  38   0.0000       0.026068         0.7093

                 SPIN DOWN ORBITALS
  NO   OCC          E(Eh)            E(eV)
   0   1.0000     -14.297387      -389.0517
   1   1.0000     -14.297384      -389.0516
   2   1.0000     -10.203351      -277.6473
   3   1.0000     -10.203345      -277.6471
   4   1.0000     -10.189765      -277.2776
   5   1.0000     -10.185417      -277.1593
   6   1.0000     -10.185392      -277.1586
   7   1.0000     -10.167755      -276.6787
   8   1.0000     -10.152932      -276.2753
   9   1.0000     -10.152931      -276.2753
  10   1.0000      -0.892544       -24.2873
  11   1.0000      -0.889847       -24.2140
  12   1.0000      -0.840797       -22.8793
  13   1.0000      -0.752845       -20.4860
  14   1.0000      -0.745188       -20.2776
  15   1.0000      -0.623311       -16.9612
  16   1.0000      -0.620490       -16.8844
  17   1.0000      -0.555080       -15.1045
  18   1.0000      -0.472978       -12.8704
  19   1.0000      -0.469034       -12.7631
  20   1.0000      -0.443752       -12.0751
  21   1.0000      -0.417203       -11.3527
  22   1.0000      -0.384853       -10.4724
  23   1.0000      -0.368719       -10.0334
  24   1.0000      -0.367446        -9.9987
  25   1.0000      -0.354417        -9.6442
  26   1.0000      -0.352337        -9.5876
  27   1.0000      -0.350090        -9.5264
  28   1.0000      -0.320394        -8.7184
  29   1.0000      -0.315766        -8.5924
  30   1.0000      -0.313512        -8.5311
  31   1.0000      -0.248964        -6.7747
  32   1.0000      -0.224553        -6.1104
  33   0.0000      -0.034605        -0.9416
  34   0.0000      -0.027860        -0.7581
  35   0.0000      -0.002062        -0.0561
  36   0.0000       0.014472         0.3938
  37   0.0000       0.015147         0.4122

MULLIKEN ATOMIC CHARGES AND SPIN POPULATIONS
--------------------------------------------
   0 C :    1.349816    0.108353
   1 C :   -0.881570    0.423317
   2 C :   -0.492667   -0.119704
   3 C :   -0.882445    0.423311
   4 C :    1.350903    0.108363
   5 C :   -1.142400   -0.049274
   6 H :   -0.145043    0.009474
   7 C :    0.437595   -0.011180
   8 N :   -0.875046    0.096827
   9 H :    0.086703   -0.034814
  10 H :    0.544291   -0.005552
  11 H :    0.086812   -0.034787
  12 C :    0.437377   -0.011167
  13 N :   -0.874325    0.096831
Sum of atomic charges         :   -1.0000000

LOEWDIN ATOMIC CHARGES AND SPIN POPULATIONS
-------------------------------------------
   0 C :   -0.255872    0.102634
   1 C :    0.149487    0.196571
   2 C :    0.120659    0.060772
   3 C :    0.149483    0.196570
   4 C :   -0.255872    0.102635
   5 C :    0.140464    0.014492
   6 H :   -0.163525   -0.000952
   7 C :   -0.322384    0.045972
   8 N :    0.167864    0.075349
   9 H :   -0.198352    0.045067
  10 H :   -0.179083   -0.005498
  11 H :   -0.198351    0.045068
  12 C :   -0.322382    0.045972
  13 N :    0.167865    0.075347

  Mayer bond orders larger than 0.100000
B(  0-C ,  2-C ) :   0.1791 B(  0-C ,  4-C ) :   0.3653 B(  0-C ,  5-C ) :   0.4323
B(  0-C ,  6-H ) :  -0.2333 B(  0-C , 11-H ) :  -0.2348 B(  0-C , 12-C ) :   0.7034
B(  0-C , 13-N ) :   0.1914 B(  1-C ,  2-C ) :   1.1817 B(  1-C ,  3-C ) :  -0.1122
B(  1-C ,  5-C ) :  -0.2228 B(  1-C , 11-H ) :   1.3211 B(  1-C , 12-C ) :   0.3935
B(  2-C ,  3-C ) :   1.1839 B(  2-C ,  4-C ) :   0.1787 B(  2-C ,  9-H ) :  -0.1445
B(  2-C , 10-H ) :   0.5739 B(  2-C , 11-H ) :  -0.1443 B(  3-C ,  5-C ) :  -0.2224
B(  3-C ,  7-C ) :   0.3946 B(  3-C ,  9-H ) :   1.3212 B(  4-C ,  5-C ) :   0.4333
B(  4-C ,  6-H ) :  -0.2335 B(  4-C ,  7-C ) :   0.7019 B(  4-C ,  8-N ) :   0.1910
B(  4-C ,  9-H ) :  -0.2345 B(  5-C ,  6-H ) :   1.6413 B(  5-C ,  7-C ) :   0.1941
B(  5-C ,  9-H ) :   0.1142 B(  5-C , 11-H ) :   0.1138 B(  5-C , 12-C ) :   0.1947
B(  7-C ,  8-N ) :   1.5846 B(  7-C , 12-C ) :   0.2249 B( 12-C , 13-N ) :   1.5860

Dispersion correction           -0.027870616
FINAL SINGLE POINT ENERGY      -416.769731496207

DIPOLE MOMENT
-------------

Method             : SCF
Type of density    : Electron Density
Multiplicity       :   2
Irrep              :   0
Energy             :  -416.7418608798139985 Eh
Relativity type    :
Basis              : AO
                                X                 Y                 Z
Electronic contribution:     -0.000104610      -3.192015529       0.000009731
Nuclear contribution   :      0.000114608       5.003113123      -0.000033044
                        -----------------------------------------
Total Dipole Moment    :      0.000009998       1.811097594      -0.000023312
                        -----------------------------------------
Magnitude (a.u.)       :      1.811097594
Magnitude (Debye)      :      4.603444242

Rotational constants in cm-1:             0.086960             0.030317             0.022480
Rotational constants in MHz :          2607.004234           908.865871           673.920567

                             ****ORCA TERMINATED NORMALLY****
TOTAL RUN TIME: 0 days 0 hours 4 minutes 9 seconds 769 msec
