                         Program Version 6.0.0  -   RELEASE  -
|  1> !PBE0 def2-SV(p) Opt Freq d3 TightSCF SlowConv RIJCOSX defgrid2
|  2>
|  3> %pal
|  4> nprocs 4
|  5> end
|  6>
|  7> %scf
|  8> MaxIter 1500
|  9> end
| 10>
| 11> %maxcore 3000
| 12>
| 13>
| 14>
| 15> * xyz 1 2
| 16> C    -1.2081014    0.6404365    0.0039720
| 17> C    -0.0180421    1.3711864    0.0040863
| 18> C     1.2149467    0.7440125   -0.0993567
| 19> C     1.2080997   -0.6404235   -0.0038991
| 20> C     0.0180471   -1.3711824   -0.0040422
| 21> C    -1.2149468   -0.7440023    0.0994599
| 22> H    -2.1345220   -1.3064644    0.1095729
| 23> H     0.0418960   -2.4445280   -0.1631680
| 24> H     2.1510390   -1.1506237    0.1675234
| 25> H     2.1345222    1.3064738   -0.1094991
| 26> H    -0.0418768    2.4445130    0.1630137
| 27> H    -2.1510626    1.1506692   -0.1675449
| 28> *
| 29>
| 30>                          ****END OF INPUT****
 Total Charge           Charge          ....    1
 Multiplicity           Mult            ....    2
 Number of Electrons    NEL             ....   41
Dispersion correction           -0.009385293
FINAL SINGLE POINT ENERGY      -231.452511491960
Dispersion correction             ... done (  0.1 sec)
Dispersion correction           -0.009327152
FINAL SINGLE POINT ENERGY      -231.457344468654
Dispersion correction             ... done (  0.0 sec)
Dispersion correction           -0.009303241
FINAL SINGLE POINT ENERGY      -231.459136980187
Dispersion correction             ... done (  0.1 sec)
FINAL SINGLE POINT ENERGY      -231.459969208484
FINAL SINGLE POINT ENERGY      -231.460183157152
FINAL SINGLE POINT ENERGY      -231.460237390949
FINAL SINGLE POINT ENERGY      -231.460249295165
FINAL SINGLE POINT ENERGY      -231.460258723615
FINAL SINGLE POINT ENERGY      -231.460286902965
FINAL SINGLE POINT ENERGY      -231.460136935949
FINAL SINGLE POINT ENERGY      -231.460326371311
FINAL SINGLE POINT ENERGY      -231.460361220487
FINAL SINGLE POINT ENERGY      -231.458425889236
FINAL SINGLE POINT ENERGY      -231.460515049248
FINAL SINGLE POINT ENERGY      -231.460536323865
Dispersion correction             ... done (  0.0 sec)
Dispersion correction           -0.009307240
FINAL SINGLE POINT ENERGY      -231.460546825514
Dispersion correction             ... done (  0.0 sec)
Dispersion correction           -0.009307430
FINAL SINGLE POINT ENERGY      -231.460549461086
Dispersion correction             ... done (  0.1 sec)
                    ***********************HURRAY********************

CARTESIAN COORDINATES (ANGSTROEM)
---------------------------------
  C     -1.214103    0.660797    0.000441
  C     -0.004799    1.423486    0.000083
  C      1.199178    0.768055   -0.000932
  C      1.214105   -0.660788   -0.000412
  C      0.004833   -1.423481   -0.000064
  C     -1.199156   -0.768073    0.000950
  H     -2.145002   -1.316912    0.001989
  H      0.058032   -2.515709   -0.000100
  H      2.175646   -1.185739    0.000635
  H      2.144979    1.316892   -0.001976
  H     -0.058013    2.515757    0.000111
  H     -2.175702    1.185782   -0.000607

 Multiplicity           Mult            ....    2
 Number of Electrons    NEL             ....   41
 Basis Dimension        Dim             ....   96

ORBITAL ENERGIES
----------------
                 SPIN UP ORBITALS
  NO   OCC          E(Eh)            E(eV)
   0   1.0000     -10.508239      -285.9437
   1   1.0000     -10.508202      -285.9427
   2   1.0000     -10.471394      -284.9411
   3   1.0000     -10.471366      -284.9404
   4   1.0000     -10.470703      -284.9223
   5   1.0000     -10.470662      -284.9212
   6   1.0000      -1.114940       -30.3391
   7   1.0000      -1.002983       -27.2925
   8   1.0000      -0.998236       -27.1634
   9   1.0000      -0.854037       -23.2395
  10   1.0000      -0.844967       -22.9927
  11   1.0000      -0.762645       -20.7526
  12   1.0000      -0.701265       -19.0824
  13   1.0000      -0.693856       -18.8808
  14   1.0000      -0.663873       -18.0649
  15   1.0000      -0.659561       -17.9476
  16   1.0000      -0.627152       -17.0657
  17   1.0000      -0.588702       -16.0194
  18   1.0000      -0.581259       -15.8169
  19   1.0000      -0.522512       -14.2183
  20   1.0000      -0.500070       -13.6076
  21   0.0000      -0.265333        -7.2201
  22   0.0000      -0.226348        -6.1592
  23   0.0000      -0.110763        -3.0140
  24   0.0000      -0.082069        -2.2332
  25   0.0000      -0.064116        -1.7447

                 SPIN DOWN ORBITALS
  NO   OCC          E(Eh)            E(eV)
   0   1.0000     -10.500428      -285.7312
   1   1.0000     -10.500399      -285.7304
   2   1.0000     -10.471170      -284.9350
   3   1.0000     -10.471144      -284.9343
   4   1.0000     -10.470506      -284.9170
   5   1.0000     -10.470468      -284.9159
   6   1.0000      -1.103174       -30.0189
   7   1.0000      -0.996697       -27.1215
   8   1.0000      -0.980442       -26.6792
   9   1.0000      -0.843963       -22.9654
  10   1.0000      -0.838789       -22.8246
  11   1.0000      -0.759908       -20.6782
  12   1.0000      -0.696489       -18.9524
  13   1.0000      -0.689252       -18.7555
  14   1.0000      -0.663849       -18.0642
  15   1.0000      -0.654252       -17.8031
  16   1.0000      -0.589933       -16.0529
  17   1.0000      -0.586862       -15.9693
  18   1.0000      -0.577987       -15.7278
  19   1.0000      -0.496893       -13.5211
  20   0.0000      -0.404756       -11.0140
  21   0.0000      -0.216575        -5.8933
  22   0.0000      -0.212253        -5.7757
  23   0.0000      -0.108922        -2.9639
  24   0.0000      -0.061719        -1.6795

MULLIKEN ATOMIC CHARGES AND SPIN POPULATIONS
--------------------------------------------
   0 C :    0.006674    0.529589
   1 C :   -0.051568    0.003158
   2 C :   -0.051466   -0.002402
   3 C :    0.006705    0.529545
   4 C :   -0.051553    0.003133
   5 C :   -0.051477   -0.002379
   6 H :    0.194693   -0.002424
   7 H :    0.194963   -0.002668
   8 H :    0.206667   -0.025228
   9 H :    0.194671   -0.002423
  10 H :    0.194987   -0.002669
  11 H :    0.206704   -0.025231
Sum of atomic charges         :    1.0000000

LOEWDIN ATOMIC CHARGES AND SPIN POPULATIONS
-------------------------------------------
   0 C :    0.077419    0.445082
   1 C :   -0.057976    0.037388
   2 C :   -0.059355    0.033228
   3 C :    0.077414    0.445040
   4 C :   -0.057985    0.037368
   5 C :   -0.059344    0.033247
   6 H :    0.178989   -0.001380
   7 H :    0.179032   -0.001500
   8 H :    0.181889   -0.012795
   9 H :    0.178985   -0.001379
  10 H :    0.179036   -0.001501
  11 H :    0.181897   -0.012798

  Mayer bond orders larger than 0.100000
B(  0-C ,  1-C ) :   1.2083 B(  0-C ,  5-C ) :   1.2094 B(  0-C , 11-H ) :   0.9360
B(  1-C ,  2-C ) :   1.5503 B(  1-C , 10-H ) :   0.9445 B(  2-C ,  3-C ) :   1.2094
B(  2-C ,  9-H ) :   0.9449 B(  3-C ,  4-C ) :   1.2083 B(  3-C ,  8-H ) :   0.9360
B(  4-C ,  5-C ) :   1.5503 B(  4-C ,  7-H ) :   0.9445 B(  5-C ,  6-H ) :   0.9449

Dispersion correction           -0.009307398
FINAL SINGLE POINT ENERGY      -231.460552008216

DIPOLE MOMENT
-------------

Method             : SCF
Type of density    : Electron Density
Multiplicity       :   2
Irrep              :   0
Energy             :  -231.4512446103078958 Eh
Relativity type    :
Basis              : AO
                                X                 Y                 Z
Electronic contribution:      0.000028416      -0.000021692       0.000011094
Nuclear contribution   :     -0.000102416       0.000063154      -0.000012453
                        -----------------------------------------
Total Dipole Moment    :     -0.000074000       0.000041462      -0.000001359
                        -----------------------------------------
Magnitude (a.u.)       :      0.000084835
Magnitude (Debye)      :      0.000215633

VIBRATIONAL FREQUENCIES
-----------------------

Scaling factor for frequencies =  1.000000000  (already applied!)

     0:       0.00 cm**-1
     1:       0.00 cm**-1
     2:       0.00 cm**-1
     3:       0.00 cm**-1
     4:       0.00 cm**-1
     5:       0.00 cm**-1
     6:     293.97 cm**-1
     7:     319.50 cm**-1
     8:     346.93 cm**-1
     9:     426.14 cm**-1
    10:     601.23 cm**-1
    11:     681.10 cm**-1
    12:     798.41 cm**-1
    13:     906.94 cm**-1
    14:     976.32 cm**-1
    15:     992.49 cm**-1
    16:     999.46 cm**-1
    17:    1005.72 cm**-1
    18:    1007.12 cm**-1
    19:    1029.12 cm**-1
    20:    1044.97 cm**-1
    21:    1080.35 cm**-1
    22:    1188.09 cm**-1
    23:    1206.27 cm**-1
    24:    1374.59 cm**-1
    25:    1380.77 cm**-1
    26:    1452.31 cm**-1
    27:    1457.66 cm**-1
    28:    1565.54 cm**-1
    29:    1715.02 cm**-1
    30:    3219.75 cm**-1
    31:    3224.48 cm**-1
    32:    3232.05 cm**-1
    33:    3235.71 cm**-1
    34:    3243.10 cm**-1
    35:    3245.94 cm**-1

IR SPECTRUM
-----------

 Mode   freq       eps      Int      T**2         TX        TY        TZ
       cm**-1   L/(mol*cm) km/mol    a.u.
----------------------------------------------------------------------------
  6:    293.97   0.000655    3.31  0.000695  ( 0.000213 -0.000117  0.026368)
  7:    319.50   0.000000    0.00  0.000000  ( 0.000007  0.000008 -0.000001)
  8:    346.93   0.000000    0.00  0.000000  ( 0.000035  0.000078  0.000162)
  9:    426.14   0.000000    0.00  0.000000  (-0.000001  0.000000 -0.000008)
 10:    601.23   0.000000    0.00  0.000000  (-0.000003  0.000001  0.000000)
 11:    681.10   0.016541   83.59  0.007579  (-0.000028 -0.000031 -0.087056)
 12:    798.41   0.000000    0.00  0.000000  (-0.000000 -0.000000  0.000000)
 13:    906.94   0.000000    0.00  0.000000  (-0.000001  0.000001  0.000048)
 14:    976.32   0.004932   24.92  0.001576  ( 0.034853 -0.019015 -0.000049)
 15:    992.49   0.000000    0.00  0.000000  ( 0.000002 -0.000003  0.000001)
 16:    999.46   0.000000    0.00  0.000000  (-0.000021  0.000012  0.000005)
 17:   1005.72   0.001075    5.43  0.000334  (-0.000264  0.000172  0.018259)
 18:   1007.12   0.000114    0.58  0.000035  ( 0.005140 -0.002821  0.001002)
 19:   1029.12   0.000000    0.00  0.000000  ( 0.000016  0.000018  0.000064)
 20:   1044.97   0.000000    0.00  0.000000  ( 0.000001 -0.000001  0.000034)
 21:   1080.35   0.002624   13.26  0.000758  (-0.013198 -0.024160  0.000006)
 22:   1188.09   0.000329    1.66  0.000086  ( 0.004400  0.008185 -0.000002)
 23:   1206.27   0.000000    0.00  0.000000  ( 0.000012 -0.000008  0.000000)
 24:   1374.59   0.000000    0.00  0.000000  ( 0.000003  0.000009 -0.000000)
 25:   1380.77   0.000000    0.00  0.000000  ( 0.000008  0.000009  0.000000)
 26:   1452.31   0.026630  134.58  0.005722  (-0.067718  0.033710  0.000034)
 27:   1457.66   0.004808   24.30  0.001029  ( 0.007923  0.031089 -0.000005)
 28:   1565.54   0.014189   71.70  0.002828  (-0.025153 -0.046857  0.000019)
 29:   1715.02   0.000000    0.00  0.000000  (-0.000002  0.000001 -0.000000)
 30:   3219.75   0.000500    2.53  0.000049  ( 0.006080 -0.003397  0.000031)
 31:   3224.48   0.000001    0.00  0.000000  ( 0.000202 -0.000117  0.000002)
 32:   3232.05   0.000002    0.01  0.000000  (-0.000180 -0.000359  0.000000)
 33:   3235.71   0.003792   19.16  0.000366  (-0.016918  0.008917 -0.000006)
 34:   3243.10   0.005787   29.25  0.000557  ( 0.011151  0.020797 -0.000017)
 35:   3245.94   0.000001    0.01  0.000000  (-0.000304  0.000218 -0.000000)

--------------------------
THERMOCHEMISTRY AT 298.15K
--------------------------

Temperature         ...   298.15 K
Pressure            ...     1.00 atm
Total Mass          ...    78.11 AMU
Quasi RRHO          ...     True
Cut-Off Frequency   ...     1.00 cm^-1

Throughout the following assumptions are being made:
  (1) The electronic state is orbitally nondegenerate
      but the spin degeneracy is treated
  (2) There are no thermally accessible electronically excited states
  (3) Hindered rotations indicated by low frequency modes are not
      treated as such but are treated as vibrations and this may
      cause some error
  (4) All equations used are the standard statistical mechanics
      equations for an ideal gas
  (5) All vibrations are strictly harmonic

freq.     293.97  E(vib)   ...       0.27
freq.     319.50  E(vib)   ...       0.25
freq.     346.93  E(vib)   ...       0.23
freq.     426.14  E(vib)   ...       0.18
freq.     601.23  E(vib)   ...       0.10
freq.     681.10  E(vib)   ...       0.08
freq.     798.41  E(vib)   ...       0.05
freq.     906.94  E(vib)   ...       0.03
freq.     976.32  E(vib)   ...       0.03
freq.     992.49  E(vib)   ...       0.02
freq.     999.46  E(vib)   ...       0.02
freq.    1005.72  E(vib)   ...       0.02
freq.    1007.12  E(vib)   ...       0.02
freq.    1029.12  E(vib)   ...       0.02
freq.    1044.97  E(vib)   ...       0.02
freq.    1080.35  E(vib)   ...       0.02
freq.    1188.09  E(vib)   ...       0.01
freq.    1206.27  E(vib)   ...       0.01
freq.    1374.59  E(vib)   ...       0.01
freq.    1380.77  E(vib)   ...       0.01
freq.    1452.31  E(vib)   ...       0.00
freq.    1457.66  E(vib)   ...       0.00
freq.    1565.54  E(vib)   ...       0.00
freq.    1715.02  E(vib)   ...       0.00
freq.    3219.75  E(vib)   ...       0.00
freq.    3224.48  E(vib)   ...       0.00
freq.    3232.05  E(vib)   ...       0.00
freq.    3235.71  E(vib)   ...       0.00
freq.    3243.10  E(vib)   ...       0.00
freq.    3245.94  E(vib)   ...       0.00

------------
INNER ENERGY
------------

The inner energy is: U= E(el) + E(ZPE) + E(vib) + E(rot) + E(trans)
    E(el)   - is the total energy from the electronic structure calculation
              = E(kin-el) + E(nuc-el) + E(el-el) + E(nuc-nuc)
    E(ZPE)  - the the zero temperature vibrational energy from the frequency calculation
    E(vib)  - the the finite temperature correction to E(ZPE) due to population
              of excited vibrational states
    E(rot)  - is the rotational thermal energy
    E(trans)- is the translational thermal energy

Summary of contributions to the inner energy U:
Electronic energy                ...   -231.46055201 Eh
Zero point energy                ...      0.09853320 Eh      61.83 kcal/mol
Thermal vibrational correction   ...      0.00223061 Eh       1.40 kcal/mol
Thermal rotational correction    ...      0.00141627 Eh       0.89 kcal/mol
Thermal translational correction ...      0.00141627 Eh       0.89 kcal/mol
-----------------------------------------------------------------------
Total thermal energy                   -231.35695566 Eh

Summary of corrections to the electronic energy:
(perhaps to be used in another calculation)
Total thermal correction                  0.00506315 Eh       3.18 kcal/mol
Non-thermal (ZPE) correction              0.09853320 Eh      61.83 kcal/mol
-----------------------------------------------------------------------
Total correction                          0.10359635 Eh      65.01 kcal/mol

--------
ENTHALPY
--------

The enthalpy is H = U + kB*T
                kB is Boltzmann's constant
Total thermal energy              ...   -231.35695566 Eh
Thermal Enthalpy correction       ...      0.00094421 Eh       0.59 kcal/mol
-----------------------------------------------------------------------
Total Enthalpy                    ...   -231.35601145 Eh

Note: Rotational entropy computed according to Herzberg
Infrared and Raman Spectra, Chapter V,1, Van Nostrand Reinhold, 1945
Point Group:  Ci, Symmetry Number:   1
Rotational constants in cm-1:     0.193350     0.179303     0.093031

Vibrational entropy computed according to the QRRHO of S. Grimme
Chem.Eur.J. 2012 18 9955 using a reference frequency of 100.0 cm-1

-------
ENTROPY
-------

The entropy contributions are T*S = T*(S(el)+S(vib)+S(rot)+S(trans))
     S(el)   - electronic entropy
     S(vib)  - vibrational entropy
     S(rot)  - rotational entropy
     S(trans)- translational entropy
The entropies will be listed as multiplied by the temperature to get
units of energy

Electronic entropy                ...      0.00065446 Eh      0.41 kcal/mol
Vibrational entropy               ...      0.00324045 Eh      2.03 kcal/mol
Rotational entropy                ...      0.01221908 Eh      7.67 kcal/mol
Translational entropy             ...      0.01852142 Eh     11.62 kcal/mol
-----------------------------------------------------------------------
Final entropy term                ...      0.03463541 Eh     21.73 kcal/mol

In case the symmetry of your molecule has not been determined correctly
or in case you have a reason to use a different symmetry number we print
out the resulting rotational entropy values for sn=1,12:

 non-linear molecules -----------------------------------
|  sn= 1 | S(rot)=       0.01221908 Eh      7.67 kcal/mol|
|  sn= 2 | S(rot)=       0.01156462 Eh      7.26 kcal/mol|
|  sn= 3 | S(rot)=       0.01118179 Eh      7.02 kcal/mol|
|  sn= 4 | S(rot)=       0.01091017 Eh      6.85 kcal/mol|
|  sn= 5 | S(rot)=       0.01069948 Eh      6.71 kcal/mol|
|  sn= 6 | S(rot)=       0.01052733 Eh      6.61 kcal/mol|
|  sn= 7 | S(rot)=       0.01038179 Eh      6.51 kcal/mol|
|  sn= 8 | S(rot)=       0.01025571 Eh      6.44 kcal/mol|
|  sn= 9 | S(rot)=       0.01014450 Eh      6.37 kcal/mol|
|  sn=10 | S(rot)=       0.01004502 Eh      6.30 kcal/mol|
|  sn=11 | S(rot)=       0.00995503 Eh      6.25 kcal/mol|
|  sn=12 | S(rot)=       0.00987288 Eh      6.20 kcal/mol|
 linear molecules ---------------------------------------
|  Dinfh | S(rot)=       0.00756807 Eh      4.75 kcal/mol|
|  Cinfv | S(rot)=       0.00822253 Eh      5.16 kcal/mol|
 --------------------------------------------------------

-------------------
GIBBS FREE ENERGY
-------------------

The Gibbs free energy is G = H - T*S

Total enthalpy                    ...   -231.35601145 Eh
Total entropy correction          ...     -0.03463541 Eh    -21.73 kcal/mol
-----------------------------------------------------------------------
Final Gibbs free energy         ...   -231.39064686 Eh

For completeness - the Gibbs free energy minus the electronic energy
G-E(el)                           ...      0.06990515 Eh     43.87 kcal/mol

                             ****ORCA TERMINATED NORMALLY****
TOTAL RUN TIME: 0 days 0 hours 13 minutes 27 seconds 879 msec
