                         Program Version 6.0.0  -   RELEASE  -
|  1> !r2SCANh aug-cc-pVTZ d3 TightSCF SlowConv RIJCOSX defgrid2
|  2>
|  3> %pal
|  4> nprocs 4
|  5> end
|  6>
|  7> %scf
|  8> MaxIter 1500
|  9> end
| 10>
| 11> %maxcore 3000
| 12>
| 13> !CPCM
| 14> %cpcm smd true
| 15> SMDsolvent "MeCN"
| 16> surfacetype gepol_ses
| 17> rsolv 2.19
| 18> end
| 19>
| 20> * xyz 1 2
| 21> C          -2.34552987536684     -1.21989010437598      0.39037314372658
| 22> C          -3.61895068813073     -0.68175269434440      0.38389142559167
| 23> C          -3.82314603181153      0.63223129507657     -0.05997707610989
| 24> C          -2.74291757400101      1.40018818267067     -0.51535069014080
| 25> C          -1.45991639594185      0.88100768107606     -0.50933331005631
| 26> C          -1.24682427758412     -0.43286197652402     -0.02997852330470
| 27> N          -0.00000583482740     -1.01085724580805     -0.00004772669115
| 28> C           1.24681241286631     -0.43287174597834      0.02990526482063
| 29> C           1.45990511527645      0.88100588629127      0.50923458111131
| 30> C           2.74292315008343      1.40015182716249      0.51533074845338
| 31> C           3.82316479830717      0.63215150787923      0.06005371973868
| 32> C           3.61896072254659     -0.68183818250133     -0.38379986432228
| 33> C           2.34552582381883     -1.21993769489926     -0.39035690905535
| 34> H           2.17816875399825     -2.24126262631785     -0.74631287979897
| 35> H           4.46447935418444     -1.28373988515481     -0.72627658434262
| 36> H           4.83264524497399      1.05187382862867      0.07202071830295
| 37> H           2.91442484546385      2.40736518053646      0.90385483105346
| 38> H           0.63238245735310      1.45557255022259      0.92936286739960
| 39> H          -0.00000303273582     -2.03154086007956     -0.00006285746572
| 40> H          -0.63240635676261      1.45553755141713     -0.92953302648471
| 41> H          -2.91442477275671      2.40739802155151     -0.90387838458025
| 42> H          -4.83260942910992      1.05198735407979     -0.07187345817988
| 43> H          -4.46446345632637     -1.28362150345028      0.72644056993610
| 44> H          -2.17818095351749     -2.24120514715858      0.74635382039827
| 45> *
| 46>
| 47>                          ****END OF INPUT****

CARTESIAN COORDINATES (ANGSTROEM)
---------------------------------
  C     -2.345530   -1.219890    0.390373
  C     -3.618951   -0.681753    0.383891
  C     -3.823146    0.632231   -0.059977
  C     -2.742918    1.400188   -0.515351
  C     -1.459916    0.881008   -0.509333
  C     -1.246824   -0.432862   -0.029979
  N     -0.000006   -1.010857   -0.000048
  C      1.246812   -0.432872    0.029905
  C      1.459905    0.881006    0.509235
  C      2.742923    1.400152    0.515331
  C      3.823165    0.632152    0.060054
  C      3.618961   -0.681838   -0.383800
  C      2.345526   -1.219938   -0.390357
  H      2.178169   -2.241263   -0.746313
  H      4.464479   -1.283740   -0.726277
  H      4.832645    1.051874    0.072021
  H      2.914425    2.407365    0.903855
  H      0.632382    1.455573    0.929363
  H     -0.000003   -2.031541   -0.000063
  H     -0.632406    1.455538   -0.929533
  H     -2.914425    2.407398   -0.903878
  H     -4.832609    1.051987   -0.071873
  H     -4.464463   -1.283622    0.726441
  H     -2.178181   -2.241205    0.746354

 Total Charge           Charge          ....    1
 Multiplicity           Mult            ....    2
 Number of Electrons    NEL             ....   89
 Basis Dimension        Dim             ....  851

ORBITAL ENERGIES
----------------
                 SPIN UP ORBITALS
  NO   OCC          E(Eh)            E(eV)
   0   1.0000     -14.421416      -392.4267
   1   1.0000     -10.247977      -278.8616
   2   1.0000     -10.247958      -278.8611
   3   1.0000     -10.196435      -277.4591
   4   1.0000     -10.196402      -277.4582
   5   1.0000     -10.196129      -277.4508
   6   1.0000     -10.196123      -277.4506
   7   1.0000     -10.192552      -277.3534
   8   1.0000     -10.192549      -277.3534
   9   1.0000     -10.184764      -277.1415
  10   1.0000     -10.184745      -277.1410
  11   1.0000     -10.184364      -277.1306
  12   1.0000     -10.184361      -277.1305
  13   1.0000      -1.027926       -27.9713
  14   1.0000      -0.893498       -24.3133
  15   1.0000      -0.872661       -23.7463
  16   1.0000      -0.794673       -21.6242
  17   1.0000      -0.781886       -21.2762
  18   1.0000      -0.774429       -21.0733
  19   1.0000      -0.747125       -20.3303
  20   1.0000      -0.660834       -17.9822
  21   1.0000      -0.653879       -17.7929
  22   1.0000      -0.622307       -16.9338
  23   1.0000      -0.605460       -16.4754
  24   1.0000      -0.558618       -15.2008
  25   1.0000      -0.555660       -15.1203
  26   1.0000      -0.516758       -14.0617
  27   1.0000      -0.497431       -13.5358
  28   1.0000      -0.481953       -13.1146
  29   1.0000      -0.462606       -12.5882
  30   1.0000      -0.452596       -12.3157
  31   1.0000      -0.446456       -12.1487
  32   1.0000      -0.439400       -11.9567
  33   1.0000      -0.436360       -11.8740
  34   1.0000      -0.427484       -11.6324
  35   1.0000      -0.398225       -10.8363
  36   1.0000      -0.378602       -10.3023
  37   1.0000      -0.368508       -10.0276
  38   1.0000      -0.367298        -9.9947
  39   1.0000      -0.355323        -9.6688
  40   1.0000      -0.349735        -9.5168
  41   1.0000      -0.288159        -7.8412
  42   1.0000      -0.284680        -7.7465
  43   1.0000      -0.282039        -7.6747
  44   1.0000      -0.242362        -6.5950
  45   0.0000      -0.065282        -1.7764
  46   0.0000      -0.050840        -1.3834
  47   0.0000      -0.048457        -1.3186
  48   0.0000      -0.027702        -0.7538
  49   0.0000       0.004728         0.1287

                 SPIN DOWN ORBITALS
  NO   OCC          E(Eh)            E(eV)
   0   1.0000     -14.410652      -392.1338
   1   1.0000     -10.249205      -278.8950
   2   1.0000     -10.249186      -278.8945
   3   1.0000     -10.193290      -277.3735
   4   1.0000     -10.193259      -277.3727
   5   1.0000     -10.192981      -277.3651
   6   1.0000     -10.192974      -277.3649
   7   1.0000     -10.188367      -277.2396
   8   1.0000     -10.188366      -277.2395
   9   1.0000     -10.186627      -277.1922
  10   1.0000     -10.186608      -277.1917
  11   1.0000     -10.186253      -277.1820
  12   1.0000     -10.186249      -277.1819
  13   1.0000      -1.013101       -27.5679
  14   1.0000      -0.889636       -24.2082
  15   1.0000      -0.867005       -23.5924
  16   1.0000      -0.791325       -21.5330
  17   1.0000      -0.778632       -21.1877
  18   1.0000      -0.771930       -21.0053
  19   1.0000      -0.736366       -20.0375
  20   1.0000      -0.655028       -17.8242
  21   1.0000      -0.651976       -17.7412
  22   1.0000      -0.619540       -16.8585
  23   1.0000      -0.602375       -16.3915
  24   1.0000      -0.557385       -15.1672
  25   1.0000      -0.552318       -15.0293
  26   1.0000      -0.513523       -13.9737
  27   1.0000      -0.493838       -13.4380
  28   1.0000      -0.472325       -12.8526
  29   1.0000      -0.461490       -12.5578
  30   1.0000      -0.445521       -12.1232
  31   1.0000      -0.444279       -12.0895
  32   1.0000      -0.436039       -11.8652
  33   1.0000      -0.435713       -11.8563
  34   1.0000      -0.418830       -11.3969
  35   1.0000      -0.387660       -10.5488
  36   1.0000      -0.377138       -10.2624
  37   1.0000      -0.366480        -9.9724
  38   1.0000      -0.355947        -9.6858
  39   1.0000      -0.354410        -9.6440
  40   1.0000      -0.338380        -9.2078
  41   1.0000      -0.278298        -7.5729
  42   1.0000      -0.275868        -7.5067
  43   1.0000      -0.271719        -7.3939
  44   0.0000      -0.181307        -4.9336
  45   0.0000      -0.053136        -1.4459
  46   0.0000      -0.044193        -1.2025
  47   0.0000      -0.040921        -1.1135
  48   0.0000      -0.011276        -0.3068

MULLIKEN ATOMIC CHARGES AND SPIN POPULATIONS
--------------------------------------------
   0 C :   -0.752898    0.193508
   1 C :   -0.469838   -0.144308
   2 C :   -0.305713    0.280536
   3 C :   -0.937280   -0.142086
   4 C :   -0.351529    0.197034
   5 C :    1.133433   -0.058053
   6 N :   -0.518385    0.402036
   7 C :    1.132404   -0.058087
   8 C :   -0.342389    0.196442
   9 C :   -0.935635   -0.141802
  10 C :   -0.313540    0.280379
  11 C :   -0.456529   -0.144435
  12 C :   -0.767494    0.193186
  13 H :    0.501897   -0.019783
  14 H :    0.360578   -0.005905
  15 H :    0.540921    0.006173
  16 H :    0.324439   -0.005684
  17 H :    0.721985    0.003860
  18 H :   -0.013596   -0.010807
  19 H :    0.723112    0.003542
  20 H :    0.324421   -0.005530
  21 H :    0.543575    0.006099
  22 H :    0.356962   -0.006127
  23 H :    0.501100   -0.020188
Sum of atomic charges         :    1.0000000

LOEWDIN ATOMIC CHARGES AND SPIN POPULATIONS
-------------------------------------------
   0 C :    0.265178    0.074890
   1 C :    0.229219    0.006294
   2 C :    0.233919    0.103062
   3 C :    0.234137    0.007071
   4 C :    0.251217    0.075876
   5 C :   -0.155728    0.059467
   6 N :    0.625795    0.238200
   7 C :   -0.155794    0.059465
   8 C :    0.251283    0.075827
   9 C :    0.234076    0.007070
  10 C :    0.233907    0.103018
  11 C :    0.229204    0.006295
  12 C :    0.265101    0.074844
  13 H :   -0.140079    0.015926
  14 H :   -0.155262   -0.009545
  15 H :   -0.153647    0.026876
  16 H :   -0.154001   -0.009076
  17 H :   -0.163093    0.016915
  18 H :   -0.209229    0.026399
  19 H :   -0.163225    0.016932
  20 H :   -0.153986   -0.009080
  21 H :   -0.153651    0.026888
  22 H :   -0.155258   -0.009551
  23 H :   -0.140083    0.015936

  Mayer bond orders larger than 0.100000
B(  0-C ,  1-C ) :   1.2106 B(  0-C ,  2-C ) :   0.1480 B(  0-C ,  5-C ) :   0.2621
B(  0-C , 23-H ) :   0.3822 B(  1-C ,  2-C ) :   0.9684 B(  1-C ,  5-C ) :  -0.2203
B(  1-C , 22-H ) :   0.8104 B(  2-C ,  3-C ) :   1.1720 B(  2-C ,  4-C ) :   0.2133
B(  2-C ,  5-C ) :  -0.1125 B(  2-C , 21-H ) :   0.5016 B(  3-C ,  4-C ) :   1.2870
B(  3-C ,  5-C ) :  -0.3564 B(  3-C , 20-H ) :   0.8545 B(  4-C ,  5-C ) :   0.4423
B(  4-C ,  6-N ) :  -0.1857 B(  4-C ,  7-C ) :   0.2020 B(  4-C , 17-H ) :  -0.1366
B(  4-C , 19-H ) :   0.2320 B(  5-C ,  6-N ) :   0.6478 B(  5-C ,  8-C ) :   0.1983
B(  5-C , 12-C ) :   0.1018 B(  5-C , 17-H ) :  -0.1527 B(  6-N ,  7-C ) :   0.6429
B(  6-N ,  8-C ) :  -0.1914 B(  6-N , 18-H ) :   1.3003 B(  7-C ,  8-C ) :   0.4440
B(  7-C ,  9-C ) :  -0.3534 B(  7-C , 10-C ) :  -0.1181 B(  7-C , 11-C ) :  -0.2239
B(  7-C , 12-C ) :   0.2610 B(  7-C , 19-H ) :  -0.1433 B(  8-C ,  9-C ) :   1.2774
B(  8-C , 10-C ) :   0.2131 B(  8-C , 17-H ) :   0.2335 B(  8-C , 19-H ) :  -0.1369
B(  9-C , 10-C ) :   1.1784 B(  9-C , 16-H ) :   0.8543 B( 10-C , 11-C ) :   0.9637
B( 10-C , 12-C ) :   0.1529 B( 10-C , 15-H ) :   0.5047 B( 11-C , 12-C ) :   1.2319
B( 11-C , 14-H ) :   0.8054 B( 12-C , 13-H ) :   0.3784

Dispersion correction           -0.009155628
FINAL SINGLE POINT ENERGY      -518.351220589364

DIPOLE MOMENT
-------------

Method             : SCF
Type of density    : Electron Density
Multiplicity       :   2
Irrep              :   0
Energy             :  -518.3420649612273792 Eh
Relativity type    :
Basis              : AO
                                X                 Y                 Z
Electronic contribution:     -0.000957294      -1.465991790       0.003440604
Nuclear contribution   :      0.000010787       0.666083860       0.000129839
                        -----------------------------------------
Total Dipole Moment    :     -0.000946507      -0.799907930       0.003570443
                        -----------------------------------------
Magnitude (a.u.)       :      0.799916459
Magnitude (Debye)      :      2.033226055

Rotational constants in cm-1:             0.083302             0.013962             0.012406
Rotational constants in MHz :          2497.339782           418.559791           371.935015

                             ****ORCA TERMINATED NORMALLY****
TOTAL RUN TIME: 0 days 0 hours 19 minutes 16 seconds 434 msec
