                         Program Version 6.0.0  -   RELEASE  -
|  1> !B3LYP aug-cc-pVTZ d3 TightSCF SlowConv RIJCOSX defgrid2
|  2>
|  3> %pal
|  4> nprocs 4
|  5> end
|  6>
|  7> %scf
|  8> MaxIter 1500
|  9> end
| 10>
| 11> %maxcore 3000
| 12>
| 13> !CPCM
| 14> %cpcm smd true
| 15> SMDsolvent "MeCN"
| 16> surfacetype gepol_ses
| 17> rsolv 2.19
| 18> end
| 19>
| 20> * xyz 1 2
| 21> C           2.42348472290459     -0.91745853608407      0.59245240880380
| 22> C           1.25995896348321     -0.39202749196625     -0.02333100512405
| 23> C           1.34845533499414      0.85031226217091     -0.70354304574749
| 24> C           2.54901795106357      1.53889253592779     -0.75588972072195
| 25> C           3.68078809059867      1.01347219167219     -0.12249703890860
| 26> C           3.61293527426724     -0.21317645517309      0.55511971135216
| 27> H           4.49963825852970     -0.61051765955941      1.05572901180402
| 28> H           4.62917087127076      1.55697433746367     -0.16496199627931
| 29> H           2.61592640542583      2.48137948500377     -1.30532606762871
| 30> H           0.47393529747941      1.23580556067586     -1.23411925330570
| 31> C          -0.00001731418985     -1.11439032518152     -0.00002747562644
| 32> C          -0.00002568960524     -2.50679262514812     -0.00005487800504
| 33> H          -0.93480054732863     -3.07584961343870     -0.00342574946663
| 34> H           0.93474533226452     -3.07585703929259      0.00329162420143
| 35> C          -1.25998231282226     -0.39200541574857      0.02329276572865
| 36> C          -2.42352655120021     -0.91741544935804     -0.59247757528391
| 37> C          -3.61296415978219     -0.21311035984979     -0.55512705740855
| 38> C          -3.68079177573927      1.01353038434026      0.12250956134291
| 39> C          -2.54900448879428      1.53892565378929      0.75589582496725
| 40> C          -1.34845157706727      0.85032505299238      0.70352498564033
| 41> H          -0.47391984231340      1.23578710201298      1.23410367351677
| 42> H          -2.61589448475022      2.48140107327864      1.30534730547376
| 43> H          -4.62916722704471      1.55704319189423      0.16499523284128
| 44> H          -4.49967994828211     -0.61043350047146     -1.05572841225155
| 45> H          -2.37320187697182     -1.85878167189054     -1.14547741375033
| 46> H           2.37313869360983     -1.85882668805983      1.14544868383589
| 47> *
| 48>
| 49>                          ****END OF INPUT****

CARTESIAN COORDINATES (ANGSTROEM)
---------------------------------
  C      2.423485   -0.917459    0.592452
  C      1.259959   -0.392027   -0.023331
  C      1.348455    0.850312   -0.703543
  C      2.549018    1.538893   -0.755890
  C      3.680788    1.013472   -0.122497
  C      3.612935   -0.213176    0.555120
  H      4.499638   -0.610518    1.055729
  H      4.629171    1.556974   -0.164962
  H      2.615926    2.481379   -1.305326
  H      0.473935    1.235806   -1.234119
  C     -0.000017   -1.114390   -0.000027
  C     -0.000026   -2.506793   -0.000055
  H     -0.934801   -3.075850   -0.003426
  H      0.934745   -3.075857    0.003292
  C     -1.259982   -0.392005    0.023293
  C     -2.423527   -0.917415   -0.592478
  C     -3.612964   -0.213110   -0.555127
  C     -3.680792    1.013530    0.122510
  C     -2.549004    1.538926    0.755896
  C     -1.348452    0.850325    0.703525
  H     -0.473920    1.235787    1.234104
  H     -2.615894    2.481401    1.305347
  H     -4.629167    1.557043    0.164995
  H     -4.499680   -0.610434   -1.055728
  H     -2.373202   -1.858782   -1.145477
  H      2.373139   -1.858827    1.145449

 Total Charge           Charge          ....    1
 Multiplicity           Mult            ....    2
 Number of Electrons    NEL             ....   95
 Basis Dimension        Dim             ....  920

ORBITAL ENERGIES
----------------
                 SPIN UP ORBITALS
  NO   OCC          E(Eh)            E(eV)
   0   1.0000     -10.251570      -278.9594
   1   1.0000     -10.241570      -278.6873
   2   1.0000     -10.226699      -278.2826
   3   1.0000     -10.226688      -278.2823
   4   1.0000     -10.209279      -277.8086
   5   1.0000     -10.209274      -277.8085
   6   1.0000     -10.209033      -277.8019
   7   1.0000     -10.208983      -277.8006
   8   1.0000     -10.207369      -277.7566
   9   1.0000     -10.207365      -277.7565
  10   1.0000     -10.197891      -277.4987
  11   1.0000     -10.197887      -277.4986
  12   1.0000     -10.197150      -277.4786
  13   1.0000     -10.197133      -277.4781
  14   1.0000      -0.906529       -24.6679
  15   1.0000      -0.880560       -23.9613
  16   1.0000      -0.842544       -22.9268
  17   1.0000      -0.776701       -21.1351
  18   1.0000      -0.775327       -21.0977
  19   1.0000      -0.767698       -20.8901
  20   1.0000      -0.752407       -20.4740
  21   1.0000      -0.669511       -18.2183
  22   1.0000      -0.636152       -17.3106
  23   1.0000      -0.625468       -17.0198
  24   1.0000      -0.619785       -16.8652
  25   1.0000      -0.578229       -15.7344
  26   1.0000      -0.548112       -14.9149
  27   1.0000      -0.526718       -14.3327
  28   1.0000      -0.492693       -13.4069
  29   1.0000      -0.492665       -13.4061
  30   1.0000      -0.474041       -12.8993
  31   1.0000      -0.464216       -12.6320
  32   1.0000      -0.463094       -12.6014
  33   1.0000      -0.443581       -12.0704
  34   1.0000      -0.443397       -12.0654
  35   1.0000      -0.442139       -12.0312
  36   1.0000      -0.414343       -11.2748
  37   1.0000      -0.404209       -10.9991
  38   1.0000      -0.396937       -10.8012
  39   1.0000      -0.380140       -10.3441
  40   1.0000      -0.369834       -10.0637
  41   1.0000      -0.363361        -9.8875
  42   1.0000      -0.360021        -9.7967
  43   1.0000      -0.345506        -9.4017
  44   1.0000      -0.286838        -7.8053
  45   1.0000      -0.283970        -7.7272
  46   1.0000      -0.278799        -7.5865
  47   1.0000      -0.264609        -7.2004
  48   0.0000      -0.097317        -2.6481
  49   0.0000      -0.050223        -1.3666
  50   0.0000      -0.040675        -1.1068
  51   0.0000      -0.026197        -0.7129
  52   0.0000      -0.007985        -0.2173

                 SPIN DOWN ORBITALS
  NO   OCC          E(Eh)            E(eV)
   0   1.0000     -10.251754      -278.9644
   1   1.0000     -10.233780      -278.4753
   2   1.0000     -10.225587      -278.2524
   3   1.0000     -10.225576      -278.2521
   4   1.0000     -10.208101      -277.7765
   5   1.0000     -10.208051      -277.7752
   6   1.0000     -10.207517      -277.7607
   7   1.0000     -10.207513      -277.7605
   8   1.0000     -10.206638      -277.7367
   9   1.0000     -10.206635      -277.7366
  10   1.0000     -10.198187      -277.5068
  11   1.0000     -10.198183      -277.5067
  12   1.0000     -10.197577      -277.4902
  13   1.0000     -10.197560      -277.4897
  14   1.0000      -0.902602       -24.5611
  15   1.0000      -0.877809       -23.8864
  16   1.0000      -0.836895       -22.7731
  17   1.0000      -0.774481       -21.0747
  18   1.0000      -0.772756       -21.0278
  19   1.0000      -0.765102       -20.8195
  20   1.0000      -0.740803       -20.1583
  21   1.0000      -0.663932       -18.0665
  22   1.0000      -0.634292       -17.2600
  23   1.0000      -0.622470       -16.9383
  24   1.0000      -0.618096       -16.8192
  25   1.0000      -0.575487       -15.6598
  26   1.0000      -0.547119       -14.8879
  27   1.0000      -0.524254       -14.2657
  28   1.0000      -0.490880       -13.3575
  29   1.0000      -0.490654       -13.3514
  30   1.0000      -0.472207       -12.8494
  31   1.0000      -0.461290       -12.5523
  32   1.0000      -0.461275       -12.5519
  33   1.0000      -0.442542       -12.0422
  34   1.0000      -0.441881       -12.0242
  35   1.0000      -0.440541       -11.9877
  36   1.0000      -0.411492       -11.1973
  37   1.0000      -0.396242       -10.7823
  38   1.0000      -0.389796       -10.6069
  39   1.0000      -0.379445       -10.3252
  40   1.0000      -0.369286       -10.0488
  41   1.0000      -0.360903        -9.8207
  42   1.0000      -0.358754        -9.7622
  43   1.0000      -0.326266        -8.8782
  44   1.0000      -0.283202        -7.7063
  45   1.0000      -0.276517        -7.5244
  46   1.0000      -0.269623        -7.3368
  47   0.0000      -0.195386        -5.3167
  48   0.0000      -0.071910        -1.9568
  49   0.0000      -0.043145        -1.1740
  50   0.0000      -0.036615        -0.9963
  51   0.0000      -0.021226        -0.5776

MULLIKEN ATOMIC CHARGES AND SPIN POPULATIONS
--------------------------------------------
   0 C :   -1.121468    0.029626
   1 C :    2.459351    0.106567
   2 C :   -0.663923    0.056923
   3 C :   -0.983168   -0.028567
   4 C :   -0.129754    0.124166
   5 C :   -0.758914   -0.018535
   6 H :    0.542793   -0.000008
   7 H :    0.554986    0.001118
   8 H :    0.474044    0.001410
   9 H :    0.093905   -0.004491
  10 C :    0.660314    0.011551
  11 C :   -1.037757    0.487510
  12 H :    0.288620   -0.005008
  13 H :    0.289984   -0.004851
  14 C :    2.454369    0.106769
  15 C :   -1.094965    0.029833
  16 C :   -0.745311   -0.018527
  17 C :   -0.120855    0.124241
  18 C :   -0.980604   -0.028754
  19 C :   -0.661723    0.056930
  20 H :    0.095149   -0.004600
  21 H :    0.477049    0.001354
  22 H :    0.548973    0.001433
  23 H :    0.487328   -0.000122
  24 H :   -0.059722   -0.013109
  25 H :   -0.068700   -0.012861
Sum of atomic charges         :    1.0000000

LOEWDIN ATOMIC CHARGES AND SPIN POPULATIONS
-------------------------------------------
   0 C :    0.245705    0.033542
   1 C :   -0.097806    0.057450
   2 C :    0.236359    0.040029
   3 C :    0.240160    0.014719
   4 C :    0.238316    0.059321
   5 C :    0.237645    0.016947
   6 H :   -0.153036   -0.001175
   7 H :   -0.148034    0.013736
   8 H :   -0.152590   -0.001891
   9 H :   -0.148854    0.006243
  10 C :   -0.062470    0.107834
  11 C :    0.683396    0.286599
  12 H :   -0.153443    0.058368
  13 H :   -0.153454    0.058370
  14 C :   -0.097774    0.057445
  15 C :    0.245750    0.033553
  16 C :    0.237664    0.016942
  17 C :    0.238334    0.059328
  18 C :    0.240188    0.014722
  19 C :    0.236303    0.040032
  20 H :   -0.148963    0.006245
  21 H :   -0.152582   -0.001890
  22 H :   -0.148033    0.013738
  23 H :   -0.153045   -0.001177
  24 H :   -0.154865    0.005485
  25 H :   -0.154871    0.005483

  Mayer bond orders larger than 0.100000
B(  0-C ,  1-C ) :  -0.1225 B(  0-C ,  2-C ) :  -0.7157 B(  0-C ,  3-C ) :   0.1539
B(  0-C ,  4-C ) :  -0.1581 B(  0-C ,  5-C ) :   1.4333 B(  0-C ,  6-H ) :  -0.1545
B(  0-C , 10-C ) :   0.4306 B(  0-C , 25-H ) :   1.7896 B(  1-C ,  2-C ) :   0.3334
B(  1-C ,  3-C ) :  -0.1007 B(  1-C ,  4-C ) :  -0.2312 B(  1-C , 11-C ) :  -0.2639
B(  1-C , 14-C ) :  -0.2309 B(  1-C , 25-H ) :  -0.1846 B(  2-C ,  3-C ) :   1.3838
B(  2-C ,  9-H ) :   1.4682 B(  2-C , 10-C ) :   0.3750 B(  2-C , 19-C ) :   0.1718
B(  3-C ,  4-C ) :   1.2976 B(  3-C ,  5-C ) :   0.2886 B(  3-C ,  8-H ) :   0.4999
B(  4-C ,  5-C ) :   1.1356 B(  4-C ,  7-H ) :   0.4911 B(  4-C , 10-C ) :   0.2149
B(  5-C ,  6-H ) :   0.4484 B(  5-C ,  9-H ) :  -0.1302 B(  9-H , 25-H ) :   0.1711
B( 10-C , 11-C ) :   0.6377 B( 10-C , 15-C ) :   0.4342 B( 10-C , 17-C ) :   0.2136
B( 10-C , 19-C ) :   0.3750 B( 10-C , 24-H ) :  -0.1570 B( 10-C , 25-H ) :  -0.1571
B( 11-C , 12-H ) :   0.9356 B( 11-C , 13-H ) :   0.9327 B( 11-C , 14-C ) :  -0.2663
B( 14-C , 15-C ) :  -0.1161 B( 14-C , 17-C ) :  -0.2273 B( 14-C , 18-C ) :  -0.1015
B( 14-C , 19-C ) :   0.3320 B( 14-C , 24-H ) :  -0.1804 B( 15-C , 16-C ) :   1.3954
B( 15-C , 17-C ) :  -0.1636 B( 15-C , 18-C ) :   0.1474 B( 15-C , 19-C ) :  -0.7190
B( 15-C , 23-H ) :  -0.1565 B( 15-C , 24-H ) :   1.7644 B( 16-C , 17-C ) :   1.1193
B( 16-C , 18-C ) :   0.2850 B( 16-C , 20-H ) :  -0.1234 B( 16-C , 23-H ) :   0.5367
B( 17-C , 18-C ) :   1.2951 B( 17-C , 22-H ) :   0.5128 B( 18-C , 19-C ) :   1.3834
B( 18-C , 21-H ) :   0.4990 B( 19-C , 20-H ) :   1.4680 B( 20-H , 24-H ) :   0.1655

Dispersion correction           -0.056215194
FINAL SINGLE POINT ENERGY      -540.399116570478

DIPOLE MOMENT
-------------

Method             : SCF
Type of density    : Electron Density
Multiplicity       :   2
Irrep              :   0
Energy             :  -540.3429013762572595 Eh
Relativity type    :
Basis              : AO
                                X                 Y                 Z
Electronic contribution:     -0.000951634      -0.341841302      -0.000805999
Nuclear contribution   :     -0.000002786      -0.578596445       0.000006465
                        -----------------------------------------
Total Dipole Moment    :     -0.000954421      -0.920437747      -0.000799534
                        -----------------------------------------
Magnitude (a.u.)       :      0.920438589
Magnitude (Debye)      :      2.339568966

Rotational constants in cm-1:             0.053565             0.014254             0.012120
Rotational constants in MHz :          1605.831188           427.320428           363.336984

                             ****ORCA TERMINATED NORMALLY****
TOTAL RUN TIME: 0 days 0 hours 10 minutes 48 seconds 615 msec
