                         Program Version 6.0.0  -   RELEASE  -
|  1> !B3LYP aug-cc-pVTZ d3 TightSCF SlowConv RIJCOSX defgrid2
|  2>
|  3> %pal
|  4> nprocs 4
|  5> end
|  6>
|  7> %scf
|  8> MaxIter 1500
|  9> end
| 10>
| 11> %maxcore 3000
| 12>
| 13> !CPCM
| 14> %cpcm smd true
| 15> SMDsolvent "MeCN"
| 16> surfacetype gepol_ses
| 17> rsolv 2.19
| 18> end
| 19>
| 20> * xyz 1 2
| 21> C          -1.94605217400678     -1.14602633273004     -0.31228004530400
| 22> C          -1.27946551773851      0.24408441077832     -0.20897492502665
| 23> N           0.01600699561608      0.06744351701809      0.39029195846881
| 24> H           0.06265782979012      0.05391117721033      1.41697390045102
| 25> C           1.25148854883622     -0.09172311464903     -0.32836866073256
| 26> C           1.90177624486915      1.30323669855352     -0.46614331567862
| 27> H           2.17456664951472      1.71255161234552      0.52069722483394
| 28> H           1.23681825466419      2.01161865664215     -0.98621902186020
| 29> H           2.82142391902319      1.18450836803534     -1.06306170139066
| 30> C           2.15574014749067     -1.09567716286551      0.37361772774099
| 31> H           1.67553906419562     -2.08461070530957      0.45496677186850
| 32> H           3.08166929363866     -1.21369164664504     -0.21208064192341
| 33> H           2.44114524539303     -0.74645819923523      1.38177992392114
| 34> H           0.97579493542327     -0.44455026880370     -1.33762113459450
| 35> C          -2.11057591663361      1.23704215369463      0.59223096402592
| 36> H          -1.61862942705056      2.22182755506889      0.65043188583308
| 37> H          -2.30656920422753      0.86778750595824      1.61446351535389
| 38> H          -3.08448029295519      1.37194719861582      0.09450678436786
| 39> H          -1.09645939641756      0.61566302218729     -1.23236453185842
| 40> H          -1.33402126313580     -1.84665456543689     -0.90298607858241
| 41> H          -2.12992557602449     -1.57272950513057      0.68767946741479
| 42> H          -2.91556146026488     -1.01417817530256     -0.82104716732853
| 43> *
| 44>
| 45>                          ****END OF INPUT****

CARTESIAN COORDINATES (ANGSTROEM)
---------------------------------
  C     -1.946052   -1.146026   -0.312280
  C     -1.279466    0.244084   -0.208975
  N      0.016007    0.067444    0.390292
  H      0.062658    0.053911    1.416974
  C      1.251489   -0.091723   -0.328369
  C      1.901776    1.303237   -0.466143
  H      2.174567    1.712552    0.520697
  H      1.236818    2.011619   -0.986219
  H      2.821424    1.184508   -1.063062
  C      2.155740   -1.095677    0.373618
  H      1.675539   -2.084611    0.454967
  H      3.081669   -1.213692   -0.212081
  H      2.441145   -0.746458    1.381780
  H      0.975795   -0.444550   -1.337621
  C     -2.110576    1.237042    0.592231
  H     -1.618629    2.221828    0.650432
  H     -2.306569    0.867788    1.614464
  H     -3.084480    1.371947    0.094507
  H     -1.096459    0.615663   -1.232365
  H     -1.334021   -1.846655   -0.902986
  H     -2.129926   -1.572730    0.687679
  H     -2.915561   -1.014178   -0.821047

 Total Charge           Charge          ....    1
 Multiplicity           Mult            ....    2
 Number of Electrons    NEL             ....   57
 Basis Dimension        Dim             ....  667

ORBITAL ENERGIES
----------------
                 SPIN UP ORBITALS
  NO   OCC          E(Eh)            E(eV)
   0   1.0000     -14.446437      -393.1075
   1   1.0000     -10.248143      -278.8662
   2   1.0000     -10.248001      -278.8623
   3   1.0000     -10.187456      -277.2148
   4   1.0000     -10.187382      -277.2128
   5   1.0000     -10.180047      -277.0132
   6   1.0000     -10.179866      -277.0082
   7   1.0000      -1.014968       -27.6187
   8   1.0000      -0.832466       -22.6526
   9   1.0000      -0.766994       -20.8710
  10   1.0000      -0.709621       -19.3098
  11   1.0000      -0.704463       -19.1694
  12   1.0000      -0.643354       -17.5065
  13   1.0000      -0.633784       -17.2461
  14   1.0000      -0.530535       -14.4366
  15   1.0000      -0.509794       -13.8722
  16   1.0000      -0.489915       -13.3313
  17   1.0000      -0.465427       -12.6649
  18   1.0000      -0.450869       -12.2688
  19   1.0000      -0.424298       -11.5457
  20   1.0000      -0.412074       -11.2131
  21   1.0000      -0.402426       -10.9506
  22   1.0000      -0.396907       -10.8004
  23   1.0000      -0.383695       -10.4409
  24   1.0000      -0.380210       -10.3460
  25   1.0000      -0.367122        -9.9899
  26   1.0000      -0.365999        -9.9594
  27   1.0000      -0.362959        -9.8766
  28   1.0000      -0.311900        -8.4872
  29   0.0000      -0.007823        -0.2129
  30   0.0000       0.005746         0.1563
  31   0.0000       0.006794         0.1849
  32   0.0000       0.008922         0.2428
  33   0.0000       0.026866         0.7311

                 SPIN DOWN ORBITALS
  NO   OCC          E(Eh)            E(eV)
   0   1.0000     -14.428343      -392.6152
   1   1.0000     -10.248389      -278.8728
   2   1.0000     -10.248246      -278.8690
   3   1.0000     -10.185658      -277.1658
   4   1.0000     -10.185592      -277.1640
   5   1.0000     -10.179554      -276.9998
   6   1.0000     -10.179385      -276.9951
   7   1.0000      -0.981961       -26.7205
   8   1.0000      -0.828038       -22.5321
   9   1.0000      -0.755172       -20.5493
  10   1.0000      -0.704215       -19.1627
  11   1.0000      -0.701123       -19.0785
  12   1.0000      -0.635866       -17.3028
  13   1.0000      -0.629795       -17.1376
  14   1.0000      -0.522960       -14.2305
  15   1.0000      -0.503710       -13.7066
  16   1.0000      -0.461899       -12.5689
  17   1.0000      -0.460189       -12.5224
  18   1.0000      -0.444107       -12.0848
  19   1.0000      -0.420919       -11.4538
  20   1.0000      -0.406523       -11.0621
  21   1.0000      -0.399322       -10.8661
  22   1.0000      -0.394531       -10.7357
  23   1.0000      -0.378912       -10.3107
  24   1.0000      -0.372618       -10.1395
  25   1.0000      -0.364793        -9.9265
  26   1.0000      -0.361390        -9.8339
  27   1.0000      -0.360169        -9.8007
  28   0.0000      -0.175489        -4.7753
  29   0.0000      -0.007475        -0.2034
  30   0.0000       0.006194         0.1685
  31   0.0000       0.006902         0.1878
  32   0.0000       0.009561         0.2602

MULLIKEN ATOMIC CHARGES AND SPIN POPULATIONS
--------------------------------------------
   0 C :   -0.924642    0.094970
   1 C :    0.787779   -0.091926
   2 N :   -0.059491    0.884881
   3 H :    0.159904   -0.030001
   4 C :    0.777739   -0.092983
   5 C :   -0.919664    0.095244
   6 H :    0.215970    0.005616
   7 H :    0.235309   -0.000545
   8 H :    0.197692    0.015999
   9 C :   -0.971615    0.033854
  10 H :    0.201291    0.000319
  11 H :    0.206982    0.004988
  12 H :    0.223134    0.001022
  13 H :    0.280275    0.008786
  14 C :   -0.973350    0.034199
  15 H :    0.197872    0.000353
  16 H :    0.221847    0.001030
  17 H :    0.209200    0.005056
  18 H :    0.287305    0.008260
  19 H :    0.231935   -0.000424
  20 H :    0.215662    0.005371
  21 H :    0.198866    0.015931
Sum of atomic charges         :    1.0000000

LOEWDIN ATOMIC CHARGES AND SPIN POPULATIONS
-------------------------------------------
   0 C :    0.629874    0.050750
   1 C :   -0.096164    0.097423
   2 N :    0.704789    0.529725
   3 H :   -0.151583    0.068372
   4 C :   -0.096309    0.097672
   5 C :    0.629981    0.050949
   6 H :   -0.136827    0.004629
   7 H :   -0.139426    0.004105
   8 H :   -0.135823    0.013703
   9 C :    0.617897    0.016274
  10 H :   -0.139640    0.001790
  11 H :   -0.139374    0.003815
  12 H :   -0.136964    0.000948
  13 H :   -0.099997    0.007243
  14 C :    0.617813    0.016552
  15 H :   -0.139759    0.001816
  16 H :   -0.137063    0.000967
  17 H :   -0.139243    0.003914
  18 H :   -0.100001    0.007005
  19 H :   -0.139506    0.004093
  20 H :   -0.136755    0.004599
  21 H :   -0.135920    0.013658

  Mayer bond orders larger than 0.100000
B(  0-C ,  1-C ) :   0.6532 B(  0-C ,  2-N ) :   0.1079 B(  0-C , 14-C ) :   0.1463
B(  0-C , 19-H ) :   0.9696 B(  0-C , 20-H ) :   0.9775 B(  0-C , 21-H ) :   1.0348
B(  1-C ,  2-N ) :   0.8056 B(  1-C , 14-C ) :   0.5972 B(  1-C , 18-H ) :   0.8908
B(  2-N ,  3-H ) :   0.8729 B(  2-N ,  4-C ) :   0.8185 B(  2-N ,  5-C ) :   0.1089
B(  4-C ,  5-C ) :   0.6625 B(  4-C ,  9-C ) :   0.5963 B(  4-C , 13-H ) :   0.8942
B(  5-C ,  6-H ) :   0.9766 B(  5-C ,  7-H ) :   0.9648 B(  5-C ,  8-H ) :   1.0359
B(  5-C ,  9-C ) :   0.1441 B(  9-C , 10-H ) :   0.9998 B(  9-C , 11-H ) :   1.0363
B(  9-C , 12-H ) :   0.9716 B( 14-C , 15-H ) :   1.0036 B( 14-C , 16-H ) :   0.9730
B( 14-C , 17-H ) :   1.0322

Dispersion correction           -0.029770768
FINAL SINGLE POINT ENERGY      -292.174228122084

DIPOLE MOMENT
-------------

Method             : SCF
Type of density    : Electron Density
Multiplicity       :   2
Irrep              :   0
Energy             :  -292.1444573538781242 Eh
Relativity type    :
Basis              : AO
                                X                 Y                 Z
Electronic contribution:      0.010746556      -0.012021508       0.199086455
Nuclear contribution   :      0.001368449       0.006688621       0.038653602
                        -----------------------------------------
Total Dipole Moment    :      0.012115005      -0.005332888       0.237740057
                        -----------------------------------------
Magnitude (a.u.)       :      0.238108269
Magnitude (Debye)      :      0.605223123

Rotational constants in cm-1:             0.132886             0.050590             0.041714
Rotational constants in MHz :          3983.810476          1516.635197          1250.539791

                             ****ORCA TERMINATED NORMALLY****
TOTAL RUN TIME: 0 days 0 hours 4 minutes 42 seconds 559 msec
