                         Program Version 6.0.0  -   RELEASE  -
|  1> !TPSSh aug-cc-pVTZ d3 TightSCF SlowConv RIJCOSX defgrid2
|  2>
|  3> %pal
|  4> nprocs 4
|  5> end
|  6>
|  7> %scf
|  8> MaxIter 1500
|  9> end
| 10>
| 11> %maxcore 3000
| 12>
| 13> !CPCM
| 14> %cpcm smd true
| 15> SMDsolvent "MeCN"
| 16> surfacetype gepol_ses
| 17> rsolv 2.19
| 18> end
| 19>
| 20> * xyz 0 1
| 21> C           2.39749463161436     -0.83149819893554      0.67669387485363
| 22> C           1.27172397639116     -0.40047992295486     -0.03969915484816
| 23> C           1.38259238776027      0.76303550152059     -0.81642324820039
| 24> C           2.58576374302039      1.45963699946448     -0.89073073539891
| 25> C           3.70030483512470      1.01412413753758     -0.17987702815859
| 26> C           3.60056124987950     -0.13306932613824      0.60654243714533
| 27> H           4.46466138277505     -0.48209902986176      1.17996120108222
| 28> H           4.64383968195764      1.56540648474814     -0.23276704782048
| 29> H           2.65415437190379      2.35888092106518     -1.51038356423303
| 30> H           0.51264382726920      1.11680700092055     -1.37721808377949
| 31> C          -0.00001123541006     -1.16417502511622     -0.00002273576044
| 32> C          -0.00001884782649     -2.50996676952303     -0.00003277235160
| 33> H          -0.93225135885572     -3.07886784376654      0.08064455143521
| 34> H           0.93220419630722     -3.07888213761201     -0.08071574786352
| 35> C          -1.27174210287451     -0.40047320911747      0.03966757754902
| 36> C          -2.39750985071673     -0.83146289450512     -0.67674719863415
| 37> C          -3.60057439169967     -0.13303092760862     -0.60657919634084
| 38> C          -3.70031659242385      1.01413981080717      0.17987332068473
| 39> C          -2.58577653905984      1.45962201354211      0.89074922577948
| 40> C          -1.38260956202413      0.76301589591316      0.81642903255360
| 41> H          -0.51266418903044      1.11676009652396      1.37724534040847
| 42> H          -2.65416367308445      2.35884547498639      1.51043035509866
| 43> H          -4.64384894904450      1.56542539828851      0.23277593005599
| 44> H          -4.46467229568686     -0.48204204645132     -1.18001194866167
| 45> H          -2.31694066862491     -1.71619568559047     -1.31480317865473
| 46> H           2.31692587235889     -1.71625071813661      1.31472229405965
| 47> *
| 48>
| 49>                          ****END OF INPUT****

CARTESIAN COORDINATES (ANGSTROEM)
---------------------------------
  C      2.397495   -0.831498    0.676694
  C      1.271724   -0.400480   -0.039699
  C      1.382592    0.763036   -0.816423
  C      2.585764    1.459637   -0.890731
  C      3.700305    1.014124   -0.179877
  C      3.600561   -0.133069    0.606542
  H      4.464661   -0.482099    1.179961
  H      4.643840    1.565406   -0.232767
  H      2.654154    2.358881   -1.510384
  H      0.512644    1.116807   -1.377218
  C     -0.000011   -1.164175   -0.000023
  C     -0.000019   -2.509967   -0.000033
  H     -0.932251   -3.078868    0.080645
  H      0.932204   -3.078882   -0.080716
  C     -1.271742   -0.400473    0.039668
  C     -2.397510   -0.831463   -0.676747
  C     -3.600574   -0.133031   -0.606579
  C     -3.700317    1.014140    0.179873
  C     -2.585777    1.459622    0.890749
  C     -1.382610    0.763016    0.816429
  H     -0.512664    1.116760    1.377245
  H     -2.654164    2.358845    1.510430
  H     -4.643849    1.565425    0.232776
  H     -4.464672   -0.482042   -1.180012
  H     -2.316941   -1.716196   -1.314803
  H      2.316926   -1.716251    1.314722

 Total Charge           Charge          ....    0
 Multiplicity           Mult            ....    1
 Number of Electrons    NEL             ....   96
 Basis Dimension        Dim             ....  920

ORBITAL ENERGIES
----------------

  NO   OCC          E(Eh)            E(eV)
   0   2.0000     -10.131790      -275.7000
   1   2.0000     -10.128221      -275.6029
   2   2.0000     -10.128215      -275.6027
   3   2.0000     -10.118056      -275.3263
   4   2.0000     -10.118031      -275.3256
   5   2.0000     -10.117876      -275.3214
   6   2.0000     -10.117872      -275.3213
   7   2.0000     -10.117559      -275.3128
   8   2.0000     -10.117557      -275.3127
   9   2.0000     -10.117308      -275.3059
  10   2.0000     -10.117307      -275.3059
  11   2.0000     -10.116964      -275.2966
  12   2.0000     -10.116959      -275.2965
  13   2.0000     -10.109671      -275.0981
  14   2.0000      -0.850087       -23.1320
  15   2.0000      -0.833900       -22.6916
  16   2.0000      -0.784689       -21.3525
  17   2.0000      -0.728717       -19.8294
  18   2.0000      -0.728344       -19.8192
  19   2.0000      -0.723049       -19.6752
  20   2.0000      -0.697813       -18.9885
  21   2.0000      -0.612224       -16.6595
  22   2.0000      -0.589138       -16.0313
  23   2.0000      -0.581308       -15.8182
  24   2.0000      -0.577962       -15.7271
  25   2.0000      -0.531560       -14.4645
  26   2.0000      -0.503786       -13.7087
  27   2.0000      -0.481106       -13.0916
  28   2.0000      -0.448333       -12.1998
  29   2.0000      -0.440645       -11.9906
  30   2.0000      -0.431069       -11.7300
  31   2.0000      -0.423141       -11.5142
  32   2.0000      -0.419370       -11.4116
  33   2.0000      -0.400458       -10.8970
  34   2.0000      -0.399892       -10.8816
  35   2.0000      -0.395780       -10.7697
  36   2.0000      -0.365459        -9.9446
  37   2.0000      -0.357758        -9.7351
  38   2.0000      -0.357707        -9.7337
  39   2.0000      -0.337540        -9.1849
  40   2.0000      -0.327030        -8.8989
  41   2.0000      -0.319466        -8.6931
  42   2.0000      -0.313927        -8.5424
  43   2.0000      -0.288580        -7.8526
  44   2.0000      -0.251958        -6.8561
  45   2.0000      -0.248026        -6.7491
  46   2.0000      -0.245238        -6.6733
  47   2.0000      -0.216494        -5.8911
  48   0.0000      -0.056597        -1.5401
  49   0.0000      -0.033727        -0.9178
  50   0.0000      -0.029904        -0.8137
  51   0.0000      -0.017414        -0.4739
  52   0.0000      -0.004815        -0.1310

MULLIKEN ATOMIC CHARGES
-----------------------
   0 C :   -1.035055
   1 C :    1.750548
   2 C :   -0.592961
   3 C :   -0.679051
   4 C :   -0.051099
   5 C :   -0.593747
   6 H :    0.403344
   7 H :    0.443549
   8 H :    0.362078
   9 H :   -0.051607
  10 C :    0.896134
  11 C :   -0.961496
  12 H :    0.138491
  13 H :    0.138661
  14 C :    1.751702
  15 C :   -1.038887
  16 C :   -0.594728
  17 C :   -0.049303
  18 C :   -0.673908
  19 C :   -0.585766
  20 H :   -0.052916
  21 H :    0.361649
  22 H :    0.423505
  23 H :    0.424205
  24 H :   -0.071392
  25 H :   -0.061951
Sum of atomic charges:    0.0000000

LOEWDIN ATOMIC CHARGES
----------------------
   0 C :    0.204947
   1 C :   -0.148770
   2 C :    0.203395
   3 C :    0.197363
   4 C :    0.187093
   5 C :    0.195218
   6 H :   -0.169991
   7 H :   -0.171625
   8 H :   -0.169568
   9 H :   -0.161879
  10 C :   -0.149165
  11 C :    0.549246
  12 H :   -0.196594
  13 H :   -0.196586
  14 C :   -0.148735
  15 C :    0.204965
  16 C :    0.195239
  17 C :    0.187138
  18 C :    0.197413
  19 C :    0.203370
  20 H :   -0.161996
  21 H :   -0.169567
  22 H :   -0.171635
  23 H :   -0.169989
  24 H :   -0.169647
  25 H :   -0.169642

  Mayer bond orders larger than 0.100000
B(  0-C ,  1-C ) :   0.4243 B(  0-C ,  2-C ) :  -0.4848 B(  0-C ,  3-C ) :   0.1360
B(  0-C ,  5-C ) :   1.6042 B(  0-C , 10-C ) :   0.2474 B(  0-C , 25-H ) :   1.4702
B(  1-C ,  2-C ) :   0.7742 B(  1-C ,  3-C ) :  -0.1444 B(  1-C ,  4-C ) :  -0.1737
B(  1-C ,  8-H ) :   0.1217 B(  1-C , 11-C ) :  -0.2201 B(  1-C , 14-C ) :  -0.2121
B(  2-C ,  3-C ) :   1.5169 B(  2-C ,  9-H ) :   1.3421 B(  2-C , 11-C ) :   0.1231
B(  2-C , 19-C ) :   0.1507 B(  3-C ,  4-C ) :   1.4663 B(  3-C ,  5-C ) :   0.1745
B(  3-C ,  8-H ) :   0.5864 B(  4-C ,  5-C ) :   1.3359 B(  4-C ,  6-H ) :   0.1060
B(  4-C ,  7-H ) :   0.5139 B(  4-C ,  8-H ) :   0.1012 B(  4-C , 10-C ) :   0.1845
B(  5-C ,  6-H ) :   0.5535 B(  9-H , 10-C ) :  -0.1547 B(  9-H , 25-H ) :   0.1459
B( 10-C , 11-C ) :   0.9515 B( 10-C , 15-C ) :   0.2477 B( 10-C , 17-C ) :   0.1885
B( 10-C , 20-H ) :  -0.1520 B( 10-C , 24-H ) :  -0.1604 B( 10-C , 25-H ) :  -0.1594
B( 11-C , 12-H ) :   1.0397 B( 11-C , 13-H ) :   1.0390 B( 11-C , 14-C ) :  -0.2223
B( 11-C , 19-C ) :   0.1214 B( 14-C , 15-C ) :   0.4228 B( 14-C , 17-C ) :  -0.1680
B( 14-C , 18-C ) :  -0.1455 B( 14-C , 19-C ) :   0.7767 B( 14-C , 21-H ) :   0.1231
B( 15-C , 16-C ) :   1.6059 B( 15-C , 18-C ) :   0.1416 B( 15-C , 19-C ) :  -0.4875
B( 15-C , 24-H ) :   1.4898 B( 16-C , 17-C ) :   1.3340 B( 16-C , 18-C ) :   0.1792
B( 16-C , 23-H ) :   0.5211 B( 17-C , 18-C ) :   1.4560 B( 17-C , 22-H ) :   0.5362
B( 17-C , 23-H ) :   0.1109 B( 18-C , 19-C ) :   1.5152 B( 18-C , 21-H ) :   0.5875
B( 19-C , 20-H ) :   1.3392 B( 20-H , 24-H ) :   0.1496

Dispersion correction           -0.038544284
FINAL SINGLE POINT ENERGY      -540.977984846307

DIPOLE MOMENT
-------------

Method             : SCF
Type of density    : Electron Density
Multiplicity       :   1
Irrep              :   0
Energy             :  -540.9394405624516367 Eh
Relativity type    :
Basis              : AO
                                X                 Y                 Z
Electronic contribution:     -0.000749591       0.606312921      -0.000950375
Nuclear contribution   :     -0.000009105      -0.465365266       0.000012542
                        -----------------------------------------
Total Dipole Moment    :     -0.000758696       0.140947655      -0.000937832
                        -----------------------------------------
Magnitude (a.u.)       :      0.140952817
Magnitude (Debye)      :      0.358273588

Rotational constants in cm-1:             0.053104             0.013986             0.012201
Rotational constants in MHz :          1592.023360           419.285369           365.773053

                             ****ORCA TERMINATED NORMALLY****
TOTAL RUN TIME: 0 days 0 hours 14 minutes 16 seconds 642 msec
