                         Program Version 6.0.0  -   RELEASE  -
|  1> !B3LYP aug-cc-pVTZ d3 TightSCF SlowConv RIJCOSX defgrid2
|  2>
|  3> %pal
|  4> nprocs 4
|  5> end
|  6>
|  7> %scf
|  8> MaxIter 1500
|  9> end
| 10>
| 11> %maxcore 3000
| 12>
| 13> !CPCM
| 14> %cpcm smd true
| 15> SMDsolvent "MeCN"
| 16> surfacetype gepol_ses
| 17> rsolv 2.19
| 18> end
| 19>
| 20> * xyz 1 2
| 21> C           0.00952428511137      1.14381862948455     -0.00004241850549
| 22> C          -1.34405804782715      1.36835429039483     -0.00004501377751
| 23> C          -2.25803675623572      0.27994374569514     -0.00001444991813
| 24> C          -1.79893876317452     -1.05503699905501      0.00001836451112
| 25> C          -0.44966853213070     -1.30717096682290      0.00001901616088
| 26> C           0.47768132323041     -0.20754569072665     -0.00000570718377
| 27> O           1.72715481916077     -0.54575427099223      0.00000126933750
| 28> C           2.80134500679620      0.40109022692015     -0.00002708967268
| 29> H           2.75083060085294      1.02148240859275     -0.90936313619747
| 30> H           2.75076150937771      1.02163468660922      0.90919997962481
| 31> H           3.71874480964519     -0.20034761824646      0.00005825478275
| 32> H          -0.03837787308311     -2.31994207676691      0.00003911986652
| 33> H          -2.51564718597583     -1.88032469418672      0.00003900521605
| 34> H          -3.33291112256179      0.48384956913135     -0.00002166925602
| 35> H          -1.72762364845365      2.39229306604659     -0.00007349223884
| 36> H           0.71284737526787      1.97878939392230     -0.00006603274972
| 37> *
| 38>
| 39>                          ****END OF INPUT****

CARTESIAN COORDINATES (ANGSTROEM)
---------------------------------
  C      0.009524    1.143819   -0.000042
  C     -1.344058    1.368354   -0.000045
  C     -2.258037    0.279944   -0.000014
  C     -1.798939   -1.055037    0.000018
  C     -0.449669   -1.307171    0.000019
  C      0.477681   -0.207546   -0.000006
  O      1.727155   -0.545754    0.000001
  C      2.801345    0.401090   -0.000027
  H      2.750831    1.021482   -0.909363
  H      2.750762    1.021635    0.909200
  H      3.718745   -0.200348    0.000058
  H     -0.038378   -2.319942    0.000039
  H     -2.515647   -1.880325    0.000039
  H     -3.332911    0.483850   -0.000022
  H     -1.727624    2.392293   -0.000073
  H      0.712847    1.978789   -0.000066

 Total Charge           Charge          ....    1
 Multiplicity           Mult            ....    2
 Number of Electrons    NEL             ....   57
 Basis Dimension        Dim             ....  552

ORBITAL ENERGIES
----------------
                 SPIN UP ORBITALS
  NO   OCC          E(Eh)            E(eV)
   0   1.0000     -19.245395      -523.6938
   1   1.0000     -10.314281      -280.6659
   2   1.0000     -10.246196      -278.8132
   3   1.0000     -10.241871      -278.6955
   4   1.0000     -10.230884      -278.3965
   5   1.0000     -10.227192      -278.2960
   6   1.0000     -10.223484      -278.1951
   7   1.0000     -10.217858      -278.0421
   8   1.0000      -1.158017       -31.5112
   9   1.0000      -0.901526       -24.5318
  10   1.0000      -0.809279       -22.0216
  11   1.0000      -0.795898       -21.6575
  12   1.0000      -0.737543       -20.0696
  13   1.0000      -0.655206       -17.8291
  14   1.0000      -0.629216       -17.1218
  15   1.0000      -0.577333       -15.7100
  16   1.0000      -0.531589       -14.4653
  17   1.0000      -0.529812       -14.4169
  18   1.0000      -0.527576       -14.3561
  19   1.0000      -0.474982       -12.9249
  20   1.0000      -0.464083       -12.6283
  21   1.0000      -0.451825       -12.2948
  22   1.0000      -0.425838       -11.5876
  23   1.0000      -0.405465       -11.0333
  24   1.0000      -0.399801       -10.8791
  25   1.0000      -0.381283       -10.3752
  26   1.0000      -0.366333        -9.9684
  27   1.0000      -0.305769        -8.3204
  28   1.0000      -0.282132        -7.6772
  29   0.0000      -0.061472        -1.6727
  30   0.0000      -0.050325        -1.3694
  31   0.0000      -0.007692        -0.2093
  32   0.0000       0.005387         0.1466
  33   0.0000       0.009225         0.2510

                 SPIN DOWN ORBITALS
  NO   OCC          E(Eh)            E(eV)
   0   1.0000     -19.238522      -523.5068
   1   1.0000     -10.311815      -280.5988
   2   1.0000     -10.246395      -278.8186
   3   1.0000     -10.235950      -278.5344
   4   1.0000     -10.227979      -278.3175
   5   1.0000     -10.225427      -278.2480
   6   1.0000     -10.223965      -278.2082
   7   1.0000     -10.219190      -278.0783
   8   1.0000      -1.145386       -31.1675
   9   1.0000      -0.893294       -24.3078
  10   1.0000      -0.802080       -21.8257
  11   1.0000      -0.791336       -21.5333
  12   1.0000      -0.729096       -19.8397
  13   1.0000      -0.650407       -17.6985
  14   1.0000      -0.623941       -16.9783
  15   1.0000      -0.574045       -15.6206
  16   1.0000      -0.528290       -14.3755
  17   1.0000      -0.523372       -14.2417
  18   1.0000      -0.505976       -13.7683
  19   1.0000      -0.472688       -12.8625
  20   1.0000      -0.462450       -12.5839
  21   1.0000      -0.449252       -12.2248
  22   1.0000      -0.410427       -11.1683
  23   1.0000      -0.403078       -10.9683
  24   1.0000      -0.397457       -10.8153
  25   1.0000      -0.362508        -9.8643
  26   1.0000      -0.355902        -9.6846
  27   1.0000      -0.298322        -8.1178
  28   0.0000      -0.198746        -5.4082
  29   0.0000      -0.040128        -1.0919
  30   0.0000      -0.029640        -0.8066
  31   0.0000      -0.007443        -0.2025
  32   0.0000       0.005538         0.1507

MULLIKEN ATOMIC CHARGES AND SPIN POPULATIONS
--------------------------------------------
   0 C :   -0.341201    0.114289
   1 C :   -0.419739   -0.026825
   2 C :   -0.469263    0.395181
   3 C :   -0.282338   -0.091670
   4 C :   -0.825576    0.175859
   5 C :    1.178529    0.186235
   6 O :   -0.606249    0.227082
   7 C :   -0.623063   -0.012610
   8 H :    0.298414    0.010525
   9 H :    0.298708    0.010504
  10 H :    0.269744    0.001231
  11 H :    0.616151   -0.002392
  12 H :    0.380559    0.001162
  13 H :    0.535334    0.008350
  14 H :    0.348351    0.000690
  15 H :    0.641638    0.002389
Sum of atomic charges         :    1.0000000

LOEWDIN ATOMIC CHARGES AND SPIN POPULATIONS
-------------------------------------------
   0 C :    0.277172    0.094889
   1 C :    0.264640    0.066459
   2 C :    0.287136    0.203928
   3 C :    0.255295    0.049836
   4 C :    0.275999    0.117826
   5 C :   -0.328702    0.162938
   6 O :    0.664282    0.197411
   7 C :    0.440395    0.022923
   8 H :   -0.140095    0.006200
   9 H :   -0.140133    0.006199
  10 H :   -0.151788   -0.000373
  11 H :   -0.138748    0.019031
  12 H :   -0.142972   -0.006052
  13 H :   -0.131428    0.045215
  14 H :   -0.139363   -0.000239
  15 H :   -0.151690    0.013808

  Mayer bond orders larger than 0.100000
B(  0-C ,  1-C ) :   1.2452 B(  0-C ,  2-C ) :   0.2118 B(  0-C ,  4-C ) :   0.3842
B(  0-C ,  5-C ) :   0.8254 B(  0-C , 15-H ) :   0.1954 B(  1-C ,  2-C ) :   1.0695
B(  1-C ,  3-C ) :  -0.1839 B(  1-C ,  5-C ) :  -0.4243 B(  1-C , 14-H ) :   0.8533
B(  1-C , 15-H ) :   0.1405 B(  2-C ,  3-C ) :   1.0613 B(  2-C ,  4-C ) :   0.3885
B(  2-C , 13-H ) :   0.5059 B(  3-C ,  4-C ) :   1.3994 B(  3-C ,  5-C ) :  -0.3386
B(  3-C , 12-H ) :   0.8141 B(  3-C , 15-H ) :   0.1335 B(  4-C ,  5-C ) :   0.5830
B(  4-C ,  6-O ) :   0.2436 B(  4-C , 11-H ) :   0.2285 B(  5-C ,  6-O ) :   0.7599
B(  6-O ,  7-C ) :   0.9575 B(  7-C ,  8-H ) :   0.8970 B(  7-C ,  9-H ) :   0.8966
B(  7-C , 10-H ) :   0.9486

Dispersion correction           -0.025532630
FINAL SINGLE POINT ENERGY      -346.511275390689

DIPOLE MOMENT
-------------

Method             : SCF
Type of density    : Electron Density
Multiplicity       :   2
Irrep              :   0
Energy             :  -346.4857427603736824 Eh
Relativity type    :
Basis              : AO
                                X                 Y                 Z
Electronic contribution:     -2.233948174      -1.598262126       0.000075293
Nuclear contribution   :      2.256738866       2.246354274      -0.000083298
                        -----------------------------------------
Total Dipole Moment    :      0.022790692       0.648092148      -0.000008005
                        -----------------------------------------
Magnitude (a.u.)       :      0.648492751
Magnitude (Debye)      :      1.648337578

Rotational constants in cm-1:             0.163746             0.052523             0.040083
Rotational constants in MHz :          4908.994994          1574.611095          1201.650329

                             ****ORCA TERMINATED NORMALLY****
TOTAL RUN TIME: 0 days 0 hours 4 minutes 47 seconds 869 msec
