                         Program Version 6.0.0  -   RELEASE  -
|  1> !PBE0 aug-cc-pVTZ d3 TightSCF SlowConv RIJCOSX defgrid2
|  2>
|  3> %pal
|  4> nprocs 4
|  5> end
|  6>
|  7> %scf
|  8> MaxIter 1500
|  9> end
| 10>
| 11> %maxcore 3000
| 12>
| 13> !CPCM
| 14> %cpcm smd true
| 15> SMDsolvent "MeCN"
| 16> surfacetype gepol_ses
| 17> rsolv 2.19
| 18> end
| 19>
| 20> * xyz 0 1
| 21> C           1.53272654443288     -1.20734713575059      0.00001134953925
| 22> C           2.23205656040314      0.00003376074589      0.00002131461898
| 23> C           1.53261692111977      1.20735327461293      0.00000329748612
| 24> C           0.14128323670377      1.21145943804893     -0.00003641879993
| 25> C          -0.57083167401632     -0.00009614629977     -0.00005172301107
| 26> C           0.14138939561012     -1.21158285716611     -0.00002530102841
| 27> H          -0.41093083938214     -2.15464364427352     -0.00004270609566
| 28> C          -2.00037464606059     -0.00010505901986     -0.00009934791315
| 29> C          -3.21371752895327      0.00086010309321     -0.00022829616000
| 30> H          -4.28895933598145     -0.00028893327027      0.00071781614810
| 31> H          -0.41113044461304      2.15446486831874     -0.00006102811420
| 32> H           2.07747601296685      2.15600861535335      0.00001063551847
| 33> H           3.32604809148087      0.00008333329139      0.00003835626390
| 34> H           2.07768150628941     -2.15594681768433      0.00002525154760
| 35> *
| 36>
| 37>                          ****END OF INPUT****

CARTESIAN COORDINATES (ANGSTROEM)
---------------------------------
  C      1.532727   -1.207347    0.000011
  C      2.232057    0.000034    0.000021
  C      1.532617    1.207353    0.000003
  C      0.141283    1.211459   -0.000036
  C     -0.570832   -0.000096   -0.000052
  C      0.141389   -1.211583   -0.000025
  H     -0.410931   -2.154644   -0.000043
  C     -2.000375   -0.000105   -0.000099
  C     -3.213718    0.000860   -0.000228
  H     -4.288959   -0.000289    0.000718
  H     -0.411130    2.154465   -0.000061
  H      2.077476    2.156009    0.000011
  H      3.326048    0.000083    0.000038
  H      2.077682   -2.155947    0.000025

 Total Charge           Charge          ....    0
 Multiplicity           Mult            ....    1
 Number of Electrons    NEL             ....   54
 Basis Dimension        Dim             ....  506

ORBITAL ENERGIES
----------------

  NO   OCC          E(Eh)            E(eV)
   0   2.0000     -10.264669      -279.3158
   1   2.0000     -10.243364      -278.7361
   2   2.0000     -10.241792      -278.6933
   3   2.0000     -10.241789      -278.6933
   4   2.0000     -10.237920      -278.5880
   5   2.0000     -10.236978      -278.5623
   6   2.0000     -10.236772      -278.5567
   7   2.0000     -10.232390      -278.4375
   8   2.0000      -0.896922       -24.4065
   9   2.0000      -0.814721       -22.1697
  10   2.0000      -0.777309       -21.1517
  11   2.0000      -0.756591       -20.5879
  12   2.0000      -0.648159       -17.6373
  13   2.0000      -0.630722       -17.1628
  14   2.0000      -0.566913       -15.4265
  15   2.0000      -0.528678       -14.3860
  16   2.0000      -0.490922       -13.3587
  17   2.0000      -0.478447       -13.0192
  18   2.0000      -0.448656       -12.2086
  19   2.0000      -0.436980       -11.8908
  20   2.0000      -0.406928       -11.0731
  21   2.0000      -0.371426       -10.1070
  22   2.0000      -0.362059        -9.8521
  23   2.0000      -0.334651        -9.1063
  24   2.0000      -0.302201        -8.2233
  25   2.0000      -0.276920        -7.5354
  26   2.0000      -0.255900        -6.9634
  27   0.0000      -0.042440        -1.1549
  28   0.0000      -0.017299        -0.4707
  29   0.0000       0.001534         0.0417
  30   0.0000       0.015238         0.4146
  31   0.0000       0.018418         0.5012

MULLIKEN ATOMIC CHARGES
-----------------------
   0 C :   -0.592709
   1 C :   -0.168414
   2 C :   -0.597338
   3 C :   -1.221686
   4 C :    1.261880
   5 C :   -1.224506
   6 H :   -0.211768
   7 C :    1.336409
   8 C :   -0.530460
   9 H :    0.375135
  10 H :   -0.207676
  11 H :    0.631742
  12 H :    0.516411
  13 H :    0.632979
Sum of atomic charges:    0.0000000

LOEWDIN ATOMIC CHARGES
----------------------
   0 C :    0.191739
   1 C :    0.189174
   2 C :    0.191743
   3 C :    0.189115
   4 C :   -0.236409
   5 C :    0.189122
   6 H :   -0.160338
   7 C :   -0.023329
   8 C :    0.400719
   9 H :   -0.277781
  10 H :   -0.160337
  11 H :   -0.164433
  12 H :   -0.164550
  13 H :   -0.164435

  Mayer bond orders larger than 0.100000
B(  0-C ,  1-C ) :   1.2593 B(  0-C ,  3-C ) :   0.1938 B(  0-C ,  4-C ) :   0.4006
B(  0-C ,  5-C ) :   1.3736 B(  0-C ,  7-C ) :  -0.1548 B(  0-C ,  8-C ) :  -0.1574
B(  0-C , 13-H ) :   0.3851 B(  1-C ,  2-C ) :   1.2593 B(  1-C ,  3-C ) :  -0.3079
B(  1-C ,  4-C ) :  -0.3857 B(  1-C ,  5-C ) :  -0.3100 B(  1-C ,  7-C ) :   0.4097
B(  1-C ,  8-C ) :   0.2437 B(  1-C , 11-H ) :   0.1097 B(  1-C , 12-H ) :   0.6052
B(  1-C , 13-H ) :   0.1104 B(  2-C ,  3-C ) :   1.3790 B(  2-C ,  4-C ) :   0.3982
B(  2-C ,  5-C ) :   0.1962 B(  2-C ,  7-C ) :  -0.1587 B(  2-C ,  8-C ) :  -0.1562
B(  2-C , 11-H ) :   0.3852 B(  3-C ,  4-C ) :   0.5284 B(  3-C ,  5-C ) :  -0.4675
B(  3-C ,  6-H ) :   0.2955 B(  3-C ,  7-C ) :   0.2509 B(  3-C ,  8-C ) :  -0.2164
B(  3-C , 10-H ) :   2.0424 B(  3-C , 11-H ) :  -0.2141 B(  4-C ,  5-C ) :   0.5341
B(  4-C ,  6-H ) :   0.1922 B(  4-C ,  7-C ) :  -0.1553 B(  4-C ,  8-C ) :   0.9082
B(  4-C ,  9-H ) :   0.1099 B(  4-C , 10-H ) :   0.1923 B(  5-C ,  6-H ) :   2.0480
B(  5-C ,  7-C ) :   0.2510 B(  5-C ,  8-C ) :  -0.2209 B(  5-C , 10-H ) :   0.2920
B(  5-C , 13-H ) :  -0.2157 B(  6-H ,  7-C ) :  -0.4506 B(  6-H ,  8-C ) :  -0.6011
B(  6-H , 10-H ) :   0.5486 B(  6-H , 11-H ) :  -0.1059 B(  6-H , 13-H ) :  -0.1218
B(  7-C ,  8-C ) :   2.4592 B(  7-C ,  9-H ) :  -0.1674 B(  7-C , 10-H ) :  -0.4454
B(  7-C , 11-H ) :   0.1005 B(  7-C , 13-H ) :   0.1048 B(  8-C ,  9-H ) :   1.0424
B(  8-C , 10-H ) :  -0.5979 B(  8-C , 11-H ) :   0.1962 B(  8-C , 13-H ) :   0.1973
B( 10-H , 11-H ) :  -0.1202 B( 10-H , 13-H ) :  -0.1075

Dispersion correction           -0.012318359
FINAL SINGLE POINT ENERGY      -308.143720797229

DIPOLE MOMENT
-------------

Method             : SCF
Type of density    : Electron Density
Multiplicity       :   1
Irrep              :   0
Energy             :  -308.1314024379133798 Eh
Relativity type    :
Basis              : AO
                                X                 Y                 Z
Electronic contribution:     -1.773156870       0.000070055      -0.000455336
Nuclear contribution   :      2.227582411      -0.000665596       0.000875711
                        -----------------------------------------
Total Dipole Moment    :      0.454425541      -0.000595541       0.000420374
                        -----------------------------------------
Magnitude (a.u.)       :      0.454426126
Magnitude (Debye)      :      1.155059418

Rotational constants in cm-1:             0.189401             0.050851             0.040088
Rotational constants in MHz :          5678.091161          1524.476874          1201.810057

                             ****ORCA TERMINATED NORMALLY****
TOTAL RUN TIME: 0 days 0 hours 3 minutes 6 seconds 860 msec
