                         Program Version 6.0.0  -   RELEASE  -
|  1> !PBE0 def2-SV(p) Opt Freq d3 TightSCF SlowConv RIJCOSX defgrid2
|  2>
|  3> %pal
|  4> nprocs 4
|  5> end
|  6>
|  7> %scf
|  8> MaxIter 1500
|  9> end
| 10>
| 11> %maxcore 3000
| 12>
| 13>
| 14>
| 15> * xyz 0 1
| 16> C    -0.0251620    1.2035069    0.0002541
| 17> C     1.3571638    1.2204380    0.0002504
| 18> C     2.0407555    0.0168677   -0.0000113
| 19> C     1.3862882   -1.2027243   -0.0002475
| 20> C     0.0058863   -1.2038131   -0.0002153
| 21> C    -0.7173524   -0.0084090    0.0000249
| 22> C    -2.2027922   -0.0960281    0.0000450
| 23> O    -2.7672365   -1.1739338    0.0004298
| 24> C    -2.9717855    1.1974171   -0.0004955
| 25> H    -2.7221071    1.7791231    0.8837591
| 26> H    -2.7214653    1.7788271   -0.8847590
| 27> H    -4.0370555    0.9806989   -0.0008150
| 28> H    -0.5417571   -2.1341378   -0.0003821
| 29> H     1.9531605   -2.1198784   -0.0004458
| 30> F     3.3943302    0.0347721   -0.0000360
| 31> H     1.9078419    2.1475898    0.0004431
| 32> H    -0.5543447    2.1417759    0.0004747
| 33> *
| 34>
| 35>                          ****END OF INPUT****
 Total Charge           Charge          ....    0
 Multiplicity           Mult            ....    1
 Number of Electrons    NEL             ....   72
Dispersion correction           -0.015402311
FINAL SINGLE POINT ENERGY      -483.236364550009
Dispersion correction             ... done (  0.1 sec)
Dispersion correction           -0.015331024
FINAL SINGLE POINT ENERGY      -483.238304693908
Dispersion correction             ... done (  0.1 sec)
Dispersion correction           -0.015319312
FINAL SINGLE POINT ENERGY      -483.238414977445
Dispersion correction             ... done (  0.1 sec)
FINAL SINGLE POINT ENERGY      -483.238434347490
Dispersion correction             ... done (  0.1 sec)
Dispersion correction           -0.015319014
FINAL SINGLE POINT ENERGY      -483.238437502931
Dispersion correction             ... done (  0.0 sec)
Dispersion correction           -0.015319518
FINAL SINGLE POINT ENERGY      -483.238436911000
Dispersion correction             ... done (  0.0 sec)
                    ***********************HURRAY********************

CARTESIAN COORDINATES (ANGSTROEM)
---------------------------------
  C     -0.011578    1.203529    0.000019
  C      1.379905    1.221915    0.000119
  C      2.065929    0.012524    0.000072
  C      1.397942   -1.209331   -0.000067
  C      0.010162   -1.210764   -0.000159
  C     -0.712280   -0.009326   -0.000123
  C     -2.205445   -0.091114   -0.000239
  O     -2.762380   -1.166976   -0.000317
  C     -2.996370    1.196273   -0.000280
  H     -2.762017    1.806080    0.889813
  H     -2.761681    1.806277   -0.890146
  H     -4.068235    0.950665   -0.000495
  H     -0.553788   -2.147120   -0.000266
  H      1.976649   -2.136305   -0.000100
  F      3.393929    0.023245    0.000158
  H      1.943534    2.157853    0.000230
  H     -0.549907    2.154666    0.000055

 Multiplicity           Mult            ....    1
 Number of Electrons    NEL             ....   72
 Basis Dimension        Dim             ....  154

ORBITAL ENERGIES
----------------

  NO   OCC          E(Eh)            E(eV)
   0   2.0000     -24.798995      -674.8150
   1   2.0000     -19.201249      -522.4925
   2   2.0000     -10.338088      -281.3137
   3   2.0000     -10.326688      -281.0035
   4   2.0000     -10.265641      -279.3423
   5   2.0000     -10.257480      -279.1202
   6   2.0000     -10.256850      -279.1031
   7   2.0000     -10.255430      -279.0644
   8   2.0000     -10.254864      -279.0490
   9   2.0000     -10.236530      -278.5501
  10   2.0000      -1.259601       -34.2755
  11   2.0000      -1.064393       -28.9636
  12   2.0000      -0.900508       -24.5041
  13   2.0000      -0.801604       -21.8128
  14   2.0000      -0.789277       -21.4773
  15   2.0000      -0.754340       -20.5266
  16   2.0000      -0.661069       -17.9886
  17   2.0000      -0.653523       -17.7833
  18   2.0000      -0.582538       -15.8517
  19   2.0000      -0.574894       -15.6437
  20   2.0000      -0.529549       -14.4098
  21   2.0000      -0.504514       -13.7285
  22   2.0000      -0.503292       -13.6953
  23   2.0000      -0.478638       -13.0244
  24   2.0000      -0.466578       -12.6962
  25   2.0000      -0.460457       -12.5297
  26   2.0000      -0.452129       -12.3031
  27   2.0000      -0.434891       -11.8340
  28   2.0000      -0.421837       -11.4788
  29   2.0000      -0.400902       -10.9091
  30   2.0000      -0.399910       -10.8821
  31   2.0000      -0.373136       -10.1536
  32   2.0000      -0.370294       -10.0762
  33   2.0000      -0.291562        -7.9338
  34   2.0000      -0.274238        -7.4624
  35   2.0000      -0.270733        -7.3670
  36   0.0000      -0.057883        -1.5751
  37   0.0000      -0.025383        -0.6907
  38   0.0000       0.039531         1.0757
  39   0.0000       0.061180         1.6648
  40   0.0000       0.088238         2.4011

MULLIKEN ATOMIC CHARGES
-----------------------
   0 C :   -0.127283
   1 C :   -0.181576
   2 C :    0.357612
   3 C :   -0.181790
   4 C :   -0.107829
   5 C :    0.000411
   6 C :    0.085723
   7 O :   -0.214744
   8 C :   -0.343272
   9 H :    0.152889
  10 H :    0.152883
  11 H :    0.153052
  12 H :    0.123524
  13 H :    0.113261
  14 F :   -0.196071
  15 H :    0.109837
  16 H :    0.103374
Sum of atomic charges:    0.0000000

LOEWDIN ATOMIC CHARGES
----------------------
   0 C :   -0.097551
   1 C :   -0.157454
   2 C :    0.086104
   3 C :   -0.153447
   4 C :   -0.074034
   5 C :   -0.100437
   6 C :    0.069704
   7 O :   -0.152366
   8 C :   -0.368777
   9 H :    0.143441
  10 H :    0.143431
  11 H :    0.143008
  12 H :    0.146650
  13 H :    0.145044
  14 F :   -0.052239
  15 H :    0.144015
  16 H :    0.134908

  Mayer bond orders larger than 0.100000
B(  0-C ,  1-C ) :   1.3698 B(  0-C ,  5-C ) :   1.3720 B(  0-C , 16-H ) :   0.9463
B(  1-C ,  2-C ) :   1.3670 B(  1-C , 15-H ) :   0.9598 B(  2-C ,  3-C ) :   1.3473
B(  2-C , 14-F ) :   1.0608 B(  3-C ,  4-C ) :   1.3593 B(  3-C , 13-H ) :   0.9636
B(  4-C ,  5-C ) :   1.3826 B(  4-C , 12-H ) :   0.9505 B(  5-C ,  6-C ) :   0.9324
B(  6-C ,  7-O ) :   2.1369 B(  6-C ,  8-C ) :   1.0983 B(  8-C ,  9-H ) :   0.9227
B(  8-C , 10-H ) :   0.9227 B(  8-C , 11-H ) :   0.9353

Dispersion correction           -0.015319375
FINAL SINGLE POINT ENERGY      -483.238437999279

DIPOLE MOMENT
-------------

Method             : SCF
Type of density    : Electron Density
Multiplicity       :   1
Irrep              :   0
Energy             :  -483.2231186245587082 Eh
Relativity type    :
Basis              : AO
                                X                 Y                 Z
Electronic contribution:      9.805361556      -3.390149200       0.000677266
Nuclear contribution   :     -9.565763920       4.278558097      -0.000557353
                        -----------------------------------------
Total Dipole Moment    :      0.239597636       0.888408897       0.000119913
                        -----------------------------------------
Magnitude (a.u.)       :      0.920150754
Magnitude (Debye)      :      2.338837346

VIBRATIONAL FREQUENCIES
-----------------------

Scaling factor for frequencies =  1.000000000  (already applied!)

     0:       0.00 cm**-1
     1:       0.00 cm**-1
     2:       0.00 cm**-1
     3:       0.00 cm**-1
     4:       0.00 cm**-1
     5:       0.00 cm**-1
     6:      70.24 cm**-1
     7:     108.99 cm**-1
     8:     174.98 cm**-1
     9:     197.17 cm**-1
    10:     298.14 cm**-1
    11:     340.13 cm**-1
    12:     405.17 cm**-1
    13:     428.97 cm**-1
    14:     472.69 cm**-1
    15:     510.84 cm**-1
    16:     581.73 cm**-1
    17:     604.03 cm**-1
    18:     644.12 cm**-1
    19:     698.11 cm**-1
    20:     750.70 cm**-1
    21:     840.52 cm**-1
    22:     862.14 cm**-1
    23:     871.00 cm**-1
    24:     972.72 cm**-1
    25:     979.04 cm**-1
    26:    1011.13 cm**-1
    27:    1028.79 cm**-1
    28:    1052.43 cm**-1
    29:    1103.80 cm**-1
    30:    1114.71 cm**-1
    31:    1169.25 cm**-1
    32:    1297.92 cm**-1
    33:    1306.80 cm**-1
    34:    1324.98 cm**-1
    35:    1384.35 cm**-1
    36:    1408.99 cm**-1
    37:    1452.46 cm**-1
    38:    1462.84 cm**-1
    39:    1469.95 cm**-1
    40:    1572.84 cm**-1
    41:    1674.56 cm**-1
    42:    1701.73 cm**-1
    43:    1837.98 cm**-1
    44:    3045.18 cm**-1
    45:    3133.14 cm**-1
    46:    3179.29 cm**-1
    47:    3217.43 cm**-1
    48:    3222.18 cm**-1
    49:    3233.44 cm**-1
    50:    3234.68 cm**-1

IR SPECTRUM
-----------

 Mode   freq       eps      Int      T**2         TX        TY        TZ
       cm**-1   L/(mol*cm) km/mol    a.u.
----------------------------------------------------------------------------
  6:     70.24   0.000497    2.51  0.002210  (-0.000000  0.000004  0.047011)
  7:    108.99   0.000235    1.19  0.000674  (-0.000003  0.000012  0.025959)
  8:    174.98   0.000080    0.40  0.000142  ( 0.000028  0.000002 -0.011910)
  9:    197.17   0.000970    4.90  0.001536  (-0.036208  0.014995 -0.000007)
 10:    298.14   0.000064    0.33  0.000067  (-0.000002 -0.000009  0.008207)
 11:    340.13   0.000196    0.99  0.000180  ( 0.007153  0.011336  0.000002)
 12:    405.17   0.000617    3.12  0.000475  ( 0.008494  0.020076  0.000003)
 13:    428.97   0.000002    0.01  0.000001  (-0.000002 -0.000003  0.001049)
 14:    472.69   0.000189    0.95  0.000125  (-0.011012  0.001848 -0.000001)
 15:    510.84   0.000676    3.41  0.000413  ( 0.000002  0.000001 -0.020315)
 16:    581.73   0.007074   35.75  0.003795  (-0.060137  0.013357 -0.000000)
 17:    604.03   0.002622   13.25  0.001355  (-0.000004  0.000006 -0.036809)
 18:    644.12   0.000059    0.30  0.000028  (-0.003149  0.004300  0.000000)
 19:    698.11   0.000094    0.48  0.000042  ( 0.000043  0.006493 -0.000002)
 20:    750.70   0.000137    0.69  0.000057  ( 0.000000 -0.000006  0.007539)
 21:    840.52   0.001031    5.21  0.000383  ( 0.000002 -0.000001 -0.019569)
 22:    862.14   0.002946   14.89  0.001066  ( 0.032567  0.002397 -0.000003)
 23:    871.00   0.010988   55.53  0.003937  (-0.000000 -0.000000  0.062744)
 24:    972.72   0.004540   22.95  0.001457  ( 0.036467 -0.011261  0.000001)
 25:    979.04   0.000005    0.03  0.000002  ( 0.000003  0.000003 -0.001311)
 26:   1011.13   0.000070    0.35  0.000022  (-0.000003  0.000003  0.004651)
 27:   1028.79   0.001008    5.09  0.000306  (-0.017095  0.003654 -0.000002)
 28:   1052.43   0.000505    2.55  0.000150  (-0.000001  0.000001  0.012235)
 29:   1103.80   0.000361    1.82  0.000102  (-0.009849  0.002225 -0.000001)
 30:   1114.71   0.002668   13.48  0.000747  ( 0.007891 -0.026168 -0.000001)
 31:   1169.25   0.006741   34.06  0.001799  (-0.042386  0.001557 -0.000004)
 32:   1297.92   0.004051   20.47  0.000974  (-0.028932  0.011698 -0.000002)
 33:   1306.80   0.007039   35.57  0.001681  (-0.040530 -0.006192 -0.000004)
 34:   1324.98   0.042962  217.11  0.010119  (-0.100518  0.003856 -0.000007)
 35:   1384.35   0.022173  112.05  0.004998  (-0.060889  0.035928 -0.000000)
 36:   1408.99   0.003984   20.14  0.000882  ( 0.028965 -0.006595  0.000001)
 37:   1452.46   0.001931    9.76  0.000415  ( 0.015170  0.013596 -0.000009)
 38:   1462.84   0.002846   14.38  0.000607  (-0.000005 -0.000009 -0.024638)
 39:   1469.95   0.004198   21.22  0.000891  ( 0.026667 -0.013423  0.000008)
 40:   1572.84   0.007405   37.42  0.001469  (-0.038080 -0.004367 -0.000002)
 41:   1674.56   0.002989   15.10  0.000557  ( 0.019269 -0.013626  0.000000)
 42:   1701.73   0.031678  160.09  0.005809  (-0.075854 -0.007436 -0.000005)
 43:   1837.98   0.036182  182.85  0.006143  (-0.046639 -0.062992 -0.000005)
 44:   3045.18   0.000202    1.02  0.000021  (-0.002472 -0.003820 -0.000002)
 45:   3133.14   0.000494    2.50  0.000049  ( 0.000001  0.000004 -0.007015)
 46:   3179.29   0.000808    4.09  0.000079  (-0.008897  0.000446  0.000000)
 47:   3217.43   0.000646    3.26  0.000063  (-0.006356  0.004718 -0.000000)
 48:   3222.18   0.000015    0.07  0.000001  ( 0.001164  0.000278  0.000000)
 49:   3233.44   0.000117    0.59  0.000011  ( 0.001056 -0.003192 -0.000000)
 50:   3234.68   0.000673    3.40  0.000065  ( 0.007896  0.001608  0.000001)

--------------------------
THERMOCHEMISTRY AT 298.15K
--------------------------

Temperature         ...   298.15 K
Pressure            ...     1.00 atm
Total Mass          ...   138.14 AMU
Quasi RRHO          ...     True
Cut-Off Frequency   ...     1.00 cm^-1

Throughout the following assumptions are being made:
  (1) The electronic state is orbitally nondegenerate
  (2) There are no thermally accessible electronically excited states
  (3) Hindered rotations indicated by low frequency modes are not
      treated as such but are treated as vibrations and this may
      cause some error
  (4) All equations used are the standard statistical mechanics
      equations for an ideal gas
  (5) All vibrations are strictly harmonic

freq.      70.24  E(vib)   ...       0.50
freq.     108.99  E(vib)   ...       0.45
freq.     174.98  E(vib)   ...       0.38
freq.     197.17  E(vib)   ...       0.35
freq.     298.14  E(vib)   ...       0.27
freq.     340.13  E(vib)   ...       0.23
freq.     405.17  E(vib)   ...       0.19
freq.     428.97  E(vib)   ...       0.18
freq.     472.69  E(vib)   ...       0.15
freq.     510.84  E(vib)   ...       0.14
freq.     581.73  E(vib)   ...       0.11
freq.     604.03  E(vib)   ...       0.10
freq.     644.12  E(vib)   ...       0.09
freq.     698.11  E(vib)   ...       0.07
freq.     750.70  E(vib)   ...       0.06
freq.     840.52  E(vib)   ...       0.04
freq.     862.14  E(vib)   ...       0.04
freq.     871.00  E(vib)   ...       0.04
freq.     972.72  E(vib)   ...       0.03
freq.     979.04  E(vib)   ...       0.03
freq.    1011.13  E(vib)   ...       0.02
freq.    1028.79  E(vib)   ...       0.02
freq.    1052.43  E(vib)   ...       0.02
freq.    1103.80  E(vib)   ...       0.02
freq.    1114.71  E(vib)   ...       0.01
freq.    1169.25  E(vib)   ...       0.01
freq.    1297.92  E(vib)   ...       0.01
freq.    1306.80  E(vib)   ...       0.01
freq.    1324.98  E(vib)   ...       0.01
freq.    1384.35  E(vib)   ...       0.00
freq.    1408.99  E(vib)   ...       0.00
freq.    1452.46  E(vib)   ...       0.00
freq.    1462.84  E(vib)   ...       0.00
freq.    1469.95  E(vib)   ...       0.00
freq.    1572.84  E(vib)   ...       0.00
freq.    1674.56  E(vib)   ...       0.00
freq.    1701.73  E(vib)   ...       0.00
freq.    1837.98  E(vib)   ...       0.00
freq.    3045.18  E(vib)   ...       0.00
freq.    3133.14  E(vib)   ...       0.00
freq.    3179.29  E(vib)   ...       0.00
freq.    3217.43  E(vib)   ...       0.00
freq.    3222.18  E(vib)   ...       0.00
freq.    3233.44  E(vib)   ...       0.00
freq.    3234.68  E(vib)   ...       0.00

------------
INNER ENERGY
------------

The inner energy is: U= E(el) + E(ZPE) + E(vib) + E(rot) + E(trans)
    E(el)   - is the total energy from the electronic structure calculation
              = E(kin-el) + E(nuc-el) + E(el-el) + E(nuc-nuc)
    E(ZPE)  - the the zero temperature vibrational energy from the frequency calculation
    E(vib)  - the the finite temperature correction to E(ZPE) due to population
              of excited vibrational states
    E(rot)  - is the rotational thermal energy
    E(trans)- is the translational thermal energy

Summary of contributions to the inner energy U:
Electronic energy                ...   -483.23843800 Eh
Zero point energy                ...      0.13088590 Eh      82.13 kcal/mol
Thermal vibrational correction   ...      0.00570267 Eh       3.58 kcal/mol
Thermal rotational correction    ...      0.00141627 Eh       0.89 kcal/mol
Thermal translational correction ...      0.00141627 Eh       0.89 kcal/mol
-----------------------------------------------------------------------
Total thermal energy                   -483.09901688 Eh

Summary of corrections to the electronic energy:
(perhaps to be used in another calculation)
Total thermal correction                  0.00853522 Eh       5.36 kcal/mol
Non-thermal (ZPE) correction              0.13088590 Eh      82.13 kcal/mol
-----------------------------------------------------------------------
Total correction                          0.13942112 Eh      87.49 kcal/mol

--------
ENTHALPY
--------

The enthalpy is H = U + kB*T
                kB is Boltzmann's constant
Total thermal energy              ...   -483.09901688 Eh
Thermal Enthalpy correction       ...      0.00094421 Eh       0.59 kcal/mol
-----------------------------------------------------------------------
Total Enthalpy                    ...   -483.09807267 Eh

Note: Only C1 symmetry has been detected, increase convergence thresholds
      if your molecule has a higher symmetry. Symmetry factor of 1.0 is
      used for the rotational entropy correction.

Note: Rotational entropy computed according to Herzberg
Infrared and Raman Spectra, Chapter V,1, Van Nostrand Reinhold, 1945
Point Group:  C1, Symmetry Number:   1
Rotational constants in cm-1:     0.122785     0.025820     0.021420

Vibrational entropy computed according to the QRRHO of S. Grimme
Chem.Eur.J. 2012 18 9955 using a reference frequency of 100.0 cm-1

-------
ENTROPY
-------

The entropy contributions are T*S = T*(S(el)+S(vib)+S(rot)+S(trans))
     S(el)   - electronic entropy
     S(vib)  - vibrational entropy
     S(rot)  - rotational entropy
     S(trans)- translational entropy
The entropies will be listed as multiplied by the temperature to get
units of energy

Electronic entropy                ...      0.00000000 Eh      0.00 kcal/mol
Vibrational entropy               ...      0.00949262 Eh      5.96 kcal/mol
Rotational entropy                ...      0.01404163 Eh      8.81 kcal/mol
Translational entropy             ...      0.01932885 Eh     12.13 kcal/mol
-----------------------------------------------------------------------
Final entropy term                ...      0.04286310 Eh     26.90 kcal/mol

In case the symmetry of your molecule has not been determined correctly
or in case you have a reason to use a different symmetry number we print
out the resulting rotational entropy values for sn=1,12:

 non-linear molecules -----------------------------------
|  sn= 1 | S(rot)=       0.01404163 Eh      8.81 kcal/mol|
|  sn= 2 | S(rot)=       0.01338718 Eh      8.40 kcal/mol|
|  sn= 3 | S(rot)=       0.01300435 Eh      8.16 kcal/mol|
|  sn= 4 | S(rot)=       0.01273272 Eh      7.99 kcal/mol|
|  sn= 5 | S(rot)=       0.01252203 Eh      7.86 kcal/mol|
|  sn= 6 | S(rot)=       0.01234989 Eh      7.75 kcal/mol|
|  sn= 7 | S(rot)=       0.01220434 Eh      7.66 kcal/mol|
|  sn= 8 | S(rot)=       0.01207826 Eh      7.58 kcal/mol|
|  sn= 9 | S(rot)=       0.01196706 Eh      7.51 kcal/mol|
|  sn=10 | S(rot)=       0.01186758 Eh      7.45 kcal/mol|
|  sn=11 | S(rot)=       0.01177759 Eh      7.39 kcal/mol|
|  sn=12 | S(rot)=       0.01169543 Eh      7.34 kcal/mol|
 linear molecules ---------------------------------------
|  Dinfh | S(rot)=       0.00895469 Eh      5.62 kcal/mol|
|  Cinfv | S(rot)=       0.00960915 Eh      6.03 kcal/mol|

                             ****ORCA TERMINATED NORMALLY****
TOTAL RUN TIME: 0 days 0 hours 7 minutes 28 seconds 999 msec
