                         Program Version 6.0.0  -   RELEASE  -
|  1> !PBE0 def2-SV(p) Opt Freq d3 TightSCF SlowConv RIJCOSX defgrid2
|  2>
|  3> %pal
|  4> nprocs 4
|  5> end
|  6>
|  7> %scf
|  8> MaxIter 1500
|  9> end
| 10>
| 11> %maxcore 3000
| 12>
| 13>
| 14>
| 15> * xyz 0 1
| 16> C    -0.0942814   -1.0308240    0.0018320
| 17> C    -1.4643482   -1.1946152    0.0048312
| 18> C    -2.3221073   -0.0985016    0.0061783
| 19> C    -1.7601011    1.1716416    0.0044435
| 20> C    -0.3887299    1.3396421    0.0014312
| 21> C     0.4768583    0.2440007    0.0001127
| 22> C     1.9138722    0.4810281   -0.0020800
| 23> C     2.8816001   -0.4336192    0.0000524
| 24> C     4.3371921   -0.1115412   -0.0024456
| 25> H     4.8180682   -0.5400141    0.8772026
| 26> H     4.8162235   -0.5454042   -0.8804714
| 27> H     4.5015122    0.9633630   -0.0059243
| 28> H     2.6474216   -1.4893597    0.0038481
| 29> H     2.1958988    1.5281396   -0.0055711
| 30> H     0.0244840    2.3392108    0.0008648
| 31> H    -2.4041151    2.0403113    0.0059200
| 32> C    -3.8077764   -0.2954896   -0.0070604
| 33> H    -4.3255156    0.6359834    0.2081560
| 34> H    -4.1290289   -0.6497269   -0.9869274
| 35> H    -4.1017023   -1.0421098    0.7286295
| 36> H    -1.8823394   -2.1919381    0.0066194
| 37> H     0.5387687   -1.9050884    0.0014560
| 38> *
| 39>
| 40>                          ****END OF INPUT****
 Total Charge           Charge          ....    0
 Multiplicity           Mult            ....    1
 Number of Electrons    NEL             ....   72
Dispersion correction           -0.019228090
FINAL SINGLE POINT ENERGY      -387.524028008410
Dispersion correction             ... done (  0.0 sec)
Dispersion correction           -0.019100186
FINAL SINGLE POINT ENERGY      -387.526696298861
Dispersion correction             ... done (  0.1 sec)
Dispersion correction           -0.019084249
FINAL SINGLE POINT ENERGY      -387.526783283032
Dispersion correction             ... done (  0.0 sec)
Dispersion correction           -0.019079429
FINAL SINGLE POINT ENERGY      -387.526820234061
Dispersion correction             ... done (  0.1 sec)
Dispersion correction           -0.019082073
FINAL SINGLE POINT ENERGY      -387.526821936677
Dispersion correction             ... done (  0.0 sec)
                    ***********************HURRAY********************

CARTESIAN COORDINATES (ANGSTROEM)
---------------------------------
  C     -0.097235   -1.034376    0.003471
  C     -1.474929   -1.200474    0.006963
  C     -2.345786   -0.100403    0.006462
  C     -1.774564    1.174440    0.006091
  C     -0.392193    1.344314    0.002620
  C      0.480667    0.247341    0.000618
  C      1.927457    0.484160   -0.001474
  C      2.908218   -0.432244   -0.001159
  C      4.366235   -0.115055   -0.004003
  H      4.872008   -0.543902    0.881895
  H      4.869268   -0.547287   -0.889818
  H      4.545422    0.973431   -0.006383
  H      2.648487   -1.499408    0.001361
  H      2.218638    1.543655   -0.003780
  H      0.025566    2.356465    0.003788
  H     -2.424800    2.055506    0.010050
  C     -3.834505   -0.296758   -0.011378
  H     -4.368184    0.643753    0.202468
  H     -4.178087   -0.657419   -0.998694
  H     -4.151695   -1.045979    0.734974
  H     -1.891164   -2.213651    0.011688
  H      0.543031   -1.921020    0.005337

 Multiplicity           Mult            ....    1
 Number of Electrons    NEL             ....   72
 Basis Dimension        Dim             ....  164

ORBITAL ENERGIES
----------------

  NO   OCC          E(Eh)            E(eV)
   0   2.0000     -10.242176      -278.7038
   1   2.0000     -10.240726      -278.6643
   2   2.0000     -10.234760      -278.5020
   3   2.0000     -10.232170      -278.4315
   4   2.0000     -10.231490      -278.4130
   5   2.0000     -10.230816      -278.3946
   6   2.0000     -10.230496      -278.3859
   7   2.0000     -10.230239      -278.3790
   8   2.0000     -10.226395      -278.2743
   9   2.0000     -10.226126      -278.2670
  10   2.0000      -0.878369       -23.9016
  11   2.0000      -0.820232       -22.3196
  12   2.0000      -0.781476       -21.2650
  13   2.0000      -0.757717       -20.6185
  14   2.0000      -0.721859       -19.6428
  15   2.0000      -0.671807       -18.2808
  16   2.0000      -0.624310       -16.9883
  17   2.0000      -0.598074       -16.2744
  18   2.0000      -0.561512       -15.2795
  19   2.0000      -0.519162       -14.1271
  20   2.0000      -0.483858       -13.1664
  21   2.0000      -0.466098       -12.6832
  22   2.0000      -0.445213       -12.1149
  23   2.0000      -0.433100       -11.7853
  24   2.0000      -0.429163       -11.6781
  25   2.0000      -0.426678       -11.6105
  26   2.0000      -0.425628       -11.5819
  27   2.0000      -0.393881       -10.7180
  28   2.0000      -0.392002       -10.6669
  29   2.0000      -0.377856       -10.2820
  30   2.0000      -0.366506        -9.9731
  31   2.0000      -0.353406        -9.6167
  32   2.0000      -0.342326        -9.3152
  33   2.0000      -0.299235        -8.1426
  34   2.0000      -0.263451        -7.1689
  35   2.0000      -0.223842        -6.0910
  36   0.0000      -0.027324        -0.7435
  37   0.0000       0.000554         0.0151
  38   0.0000       0.063424         1.7258
  39   0.0000       0.079086         2.1520
  40   0.0000       0.085142         2.3168

MULLIKEN ATOMIC CHARGES
-----------------------
   0 C :   -0.145162
   1 C :   -0.120020
   2 C :   -0.002736
   3 C :   -0.128088
   4 C :   -0.150932
   5 C :    0.106969
   6 C :   -0.117885
   7 C :   -0.170987
   8 C :   -0.311553
   9 H :    0.137818
  10 H :    0.137811
  11 H :    0.131087
  12 H :    0.111025
  13 H :    0.082345
  14 H :    0.083074
  15 H :    0.079712
  16 C :   -0.294887
  17 H :    0.128241
  18 H :    0.143685
  19 H :    0.136392
  20 H :    0.077487
  21 H :    0.086605
Sum of atomic charges:    0.0000000

LOEWDIN ATOMIC CHARGES
----------------------
   0 C :   -0.113113
   1 C :   -0.124214
   2 C :   -0.054704
   3 C :   -0.128885
   4 C :   -0.118834
   5 C :   -0.048522
   6 C :   -0.137085
   7 C :   -0.140466
   8 C :   -0.337670
   9 H :    0.131159
  10 H :    0.131157
  11 H :    0.126461
  12 H :    0.121971
  13 H :    0.123443
  14 H :    0.126566
  15 H :    0.125693
  16 C :   -0.328265
  17 H :    0.126781
  18 H :    0.135105
  19 H :    0.131536
  20 H :    0.125419
  21 H :    0.126467

  Mayer bond orders larger than 0.100000
B(  0-C ,  1-C ) :   1.4326 B(  0-C ,  5-C ) :   1.3507 B(  0-C , 21-H ) :   0.9497
B(  1-C ,  2-C ) :   1.3655 B(  1-C , 20-H ) :   0.9639 B(  2-C ,  3-C ) :   1.4175
B(  2-C , 16-C ) :   1.0740 B(  3-C ,  4-C ) :   1.3810 B(  3-C , 15-H ) :   0.9590
B(  4-C ,  5-C ) :   1.3621 B(  4-C , 14-H ) :   0.9623 B(  5-C ,  6-C ) :   1.0910
B(  6-C ,  7-C ) :   1.8983 B(  6-C , 13-H ) :   0.9337 B(  7-C ,  8-C ) :   1.0840
B(  7-C , 12-H ) :   0.9137 B(  8-C ,  9-H ) :   0.9375 B(  8-C , 10-H ) :   0.9375
B(  8-C , 11-H ) :   0.9535 B( 16-C , 17-H ) :   0.9501 B( 16-C , 18-H ) :   0.9362
B( 16-C , 19-H ) :   0.9432

Dispersion correction           -0.019083332
FINAL SINGLE POINT ENERGY      -387.526821938856

DIPOLE MOMENT
-------------

Method             : SCF
Type of density    : Electron Density
Multiplicity       :   1
Irrep              :   0
Energy             :  -387.5077386068114720 Eh
Relativity type    :
Basis              : AO
                                X                 Y                 Z
Electronic contribution:     -2.548566540       0.702142149       0.035143114
Nuclear contribution   :      2.550584305      -0.802045271      -0.048555466
                        -----------------------------------------
Total Dipole Moment    :      0.002017765      -0.099903122      -0.013412352
                        -----------------------------------------
Magnitude (a.u.)       :      0.100819623
Magnitude (Debye)      :      0.256263116

VIBRATIONAL FREQUENCIES
-----------------------

Scaling factor for frequencies =  1.000000000  (already applied!)

     0:       0.00 cm**-1
     1:       0.00 cm**-1
     2:       0.00 cm**-1
     3:       0.00 cm**-1
     4:       0.00 cm**-1
     5:       0.00 cm**-1
     6:      34.71 cm**-1
     7:      42.44 cm**-1
     8:     104.32 cm**-1
     9:     136.97 cm**-1
    10:     188.59 cm**-1
    11:     213.50 cm**-1
    12:     318.41 cm**-1
    13:     341.52 cm**-1
    14:     361.34 cm**-1
    15:     418.89 cm**-1
    16:     420.58 cm**-1
    17:     524.55 cm**-1
    18:     569.59 cm**-1
    19:     655.25 cm**-1
    20:     735.93 cm**-1
    21:     780.28 cm**-1
    22:     803.71 cm**-1
    23:     853.62 cm**-1
    24:     866.16 cm**-1
    25:     872.19 cm**-1
    26:     968.84 cm**-1
    27:     979.34 cm**-1
    28:     993.16 cm**-1
    29:    1007.52 cm**-1
    30:    1008.16 cm**-1
    31:    1037.14 cm**-1
    32:    1063.72 cm**-1
    33:    1064.05 cm**-1
    34:    1132.93 cm**-1
    35:    1145.13 cm**-1
    36:    1202.43 cm**-1
    37:    1246.55 cm**-1
    38:    1267.62 cm**-1
    39:    1324.35 cm**-1
    40:    1327.50 cm**-1
    41:    1347.36 cm**-1
    42:    1392.36 cm**-1
    43:    1410.32 cm**-1
    44:    1412.81 cm**-1
    45:    1460.03 cm**-1
    46:    1460.98 cm**-1
    47:    1470.18 cm**-1
    48:    1473.53 cm**-1
    49:    1487.08 cm**-1
    50:    1573.41 cm**-1
    51:    1652.15 cm**-1
    52:    1707.80 cm**-1
    53:    1761.75 cm**-1
    54:    3019.67 cm**-1
    55:    3032.50 cm**-1
    56:    3091.50 cm**-1
    57:    3112.31 cm**-1
    58:    3130.14 cm**-1
    59:    3141.93 cm**-1
    60:    3146.58 cm**-1
    61:    3162.68 cm**-1
    62:    3182.42 cm**-1
    63:    3183.83 cm**-1
    64:    3199.98 cm**-1
    65:    3209.06 cm**-1

IR SPECTRUM
-----------

 Mode   freq       eps      Int      T**2         TX        TY        TZ
       cm**-1   L/(mol*cm) km/mol    a.u.
----------------------------------------------------------------------------
  6:     34.71   0.000092    0.46  0.000825  ( 0.002776 -0.016788  0.023137)
  7:     42.44   0.000039    0.19  0.000283  ( 0.000922 -0.002827 -0.016572)
  8:    104.32   0.000195    0.99  0.000584  ( 0.000696 -0.001149 -0.024134)
  9:    136.97   0.000103    0.52  0.000235  (-0.010985  0.010669  0.000085)
 10:    188.59   0.000165    0.83  0.000273  (-0.000461  0.000394 -0.016518)
 11:    213.50   0.000089    0.45  0.000130  ( 0.000426 -0.000431 -0.011373)
 12:    318.41   0.000165    0.83  0.000161  (-0.012086 -0.003875 -0.000524)
 13:    341.52   0.000036    0.18  0.000033  (-0.002883  0.004857 -0.001054)
 14:    361.34   0.000502    2.54  0.000434  (-0.000310  0.000351  0.020816)
 15:    418.89   0.000026    0.13  0.000019  ( 0.003056 -0.000799  0.003012)
 16:    420.58   0.000024    0.12  0.000018  (-0.002898  0.001771  0.002487)
 17:    524.55   0.002075   10.49  0.001235  ( 0.001516  0.000064  0.035105)
 18:    569.59   0.000352    1.78  0.000193  (-0.013765 -0.000842  0.001593)
 19:    655.25   0.000035    0.18  0.000017  ( 0.002616 -0.003132 -0.000056)
 20:    735.93   0.000031    0.16  0.000013  ( 0.000754  0.000065  0.003535)
 21:    780.28   0.000069    0.35  0.000028  ( 0.002779  0.001799  0.004072)
 22:    803.71   0.005092   25.73  0.001977  (-0.001226 -0.000382  0.044446)
 23:    853.62   0.000200    1.01  0.000073  ( 0.000487 -0.000260 -0.008531)
 24:    866.16   0.000194    0.98  0.000070  ( 0.004540 -0.006970  0.000891)
 25:    872.19   0.001376    6.95  0.000492  ( 0.002066 -0.000338 -0.022087)
 26:    968.84   0.004295   21.70  0.001383  ( 0.033580 -0.015993 -0.000111)
 27:    979.34   0.000171    0.86  0.000055  ( 0.004047  0.000035 -0.006176)
 28:    993.16   0.000022    0.11  0.000007  ( 0.000895  0.000437 -0.002458)
 29:   1007.52   0.001104    5.58  0.000342  (-0.015190 -0.003611 -0.009914)
 30:   1008.16   0.005722   28.92  0.001771  ( 0.001888  0.000698 -0.042038)
 31:   1037.14   0.000129    0.65  0.000039  (-0.005808 -0.002108  0.000788)
 32:   1063.72   0.000112    0.57  0.000033  ( 0.002709  0.000239  0.005052)
 33:   1064.05   0.001500    7.58  0.000440  ( 0.013310  0.001238  0.016159)
 34:   1132.93   0.000507    2.56  0.000140  (-0.002679 -0.011506 -0.000023)
 35:   1145.13   0.000978    4.94  0.000267  (-0.000936  0.016301  0.000022)
 36:   1202.43   0.000078    0.39  0.000020  ( 0.004372 -0.001050  0.000114)
 37:   1246.55   0.000108    0.55  0.000027  (-0.001173  0.005020  0.000740)
 38:   1267.62   0.000348    1.76  0.000086  ( 0.008757 -0.002713  0.001279)
 39:   1324.35   0.000071    0.36  0.000017  ( 0.001438  0.003826  0.000049)
 40:   1327.50   0.000740    3.74  0.000174  ( 0.012920  0.002633  0.000030)
 41:   1347.36   0.000305    1.54  0.000071  ( 0.005551 -0.006303  0.000011)
 42:   1392.36   0.000229    1.16  0.000051  (-0.003145  0.006444 -0.000071)
 43:   1410.32   0.000116    0.59  0.000026  ( 0.001096 -0.004686 -0.001595)
 44:   1412.81   0.000128    0.64  0.000028  ( 0.003038 -0.004325  0.000503)
 45:   1460.03   0.000034    0.17  0.000007  (-0.000928  0.000710  0.002441)
 46:   1460.98   0.002003   10.12  0.000428  ( 0.000035  0.000044  0.020682)
 47:   1470.18   0.001893    9.57  0.000402  (-0.001401  0.005269 -0.019289)
 48:   1473.53   0.003815   19.28  0.000808  (-0.007942  0.027159  0.002693)
 49:   1487.08   0.001312    6.63  0.000275  (-0.000817 -0.016548 -0.000936)
 50:   1573.41   0.005388   27.23  0.001069  (-0.032671 -0.001096 -0.000361)
 51:   1652.15   0.000106    0.53  0.000020  (-0.003798  0.002360 -0.000033)
 52:   1707.80   0.000233    1.18  0.000043  (-0.005880 -0.002823 -0.000274)
 53:   1761.75   0.001212    6.12  0.000215  ( 0.014481  0.002231  0.000028)
 54:   3019.67   0.008128   41.08  0.000840  ( 0.028943 -0.001499 -0.000009)
 55:   3032.50   0.005787   29.25  0.000596  ( 0.024093  0.003304  0.002045)
 56:   3091.50   0.002263   11.44  0.000228  (-0.000027 -0.000035 -0.015113)
 57:   3112.31   0.001883    9.52  0.000189  (-0.004232 -0.000767  0.013050)
 58:   3130.14   0.001363    6.89  0.000136  (-0.001057  0.011610 -0.000022)
 59:   3141.93   0.001840    9.30  0.000183  ( 0.005318 -0.012428  0.000116)
 60:   3146.58   0.002506   12.66  0.000249  (-0.011862 -0.010384 -0.000002)
 61:   3162.68   0.004842   24.47  0.000478  ( 0.011185  0.018779 -0.000053)
 62:   3182.42   0.003668   18.54  0.000360  (-0.018437 -0.004447  0.000094)
 63:   3183.83   0.000704    3.56  0.000069  ( 0.003287  0.007626 -0.000028)
 64:   3199.98   0.003585   18.12  0.000350  ( 0.004557 -0.018135 -0.000073)
 65:   3209.06   0.001557    7.87  0.000151  (-0.002090  0.012125 -0.000046)

--------------------------
THERMOCHEMISTRY AT 298.15K
--------------------------

Temperature         ...   298.15 K
Pressure            ...     1.00 atm
Total Mass          ...   132.21 AMU
Quasi RRHO          ...     True
Cut-Off Frequency   ...     1.00 cm^-1

Throughout the following assumptions are being made:
  (1) The electronic state is orbitally nondegenerate
  (2) There are no thermally accessible electronically excited states
  (3) Hindered rotations indicated by low frequency modes are not
      treated as such but are treated as vibrations and this may
      cause some error
  (4) All equations used are the standard statistical mechanics
      equations for an ideal gas
  (5) All vibrations are strictly harmonic

freq.      34.71  E(vib)   ...       0.54
freq.      42.44  E(vib)   ...       0.53
freq.     104.32  E(vib)   ...       0.46
freq.     136.97  E(vib)   ...       0.42
freq.     188.59  E(vib)   ...       0.36
freq.     213.50  E(vib)   ...       0.34
freq.     318.41  E(vib)   ...       0.25
freq.     341.52  E(vib)   ...       0.23
freq.     361.34  E(vib)   ...       0.22
freq.     418.89  E(vib)   ...       0.18
freq.     420.58  E(vib)   ...       0.18
freq.     524.55  E(vib)   ...       0.13
freq.     569.59  E(vib)   ...       0.11
freq.     655.25  E(vib)   ...       0.08
freq.     735.93  E(vib)   ...       0.06
freq.     780.28  E(vib)   ...       0.05
freq.     803.71  E(vib)   ...       0.05
freq.     853.62  E(vib)   ...       0.04
freq.     866.16  E(vib)   ...       0.04
freq.     872.19  E(vib)   ...       0.04
freq.     968.84  E(vib)   ...       0.03
freq.     979.34  E(vib)   ...       0.03
freq.     993.16  E(vib)   ...       0.02
freq.    1007.52  E(vib)   ...       0.02
freq.    1008.16  E(vib)   ...       0.02
freq.    1037.14  E(vib)   ...       0.02
freq.    1063.72  E(vib)   ...       0.02
freq.    1064.05  E(vib)   ...       0.02
freq.    1132.93  E(vib)   ...       0.01
freq.    1145.13  E(vib)   ...       0.01
freq.    1202.43  E(vib)   ...       0.01
freq.    1246.55  E(vib)   ...       0.01
freq.    1267.62  E(vib)   ...       0.01
freq.    1324.35  E(vib)   ...       0.01
freq.    1327.50  E(vib)   ...       0.01
freq.    1347.36  E(vib)   ...       0.01
freq.    1392.36  E(vib)   ...       0.00
freq.    1410.32  E(vib)   ...       0.00
freq.    1412.81  E(vib)   ...       0.00
freq.    1460.03  E(vib)   ...       0.00
freq.    1460.98  E(vib)   ...       0.00
freq.    1470.18  E(vib)   ...       0.00
freq.    1473.53  E(vib)   ...       0.00
freq.    1487.08  E(vib)   ...       0.00
freq.    1573.41  E(vib)   ...       0.00
freq.    1652.15  E(vib)   ...       0.00
freq.    1707.80  E(vib)   ...       0.00
freq.    1761.75  E(vib)   ...       0.00
freq.    3019.67  E(vib)   ...       0.00
freq.    3032.50  E(vib)   ...       0.00
freq.    3091.50  E(vib)   ...       0.00
freq.    3112.31  E(vib)   ...       0.00
freq.    3130.14  E(vib)   ...       0.00
freq.    3141.93  E(vib)   ...       0.00
freq.    3146.58  E(vib)   ...       0.00
freq.    3162.68  E(vib)   ...       0.00
freq.    3182.42  E(vib)   ...       0.00
freq.    3183.83  E(vib)   ...       0.00
freq.    3199.98  E(vib)   ...       0.00
freq.    3209.06  E(vib)   ...       0.00

------------
INNER ENERGY
------------

The inner energy is: U= E(el) + E(ZPE) + E(vib) + E(rot) + E(trans)
    E(el)   - is the total energy from the electronic structure calculation
              = E(kin-el) + E(nuc-el) + E(el-el) + E(nuc-nuc)
    E(ZPE)  - the the zero temperature vibrational energy from the frequency calculation
    E(vib)  - the the finite temperature correction to E(ZPE) due to population
              of excited vibrational states
    E(rot)  - is the rotational thermal energy
    E(trans)- is the translational thermal energy

Summary of contributions to the inner energy U:
Electronic energy                ...   -387.52682194 Eh
Zero point energy                ...      0.18961961 Eh     118.99 kcal/mol
Thermal vibrational correction   ...      0.00734581 Eh       4.61 kcal/mol
Thermal rotational correction    ...      0.00141627 Eh       0.89 kcal/mol
Thermal translational correction ...      0.00141627 Eh       0.89 kcal/mol
-----------------------------------------------------------------------
Total thermal energy                   -387.32702397 Eh

Summary of corrections to the electronic energy:
(perhaps to be used in another calculation)
Total thermal correction                  0.01017836 Eh       6.39 kcal/mol
Non-thermal (ZPE) correction              0.18961961 Eh     118.99 kcal/mol
-----------------------------------------------------------------------
Total correction                          0.19979796 Eh     125.37 kcal/mol

--------
ENTHALPY
--------

The enthalpy is H = U + kB*T
                kB is Boltzmann's constant
Total thermal energy              ...   -387.32702397 Eh
Thermal Enthalpy correction       ...      0.00094421 Eh       0.59 kcal/mol
-----------------------------------------------------------------------
Total Enthalpy                    ...   -387.32607977 Eh

Note: Only C1 symmetry has been detected, increase convergence thresholds
      if your molecule has a higher symmetry. Symmetry factor of 1.0 is
      used for the rotational entropy correction.

Note: Rotational entropy computed according to Herzberg
Infrared and Raman Spectra, Chapter V,1, Van Nostrand Reinhold, 1945
Point Group:  C1, Symmetry Number:   1
Rotational constants in cm-1:     0.159882     0.020202     0.018058

Vibrational entropy computed according to the QRRHO of S. Grimme
Chem.Eur.J. 2012 18 9955 using a reference frequency of 100.0 cm-1

-------
ENTROPY
-------

The entropy contributions are T*S = T*(S(el)+S(vib)+S(rot)+S(trans))
     S(el)   - electronic entropy
     S(vib)  - vibrational entropy
     S(rot)  - rotational entropy
     S(trans)- translational entropy
The entropies will be listed as multiplied by the temperature to get
units of energy

Electronic entropy                ...      0.00000000 Eh      0.00 kcal/mol
Vibrational entropy               ...      0.01285637 Eh      8.07 kcal/mol
Rotational entropy                ...      0.01411345 Eh      8.86 kcal/mol
Translational entropy             ...      0.01926665 Eh     12.09 kcal/mol
-----------------------------------------------------------------------
Final entropy term                ...      0.04623647 Eh     29.01 kcal/mol

In case the symmetry of your molecule has not been determined correctly
or in case you have a reason to use a different symmetry number we print
out the resulting rotational entropy values for sn=1,12:

 non-linear molecules -----------------------------------

                             ****ORCA TERMINATED NORMALLY****
TOTAL RUN TIME: 0 days 0 hours 7 minutes 48 seconds 401 msec
