                         Program Version 6.0.0  -   RELEASE  -
|  1> !PBE0 def2-SV(p) Opt Freq d3 TightSCF SlowConv RIJCOSX defgrid2
|  2>
|  3> %pal
|  4> nprocs 4
|  5> end
|  6>
|  7> %scf
|  8> MaxIter 1500
|  9> end
| 10>
| 11> %maxcore 3000
| 12>
| 13>
| 14>
| 15> * xyz 0 1
| 16> C     0.4906660   -1.2845553   -0.0006995
| 17> C     1.3977860   -0.2201893   -0.0003589
| 18> C     0.8708401    1.0737181   -0.0003888
| 19> C    -0.4906432    1.2845114   -0.0005908
| 20> C    -1.3977692    0.2201421   -0.0007094
| 21> C    -0.8708272   -1.0737608   -0.0008682
| 22> H    -1.5337583   -1.9256873   -0.0011625
| 23> C    -2.8232198    0.5088464   -0.0005580
| 24> C    -3.8231191   -0.3712805    0.0009414
| 25> C    -5.2661712    0.0017886    0.0012736
| 26> H    -5.7614234   -0.4136420   -0.8765819
| 27> H    -5.3930083    1.0816134   -0.0000793
| 28> H    -5.7603829   -0.4113109    0.8808159
| 29> H    -3.6255601   -1.4344602    0.0021023
| 30> H    -3.0679428    1.5652525   -0.0015394
| 31> H    -0.8699728    2.2975498   -0.0005641
| 32> H     1.5337798    1.9256357   -0.0002203
| 33> C     2.8232489   -0.5088354    0.0000928
| 34> C     3.8230941    0.3713535    0.0004803
| 35> C     5.2661763   -0.0016088    0.0010590
| 36> H     5.7606600    0.4132399    0.8796205
| 37> H     5.7610826    0.4121662   -0.8777767
| 38> H     5.3931060   -1.0814219    0.0017301
| 39> H     3.6254901    1.4345269    0.0003592
| 40> H     3.0680431   -1.5652256    0.0002045
| 41> H     0.8699838   -2.2975987   -0.0008033
| 42> *
| 43>
| 44>                          ****END OF INPUT****
 Total Charge           Charge          ....    0
 Multiplicity           Mult            ....    1
 Number of Electrons    NEL             ....   86
Dispersion correction           -0.023368094
FINAL SINGLE POINT ENERGY      -464.775243144627
Dispersion correction             ... done (  0.1 sec)
Dispersion correction           -0.023205923
FINAL SINGLE POINT ENERGY      -464.778454784000
Dispersion correction             ... done (  0.0 sec)
Dispersion correction           -0.023186523
FINAL SINGLE POINT ENERGY      -464.778560399431
Dispersion correction             ... done (  0.0 sec)
Dispersion correction           -0.023182259
FINAL SINGLE POINT ENERGY      -464.778609061540
Dispersion correction             ... done (  0.0 sec)
Dispersion correction           -0.023186845
FINAL SINGLE POINT ENERGY      -464.778611501569
Dispersion correction             ... done (  0.0 sec)
                    ***********************HURRAY********************

CARTESIAN COORDINATES (ANGSTROEM)
---------------------------------
  C      0.494705   -1.289356    0.000109
  C      1.409086   -0.221472    0.000129
  C      0.876528    1.077927    0.000005
  C     -0.494694    1.289425   -0.000112
  C     -1.409075    0.221540   -0.000088
  C     -0.876516   -1.077858   -0.000010
  H     -1.545453   -1.942914   -0.000097
  C     -2.844568    0.511157   -0.000161
  C     -3.857777   -0.370165    0.000694
  C     -5.303254   -0.001328    0.000549
  H     -5.822686   -0.414837   -0.884758
  H     -5.443635    1.092788   -0.000482
  H     -5.822429   -0.413134    0.886801
  H     -3.635585   -1.445724    0.001615
  H     -3.097929    1.580250   -0.000959
  H     -0.878605    2.314854   -0.000203
  H      1.545465    1.942983   -0.000002
  C      2.844578   -0.511095    0.000246
  C      3.857791    0.370220    0.000275
  C      5.303268    0.001375    0.000372
  H      5.822558    0.414185    0.886087
  H      5.822586    0.413884   -0.885469
  H      5.443648   -1.092741    0.000552
  H      3.635605    1.445780    0.000209
  H      3.097932   -1.580190    0.000320
  H      0.878616   -2.314785    0.000158

 Multiplicity           Mult            ....    1
 Number of Electrons    NEL             ....   86
 Basis Dimension        Dim             ....  196

ORBITAL ENERGIES
----------------

  NO   OCC          E(Eh)            E(eV)
   0   2.0000     -10.243079      -278.7283
   1   2.0000     -10.243051      -278.7276
   2   2.0000     -10.236627      -278.5528
   3   2.0000     -10.236626      -278.5528
   4   2.0000     -10.233561      -278.4694
   5   2.0000     -10.233494      -278.4675
   6   2.0000     -10.232959      -278.4530
   7   2.0000     -10.232930      -278.4522
   8   2.0000     -10.231904      -278.4243
   9   2.0000     -10.231888      -278.4238
  10   2.0000     -10.227546      -278.3057
  11   2.0000     -10.227546      -278.3057
  12   2.0000      -0.881299       -23.9814
  13   2.0000      -0.828796       -22.5527
  14   2.0000      -0.804743       -21.8982
  15   2.0000      -0.768812       -20.9204
  16   2.0000      -0.759525       -20.6677
  17   2.0000      -0.714966       -19.4552
  18   2.0000      -0.675947       -18.3935
  19   2.0000      -0.633831       -17.2474
  20   2.0000      -0.607033       -16.5182
  21   2.0000      -0.572143       -15.5688
  22   2.0000      -0.557825       -15.1792
  23   2.0000      -0.524616       -14.2755
  24   2.0000      -0.488786       -13.3006
  25   2.0000      -0.480922       -13.0865
  26   2.0000      -0.454032       -12.3548
  27   2.0000      -0.435164       -11.8414
  28   2.0000      -0.431116       -11.7313
  29   2.0000      -0.427435       -11.6311
  30   2.0000      -0.426748       -11.6124
  31   2.0000      -0.421142       -11.4599
  32   2.0000      -0.411315       -11.1924
  33   2.0000      -0.393535       -10.7086
  34   2.0000      -0.387566       -10.5462
  35   2.0000      -0.375493       -10.2177
  36   2.0000      -0.359679        -9.7874
  37   2.0000      -0.355421        -9.6715
  38   2.0000      -0.342369        -9.3163
  39   2.0000      -0.328130        -8.9289
  40   2.0000      -0.270459        -7.3596
  41   2.0000      -0.265575        -7.2267
  42   2.0000      -0.214008        -5.8234
  43   0.0000      -0.044668        -1.2155
  44   0.0000       0.001493         0.0406
  45   0.0000       0.025302         0.6885
  46   0.0000       0.079133         2.1533
  47   0.0000       0.084418         2.2971

MULLIKEN ATOMIC CHARGES
-----------------------
   0 C :   -0.142881
   1 C :    0.108011
   2 C :   -0.138013
   3 C :   -0.142876
   4 C :    0.108006
   5 C :   -0.138010
   6 H :    0.086275
   7 C :   -0.118777
   8 C :   -0.169246
   9 C :   -0.311800
  10 H :    0.138578
  11 H :    0.131683
  12 H :    0.138578
  13 H :    0.112268
  14 H :    0.083101
  15 H :    0.082223
  16 H :    0.086275
  17 C :   -0.118775
  18 C :   -0.169248
  19 C :   -0.311802
  20 H :    0.138576
  21 H :    0.138581
  22 H :    0.131682
  23 H :    0.112268
  24 H :    0.083102
  25 H :    0.082223
Sum of atomic charges:    0.0000000

LOEWDIN ATOMIC CHARGES
----------------------
   0 C :   -0.117442
   1 C :   -0.045084
   2 C :   -0.114703
   3 C :   -0.117442
   4 C :   -0.045083
   5 C :   -0.114703
   6 H :    0.127111
   7 C :   -0.137889
   8 C :   -0.137699
   9 C :   -0.337687
  10 H :    0.131699
  11 H :    0.126761
  12 H :    0.131699
  13 H :    0.122497
  14 H :    0.123799
  15 H :    0.126938
  16 H :    0.127111
  17 C :   -0.137890
  18 C :   -0.137698
  19 C :   -0.337687
  20 H :    0.131698
  21 H :    0.131700
  22 H :    0.126761
  23 H :    0.122497
  24 H :    0.123799
  25 H :    0.126938

  Mayer bond orders larger than 0.100000
B(  0-C ,  1-C ) :   1.3333 B(  0-C ,  5-C ) :   1.4175 B(  0-C , 25-H ) :   0.9614
B(  1-C ,  2-C ) :   1.3564 B(  1-C , 17-C ) :   1.0965 B(  2-C ,  3-C ) :   1.4175
B(  2-C , 16-H ) :   0.9498 B(  3-C ,  4-C ) :   1.3333 B(  3-C , 15-H ) :   0.9614
B(  4-C ,  5-C ) :   1.3564 B(  4-C ,  7-C ) :   1.0965 B(  5-C ,  6-H ) :   0.9498
B(  7-C ,  8-C ) :   1.8909 B(  7-C , 14-H ) :   0.9338 B(  8-C ,  9-C ) :   1.0846
B(  8-C , 13-H ) :   0.9135 B(  9-C , 10-H ) :   0.9370 B(  9-C , 11-H ) :   0.9534
B(  9-C , 12-H ) :   0.9370 B( 17-C , 18-C ) :   1.8909 B( 17-C , 24-H ) :   0.9338
B( 18-C , 19-C ) :   1.0846 B( 18-C , 23-H ) :   0.9135 B( 19-C , 20-H ) :   0.9370
B( 19-C , 21-H ) :   0.9370 B( 19-C , 22-H ) :   0.9534

Dispersion correction           -0.023188846
FINAL SINGLE POINT ENERGY      -464.778611535568

DIPOLE MOMENT
-------------

Method             : SCF
Type of density    : Electron Density
Multiplicity       :   1
Irrep              :   0
Energy             :  -464.7554226894447424 Eh
Relativity type    :
Basis              : AO
                                X                 Y                 Z
Electronic contribution:     -0.000002598       0.000025875      -0.001142632
Nuclear contribution   :      0.000002145      -0.000025147       0.001221223
                        -----------------------------------------
Total Dipole Moment    :     -0.000000453       0.000000728       0.000078591
                        -----------------------------------------
Magnitude (a.u.)       :      0.000078595
Magnitude (Debye)      :      0.000199774

VIBRATIONAL FREQUENCIES
-----------------------

Scaling factor for frequencies =  1.000000000  (already applied!)

     0:       0.00 cm**-1
     1:       0.00 cm**-1
     2:       0.00 cm**-1
     3:       0.00 cm**-1
     4:       0.00 cm**-1
     5:       0.00 cm**-1
     6:      28.08 cm**-1
     7:      55.98 cm**-1
     8:      92.25 cm**-1
     9:      98.49 cm**-1
    10:     146.24 cm**-1
    11:     174.12 cm**-1
    12:     193.49 cm**-1
    13:     199.97 cm**-1
    14:     257.56 cm**-1
    15:     290.37 cm**-1
    16:     352.47 cm**-1
    17:     403.02 cm**-1
    18:     416.67 cm**-1
    19:     433.66 cm**-1
    20:     452.13 cm**-1
    21:     538.65 cm**-1
    22:     631.14 cm**-1
    23:     654.85 cm**-1
    24:     739.26 cm**-1
    25:     798.23 cm**-1
    26:     808.96 cm**-1
    27:     841.00 cm**-1
    28:     854.61 cm**-1
    29:     875.64 cm**-1
    30:     888.31 cm**-1
    31:     967.18 cm**-1
    32:     970.25 cm**-1
    33:     985.50 cm**-1
    34:     992.80 cm**-1
    35:    1005.29 cm**-1
    36:    1011.20 cm**-1
    37:    1034.06 cm**-1
    38:    1063.30 cm**-1
    39:    1063.32 cm**-1
    40:    1128.71 cm**-1
    41:    1139.10 cm**-1
    42:    1148.50 cm**-1
    43:    1201.84 cm**-1
    44:    1242.19 cm**-1
    45:    1263.56 cm**-1
    46:    1323.54 cm**-1
    47:    1325.23 cm**-1
    48:    1330.19 cm**-1
    49:    1338.58 cm**-1
    50:    1355.34 cm**-1
    51:    1396.68 cm**-1
    52:    1411.02 cm**-1
    53:    1414.88 cm**-1
    54:    1460.69 cm**-1
    55:    1460.70 cm**-1
    56:    1468.52 cm**-1
    57:    1473.45 cm**-1
    58:    1480.67 cm**-1
    59:    1570.82 cm**-1
    60:    1641.47 cm**-1
    61:    1700.40 cm**-1
    62:    1756.31 cm**-1
    63:    1760.85 cm**-1
    64:    3019.55 cm**-1
    65:    3019.74 cm**-1
    66:    3091.39 cm**-1
    67:    3091.40 cm**-1
    68:    3130.82 cm**-1
    69:    3130.83 cm**-1
    70:    3147.15 cm**-1
    71:    3147.46 cm**-1
    72:    3163.32 cm**-1
    73:    3163.47 cm**-1
    74:    3186.73 cm**-1
    75:    3188.83 cm**-1
    76:    3209.66 cm**-1
    77:    3211.17 cm**-1

IR SPECTRUM
-----------

 Mode   freq       eps      Int      T**2         TX        TY        TZ
       cm**-1   L/(mol*cm) km/mol    a.u.
----------------------------------------------------------------------------
  6:     28.08   0.000070    0.35  0.000773  ( 0.000010 -0.000017 -0.027797)
  7:     55.98   0.000000    0.00  0.000000  (-0.000012  0.000023  0.000044)
  8:     92.25   0.000099    0.50  0.000336  ( 0.000011 -0.000013  0.018340)
  9:     98.49   0.000097    0.49  0.000306  (-0.012548 -0.012198 -0.000007)
 10:    146.24   0.000000    0.00  0.000000  (-0.000005  0.000008 -0.000005)
 11:    174.12   0.000000    0.00  0.000000  ( 0.000010  0.000003 -0.000043)
 12:    193.49   0.000669    3.38  0.001079  (-0.000010  0.000018  0.032852)
 13:    199.97   0.000000    0.00  0.000000  ( 0.000003 -0.000002 -0.000115)
 14:    257.56   0.000169    0.86  0.000205  ( 0.000019 -0.000013 -0.014325)
 15:    290.37   0.000000    0.00  0.000000  (-0.000009 -0.000001 -0.000003)
 16:    352.47   0.000586    2.96  0.000519  (-0.022706 -0.001880 -0.000006)
 17:    403.02   0.000000    0.00  0.000000  ( 0.000010 -0.000008 -0.000000)
 18:    416.67   0.000000    0.00  0.000000  ( 0.000014  0.000001  0.000208)
 19:    433.66   0.000000    0.00  0.000000  (-0.000031  0.000004 -0.000007)
 20:    452.13   0.000477    2.41  0.000330  (-0.018005  0.002315 -0.000000)
 21:    538.65   0.001405    7.10  0.000814  ( 0.000009 -0.000010  0.028530)
 22:    631.14   0.000000    0.00  0.000000  (-0.000002 -0.000000 -0.000009)
 23:    654.85   0.000000    0.00  0.000000  (-0.000015  0.000001  0.000003)
 24:    739.26   0.000000    0.00  0.000000  ( 0.000005 -0.000004  0.000000)
 25:    798.23   0.006088   30.76  0.002380  (-0.000001 -0.000005  0.048784)
 26:    808.96   0.000217    1.10  0.000084  ( 0.003513 -0.008456 -0.000026)
 27:    841.00   0.000000    0.00  0.000000  ( 0.000019  0.000001  0.000003)
 28:    854.61   0.000000    0.00  0.000000  (-0.000009  0.000002 -0.000002)
 29:    875.64   0.000000    0.00  0.000000  ( 0.000022  0.000020  0.000034)
 30:    888.31   0.001963    9.92  0.000690  (-0.000020  0.000002  0.026260)
 31:    967.18   0.000001    0.00  0.000000  (-0.000484 -0.000194 -0.000000)
 32:    970.25   0.011004   55.61  0.003539  ( 0.055350  0.021807  0.000000)
 33:    985.50   0.000000    0.00  0.000000  (-0.000025 -0.000012  0.000001)
 34:    992.80   0.000015    0.08  0.000005  ( 0.000006  0.000005  0.002205)
 35:   1005.29   0.012079   61.04  0.003749  ( 0.000019  0.000006 -0.061233)
 36:   1011.20   0.000000    0.00  0.000000  ( 0.000012  0.000004 -0.000007)
 37:   1034.06   0.000138    0.70  0.000042  (-0.005741 -0.002950  0.000011)
 38:   1063.30   0.000000    0.00  0.000000  (-0.000009 -0.000005 -0.000088)
 39:   1063.32   0.000023    0.11  0.000007  (-0.000008  0.000003  0.002584)
 40:   1128.71   0.000371    1.87  0.000102  ( 0.000026  0.010123 -0.000003)
 41:   1139.10   0.000000    0.00  0.000000  (-0.000001 -0.000004 -0.000000)
 42:   1148.50   0.000872    4.40  0.000237  ( 0.004121  0.014827 -0.000001)
 43:   1201.84   0.000000    0.00  0.000000  (-0.000010 -0.000007  0.000004)
 44:   1242.19   0.000353    1.78  0.000089  ( 0.006032  0.007231 -0.000004)
 45:   1263.56   0.000000    0.00  0.000000  ( 0.000001 -0.000005 -0.000003)
 46:   1323.54   0.000000    0.00  0.000000  ( 0.000003 -0.000004 -0.000001)
 47:   1325.23   0.000669    3.38  0.000157  ( 0.009748 -0.007901  0.000001)
 48:   1330.19   0.000000    0.00  0.000000  (-0.000008 -0.000040  0.000001)
 49:   1338.58   0.002991   15.12  0.000697  (-0.026165 -0.003564  0.000003)
 50:   1355.34   0.000000    0.00  0.000000  (-0.000006  0.000004 -0.000004)
 51:   1396.68   0.000951    4.80  0.000212  (-0.000008 -0.014575  0.000006)
 52:   1411.02   0.000000    0.00  0.000000  (-0.000000 -0.000001 -0.000004)
 53:   1414.88   0.000786    3.97  0.000173  (-0.012774 -0.003179  0.000000)
 54:   1460.69   0.000003    0.01  0.000001  (-0.000002  0.000006 -0.000765)
 55:   1460.70   0.004035   20.39  0.000862  ( 0.000002 -0.000015 -0.029359)
 56:   1468.52   0.005274   26.65  0.001121  (-0.010306 -0.031852  0.000015)
 57:   1473.45   0.000000    0.00  0.000000  (-0.000015 -0.000044  0.000010)
 58:   1480.67   0.001199    6.06  0.000253  (-0.012317 -0.010046  0.000011)
 59:   1570.82   0.003755   18.98  0.000746  (-0.027278 -0.001375  0.000001)
 60:   1641.47   0.000000    0.00  0.000000  (-0.000001  0.000000 -0.000001)
 61:   1700.40   0.000000    0.00  0.000000  ( 0.000001 -0.000001 -0.000003)
 62:   1756.31   0.000000    0.00  0.000000  (-0.000010  0.000001 -0.000001)
 63:   1760.85   0.003948   19.95  0.000700  (-0.026235  0.003378 -0.000001)
 64:   3019.55   0.017734   89.62  0.001833  ( 0.042799  0.001014 -0.000003)
 65:   3019.74   0.000007    0.03  0.000001  ( 0.000831  0.000020 -0.000003)
 66:   3091.39   0.000141    0.71  0.000014  ( 0.000003 -0.000007  0.003779)
 67:   3091.40   0.004213   21.29  0.000425  (-0.000002 -0.000011 -0.020623)
 68:   3130.82   0.000050    0.25  0.000005  (-0.000152 -0.002223 -0.000006)
 69:   3130.83   0.002594   13.11  0.000259  ( 0.001097  0.016043 -0.000009)
 70:   3147.15   0.005980   30.22  0.000593  ( 0.019551 -0.014515  0.000006)
 71:   3147.46   0.000001    0.00  0.000000  (-0.000188  0.000139  0.000004)
 72:   3163.32   0.000000    0.00  0.000000  (-0.000093  0.000159  0.000009)
 73:   3163.47   0.009377   47.39  0.000925  ( 0.015328 -0.026269  0.000012)
 74:   3186.73   0.004185   21.15  0.000410  ( 0.017292 -0.010525  0.000001)
 75:   3188.83   0.000000    0.00  0.000000  (-0.000012  0.000008  0.000002)
 76:   3209.66   0.004474   22.61  0.000435  (-0.006446 -0.019834  0.000002)
 77:   3211.17   0.000000    0.00  0.000000  ( 0.000021  0.000065  0.000001)

--------------------------
THERMOCHEMISTRY AT 298.15K
--------------------------

Temperature         ...   298.15 K
Pressure            ...     1.00 atm
Total Mass          ...   158.24 AMU
Quasi RRHO          ...     True
Cut-Off Frequency   ...     1.00 cm^-1

Throughout the following assumptions are being made:
  (1) The electronic state is orbitally nondegenerate
  (2) There are no thermally accessible electronically excited states
  (3) Hindered rotations indicated by low frequency modes are not
      treated as such but are treated as vibrations and this may
      cause some error
  (4) All equations used are the standard statistical mechanics
      equations for an ideal gas
  (5) All vibrations are strictly harmonic

freq.      28.08  E(vib)   ...       0.55
freq.      55.98  E(vib)   ...       0.52
freq.      92.25  E(vib)   ...       0.47
freq.      98.49  E(vib)   ...       0.46
freq.     146.24  E(vib)   ...       0.41
freq.     174.12  E(vib)   ...       0.38
freq.     193.49  E(vib)   ...       0.36
freq.     199.97  E(vib)   ...       0.35
freq.     257.56  E(vib)   ...       0.30
freq.     290.37  E(vib)   ...       0.27
freq.     352.47  E(vib)   ...       0.23
freq.     403.02  E(vib)   ...       0.19
freq.     416.67  E(vib)   ...       0.18
freq.     433.66  E(vib)   ...       0.17
freq.     452.13  E(vib)   ...       0.16
freq.     538.65  E(vib)   ...       0.12
freq.     631.14  E(vib)   ...       0.09
freq.     654.85  E(vib)   ...       0.08
freq.     739.26  E(vib)   ...       0.06
freq.     798.23  E(vib)   ...       0.05
freq.     808.96  E(vib)   ...       0.05
freq.     841.00  E(vib)   ...       0.04
freq.     854.61  E(vib)   ...       0.04
freq.     875.64  E(vib)   ...       0.04
freq.     888.31  E(vib)   ...       0.04
freq.     967.18  E(vib)   ...       0.03
freq.     970.25  E(vib)   ...       0.03
freq.     985.50  E(vib)   ...       0.02
freq.     992.80  E(vib)   ...       0.02
freq.    1005.29  E(vib)   ...       0.02
freq.    1011.20  E(vib)   ...       0.02
freq.    1034.06  E(vib)   ...       0.02
freq.    1063.30  E(vib)   ...       0.02
freq.    1063.32  E(vib)   ...       0.02
freq.    1128.71  E(vib)   ...       0.01
freq.    1139.10  E(vib)   ...       0.01
freq.    1148.50  E(vib)   ...       0.01
freq.    1201.84  E(vib)   ...       0.01
freq.    1242.19  E(vib)   ...       0.01
freq.    1263.56  E(vib)   ...       0.01
freq.    1323.54  E(vib)   ...       0.01
freq.    1325.23  E(vib)   ...       0.01
freq.    1330.19  E(vib)   ...       0.01
freq.    1338.58  E(vib)   ...       0.01
freq.    1355.34  E(vib)   ...       0.01
freq.    1396.68  E(vib)   ...       0.00
freq.    1411.02  E(vib)   ...       0.00
freq.    1414.88  E(vib)   ...       0.00
freq.    1460.69  E(vib)   ...       0.00
freq.    1460.70  E(vib)   ...       0.00
freq.    1468.52  E(vib)   ...       0.00
freq.    1473.45  E(vib)   ...       0.00
freq.    1480.67  E(vib)   ...       0.00
freq.    1570.82  E(vib)   ...       0.00
freq.    1641.47  E(vib)   ...       0.00
freq.    1700.40  E(vib)   ...       0.00
freq.    1756.31  E(vib)   ...       0.00
freq.    1760.85  E(vib)   ...       0.00
freq.    3019.55  E(vib)   ...       0.00
freq.    3019.74  E(vib)   ...       0.00
freq.    3091.39  E(vib)   ...       0.00
freq.    3091.40  E(vib)   ...       0.00
freq.    3130.82  E(vib)   ...       0.00
freq.    3130.83  E(vib)   ...       0.00
freq.    3147.15  E(vib)   ...       0.00
freq.    3147.46  E(vib)   ...       0.00
freq.    3163.32  E(vib)   ...       0.00
freq.    3163.47  E(vib)   ...       0.00
freq.    3186.73  E(vib)   ...       0.00
freq.    3188.83  E(vib)   ...       0.00
freq.    3209.66  E(vib)   ...       0.00
freq.    3211.17  E(vib)   ...       0.00

------------
INNER ENERGY
------------

The inner energy is: U= E(el) + E(ZPE) + E(vib) + E(rot) + E(trans)
    E(el)   - is the total energy from the electronic structure calculation
              = E(kin-el) + E(nuc-el) + E(el-el) + E(nuc-nuc)
    E(ZPE)  - the the zero temperature vibrational energy from the frequency calculation
    E(vib)  - the the finite temperature correction to E(ZPE) due to population
              of excited vibrational states
    E(rot)  - is the rotational thermal energy
    E(trans)- is the translational thermal energy

Summary of contributions to the inner energy U:
Electronic energy                ...   -464.77861154 Eh
Zero point energy                ...      0.22328956 Eh     140.12 kcal/mol
Thermal vibrational correction   ...      0.00949429 Eh       5.96 kcal/mol
Thermal rotational correction    ...      0.00141627 Eh       0.89 kcal/mol
Thermal translational correction ...      0.00141627 Eh       0.89 kcal/mol
-----------------------------------------------------------------------
Total thermal energy                   -464.54299515 Eh

Summary of corrections to the electronic energy:
(perhaps to be used in another calculation)
Total thermal correction                  0.01232683 Eh       7.74 kcal/mol
Non-thermal (ZPE) correction              0.22328956 Eh     140.12 kcal/mol
-----------------------------------------------------------------------
Total correction                          0.23561639 Eh     147.85 kcal/mol

--------
ENTHALPY
--------

The enthalpy is H = U + kB*T
                kB is Boltzmann's constant
Total thermal energy              ...   -464.54299515 Eh
Thermal Enthalpy correction       ...      0.00094421 Eh       0.59 kcal/mol
-----------------------------------------------------------------------
Total Enthalpy                    ...   -464.54205094 Eh

Note: Only C1 symmetry has been detected, increase convergence thresholds
      if your molecule has a higher symmetry. Symmetry factor of 1.0 is
      used for the rotational entropy correction.

Note: Rotational entropy computed according to Herzberg
Infrared and Raman Spectra, Chapter V,1, Van Nostrand Reinhold, 1945
Point Group:  C1, Symmetry Number:   1
Rotational constants in cm-1:     0.149823     0.010865     0.010169

Vibrational entropy computed according to the QRRHO of S. Grimme
Chem.Eur.J. 2012 18 9955 using a reference frequency of 100.0 cm-1

-------
ENTROPY
-------

The entropy contributions are T*S = T*(S(el)+S(vib)+S(rot)+S(trans))
     S(el)   - electronic entropy
     S(vib)  - vibrational entropy
     S(rot)  - rotational entropy
     S(trans)- translational entropy
The entropies will be listed as multiplied by the temperature to get
units of energy

                             ****ORCA TERMINATED NORMALLY****
TOTAL RUN TIME: 0 days 0 hours 9 minutes 30 seconds 429 msec
