                         Program Version 6.0.0  -   RELEASE  -
|  1> !r2SCAN aug-cc-pVTZ d3 TightSCF SlowConv RIJCOSX defgrid2
|  2>
|  3> %pal
|  4> nprocs 4
|  5> end
|  6>
|  7> %scf
|  8> MaxIter 1500
|  9> end
| 10>
| 11> %maxcore 3000
| 12>
| 13> !CPCM
| 14> %cpcm smd true
| 15> SMDsolvent "MeCN"
| 16> surfacetype gepol_ses
| 17> rsolv 2.19
| 18> end
| 19>
| 20> * xyz -1 2
| 21> C           0.68315502285048     -1.23058998559791     -0.00197785400563
| 22> C          -0.69097039389614     -1.22820808682412     -0.00110778792906
| 23> C          -1.39878915837568      0.00192561974512      0.00006123035750
| 24> C          -0.67088260295619      1.21697689217912      0.00034729291936
| 25> C           0.70599002665524      1.19710781410292     -0.00056169847882
| 26> C           1.43890972865005     -0.02356673016238     -0.00174160392592
| 27> C           2.88835051512998     -0.09555430971111     -0.00265662366589
| 28> O           3.51113560358604     -1.16132419888811     -0.00429988492646
| 29> C           3.67215429347512      1.21312233920081     -0.00319382492201
| 30> H           3.44490427270519      1.82862721041062      0.88658626511100
| 31> H           4.74564035342603      0.96713680695522     -0.00513239151038
| 32> H           3.44193148262032      1.82994436135706     -0.89128425723845
| 33> H           1.24130264942652      2.15210104681416     -0.00032125400509
| 34> H          -1.23634900308120      2.15002194871812      0.00128004669295
| 35> N          -2.79949677516438      0.01738261553575      0.00104508920787
| 36> O          -3.38660343043673      1.11542368371417      0.00320409549424
| 37> O          -3.41030224545591     -1.06695584054066      0.00182719273433
| 38> H          -1.27295707729704     -2.15125183977829     -0.00128101747157
| 39> H           1.24384223813830     -2.16976914723049     -0.00287851443797
| 40> *
| 41>
| 42>                          ****END OF INPUT****

CARTESIAN COORDINATES (ANGSTROEM)
---------------------------------
  C      0.683155   -1.230590   -0.001978
  C     -0.690970   -1.228208   -0.001108
  C     -1.398789    0.001926    0.000061
  C     -0.670883    1.216977    0.000347
  C      0.705990    1.197108   -0.000562
  C      1.438910   -0.023567   -0.001742
  C      2.888351   -0.095554   -0.002657
  O      3.511136   -1.161324   -0.004300
  C      3.672154    1.213122   -0.003194
  H      3.444904    1.828627    0.886586
  H      4.745640    0.967137   -0.005132
  H      3.441931    1.829944   -0.891284
  H      1.241303    2.152101   -0.000321
  H     -1.236349    2.150022    0.001280
  N     -2.799497    0.017383    0.001045
  O     -3.386603    1.115424    0.003204
  O     -3.410302   -1.066956    0.001827
  H     -1.272957   -2.151252   -0.001281
  H      1.243842   -2.169769   -0.002879

 Total Charge           Charge          ....   -1
 Multiplicity           Mult            ....    2
 Number of Electrons    NEL             ....   87
 Basis Dimension        Dim             ....  713

ORBITAL ENERGIES
----------------
                 SPIN UP ORBITALS
  NO   OCC          E(Eh)            E(eV)
   0   1.0000     -18.928653      -515.0748
   1   1.0000     -18.928487      -515.0703
   2   1.0000     -18.915202      -514.7088
   3   1.0000     -14.325912      -389.8279
   4   1.0000     -10.094848      -274.6948
   5   1.0000     -10.063259      -273.8352
   6   1.0000     -10.035894      -273.0906
   7   1.0000     -10.032736      -273.0046
   8   1.0000     -10.032336      -272.9937
   9   1.0000     -10.031663      -272.9754
  10   1.0000     -10.030751      -272.9506
  11   1.0000     -10.017903      -272.6010
  12   1.0000      -1.129807       -30.7436
  13   1.0000      -0.974406       -26.5149
  14   1.0000      -0.955112       -25.9899
  15   1.0000      -0.821958       -22.3666
  16   1.0000      -0.752891       -20.4872
  17   1.0000      -0.710342       -19.3294
  18   1.0000      -0.689996       -18.7758
  19   1.0000      -0.644675       -17.5425
  20   1.0000      -0.562173       -15.2975
  21   1.0000      -0.549990       -14.9660
  22   1.0000      -0.504653       -13.7323
  23   1.0000      -0.480438       -13.0734
  24   1.0000      -0.461429       -12.5561
  25   1.0000      -0.443390       -12.0653
  26   1.0000      -0.427067       -11.6211
  27   1.0000      -0.408027       -11.1030
  28   1.0000      -0.399244       -10.8640
  29   1.0000      -0.394560       -10.7365
  30   1.0000      -0.379894       -10.3374
  31   1.0000      -0.360709        -9.8154
  32   1.0000      -0.358027        -9.7424
  33   1.0000      -0.339333        -9.2337
  34   1.0000      -0.327938        -8.9236
  35   1.0000      -0.311488        -8.4760
  36   1.0000      -0.292156        -7.9500
  37   1.0000      -0.253344        -6.8938
  38   1.0000      -0.239500        -6.5171
  39   1.0000      -0.238502        -6.4900
  40   1.0000      -0.235455        -6.4071
  41   1.0000      -0.211372        -5.7517
  42   1.0000      -0.201605        -5.4860
  43   1.0000      -0.117522        -3.1979
  44   0.0000      -0.053587        -1.4582
  45   0.0000      -0.029170        -0.7938
  46   0.0000       0.005031         0.1369
  47   0.0000       0.019565         0.5324
  48   0.0000       0.023610         0.6425

                 SPIN DOWN ORBITALS
  NO   OCC          E(Eh)            E(eV)
   0   1.0000     -18.923980      -514.9477
   1   1.0000     -18.923900      -514.9455
   2   1.0000     -18.911890      -514.6187
   3   1.0000     -14.320908      -389.6917
   4   1.0000     -10.093590      -274.6606
   5   1.0000     -10.061586      -273.7897
   6   1.0000     -10.036055      -273.0950
   7   1.0000     -10.031977      -272.9840
   8   1.0000     -10.031380      -272.9677
   9   1.0000     -10.031061      -272.9591
  10   1.0000     -10.028068      -272.8776
  11   1.0000     -10.018008      -272.6039
  12   1.0000      -1.122437       -30.5431
  13   1.0000      -0.969275       -26.3753
  14   1.0000      -0.948464       -25.8090
  15   1.0000      -0.818180       -22.2638
  16   1.0000      -0.745828       -20.2950
  17   1.0000      -0.707633       -19.2557
  18   1.0000      -0.686221       -18.6730
  19   1.0000      -0.638733       -17.3808
  20   1.0000      -0.561508       -15.2794
  21   1.0000      -0.544849       -14.8261
  22   1.0000      -0.502433       -13.6719
  23   1.0000      -0.475253       -12.9323
  24   1.0000      -0.439658       -11.9637
  25   1.0000      -0.438233       -11.9249
  26   1.0000      -0.424881       -11.5616
  27   1.0000      -0.405662       -11.0386
  28   1.0000      -0.397767       -10.8238
  29   1.0000      -0.387883       -10.5548
  30   1.0000      -0.379262       -10.3202
  31   1.0000      -0.359209        -9.7746
  32   1.0000      -0.356885        -9.7113
  33   1.0000      -0.332330        -9.0431
  34   1.0000      -0.326739        -8.8910
  35   1.0000      -0.301381        -8.2010
  36   1.0000      -0.291519        -7.9326
  37   1.0000      -0.236870        -6.4456
  38   1.0000      -0.235231        -6.4010
  39   1.0000      -0.225423        -6.1341
  40   1.0000      -0.221587        -6.0297
  41   1.0000      -0.207284        -5.6405
  42   1.0000      -0.198838        -5.4107
  43   0.0000      -0.092054        -2.5049
  44   0.0000      -0.032953        -0.8967
  45   0.0000      -0.025821        -0.7026
  46   0.0000       0.006567         0.1787
  47   0.0000       0.020810         0.5663

MULLIKEN ATOMIC CHARGES AND SPIN POPULATIONS
--------------------------------------------
   0 C :   -0.910191   -0.017471
   1 C :   -0.324519    0.095479
   2 C :    0.468554    0.020107
   3 C :   -0.574242    0.104548
   4 C :   -0.401027   -0.019746
   5 C :    1.351193    0.207810
   6 C :    0.671369    0.062081
   7 O :   -1.024207    0.111145
   8 C :   -0.556012   -0.022233
   9 H :    0.224081    0.008125
  10 H :    0.144574   -0.002432
  11 H :    0.223352    0.008129
  12 H :   -0.102845   -0.007568
  13 H :    0.418997    0.001915
  14 N :    0.594925    0.136531
  15 O :   -0.807430    0.161549
  16 O :   -0.807329    0.164450
  17 H :    0.467971   -0.000759
  18 H :   -0.057214   -0.011660
Sum of atomic charges         :   -1.0000000

LOEWDIN ATOMIC CHARGES AND SPIN POPULATIONS
-------------------------------------------
   0 C :    0.169333    0.030857
   1 C :    0.175742    0.048444
   2 C :   -0.302468    0.079884
   3 C :    0.177914    0.053118
   4 C :    0.181083    0.032870
   5 C :   -0.167643    0.093925
   6 C :   -0.605566    0.078437
   7 O :    0.426524    0.093204
   8 C :    0.542900    0.011215
   9 H :   -0.167660    0.002674
  10 H :   -0.190453   -0.000218
  11 H :   -0.167679    0.002672
  12 H :   -0.187831    0.001309
  13 H :   -0.212060    0.009544
  14 N :   -0.847741    0.164198
  15 O :    0.292334    0.143064
  16 O :    0.292255    0.145305
  17 H :   -0.212403    0.008445
  18 H :   -0.196580    0.001054

  Mayer bond orders larger than 0.100000
B(  0-C ,  1-C ) :   1.3880 B(  0-C ,  2-C ) :  -0.3711 B(  0-C ,  3-C ) :  -0.1219
B(  0-C ,  4-C ) :  -0.4931 B(  0-C ,  6-C ) :   0.3390 B(  0-C , 12-H ) :   0.1064
B(  0-C , 16-O ) :  -0.1354 B(  0-C , 18-H ) :   1.3381 B(  1-C ,  2-C ) :   0.7649
B(  1-C ,  3-C ) :   0.1600 B(  1-C ,  4-C ) :  -0.2426 B(  1-C ,  5-C ) :   0.2866
B(  1-C , 14-N ) :  -0.1763 B(  1-C , 17-H ) :   0.3785 B(  1-C , 18-H ) :  -0.1019
B(  2-C ,  3-C ) :   0.6019 B(  2-C ,  4-C ) :  -0.3187 B(  2-C , 14-N ) :   1.3522
B(  2-C , 15-O ) :   0.4184 B(  2-C , 16-O ) :   0.4371 B(  3-C ,  4-C ) :   0.9196
B(  3-C ,  5-C ) :   0.3242 B(  3-C , 12-H ) :  -0.1070 B(  3-C , 13-H ) :   0.4418
B(  3-C , 14-N ) :  -0.2545 B(  4-C ,  5-C ) :   0.3210 B(  4-C ,  6-C ) :   0.2183
B(  4-C , 12-H ) :   1.5515 B(  4-C , 15-O ) :  -0.1197 B(  5-C ,  6-C ) :   0.3029
B(  5-C ,  7-O ) :   0.2903 B(  5-C , 12-H ) :  -0.2882 B(  5-C , 18-H ) :  -0.1954
B(  6-C ,  7-O ) :   0.6812 B(  6-C ,  8-C ) :   0.9201 B(  7-O , 18-H ) :   0.1598
B(  8-C ,  9-H ) :   0.9709 B(  8-C , 10-H ) :   0.9560 B(  8-C , 11-H ) :   0.9710
B( 14-N , 15-O ) :   0.8370 B( 14-N , 16-O ) :   0.8308 B( 15-O , 16-O ) :   0.1085

Dispersion correction           -0.006323474
FINAL SINGLE POINT ENERGY      -589.464603851520

DIPOLE MOMENT
-------------

Method             : SCF
Type of density    : Electron Density
Multiplicity       :   2
Irrep              :   0
Energy             :  -589.4582803772275383 Eh
Relativity type    :
Basis              : AO
                                X                 Y                 Z
Electronic contribution:     -8.357064024      -3.006663261       0.005650091
Nuclear contribution   :     10.845568770       4.317310741      -0.007525614
                        -----------------------------------------
Total Dipole Moment    :      2.488504746       1.310647481      -0.001875523
                        -----------------------------------------
Magnitude (a.u.)       :      2.812553325
Magnitude (Debye)      :      7.148942417

Rotational constants in cm-1:             0.095337             0.015839             0.013617
Rotational constants in MHz :          2858.135441           474.832890           408.233574

                             ****ORCA TERMINATED NORMALLY****
TOTAL RUN TIME: 0 days 0 hours 4 minutes 54 seconds 442 msec
