                         Program Version 6.0.0  -   RELEASE  -
|  1> !PBE0 opt aug-cc-pVTZ d3 TightSCF SlowConv RIJCOSX defgrid2
|  2>
|  3> %pal
|  4> nprocs 8
|  5> end
|  6>
|  7> %scf
|  8> MaxIter 1500
|  9> end
| 10>
| 11> %maxcore 3500
| 12>
| 13> !CPCM
| 14> %cpcm smd true
| 15> SMDsolvent "MeCN"
| 16> surfacetype gepol_ses
| 17> rsolv 2.19
| 18> end
| 19>
| 20> * xyz 1 2
| 21>   C           1.35794743520226     -0.82343888149801      0.62503760179032
| 22>   C           2.62204331912480     -1.37307199623954      0.64438113329288
| 23>   C           3.70270383764418     -0.68068705785656      0.08692020761960
| 24>   C           3.52324007079477      0.59024413297470     -0.47563343780460
| 25>   C           2.27340518345818      1.16739244083210     -0.49151833267991
| 26>   C           1.19323039834760      0.43962597955069      0.03135934728270
| 27>   O           0.00003211824627      1.08120388224264     -0.00076687011237
| 28>   C          -1.19323879973706      0.43958560398753     -0.03220584762976
| 29>   C          -2.27316379728189      1.16730127356112      0.49116060629424
| 30>   C          -3.52298315014212      0.59004715952487      0.47604715363499
| 31>   C          -3.70269109288860     -0.68092930740974     -0.08628673734290
| 32>   C          -2.62227913460788     -1.37327206027011     -0.64424697036890
| 33>   C          -1.35819304380854     -0.82351032694728     -0.62564656217702
| 34>   H          -0.52538189795899     -1.31860043211393     -1.10576384382373
| 35>   H          -2.78080278528441     -2.33252724969744     -1.11891466447988
| 36>   H          -4.69109841631453     -1.12097691071492     -0.11285256134953
| 37>   H          -4.36662162926436      1.12022838265468      0.89754597610327
| 38>   H          -2.09413528429913      2.14499850675855      0.91871836965091
| 39>   H           2.09450056697748      2.14501886710762     -0.91928894401230
| 40>   H           4.36709812494520      1.12043478066670     -0.89667689047034
| 41>   H           4.69112624309043     -1.12066773457928      0.11405827295894
| 42>   H           2.78043761217983     -2.33224411125622      1.11926027373183
| 43>   H           0.52485492157650     -1.31839924127816      1.10477831989159
| 44> *
| 45>
| 46>                          ****END OF INPUT****
 Total Charge           Charge          ....    1
 Multiplicity           Mult            ....    2
 Number of Electrons    NEL             ....   89
Dispersion correction           -0.023638360
FINAL SINGLE POINT ENERGY      -537.880833242655
Dispersion correction             ... done (  0.1 sec)
Dispersion correction           -0.023753039
FINAL SINGLE POINT ENERGY      -537.881007159291
Dispersion correction             ... done (  0.0 sec)
Dispersion correction           -0.023726908
FINAL SINGLE POINT ENERGY      -537.881037749001
Dispersion correction             ... done (  0.0 sec)
FINAL SINGLE POINT ENERGY      -537.881130585073
FINAL SINGLE POINT ENERGY      -537.881144708058
Dispersion correction             ... done (  0.0 sec)
Dispersion correction           -0.023706673
FINAL SINGLE POINT ENERGY      -537.881135377063
Dispersion correction             ... done (  0.1 sec)
Dispersion correction           -0.023700341
FINAL SINGLE POINT ENERGY      -537.881133208603
Dispersion correction             ... done (  0.0 sec)
                    ***********************HURRAY********************

CARTESIAN COORDINATES (ANGSTROEM)
---------------------------------
  C      1.354232   -0.831202    0.607486
  C      2.615482   -1.379199    0.620288
  C      3.693053   -0.677763    0.078932
  C      3.514835    0.599562   -0.460648
  C      2.267394    1.173087   -0.471525
  C      1.186404    0.438134    0.033654
  O      0.000036    1.068792   -0.000354
  C     -1.186452    0.438062   -0.033948
  C     -2.267315    1.173036    0.471285
  C     -3.514784    0.599466    0.460699
  C     -3.693062   -0.677880   -0.078764
  C     -2.615575   -1.379279   -0.620286
  C     -1.354296   -0.831259   -0.607638
  H     -0.521947   -1.335142   -1.078884
  H     -2.773734   -2.346731   -1.077554
  H     -4.681942   -1.117141   -0.099853
  H     -4.359916    1.138195    0.867668
  H     -2.089599    2.157652    0.883036
  H      2.089681    2.157608   -0.883507
  H      4.360061    1.138235   -0.867505
  H      4.681958   -1.116954    0.100278
  H      2.773662   -2.346538    1.077835
  H      0.521854   -1.334985    1.078771

 Multiplicity           Mult            ....    2
 Number of Electrons    NEL             ....   89
 Basis Dimension        Dim             ....  828

ORBITAL ENERGIES
----------------
                 SPIN UP ORBITALS
  NO   OCC          E(Eh)            E(eV)
   0   1.0000     -19.346154      -526.4356
   1   1.0000     -10.345963      -281.5280
   2   1.0000     -10.345912      -281.5266
   3   1.0000     -10.271225      -279.4942
   4   1.0000     -10.271185      -279.4931
   5   1.0000     -10.269247      -279.4404
   6   1.0000     -10.269199      -279.4391
   7   1.0000     -10.266861      -279.3755
   8   1.0000     -10.266841      -279.3749
   9   1.0000     -10.259004      -279.1617
  10   1.0000     -10.258996      -279.1615
  11   1.0000     -10.258934      -279.1598
  12   1.0000     -10.258931      -279.1597
  13   1.0000      -1.207015       -32.8446
  14   1.0000      -0.936884       -25.4939
  15   1.0000      -0.917354       -24.9625
  16   1.0000      -0.840935       -22.8830
  17   1.0000      -0.817331       -22.2407
  18   1.0000      -0.809502       -22.0277
  19   1.0000      -0.786155       -21.3924
  20   1.0000      -0.711634       -19.3645
  21   1.0000      -0.680373       -18.5139
  22   1.0000      -0.658899       -17.9295
  23   1.0000      -0.633790       -17.2463
  24   1.0000      -0.604653       -16.4534
  25   1.0000      -0.560409       -15.2495
  26   1.0000      -0.546432       -14.8692
  27   1.0000      -0.543856       -14.7991
  28   1.0000      -0.533299       -14.5118
  29   1.0000      -0.491309       -13.3692
  30   1.0000      -0.486935       -13.2502
  31   1.0000      -0.473796       -12.8927
  32   1.0000      -0.473148       -12.8750
  33   1.0000      -0.463657       -12.6167
  34   1.0000      -0.459268       -12.4973
  35   1.0000      -0.425228       -11.5710
  36   1.0000      -0.410733       -11.1766
  37   1.0000      -0.407806       -11.0970
  38   1.0000      -0.400903       -10.9091
  39   1.0000      -0.383040       -10.4230
  40   1.0000      -0.381298       -10.3756
  41   1.0000      -0.312001        -8.4900
  42   1.0000      -0.307921        -8.3789
  43   1.0000      -0.303507        -8.2589
  44   1.0000      -0.278691        -7.5836
  45   0.0000      -0.055682        -1.5152
  46   0.0000      -0.042585        -1.1588
  47   0.0000      -0.035615        -0.9691
  48   0.0000      -0.027872        -0.7584
  49   0.0000      -0.002517        -0.0685

                 SPIN DOWN ORBITALS
  NO   OCC          E(Eh)            E(eV)
   0   1.0000     -19.338546      -526.2286
   1   1.0000     -10.345094      -281.5043
   2   1.0000     -10.345048      -281.5031
   3   1.0000     -10.269323      -279.4425
   4   1.0000     -10.269283      -279.4414
   5   1.0000     -10.265810      -279.3469
   6   1.0000     -10.265769      -279.3458
   7   1.0000     -10.265257      -279.3318
   8   1.0000     -10.265238      -279.3313
   9   1.0000     -10.259970      -279.1880
  10   1.0000     -10.259961      -279.1877
  11   1.0000     -10.259740      -279.1817
  12   1.0000     -10.259736      -279.1816
  13   1.0000      -1.193323       -32.4720
  14   1.0000      -0.931845       -25.3568
  15   1.0000      -0.912266       -24.8240
  16   1.0000      -0.835979       -22.7482
  17   1.0000      -0.814813       -22.1722
  18   1.0000      -0.807166       -21.9641
  19   1.0000      -0.776698       -21.1350
  20   1.0000      -0.705957       -19.2101
  21   1.0000      -0.678160       -18.4537
  22   1.0000      -0.654978       -17.8229
  23   1.0000      -0.630450       -17.1554
  24   1.0000      -0.602342       -16.3906
  25   1.0000      -0.557433       -15.1685
  26   1.0000      -0.540831       -14.7168
  27   1.0000      -0.533068       -14.5055
  28   1.0000      -0.522829       -14.2269
  29   1.0000      -0.485248       -13.2043
  30   1.0000      -0.485130       -13.2011
  31   1.0000      -0.471295       -12.8246
  32   1.0000      -0.471133       -12.8202
  33   1.0000      -0.458722       -12.4825
  34   1.0000      -0.453015       -12.3272
  35   1.0000      -0.414122       -11.2688
  36   1.0000      -0.409167       -11.1340
  37   1.0000      -0.399881       -10.8813
  38   1.0000      -0.392604       -10.6833
  39   1.0000      -0.378504       -10.2996
  40   1.0000      -0.374987       -10.2039
  41   1.0000      -0.304182        -8.2772
  42   1.0000      -0.299017        -8.1367
  43   1.0000      -0.283392        -7.7115
  44   0.0000      -0.202076        -5.4988
  45   0.0000      -0.043064        -1.1718
  46   0.0000      -0.034868        -0.9488
  47   0.0000      -0.026525        -0.7218
  48   0.0000      -0.009547        -0.2598

MULLIKEN ATOMIC CHARGES AND SPIN POPULATIONS
--------------------------------------------
   0 C :   -0.506687    0.102138
   1 C :   -0.738950   -0.058771
   2 C :   -0.598176    0.209073
   3 C :   -0.482387   -0.041034
   4 C :   -1.052374    0.075666
   5 C :    1.239463    0.098957
   6 O :   -0.683631    0.240444
   7 C :    1.247767    0.098019
   8 C :   -1.059873    0.075370
   9 C :   -0.487684   -0.041148
  10 C :   -0.587339    0.208769
  11 C :   -0.746879   -0.058603
  12 C :   -0.508666    0.101999
  13 H :    0.691438   -0.005714
  14 H :    0.534971    0.003642
  15 H :    0.651478    0.004891
  16 H :    0.521414    0.001212
  17 H :    0.586229   -0.009049
  18 H :    0.589129   -0.009353
  19 H :    0.520922    0.001082
  20 H :    0.639383    0.004791
  21 H :    0.538708    0.003768
  22 H :    0.691744   -0.006151
Sum of atomic charges         :    1.0000000

LOEWDIN ATOMIC CHARGES AND SPIN POPULATIONS
-------------------------------------------
   0 C :    0.245405    0.067446
   1 C :    0.246803    0.023137
   2 C :    0.253241    0.104803
   3 C :    0.238883    0.025361
   4 C :    0.255796    0.057764
   5 C :   -0.325101    0.085879
   6 O :    0.696282    0.193789
   7 C :   -0.325019    0.085691
   8 C :    0.255778    0.057679
   9 C :    0.238840    0.025309
  10 C :    0.253149    0.104589
  11 C :    0.246803    0.023089
  12 C :    0.245252    0.067383
  13 H :   -0.158399    0.011978
  14 H :   -0.152301   -0.004132
  15 H :   -0.150273    0.025177
  16 H :   -0.154359   -0.003421
  17 H :   -0.147873    0.009413
  18 H :   -0.147855    0.009422
  19 H :   -0.154328   -0.003423
  20 H :   -0.150242    0.025226
  21 H :   -0.152280   -0.004135
  22 H :   -0.158203    0.011976

  Mayer bond orders larger than 0.100000
B(  0-C ,  1-C ) :   1.3560 B(  0-C ,  4-C ) :   0.1943 B(  0-C ,  5-C ) :   0.8352
B(  0-C , 12-C ) :   0.2026 B(  0-C , 22-H ) :   0.2874 B(  1-C ,  2-C ) :   1.4017
B(  1-C ,  5-C ) :  -0.3134 B(  1-C , 16-H ) :   0.1059 B(  1-C , 21-H ) :   0.5878
B(  2-C ,  3-C ) :   1.2950 B(  2-C ,  4-C ) :   0.3254 B(  2-C , 20-H ) :   0.3641
B(  3-C ,  4-C ) :   1.5071 B(  3-C ,  5-C ) :  -0.3788 B(  3-C , 16-H ) :  -0.1365
B(  3-C , 19-H ) :   0.6035 B(  4-C ,  5-C ) :   0.4676 B(  4-C ,  6-O ) :   0.2601
B(  4-C , 18-H ) :   0.2227 B(  5-C ,  6-O ) :   0.7379 B(  6-O ,  7-C ) :   0.7465
B(  6-O ,  8-C ) :   0.2501 B(  7-C ,  8-C ) :   0.4611 B(  7-C ,  9-C ) :  -0.3790
B(  7-C , 11-C ) :  -0.3163 B(  7-C , 12-C ) :   0.8394 B(  8-C ,  9-C ) :   1.5238
B(  8-C , 10-C ) :   0.3377 B(  8-C , 12-C ) :   0.1838 B(  8-C , 17-H ) :   0.2270
B(  9-C , 10-C ) :   1.2874 B(  9-C , 16-H ) :   0.6061 B( 10-C , 11-C ) :   1.4102
B( 10-C , 12-C ) :   0.1032 B( 10-C , 15-H ) :   0.3435 B( 11-C , 12-C ) :   1.3627
B( 11-C , 14-H ) :   0.5909 B( 12-C , 13-H ) :   0.2888 B( 12-C , 22-H ) :  -0.1011

Dispersion correction           -0.023697101
FINAL SINGLE POINT ENERGY      -537.881131030402

DIPOLE MOMENT
-------------

Method             : SCF
Type of density    : Electron Density
Multiplicity       :   2
Irrep              :   0
Energy             :  -537.8574339297018696 Eh
Relativity type    :
Basis              : AO
                                X                 Y                 Z
Electronic contribution:      0.001820149       2.200372292       0.001467201
Nuclear contribution   :      0.000094713      -2.682273649       0.000868768
                        -----------------------------------------
Total Dipole Moment    :      0.001914862      -0.481901356       0.002335969
                        -----------------------------------------
Magnitude (a.u.)       :      0.481910822
Magnitude (Debye)      :      1.224919964

Rotational constants in cm-1:             0.082795             0.014866             0.013331
Rotational constants in MHz :          2482.135620           445.664357           399.649085

                             ****ORCA TERMINATED NORMALLY****
TOTAL RUN TIME: 0 days 1 hours 12 minutes 2 seconds 469 msec
