                         Program Version 6.0.0  -   RELEASE  -
|  1> !PBE0 def2-SV(p) Opt Freq d3 TightSCF SlowConv RIJCOSX defgrid2
|  2>
|  3> %pal
|  4> nprocs 4
|  5> end
|  6>
|  7> %scf
|  8> MaxIter 1500
|  9> end
| 10>
| 11> %maxcore 3000
| 12>
| 13>
| 14>
| 15> * xyz 0 1
| 16> N    -0.0092727    0.0335381    0.2421404
| 17> C    -1.3819199   -0.0541965    0.6920732
| 18> C    -2.4562669    0.3037949   -0.3461421
| 19> H    -3.4440495    0.1606501    0.0842496
| 20> H    -2.3702698   -0.3279387   -1.2276681
| 21> H    -2.3601479    1.3416180   -0.6562472
| 22> H    -1.5455578   -1.0776515    1.0390920
| 23> H    -1.4906826    0.6103122    1.5556041
| 24> C     0.4088024   -1.0560407   -0.6249622
| 25> C     1.1230338   -2.1442730    0.1772062
| 26> H     0.4586506   -2.5541561    0.9333393
| 27> H     1.4426875   -2.9489434   -0.4809181
| 28> H     1.9926438   -1.7269136    0.6765108
| 29> H    -0.4477487   -1.5024132   -1.1493118
| 30> H     1.0897836   -0.6717470   -1.3886460
| 31> C     0.4102973    1.3533312   -0.1847277
| 32> C     1.8967034    1.5734963    0.0917336
| 33> H     2.5076917    0.8892163   -0.4908750
| 34> H     2.1016147    1.4057929    1.1453598
| 35> H     2.1757071    2.5922565   -0.1666261
| 36> H     0.2079454    1.5337855   -1.2557781
| 37> H    -0.1612500    2.0862179    0.3901756
| 38> *
| 39>
| 40>                          ****END OF INPUT****
 Total Charge           Charge          ....    0
 Multiplicity           Mult            ....    1
 Number of Electrons    NEL             ....   58
Dispersion correction           -0.016073793
FINAL SINGLE POINT ENERGY      -291.821277734265
Dispersion correction             ... done (  0.1 sec)
Dispersion correction           -0.015967717
FINAL SINGLE POINT ENERGY      -291.823949129858
Dispersion correction             ... done (  0.1 sec)
Dispersion correction           -0.015952802
FINAL SINGLE POINT ENERGY      -291.824218684126
Dispersion correction             ... done (  0.1 sec)
FINAL SINGLE POINT ENERGY      -291.824346650062
FINAL SINGLE POINT ENERGY      -291.824373673992
FINAL SINGLE POINT ENERGY      -291.824447774112
FINAL SINGLE POINT ENERGY      -291.824429817168
FINAL SINGLE POINT ENERGY      -291.824565067766
FINAL SINGLE POINT ENERGY      -291.824641584479
FINAL SINGLE POINT ENERGY      -291.824784951170
FINAL SINGLE POINT ENERGY      -291.824877484250
FINAL SINGLE POINT ENERGY      -291.824975517189
FINAL SINGLE POINT ENERGY      -291.825086761508
FINAL SINGLE POINT ENERGY      -291.825147702027
FINAL SINGLE POINT ENERGY      -291.825183738511
FINAL SINGLE POINT ENERGY      -291.825194921825
Dispersion correction             ... done (  0.1 sec)
Dispersion correction           -0.016077521
FINAL SINGLE POINT ENERGY      -291.825199428112
Dispersion correction             ... done (  0.1 sec)
Dispersion correction           -0.016076949
FINAL SINGLE POINT ENERGY      -291.825200500509
Dispersion correction             ... done (  0.1 sec)
                    ***********************HURRAY********************

CARTESIAN COORDINATES (ANGSTROEM)
---------------------------------
  N      0.159759    0.124451    0.316043
  C     -1.191133   -0.038666    0.816547
  C     -2.314047   -0.013925   -0.221160
  H     -3.297128   -0.110502    0.272163
  H     -2.223744   -0.842990   -0.944956
  H     -2.317663    0.931310   -0.792412
  H     -1.241188   -0.983675    1.385318
  H     -1.364144    0.760902    1.559629
  C      0.625471   -0.928692   -0.561881
  C      0.595101   -2.313110    0.065275
  H     -0.432173   -2.685385    0.219373
  H      1.110730   -3.037353   -0.588213
  H      1.105948   -2.300613    1.043690
  H      0.066365   -0.947382   -1.529026
  H      1.669891   -0.696877   -0.829743
  C      0.446636    1.452595   -0.187180
  C      1.911687    1.845759   -0.056844
  H      2.571790    1.218478   -0.680089
  H      2.239768    1.745591    0.991763
  H      2.058903    2.892535   -0.375238
  H      0.124059    1.580408   -1.248139
  H     -0.156493    2.166877    0.400661

 Multiplicity           Mult            ....    1
 Number of Electrons    NEL             ....   58
 Basis Dimension        Dim             ....  128

ORBITAL ENERGIES
----------------

  NO   OCC          E(Eh)            E(eV)
   0   2.0000     -14.371530      -391.0692
   1   2.0000     -10.245781      -278.8019
   2   2.0000     -10.245100      -278.7833
   3   2.0000     -10.245002      -278.7807
   4   2.0000     -10.215043      -277.9654
   5   2.0000     -10.213577      -277.9256
   6   2.0000     -10.212699      -277.9017
   7   2.0000      -0.939565       -25.5669
   8   2.0000      -0.774945       -21.0873
   9   2.0000      -0.769856       -20.9488
  10   2.0000      -0.716550       -19.4983
  11   2.0000      -0.645970       -17.5777
  12   2.0000      -0.627952       -17.0874
  13   2.0000      -0.557771       -15.1777
  14   2.0000      -0.502476       -13.6731
  15   2.0000      -0.488428       -13.2908
  16   2.0000      -0.465395       -12.6640
  17   2.0000      -0.449212       -12.2237
  18   2.0000      -0.424408       -11.5487
  19   2.0000      -0.410519       -11.1708
  20   2.0000      -0.402258       -10.9460
  21   2.0000      -0.386830       -10.5262
  22   2.0000      -0.380289       -10.3482
  23   2.0000      -0.370850       -10.0913
  24   2.0000      -0.358943        -9.7673
  25   2.0000      -0.351511        -9.5651
  26   2.0000      -0.342230        -9.3126
  27   2.0000      -0.330903        -9.0043
  28   2.0000      -0.212528        -5.7832
  29   0.0000       0.062807         1.7091
  30   0.0000       0.082647         2.2489
  31   0.0000       0.093227         2.5368
  32   0.0000       0.100912         2.7460
  33   0.0000       0.126101         3.4314

MULLIKEN ATOMIC CHARGES
-----------------------
   0 N :   -0.365161
   1 C :   -0.126029
   2 C :   -0.374403
   3 H :    0.124505
   4 H :    0.131424
   5 H :    0.130289
   6 H :    0.119457
   7 H :    0.113954
   8 C :   -0.119604
   9 C :   -0.350247
  10 H :    0.131078
  11 H :    0.125724
  12 H :    0.131394
  13 H :    0.087994
  14 H :    0.113725
  15 C :   -0.113379
  16 C :   -0.335439
  17 H :    0.128699
  18 H :    0.126792
  19 H :    0.120737
  20 H :    0.088636
  21 H :    0.109852
Sum of atomic charges:   -0.0000000

LOEWDIN ATOMIC CHARGES
----------------------
   0 N :   -0.166148
   1 C :   -0.166237
   2 C :   -0.367867
   3 H :    0.123733
   4 H :    0.120091
   5 H :    0.120466
   6 H :    0.112701
   7 H :    0.112841
   8 C :   -0.162571
   9 C :   -0.353267
  10 H :    0.118076
  11 H :    0.125056
  12 H :    0.125041
  13 H :    0.088566
  14 H :    0.114047
  15 C :   -0.160500
  16 C :   -0.352683
  17 H :    0.117662
  18 H :    0.123129
  19 H :    0.122107
  20 H :    0.091490
  21 H :    0.114267

  Mayer bond orders larger than 0.100000
B(  0-N ,  1-C ) :   1.0454 B(  0-N ,  8-C ) :   1.0148 B(  0-N , 15-C ) :   1.0061
B(  1-C ,  2-C ) :   1.0856 B(  1-C ,  6-H ) :   0.9351 B(  1-C ,  7-H ) :   0.9388
B(  2-C ,  3-H ) :   0.9491 B(  2-C ,  4-H ) :   0.9458 B(  2-C ,  5-H ) :   0.9496
B(  8-C ,  9-C ) :   1.1264 B(  8-C , 13-H ) :   0.9134 B(  8-C , 14-H ) :   0.9295
B(  9-C , 10-H ) :   0.9464 B(  9-C , 11-H ) :   0.9497 B(  9-C , 12-H ) :   0.9469
B( 15-C , 16-C ) :   1.1285 B( 15-C , 20-H ) :   0.9144 B( 15-C , 21-H ) :   0.9326
B( 16-C , 17-H ) :   0.9450 B( 16-C , 18-H ) :   0.9504 B( 16-C , 19-H ) :   0.9490

Dispersion correction           -0.016077663
FINAL SINGLE POINT ENERGY      -291.825201393650

DIPOLE MOMENT
-------------

Method             : SCF
Type of density    : Electron Density
Multiplicity       :   1
Irrep              :   0
Energy             :  -291.8091237308115069 Eh
Relativity type    :
Basis              : AO
                                X                 Y                 Z
Electronic contribution:      0.373988282       0.510152566       1.124943897
Nuclear contribution   :     -0.501506717      -0.494754897      -1.261304975
                        -----------------------------------------
Total Dipole Moment    :     -0.127518435       0.015397669      -0.136361078
                        -----------------------------------------
Magnitude (a.u.)       :      0.187329611
Magnitude (Debye)      :      0.476154030

VIBRATIONAL FREQUENCIES
-----------------------

Scaling factor for frequencies =  1.000000000  (already applied!)

     0:       0.00 cm**-1
     1:       0.00 cm**-1
     2:       0.00 cm**-1
     3:       0.00 cm**-1
     4:       0.00 cm**-1
     5:       0.00 cm**-1
     6:      55.27 cm**-1
     7:      81.08 cm**-1
     8:     114.43 cm**-1
     9:     189.89 cm**-1
    10:     230.54 cm**-1
    11:     248.62 cm**-1
    12:     278.68 cm**-1
    13:     315.07 cm**-1
    14:     346.98 cm**-1
    15:     427.64 cm**-1
    16:     486.09 cm**-1
    17:     536.09 cm**-1
    18:     767.08 cm**-1
    19:     787.89 cm**-1
    20:     807.16 cm**-1
    21:     820.38 cm**-1
    22:     935.75 cm**-1
    23:     951.73 cm**-1
    24:    1046.28 cm**-1
    25:    1088.81 cm**-1
    26:    1096.87 cm**-1
    27:    1115.07 cm**-1
    28:    1125.05 cm**-1
    29:    1138.72 cm**-1
    30:    1167.10 cm**-1
    31:    1252.94 cm**-1
    32:    1270.45 cm**-1
    33:    1318.89 cm**-1
    34:    1336.01 cm**-1
    35:    1373.90 cm**-1
    36:    1389.57 cm**-1
    37:    1393.53 cm**-1
    38:    1394.93 cm**-1
    39:    1409.90 cm**-1
    40:    1429.46 cm**-1
    41:    1437.16 cm**-1
    42:    1464.21 cm**-1
    43:    1474.16 cm**-1
    44:    1474.91 cm**-1
    45:    1481.02 cm**-1
    46:    1483.44 cm**-1
    47:    1486.75 cm**-1
    48:    1494.58 cm**-1
    49:    1498.58 cm**-1
    50:    1514.73 cm**-1
    51:    2919.11 cm**-1
    52:    2930.01 cm**-1
    53:    3036.95 cm**-1
    54:    3041.82 cm**-1
    55:    3042.07 cm**-1
    56:    3047.23 cm**-1
    57:    3078.24 cm**-1
    58:    3092.73 cm**-1
    59:    3093.96 cm**-1
    60:    3128.82 cm**-1
    61:    3130.97 cm**-1
    62:    3132.94 cm**-1
    63:    3135.76 cm**-1
    64:    3139.04 cm**-1
    65:    3142.13 cm**-1

IR SPECTRUM
-----------

 Mode   freq       eps      Int      T**2         TX        TY        TZ
       cm**-1   L/(mol*cm) km/mol    a.u.
----------------------------------------------------------------------------
  6:     55.27   0.000011    0.05  0.000061  (-0.005502  0.005400  0.001396)
  7:     81.08   0.000051    0.26  0.000197  ( 0.009782  0.008356 -0.005594)
  8:    114.43   0.000052    0.26  0.000142  ( 0.002832  0.011244  0.002837)
  9:    189.89   0.000334    1.69  0.000549  (-0.014261  0.004713 -0.017970)
 10:    230.54   0.000009    0.05  0.000013  (-0.000678  0.001367  0.003193)
 11:    248.62   0.000027    0.13  0.000033  (-0.005442  0.000376 -0.001895)
 12:    278.68   0.000030    0.15  0.000033  ( 0.002186 -0.005323  0.000451)
 13:    315.07   0.000241    1.22  0.000238  ( 0.010025 -0.000834  0.011709)
 14:    346.98   0.000172    0.87  0.000155  ( 0.001819  0.009476 -0.007839)
 15:    427.64   0.000406    2.05  0.000297  (-0.011650  0.006233 -0.011044)
 16:    486.09   0.000491    2.48  0.000315  (-0.014556  0.009780 -0.002746)
 17:    536.09   0.001260    6.37  0.000734  ( 0.014345  0.007571  0.021693)
 18:    767.08   0.001576    7.96  0.000641  ( 0.016592 -0.003316  0.018838)
 19:    787.89   0.001128    5.70  0.000447  ( 0.000083 -0.018736 -0.009787)
 20:    807.16   0.000428    2.16  0.000165  ( 0.011426  0.001272 -0.005769)
 21:    820.38   0.000288    1.46  0.000110  ( 0.003957  0.009336  0.002597)
 22:    935.75   0.000169    0.85  0.000056  ( 0.006204 -0.004212 -0.000056)
 23:    951.73   0.000118    0.60  0.000039  ( 0.002317 -0.005769 -0.000139)
 24:   1046.28   0.002248   11.36  0.000671  ( 0.019811  0.000206  0.016675)
 25:   1088.81   0.000155    0.78  0.000044  (-0.003929 -0.003595 -0.004012)
 26:   1096.87   0.000171    0.86  0.000049  ( 0.003870 -0.001304  0.005643)
 27:   1115.07   0.000302    1.53  0.000085  (-0.000864 -0.002391 -0.008841)
 28:   1125.05   0.004538   22.93  0.001259  (-0.011149 -0.033576 -0.002664)
 29:   1138.72   0.004156   21.00  0.001139  ( 0.026409  0.010425 -0.018243)
 30:   1167.10   0.002812   14.21  0.000752  ( 0.007410 -0.017729  0.019562)
 31:   1252.94   0.005425   27.42  0.001351  (-0.013491 -0.033845  0.004868)
 32:   1270.45   0.005191   26.23  0.001275  (-0.026943  0.006057  0.022637)
 33:   1318.89   0.000546    2.76  0.000129  ( 0.006202 -0.008601  0.004090)
 34:   1336.01   0.006074   30.70  0.001419  ( 0.013683 -0.031501 -0.015469)
 35:   1373.90   0.002156   10.90  0.000490  ( 0.018085  0.012237 -0.003590)
 36:   1389.57   0.002859   14.45  0.000642  (-0.006305  0.018441  0.016197)
 37:   1393.53   0.000462    2.33  0.000103  ( 0.000132  0.010076 -0.001384)
 38:   1394.93   0.000887    4.48  0.000198  ( 0.005047  0.011828  0.005752)
 39:   1409.90   0.007685   38.84  0.001701  (-0.040223  0.004610 -0.007866)
 40:   1429.46   0.007357   37.18  0.001606  (-0.031982 -0.023917  0.003338)
 41:   1437.16   0.004344   21.95  0.000943  (-0.001134  0.030310 -0.004823)
 42:   1464.21   0.001358    6.86  0.000289  (-0.001080 -0.001415 -0.016919)
 43:   1474.16   0.001040    5.26  0.000220  (-0.004034  0.013929  0.003147)
 44:   1474.91   0.001079    5.45  0.000228  ( 0.001748 -0.001795 -0.014898)
 45:   1481.02   0.000292    1.48  0.000062  (-0.007644  0.000118 -0.001751)
 46:   1483.44   0.001196    6.04  0.000252  ( 0.012337  0.009180 -0.003879)
 47:   1486.75   0.000749    3.78  0.000157  ( 0.002920 -0.000650 -0.012176)
 48:   1494.58   0.000448    2.27  0.000094  ( 0.001350 -0.007790  0.005577)
 49:   1498.58   0.002499   12.63  0.000520  (-0.019694  0.002024  0.011336)
 50:   1514.73   0.000353    1.78  0.000073  ( 0.003820 -0.004878  0.005854)
 51:   2919.11   0.009726   49.15  0.001040  ( 0.004506  0.011244  0.029884)
 52:   2930.01   0.020604  104.12  0.002194  ( 0.014603 -0.017083  0.041102)
 53:   3036.95   0.003443   17.40  0.000354  ( 0.015579  0.000599  0.010524)
 54:   3041.82   0.002475   12.51  0.000254  ( 0.005613 -0.014784 -0.001964)
 55:   3042.07   0.003734   18.87  0.000383  (-0.016085 -0.011104  0.000972)
 56:   3047.23   0.006880   34.77  0.000705  (-0.005740 -0.005444  0.025338)
 57:   3078.24   0.003280   16.58  0.000333  (-0.010016  0.008593  0.012586)
 58:   3092.73   0.003378   17.07  0.000341  (-0.014303 -0.011488  0.002066)
 59:   3093.96   0.002761   13.95  0.000278  (-0.008721  0.014225 -0.000296)
 60:   3128.82   0.004558   23.03  0.000455  ( 0.014627  0.000294 -0.015511)
 61:   3130.97   0.002911   14.71  0.000290  (-0.004452  0.016440  0.000025)
 62:   3132.94   0.008663   43.78  0.000863  (-0.001866  0.029133  0.003267)
 63:   3135.76   0.006321   31.94  0.000629  ( 0.023514 -0.004597 -0.007419)
 64:   3139.04   0.003288   16.62  0.000327  (-0.008191 -0.008014 -0.013984)
 65:   3142.13   0.004234   21.40  0.000420  ( 0.004461  0.000644 -0.020004)

--------------------------
THERMOCHEMISTRY AT 298.15K
--------------------------

Temperature         ...   298.15 K
Pressure            ...     1.00 atm
Total Mass          ...   101.19 AMU
Quasi RRHO          ...     True
Cut-Off Frequency   ...     1.00 cm^-1

Throughout the following assumptions are being made:
  (1) The electronic state is orbitally nondegenerate
  (2) There are no thermally accessible electronically excited states
  (3) Hindered rotations indicated by low frequency modes are not
      treated as such but are treated as vibrations and this may
      cause some error
  (4) All equations used are the standard statistical mechanics
      equations for an ideal gas
  (5) All vibrations are strictly harmonic

freq.      55.27  E(vib)   ...       0.52
freq.      81.08  E(vib)   ...       0.48
freq.     114.43  E(vib)   ...       0.44
freq.     189.89  E(vib)   ...       0.36
freq.     230.54  E(vib)   ...       0.32
freq.     248.62  E(vib)   ...       0.31
freq.     278.68  E(vib)   ...       0.28
freq.     315.07  E(vib)   ...       0.25
freq.     346.98  E(vib)   ...       0.23
freq.     427.64  E(vib)   ...       0.18
freq.     486.09  E(vib)   ...       0.15
freq.     536.09  E(vib)   ...       0.12
freq.     767.08  E(vib)   ...       0.06
freq.     787.89  E(vib)   ...       0.05
freq.     807.16  E(vib)   ...       0.05
freq.     820.38  E(vib)   ...       0.05
freq.     935.75  E(vib)   ...       0.03
freq.     951.73  E(vib)   ...       0.03
freq.    1046.28  E(vib)   ...       0.02
freq.    1088.81  E(vib)   ...       0.02
freq.    1096.87  E(vib)   ...       0.02
freq.    1115.07  E(vib)   ...       0.01
freq.    1125.05  E(vib)   ...       0.01
freq.    1138.72  E(vib)   ...       0.01
freq.    1167.10  E(vib)   ...       0.01
freq.    1252.94  E(vib)   ...       0.01
freq.    1270.45  E(vib)   ...       0.01
freq.    1318.89  E(vib)   ...       0.01
freq.    1336.01  E(vib)   ...       0.01
freq.    1373.90  E(vib)   ...       0.01
freq.    1389.57  E(vib)   ...       0.00
freq.    1393.53  E(vib)   ...       0.00
freq.    1394.93  E(vib)   ...       0.00
freq.    1409.90  E(vib)   ...       0.00
freq.    1429.46  E(vib)   ...       0.00
freq.    1437.16  E(vib)   ...       0.00
freq.    1464.21  E(vib)   ...       0.00
freq.    1474.16  E(vib)   ...       0.00
freq.    1474.91  E(vib)   ...       0.00
freq.    1481.02  E(vib)   ...       0.00
freq.    1483.44  E(vib)   ...       0.00
freq.    1486.75  E(vib)   ...       0.00
freq.    1494.58  E(vib)   ...       0.00
freq.    1498.58  E(vib)   ...       0.00
freq.    1514.73  E(vib)   ...       0.00
freq.    2919.11  E(vib)   ...       0.00
freq.    2930.01  E(vib)   ...       0.00
freq.    3036.95  E(vib)   ...       0.00
freq.    3041.82  E(vib)   ...       0.00
freq.    3042.07  E(vib)   ...       0.00
freq.    3047.23  E(vib)   ...       0.00
freq.    3078.24  E(vib)   ...       0.00
freq.    3092.73  E(vib)   ...       0.00
freq.    3093.96  E(vib)   ...       0.00
freq.    3128.82  E(vib)   ...       0.00
freq.    3130.97  E(vib)   ...       0.00
freq.    3132.94  E(vib)   ...       0.00
freq.    3135.76  E(vib)   ...       0.00
freq.    3139.04  E(vib)   ...       0.00
freq.    3142.13  E(vib)   ...       0.00

------------
INNER ENERGY
------------

The inner energy is: U= E(el) + E(ZPE) + E(vib) + E(rot) + E(trans)
    E(el)   - is the total energy from the electronic structure calculation
              = E(kin-el) + E(nuc-el) + E(el-el) + E(nuc-nuc)
    E(ZPE)  - the the zero temperature vibrational energy from the frequency calculation
    E(vib)  - the the finite temperature correction to E(ZPE) due to population
              of excited vibrational states
    E(rot)  - is the rotational thermal energy
    E(trans)- is the translational thermal energy

Summary of contributions to the inner energy U:
Electronic energy                ...   -291.82520139 Eh
Zero point energy                ...      0.20646844 Eh     129.56 kcal/mol
Thermal vibrational correction   ...      0.00653747 Eh       4.10 kcal/mol
Thermal rotational correction    ...      0.00141627 Eh       0.89 kcal/mol
Thermal translational correction ...      0.00141627 Eh       0.89 kcal/mol
-----------------------------------------------------------------------
Total thermal energy                   -291.60936295 Eh

Summary of corrections to the electronic energy:
(perhaps to be used in another calculation)
Total thermal correction                  0.00937001 Eh       5.88 kcal/mol
Non-thermal (ZPE) correction              0.20646844 Eh     129.56 kcal/mol
-----------------------------------------------------------------------
Total correction                          0.21583844 Eh     135.44 kcal/mol

--------
ENTHALPY
--------

The enthalpy is H = U + kB*T
                kB is Boltzmann's constant
Total thermal energy              ...   -291.60936295 Eh
Thermal Enthalpy correction       ...      0.00094421 Eh       0.59 kcal/mol
-----------------------------------------------------------------------
Total Enthalpy                    ...   -291.60841874 Eh

Note: Only C1 symmetry has been detected, increase convergence thresholds
      if your molecule has a higher symmetry. Symmetry factor of 1.0 is
      used for the rotational entropy correction.

Note: Rotational entropy computed according to Herzberg
Infrared and Raman Spectra, Chapter V,1, Van Nostrand Reinhold, 1945
Point Group:  C1, Symmetry Number:   1
Rotational constants in cm-1:     0.094674     0.067966     0.045296

Vibrational entropy computed according to the QRRHO of S. Grimme
Chem.Eur.J. 2012 18 9955 using a reference frequency of 100.0 cm-1

-------
ENTROPY
-------

The entropy contributions are T*S = T*(S(el)+S(vib)+S(rot)+S(trans))
     S(el)   - electronic entropy
     S(vib)  - vibrational entropy
     S(rot)  - rotational entropy
     S(trans)- translational entropy
The entropies will be listed as multiplied by the temperature to get
units of energy

Electronic entropy                ...      0.00000000 Eh      0.00 kcal/mol
Vibrational entropy               ...      0.01129879 Eh      7.09 kcal/mol
Rotational entropy                ...      0.01335391 Eh      8.38 kcal/mol
Translational entropy             ...      0.01888804 Eh     11.85 kcal/mol
-----------------------------------------------------------------------
Final entropy term                ...      0.04354075 Eh     27.32 kcal/mol

In case the symmetry of your molecule has not been determined correctly
or in case you have a reason to use a different symmetry number we print
out the resulting rotational entropy values for sn=1,12:

 non-linear molecules -----------------------------------

                             ****ORCA TERMINATED NORMALLY****
TOTAL RUN TIME: 0 days 0 hours 15 minutes 57 seconds 705 msec
