                         Program Version 6.0.0  -   RELEASE  -
|  1> !r2SCAN aug-cc-pVTZ d3 TightSCF SlowConv RIJCOSX defgrid2
|  2>
|  3> %pal
|  4> nprocs 15
|  5> end
|  6>
|  7> %scf
|  8> MaxIter 1500
|  9> end
| 10>
| 11> %maxcore 3500
| 12>
| 13> !CPCM
| 14> %cpcm smd true
| 15> SMDsolvent "WATER"
| 16> surfacetype gepol_ses
| 17> rsolv 1.40
| 18> end
| 19>
| 20> * xyz 1 1
| 21> O           1.69028117689558      3.37274922443931      1.11633962460164
| 22> N           2.64508834536190      2.69181678814397      1.22297469266331
| 23> C           3.79364432352713      2.91279474875315      0.25576222257425
| 24> C           4.41690502024746      1.55735729533319     -0.09476254953002
| 25> C           4.67733661079369      0.66452443423856      1.10383738520721
| 26> C           3.37045256120440      0.39731336490166      1.83970504256275
| 27> C           2.66799498342616      1.66587031114268      2.34113152200502
| 28> C           4.78664458888588      3.85507766004816      0.96313769772216
| 29> C           3.22421911588956      3.59522010625645     -0.98009687677033
| 30> C           3.40931008600286      2.31997828440322      3.52226317122572
| 31> C           1.22422162814495      1.38082655937204      2.72997366883812
| 32> H           5.34884078835654      1.75906997936546     -0.64631285848774
| 33> H           3.75796437018198      1.02598628901689     -0.80296027442862
| 34> H           5.40042447879038      1.13288543625525      1.79577627089786
| 35> H           3.53775872621371     -0.24608048611092      2.71808872702049
| 36> H           2.68001252116369     -0.14819003704925      1.17146867751790
| 37> H           4.27985954283953      4.75359746707821      1.35111103609992
| 38> H           5.34884375946348      3.37256256672533      1.77397975191263
| 39> H           5.50897207558620      4.17777907092180      0.19549951134991
| 40> H           2.86192360014995      4.61263606074173     -0.76851470910027
| 41> H           2.40394906868267      3.00772813007802     -1.42457373280581
| 42> H           4.03437736873618      3.66442610394421     -1.72341542384058
| 43> H           2.99610733981189      3.31548991868264      3.75198408999862
| 44> H           4.49382233017226      2.39980342242512      3.36909605423605
| 45> H           3.23745517084425      1.67163833982347      4.39703137060060
| 46> H           0.73408005868470      2.25325337031983      3.18793394277703
| 47> H           0.62783916292596      1.05008904763585      1.86346734061458
| 48> H           1.23475255281246      0.56405590576186      3.46909994981412
| 49> C           5.33166078892950     -0.63197308222401      0.65212318052779
| 50> O           5.67009393201701     -0.85879399844318     -0.47432905828358
| 51> O           5.48410818268575     -1.47484874010900      1.67290341721619
| 52> H           5.91800326157221     -2.28673051887174      1.34333539126303
| 53> *
| 54>
| 55>                          ****END OF INPUT****

CARTESIAN COORDINATES (ANGSTROEM)
---------------------------------
  O      1.690281    3.372749    1.116340
  N      2.645088    2.691817    1.222975
  C      3.793644    2.912795    0.255762
  C      4.416905    1.557357   -0.094763
  C      4.677337    0.664524    1.103837
  C      3.370453    0.397313    1.839705
  C      2.667995    1.665870    2.341132
  C      4.786645    3.855078    0.963138
  C      3.224219    3.595220   -0.980097
  C      3.409310    2.319978    3.522263
  C      1.224222    1.380827    2.729974
  H      5.348841    1.759070   -0.646313
  H      3.757964    1.025986   -0.802960
  H      5.400424    1.132885    1.795776
  H      3.537759   -0.246080    2.718089
  H      2.680013   -0.148190    1.171469
  H      4.279860    4.753597    1.351111
  H      5.348844    3.372563    1.773980
  H      5.508972    4.177779    0.195500
  H      2.861924    4.612636   -0.768515
  H      2.403949    3.007728   -1.424574
  H      4.034377    3.664426   -1.723415
  H      2.996107    3.315490    3.751984
  H      4.493822    2.399803    3.369096
  H      3.237455    1.671638    4.397031
  H      0.734080    2.253253    3.187934
  H      0.627839    1.050089    1.863467
  H      1.234753    0.564056    3.469100
  C      5.331661   -0.631973    0.652123
  O      5.670094   -0.858794   -0.474329
  O      5.484108   -1.474849    1.672903
  H      5.918003   -2.286731    1.343335

 Total Charge           Charge          ....    1
 Multiplicity           Mult            ....    1
 Number of Electrons    NEL             ....  108
 Basis Dimension        Dim             .... 1058

ORBITAL ENERGIES
----------------

  NO   OCC          E(Eh)            E(eV)
   0   2.0000     -19.086542      -519.3712
   1   2.0000     -19.013222      -517.3761
   2   2.0000     -18.961793      -515.9766
   3   2.0000     -14.397823      -391.7847
   4   2.0000     -10.180673      -277.0302
   5   2.0000     -10.134803      -275.7820
   6   2.0000     -10.134010      -275.7604
   7   2.0000     -10.072939      -274.0986
   8   2.0000     -10.064939      -273.8809
   9   2.0000     -10.060304      -273.7548
  10   2.0000     -10.055273      -273.6179
  11   2.0000     -10.054988      -273.6101
  12   2.0000     -10.044138      -273.3149
  13   2.0000     -10.043608      -273.3005
  14   2.0000      -1.231884       -33.5213
  15   2.0000      -1.088291       -29.6139
  16   2.0000      -1.002967       -27.2921
  17   2.0000      -0.892418       -24.2839
  18   2.0000      -0.828404       -22.5420
  19   2.0000      -0.787520       -21.4295
  20   2.0000      -0.725072       -19.7302
  21   2.0000      -0.686357       -18.6767
  22   2.0000      -0.677705       -18.4413
  23   2.0000      -0.675051       -18.3691
  24   2.0000      -0.648101       -17.6357
  25   2.0000      -0.621717       -16.9178
  26   2.0000      -0.572127       -15.5684
  27   2.0000      -0.555740       -15.1224
  28   2.0000      -0.528742       -14.3878
  29   2.0000      -0.502786       -13.6815
  30   2.0000      -0.499587       -13.5944
  31   2.0000      -0.480802       -13.0833
  32   2.0000      -0.470814       -12.8115
  33   2.0000      -0.449405       -12.2289
  34   2.0000      -0.434547       -11.8246
  35   2.0000      -0.424454       -11.5500
  36   2.0000      -0.419757       -11.4222
  37   2.0000      -0.411913       -11.2087
  38   2.0000      -0.398489       -10.8434
  39   2.0000      -0.391741       -10.6598
  40   2.0000      -0.388875       -10.5818
  41   2.0000      -0.377352       -10.2683
  42   2.0000      -0.369427       -10.0526
  43   2.0000      -0.362917        -9.8755
  44   2.0000      -0.355944        -9.6857
  45   2.0000      -0.352263        -9.5856
  46   2.0000      -0.344071        -9.3627
  47   2.0000      -0.335967        -9.1421
  48   2.0000      -0.331612        -9.0236
  49   2.0000      -0.329407        -8.9636
  50   2.0000      -0.317893        -8.6503
  51   2.0000      -0.310387        -8.4461
  52   2.0000      -0.293566        -7.9883
  53   2.0000      -0.264173        -7.1885
  54   0.0000      -0.194224        -5.2851
  55   0.0000      -0.036038        -0.9806
  56   0.0000       0.002369         0.0645
  57   0.0000       0.011979         0.3260
  58   0.0000       0.019171         0.5217

MULLIKEN ATOMIC CHARGES
-----------------------
   0 O :   -0.917711
   1 N :    0.901934
   2 C :    2.167219
   3 C :   -0.564728
   4 C :    1.056673
   5 C :   -0.927865
   6 C :    2.380643
   7 C :   -1.112324
   8 C :   -1.443030
   9 C :   -1.124183
  10 C :   -1.440310
  11 H :    0.486728
  12 H :    0.098274
  13 H :    0.055766
  14 H :    0.278318
  15 H :    0.235523
  16 H :    0.181182
  17 H :    0.255691
  18 H :    0.027751
  19 H :    0.142963
  20 H :    0.154718
  21 H :    0.138082
  22 H :    0.176100
  23 H :    0.233599
  24 H :    0.026415
  25 H :    0.145765
  26 H :    0.161768
  27 H :    0.117447
  28 C :    0.331004
  29 O :   -1.004635
  30 O :   -0.469374
  31 H :    0.250598
Sum of atomic charges:    1.0000000

LOEWDIN ATOMIC CHARGES
----------------------
   0 O :    0.650773
   1 N :    0.007492
   2 C :   -0.356564
   3 C :    0.302752
   4 C :   -0.021925
   5 C :    0.324037
   6 C :   -0.356243
   7 C :    0.645398
   8 C :    0.598913
   9 C :    0.644982
  10 C :    0.599240
  11 H :   -0.110160
  12 H :   -0.113444
  13 H :   -0.125164
  14 H :   -0.116779
  15 H :   -0.102028
  16 H :   -0.122258
  17 H :   -0.167367
  18 H :   -0.120458
  19 H :   -0.147433
  20 H :   -0.134826
  21 H :   -0.130449
  22 H :   -0.122010
  23 H :   -0.167843
  24 H :   -0.119907
  25 H :   -0.147069
  26 H :   -0.134483
  27 H :   -0.130375
  28 C :   -0.781744
  29 O :    0.481994
  30 O :    0.882994
  31 H :   -0.410046

  Mayer bond orders larger than 0.100000
B(  0-O ,  1-N ) :   0.7699 B(  0-O ,  2-C ) :  -0.1649 B(  0-O ,  6-C ) :  -0.1840
B(  0-O ,  8-C ) :   0.1595 B(  0-O , 10-C ) :   0.1629 B(  1-N ,  2-C ) :   0.7142
B(  1-N ,  3-C ) :   0.2036 B(  1-N ,  5-C ) :   0.1910 B(  1-N ,  6-C ) :   0.7250
B(  1-N ,  7-C ) :   0.1409 B(  1-N ,  8-C ) :  -0.1546 B(  1-N ,  9-C ) :   0.1537
B(  1-N , 10-C ) :  -0.1399 B(  2-C ,  3-C ) :   0.1240 B(  2-C ,  6-C ) :   0.3440
B(  2-C , 11-H ) :   0.1285 B(  2-C , 18-H ) :  -0.1144 B(  3-C ,  4-C ) :   0.8824
B(  3-C ,  5-C ) :   0.2450 B(  3-C , 11-H ) :   0.4788 B(  3-C , 12-H ) :   1.1076
B(  3-C , 28-C ) :  -0.1337 B(  4-C ,  5-C ) :   0.8712 B(  4-C ,  6-C ) :   0.1787
B(  4-C , 13-H ) :   0.9339 B(  4-C , 28-C ) :  -0.2430 B(  4-C , 29-O ) :   0.1882
B(  4-C , 30-O ) :  -0.1323 B(  5-C ,  6-C ) :   0.1054 B(  5-C , 14-H ) :   0.6021
B(  5-C , 15-H ) :   1.0077 B(  5-C , 28-C ) :   0.3625 B(  6-C ,  9-C ) :  -0.1695
B(  6-C , 10-C ) :  -0.1149 B(  6-C , 24-H ) :  -0.1327 B(  6-C , 26-H ) :  -0.1027
B(  7-C ,  8-C ) :   0.1912 B(  7-C , 16-H ) :   1.0211 B(  7-C , 17-H ) :   0.9799
B(  7-C , 18-H ) :   1.2075 B(  8-C , 19-H ) :   1.0844 B(  8-C , 20-H ) :   1.1394
B(  8-C , 21-H ) :   1.0671 B(  9-C , 10-C ) :   0.2062 B(  9-C , 22-H ) :   1.0318
B(  9-C , 23-H ) :   1.0022 B(  9-C , 24-H ) :   1.2204 B( 10-C , 25-H ) :   1.0688
B( 10-C , 26-H ) :   1.1280 B( 10-C , 27-H ) :   1.1048 B( 13-H , 28-C ) :  -0.2014
B( 13-H , 29-O ) :  -0.1101 B( 28-C , 29-O ) :   1.0626 B( 28-C , 30-O ) :   0.9208
B( 30-O , 31-H ) :   0.9601

Dispersion correction           -0.012237883
FINAL SINGLE POINT ENERGY      -672.020195484156

DIPOLE MOMENT
-------------

Method             : SCF
Type of density    : Electron Density
Multiplicity       :   1
Irrep              :   0
Energy             :  -672.0079576007699416 Eh
Relativity type    :
Basis              : AO
                                X                 Y                 Z
Electronic contribution:      2.148311415      -6.953444823      -2.896427553
Nuclear contribution   :     -2.863841370       8.211044193       4.273231293
                        -----------------------------------------
Total Dipole Moment    :     -0.715529954       1.257599370       1.376803740
                        -----------------------------------------
Magnitude (a.u.)       :      1.997280108
Magnitude (Debye)      :      5.076682583

Rotational constants in cm-1:             0.032285             0.018393             0.014243
Rotational constants in MHz :           967.865978           551.414458           426.998453

                             ****ORCA TERMINATED NORMALLY****
TOTAL RUN TIME: 0 days 0 hours 4 minutes 38 seconds 736 msec
