                         Program Version 6.0.0  -   RELEASE  -
|  1> !PBE0 def2-SV(p) Opt Freq d3 TightSCF SlowConv RIJCOSX defgrid2
|  2>
|  3> %pal
|  4> nprocs 4
|  5> end
|  6>
|  7> %scf
|  8> MaxIter 1500
|  9> end
| 10>
| 11> %maxcore 3000
| 12>
| 13>
| 14>
| 15> * xyz 1 2
| 16> C    -1.4199426    0.0000427    0.2042093
| 17> C    -0.6891508   -1.2536371   -0.2299262
| 18> C     0.7665156   -1.2019124    0.3656055
| 19> N     1.3652849   -0.0000436   -0.0487363
| 20> H     1.8625893   -0.0000622   -0.9345500
| 21> C     0.7665896    1.2018651    0.3655964
| 22> C    -0.6890745    1.2536755   -0.2299335
| 23> H    -1.1687741    2.1559150    0.1467216
| 24> H    -0.6168129    1.3127211   -1.3164062
| 25> H     1.3298320    2.0663586    0.0130253
| 26> H     0.6743777    1.2219672    1.4556348
| 27> H     1.3297049   -2.0664433    0.0130412
| 28> H     0.6743015   -1.2220007    1.4556439
| 29> H    -1.1689060   -2.1558455    0.1467325
| 30> H    -0.6168914   -1.3126925   -1.3163985
| 31> H    -2.4090017    0.0000714   -0.2710704
| 32> H    -1.5796226    0.0000505    1.2841784
| 33> *
| 34>
| 35>                          ****END OF INPUT****
 Total Charge           Charge          ....    1
 Multiplicity           Mult            ....    2
 Number of Electrons    NEL             ....   47
Dispersion correction           -0.012492040
FINAL SINGLE POINT ENERGY      -251.121458658822
Dispersion correction             ... done (  0.1 sec)
Dispersion correction           -0.012398792
FINAL SINGLE POINT ENERGY      -251.123714367174
Dispersion correction             ... done (  0.1 sec)
Dispersion correction           -0.012368853
FINAL SINGLE POINT ENERGY      -251.124151390083
Dispersion correction             ... done (  0.1 sec)
FINAL SINGLE POINT ENERGY      -251.124334346012
FINAL SINGLE POINT ENERGY      -251.124410655700
FINAL SINGLE POINT ENERGY      -251.124463709526
FINAL SINGLE POINT ENERGY      -251.124489558131
Dispersion correction             ... done (  0.1 sec)
Dispersion correction           -0.012336077
FINAL SINGLE POINT ENERGY      -251.124500527218
Dispersion correction             ... done (  0.1 sec)
Dispersion correction           -0.012333400
FINAL SINGLE POINT ENERGY      -251.124503308715
Dispersion correction             ... done (  0.1 sec)
                    ***********************HURRAY********************

CARTESIAN COORDINATES (ANGSTROEM)
---------------------------------
  C     -1.447857    0.000044    0.194660
  C     -0.704634   -1.259163   -0.220530
  C      0.754021   -1.232901    0.339473
  N      1.352436   -0.000032   -0.052726
  H      2.032399   -0.000014   -0.819298
  C      0.754068    1.232843    0.339547
  C     -0.704537    1.259179   -0.220584
  H     -1.177353    2.175303    0.170753
  H     -0.659029    1.354077   -1.319432
  H      1.353208    2.077387   -0.029457
  H      0.703817    1.261671    1.443760
  H      1.353025   -2.077470   -0.029689
  H      0.703902   -1.261799    1.443695
  H     -1.177523   -2.175182    0.170946
  H     -0.659116   -1.354061   -1.319373
  H     -2.448523    0.000060   -0.275203
  H     -1.617286    0.000088    1.286826

 Multiplicity           Mult            ....    2
 Number of Electrons    NEL             ....   47
 Basis Dimension        Dim             ....  106

ORBITAL ENERGIES
----------------
                 SPIN UP ORBITALS
  NO   OCC          E(Eh)            E(eV)
   0   1.0000     -14.705791      -400.1649
   1   1.0000     -10.473490      -284.9981
   2   1.0000     -10.473484      -284.9980
   3   1.0000     -10.424181      -283.6564
   4   1.0000     -10.424160      -283.6558
   5   1.0000     -10.403959      -283.1061
   6   1.0000      -1.221887       -33.2492
   7   1.0000      -1.006889       -27.3988
   8   1.0000      -0.993778       -27.0421
   9   1.0000      -0.875877       -23.8338
  10   1.0000      -0.854583       -23.2544
  11   1.0000      -0.799768       -21.7628
  12   1.0000      -0.756191       -20.5770
  13   1.0000      -0.700312       -19.0565
  14   1.0000      -0.681690       -18.5497
  15   1.0000      -0.661357       -17.9964
  16   1.0000      -0.642037       -17.4707
  17   1.0000      -0.624197       -16.9853
  18   1.0000      -0.602219       -16.3872
  19   1.0000      -0.565036       -15.3754
  20   1.0000      -0.563664       -15.3381
  21   1.0000      -0.534160       -14.5352
  22   1.0000      -0.523613       -14.2482
  23   1.0000      -0.490638       -13.3509
  24   0.0000      -0.136129        -3.7043
  25   0.0000      -0.092764        -2.5242
  26   0.0000      -0.072818        -1.9815
  27   0.0000      -0.065083        -1.7710
  28   0.0000      -0.043893        -1.1944

                 SPIN DOWN ORBITALS
  NO   OCC          E(Eh)            E(eV)
   0   1.0000     -14.687782      -399.6749
   1   1.0000     -10.473675      -285.0032
   2   1.0000     -10.473669      -285.0030
   3   1.0000     -10.422041      -283.5982
   4   1.0000     -10.422018      -283.5975
   5   1.0000     -10.404063      -283.1090
   6   1.0000      -1.189454       -32.3667
   7   1.0000      -0.998076       -27.1590
   8   1.0000      -0.987300       -26.8658
   9   1.0000      -0.865302       -23.5461
  10   1.0000      -0.848532       -23.0897
  11   1.0000      -0.791406       -21.5353
  12   1.0000      -0.742502       -20.2045
  13   1.0000      -0.692589       -18.8463
  14   1.0000      -0.660974       -17.9860
  15   1.0000      -0.649318       -17.6688
  16   1.0000      -0.638708       -17.3801
  17   1.0000      -0.615501       -16.7486
  18   1.0000      -0.589891       -16.0518
  19   1.0000      -0.558329       -15.1929
  20   1.0000      -0.537426       -14.6241
  21   1.0000      -0.532099       -14.4792
  22   1.0000      -0.522064       -14.2061
  23   0.0000      -0.349757        -9.5174
  24   0.0000      -0.130735        -3.5575
  25   0.0000      -0.089022        -2.4224
  26   0.0000      -0.068715        -1.8698
  27   0.0000      -0.063417        -1.7257

MULLIKEN ATOMIC CHARGES AND SPIN POPULATIONS
--------------------------------------------
   0 C :   -0.257563   -0.005299
   1 C :   -0.254740    0.093530
   2 C :   -0.143632   -0.031760
   3 N :   -0.203025    0.786827
   4 H :    0.330198   -0.032364
   5 C :   -0.143621   -0.031756
   6 C :   -0.254771    0.093534
   7 H :    0.200891    0.009292
   8 H :    0.171840   -0.001209
   9 H :    0.206875    0.003430
  10 H :    0.204245    0.041721
  11 H :    0.206875    0.003428
  12 H :    0.204249    0.041735
  13 H :    0.200889    0.009286
  14 H :    0.171834   -0.001205
  15 H :    0.198106    0.019183
  16 H :    0.161349    0.001626
Sum of atomic charges         :    1.0000000

LOEWDIN ATOMIC CHARGES AND SPIN POPULATIONS
-------------------------------------------
   0 C :   -0.235852    0.000193
   1 C :   -0.211040    0.086807
   2 C :   -0.154528    0.011678
   3 N :    0.080442    0.722074
   4 H :    0.286260   -0.020492
   5 C :   -0.154523    0.011679
   6 C :   -0.211048    0.086812
   7 H :    0.165878    0.006875
   8 H :    0.146553   -0.001492
   9 H :    0.163494    0.002893
  10 H :    0.168848    0.032759
  11 H :    0.163495    0.002892
  12 H :    0.168851    0.032772
  13 H :    0.165878    0.006870
  14 H :    0.146553   -0.001489
  15 H :    0.168208    0.018063
  16 H :    0.142530    0.001106

  Mayer bond orders larger than 0.100000
B(  0-C ,  1-C ) :   1.0832 B(  0-C ,  6-C ) :   1.0832 B(  0-C , 15-H ) :   0.8953
B(  0-C , 16-H ) :   0.9236 B(  1-C ,  2-C ) :   1.0032 B(  1-C , 13-H ) :   0.9080
B(  1-C , 14-H ) :   0.9169 B(  2-C ,  3-N ) :   1.0277 B(  2-C , 11-H ) :   0.9158
B(  2-C , 12-H ) :   0.8929 B(  3-N ,  4-H ) :   0.8324 B(  3-N ,  5-C ) :   1.0277
B(  5-C ,  6-C ) :   1.0032 B(  5-C ,  9-H ) :   0.9158 B(  5-C , 10-H ) :   0.8929
B(  6-C ,  7-H ) :   0.9080 B(  6-C ,  8-H ) :   0.9169

Dispersion correction           -0.012332797
FINAL SINGLE POINT ENERGY      -251.124503773768

DIPOLE MOMENT
-------------

Method             : SCF
Type of density    : Electron Density
Multiplicity       :   2
Irrep              :   0
Energy             :  -251.1121709772037605 Eh
Relativity type    :
Basis              : AO
                                X                 Y                 Z
Electronic contribution:      2.584313562      -0.000099966      -0.216895462
Nuclear contribution   :     -1.624364743       0.000100191       0.049600711
                        -----------------------------------------
Total Dipole Moment    :      0.959948819       0.000000226      -0.167294751
                        -----------------------------------------
Magnitude (a.u.)       :      0.974417400
Magnitude (Debye)      :      2.476772198

VIBRATIONAL FREQUENCIES
-----------------------

Scaling factor for frequencies =  1.000000000  (already applied!)

     0:       0.00 cm**-1
     1:       0.00 cm**-1
     2:       0.00 cm**-1
     3:       0.00 cm**-1
     4:       0.00 cm**-1
     5:       0.00 cm**-1
     6:     209.48 cm**-1
     7:     222.75 cm**-1
     8:     326.75 cm**-1
     9:     430.78 cm**-1
    10:     456.55 cm**-1
    11:     514.12 cm**-1
    12:     634.43 cm**-1
    13:     795.78 cm**-1
    14:     836.76 cm**-1
    15:     856.23 cm**-1
    16:     868.60 cm**-1
    17:     926.50 cm**-1
    18:     956.43 cm**-1
    19:     973.93 cm**-1
    20:    1009.48 cm**-1
    21:    1061.86 cm**-1
    22:    1086.08 cm**-1
    23:    1133.30 cm**-1
    24:    1134.69 cm**-1
    25:    1204.00 cm**-1
    26:    1251.06 cm**-1
    27:    1268.73 cm**-1
    28:    1288.54 cm**-1
    29:    1296.63 cm**-1
    30:    1329.42 cm**-1
    31:    1329.49 cm**-1
    32:    1383.90 cm**-1
    33:    1397.78 cm**-1
    34:    1449.15 cm**-1
    35:    1455.84 cm**-1
    36:    1461.04 cm**-1
    37:    1476.40 cm**-1
    38:    1494.38 cm**-1
    39:    1503.77 cm**-1
    40:    3052.45 cm**-1
    41:    3053.73 cm**-1
    42:    3059.87 cm**-1
    43:    3075.38 cm**-1
    44:    3076.06 cm**-1
    45:    3106.35 cm**-1
    46:    3143.05 cm**-1
    47:    3144.35 cm**-1
    48:    3175.62 cm**-1
    49:    3175.92 cm**-1
    50:    3494.28 cm**-1

IR SPECTRUM
-----------

 Mode   freq       eps      Int      T**2         TX        TY        TZ
       cm**-1   L/(mol*cm) km/mol    a.u.
----------------------------------------------------------------------------
  6:    209.48   0.000088    0.44  0.000131  (-0.000107 -0.011451 -0.000059)
  7:    222.75   0.006752   34.12  0.009459  (-0.084381  0.000020 -0.048367)
  8:    326.75   0.005152   26.04  0.004921  ( 0.063810 -0.000009  0.029137)
  9:    430.78   0.000432    2.18  0.000313  ( 0.000011 -0.017697  0.000002)
 10:    456.55   0.000338    1.71  0.000231  ( 0.014830  0.000003 -0.003374)
 11:    514.12   0.005801   29.32  0.003521  (-0.048961  0.000004 -0.033525)
 12:    634.43   0.013308   67.25  0.006546  (-0.076518  0.000001 -0.026288)
 13:    795.78   0.002308   11.66  0.000905  ( 0.000002 -0.030082 -0.000002)
 14:    836.76   0.000398    2.01  0.000148  ( 0.010592 -0.000001  0.006011)
 15:    856.23   0.000040    0.20  0.000014  ( 0.000001 -0.003796 -0.000000)
 16:    868.60   0.003289   16.62  0.001182  (-0.031168 -0.000003 -0.014503)
 17:    926.50   0.000127    0.64  0.000043  ( 0.006360  0.000000 -0.001577)
 18:    956.43   0.000253    1.28  0.000083  ( 0.000008  0.009094  0.000003)
 19:    973.93   0.003925   19.84  0.001258  ( 0.034997 -0.000009 -0.005742)
 20:   1009.48   0.002366   11.96  0.000732  ( 0.018576  0.000005  0.019659)
 21:   1061.86   0.008096   40.91  0.002379  (-0.000008 -0.048777  0.000004)
 22:   1086.08   0.000000    0.00  0.000000  (-0.000002  0.000200  0.000001)
 23:   1133.30   0.000122    0.62  0.000034  (-0.000024  0.005794 -0.000014)
 24:   1134.69   0.000401    2.03  0.000110  ( 0.008745  0.000012  0.005814)
 25:   1204.00   0.000168    0.85  0.000044  (-0.000004 -0.006602  0.000000)
 26:   1251.06   0.001811    9.15  0.000452  ( 0.020996  0.000000  0.003305)
 27:   1268.73   0.000125    0.63  0.000031  ( 0.000005  0.005540  0.000001)
 28:   1288.54   0.002183   11.03  0.000529  (-0.000025 -0.022994  0.000004)
 29:   1296.63   0.007517   37.99  0.001809  ( 0.042474 -0.000013 -0.002269)
 30:   1329.42   0.000748    3.78  0.000176  (-0.011454 -0.000680 -0.006628)
 31:   1329.49   0.000513    2.59  0.000120  ( 0.000712 -0.010945  0.000412)
 32:   1383.90   0.000667    3.37  0.000150  (-0.001965 -0.000002 -0.012104)
 33:   1397.78   0.000021    0.11  0.000005  ( 0.000000 -0.002186 -0.000001)
 34:   1449.15   0.003407   17.22  0.000734  (-0.016351  0.000019  0.021595)
 35:   1455.84   0.003463   17.50  0.000742  (-0.000022 -0.027247  0.000000)
 36:   1461.04   0.000606    3.06  0.000129  ( 0.000011 -0.011374  0.000006)
 37:   1476.40   0.003386   17.11  0.000716  ( 0.012561 -0.000023  0.023620)
 38:   1494.38   0.002092   10.57  0.000437  ( 0.007301  0.000008  0.019584)
 39:   1503.77   0.000957    4.84  0.000199  (-0.000001 -0.014095 -0.000000)
 40:   3052.45   0.001428    7.22  0.000146  ( 0.007670 -0.000025  0.009335)
 41:   3053.73   0.000819    4.14  0.000084  (-0.000016 -0.009147 -0.000007)
 42:   3059.87   0.000293    1.48  0.000030  (-0.001519 -0.000027 -0.005250)
 43:   3075.38   0.000708    3.58  0.000072  (-0.001300  0.000097 -0.008378)
 44:   3076.06   0.000254    1.29  0.000026  ( 0.000028  0.005079  0.000161)
 45:   3106.35   0.002695   13.62  0.000271  (-0.015322  0.000003  0.005998)
 46:   3143.05   0.000384    1.94  0.000038  ( 0.000130 -0.006172  0.000177)
 47:   3144.35   0.000566    2.86  0.000056  ( 0.004575  0.000179  0.005933)
 48:   3175.62   0.000021    0.11  0.000002  ( 0.000014 -0.001428 -0.000227)
 49:   3175.92   0.000327    1.65  0.000032  ( 0.000343  0.000057 -0.005659)
 50:   3494.28   0.025726  130.01  0.002297  (-0.038630  0.000000  0.028376)

--------------------------
THERMOCHEMISTRY AT 298.15K
--------------------------

Temperature         ...   298.15 K
Pressure            ...     1.00 atm
Total Mass          ...    85.15 AMU
Quasi RRHO          ...     True
Cut-Off Frequency   ...     1.00 cm^-1

Throughout the following assumptions are being made:
  (1) The electronic state is orbitally nondegenerate
      but the spin degeneracy is treated
  (2) There are no thermally accessible electronically excited states
  (3) Hindered rotations indicated by low frequency modes are not
      treated as such but are treated as vibrations and this may
      cause some error
  (4) All equations used are the standard statistical mechanics
      equations for an ideal gas
  (5) All vibrations are strictly harmonic

freq.     209.48  E(vib)   ...       0.34
freq.     222.75  E(vib)   ...       0.33
freq.     326.75  E(vib)   ...       0.24
freq.     430.78  E(vib)   ...       0.18
freq.     456.55  E(vib)   ...       0.16
freq.     514.12  E(vib)   ...       0.13
freq.     634.43  E(vib)   ...       0.09
freq.     795.78  E(vib)   ...       0.05
freq.     836.76  E(vib)   ...       0.04
freq.     856.23  E(vib)   ...       0.04
freq.     868.60  E(vib)   ...       0.04
freq.     926.50  E(vib)   ...       0.03
freq.     956.43  E(vib)   ...       0.03
freq.     973.93  E(vib)   ...       0.03
freq.    1009.48  E(vib)   ...       0.02
freq.    1061.86  E(vib)   ...       0.02
freq.    1086.08  E(vib)   ...       0.02
freq.    1133.30  E(vib)   ...       0.01
freq.    1134.69  E(vib)   ...       0.01
freq.    1204.00  E(vib)   ...       0.01
freq.    1251.06  E(vib)   ...       0.01
freq.    1268.73  E(vib)   ...       0.01
freq.    1288.54  E(vib)   ...       0.01
freq.    1296.63  E(vib)   ...       0.01
freq.    1329.42  E(vib)   ...       0.01
freq.    1329.49  E(vib)   ...       0.01
freq.    1383.90  E(vib)   ...       0.00
freq.    1397.78  E(vib)   ...       0.00
freq.    1449.15  E(vib)   ...       0.00
freq.    1455.84  E(vib)   ...       0.00
freq.    1461.04  E(vib)   ...       0.00
freq.    1476.40  E(vib)   ...       0.00
freq.    1494.38  E(vib)   ...       0.00
freq.    1503.77  E(vib)   ...       0.00
freq.    3052.45  E(vib)   ...       0.00
freq.    3053.73  E(vib)   ...       0.00
freq.    3059.87  E(vib)   ...       0.00
freq.    3075.38  E(vib)   ...       0.00
freq.    3076.06  E(vib)   ...       0.00
freq.    3106.35  E(vib)   ...       0.00
freq.    3143.05  E(vib)   ...       0.00
freq.    3144.35  E(vib)   ...       0.00
freq.    3175.62  E(vib)   ...       0.00
freq.    3175.92  E(vib)   ...       0.00
freq.    3494.28  E(vib)   ...       0.00

------------
INNER ENERGY
------------

The inner energy is: U= E(el) + E(ZPE) + E(vib) + E(rot) + E(trans)
    E(el)   - is the total energy from the electronic structure calculation
              = E(kin-el) + E(nuc-el) + E(el-el) + E(nuc-nuc)
    E(ZPE)  - the the zero temperature vibrational energy from the frequency calculation
    E(vib)  - the the finite temperature correction to E(ZPE) due to population
              of excited vibrational states
    E(rot)  - is the rotational thermal energy
    E(trans)- is the translational thermal energy

Summary of contributions to the inner energy U:
Electronic energy                ...   -251.12450377 Eh
Zero point energy                ...      0.15851879 Eh      99.47 kcal/mol
Thermal vibrational correction   ...      0.00302898 Eh       1.90 kcal/mol
Thermal rotational correction    ...      0.00141627 Eh       0.89 kcal/mol
Thermal translational correction ...      0.00141627 Eh       0.89 kcal/mol
-----------------------------------------------------------------------
Total thermal energy                   -250.96012346 Eh

Summary of corrections to the electronic energy:
(perhaps to be used in another calculation)
Total thermal correction                  0.00586152 Eh       3.68 kcal/mol
Non-thermal (ZPE) correction              0.15851879 Eh      99.47 kcal/mol
-----------------------------------------------------------------------
Total correction                          0.16438031 Eh     103.15 kcal/mol

--------
ENTHALPY
--------

The enthalpy is H = U + kB*T
                kB is Boltzmann's constant
Total thermal energy              ...   -250.96012346 Eh
Thermal Enthalpy correction       ...      0.00094421 Eh       0.59 kcal/mol
-----------------------------------------------------------------------
Total Enthalpy                    ...   -250.95917925 Eh

Note: Only C1 symmetry has been detected, increase convergence thresholds
      if your molecule has a higher symmetry. Symmetry factor of 1.0 is
      used for the rotational entropy correction.

Note: Rotational entropy computed according to Herzberg
Infrared and Raman Spectra, Chapter V,1, Van Nostrand Reinhold, 1945
Point Group:  C1, Symmetry Number:   1
Rotational constants in cm-1:     0.150674     0.148298     0.085270

Vibrational entropy computed according to the QRRHO of S. Grimme
Chem.Eur.J. 2012 18 9955 using a reference frequency of 100.0 cm-1

-------
ENTROPY
-------

The entropy contributions are T*S = T*(S(el)+S(vib)+S(rot)+S(trans))
     S(el)   - electronic entropy
     S(vib)  - vibrational entropy
     S(rot)  - rotational entropy
     S(trans)- translational entropy
The entropies will be listed as multiplied by the temperature to get
units of energy

Electronic entropy                ...      0.00065446 Eh      0.41 kcal/mol
Vibrational entropy               ...      0.00458393 Eh      2.88 kcal/mol
Rotational entropy                ...      0.01246756 Eh      7.82 kcal/mol
Translational entropy             ...      0.01864357 Eh     11.70 kcal/mol
-----------------------------------------------------------------------
Final entropy term                ...      0.03634951 Eh     22.81 kcal/mol

In case the symmetry of your molecule has not been determined correctly
or in case you have a reason to use a different symmetry number we print
out the resulting rotational entropy values for sn=1,12:

 non-linear molecules -----------------------------------
|  sn= 1 | S(rot)=       0.01246756 Eh      7.82 kcal/mol|
|  sn= 2 | S(rot)=       0.01181310 Eh      7.41 kcal/mol|
|  sn= 3 | S(rot)=       0.01143027 Eh      7.17 kcal/mol|
|  sn= 4 | S(rot)=       0.01115865 Eh      7.00 kcal/mol|
|  sn= 5 | S(rot)=       0.01094796 Eh      6.87 kcal/mol|
|  sn= 6 | S(rot)=       0.01077581 Eh      6.76 kcal/mol|
|  sn= 7 | S(rot)=       0.01063027 Eh      6.67 kcal/mol|
|  sn= 8 | S(rot)=       0.01050419 Eh      6.59 kcal/mol|
|  sn= 9 | S(rot)=       0.01039298 Eh      6.52 kcal/mol|
|  sn=10 | S(rot)=       0.01029350 Eh      6.46 kcal/mol|
|  sn=11 | S(rot)=       0.01020351 Eh      6.40 kcal/mol|
|  sn=12 | S(rot)=       0.01012136 Eh      6.35 kcal/mol|
 linear molecules ---------------------------------------
|  Dinfh | S(rot)=       0.00765032 Eh      4.80 kcal/mol|

                             ****ORCA TERMINATED NORMALLY****
TOTAL RUN TIME: 0 days 0 hours 10 minutes 33 seconds 377 msec
