                         Program Version 6.0.0  -   RELEASE  -
|  1> !PBE0 def2-SV(p) Opt Freq d3 TightSCF SlowConv RIJCOSX defgrid2
|  2>
|  3> %pal
|  4> nprocs 4
|  5> end
|  6>
|  7> %scf
|  8> MaxIter 1500
|  9> end
| 10>
| 11> %maxcore 3000
| 12>
| 13>
| 14>
| 15> * xyz -1 2
| 16> C    -0.0259354    1.2044867    0.0001569
| 17> C     1.3437888    1.2221265    0.0001720
| 18> C     2.0449705    0.0202446   -0.0000083
| 19> C     1.3852655   -1.2089531   -0.0001479
| 20> C     0.0191474   -1.2240594   -0.0001211
| 21> C    -0.7571537   -0.0236315   -0.0000131
| 22> C    -2.1723007   -0.0960375   -0.0001074
| 23> O    -2.8210247   -1.1950942   -0.0000537
| 24> C    -2.9614765    1.2138255   -0.0003646
| 25> H    -2.7277616    1.8043435    0.8853971
| 26> H    -2.7272766    1.8042440   -0.8860652
| 27> H    -4.0250700    0.9832613   -0.0006385
| 28> H    -0.5208940   -2.1614239   -0.0002303
| 29> H     1.9622093   -2.1236334   -0.0002836
| 30> F     3.4337982    0.0453554   -0.0000389
| 31> H     1.8929445    2.1539702    0.0003210
| 32> H    -0.5588392    2.1431051    0.0003165
| 33> *
| 34>
| 35>                          ****END OF INPUT****
 Total Charge           Charge          ....   -1
 Multiplicity           Mult            ....    2
 Number of Electrons    NEL             ....   73
Dispersion correction           -0.015362670
FINAL SINGLE POINT ENERGY      -483.236325228340
Dispersion correction             ... done (  0.0 sec)
Dispersion correction           -0.015280906
FINAL SINGLE POINT ENERGY      -483.239212513454
Dispersion correction             ... done (  0.1 sec)
Dispersion correction           -0.015263965
FINAL SINGLE POINT ENERGY      -483.239510462251
Dispersion correction             ... done (  0.0 sec)
Dispersion correction           -0.015263399
FINAL SINGLE POINT ENERGY      -483.239552848914
Dispersion correction             ... done (  0.0 sec)
Dispersion correction           -0.015264766
FINAL SINGLE POINT ENERGY      -483.239559192394
Dispersion correction             ... done (  0.1 sec)
                    ***********************HURRAY********************

CARTESIAN COORDINATES (ANGSTROEM)
---------------------------------
  C     -0.013314    1.210152   -0.000039
  C      1.374074    1.220772    0.000095
  C      2.082687    0.016236    0.000081
  C      1.398009   -1.210185   -0.000055
  C      0.017634   -1.225244   -0.000182
  C     -0.759888   -0.017637   -0.000184
  C     -2.189989   -0.104687   -0.000298
  O     -2.821914   -1.193484   -0.000321
  C     -2.980410    1.201938   -0.000234
  H     -2.771139    1.833114    0.888312
  H     -2.770957    1.833313   -0.888593
  H     -4.052305    0.942803   -0.000373
  H     -0.539558   -2.166271   -0.000284
  H      1.978173   -2.140188   -0.000050
  F      3.444271    0.030168    0.000219
  H      1.932695    2.163666    0.000213
  H     -0.543677    2.167666   -0.000015

 Multiplicity           Mult            ....    2
 Number of Electrons    NEL             ....   73
 Basis Dimension        Dim             ....  154

ORBITAL ENERGIES
----------------
                 SPIN UP ORBITALS
  NO   OCC          E(Eh)            E(eV)
   0   1.0000     -24.622019      -669.9992
   1   1.0000     -18.969651      -516.1904
   2   1.0000     -10.136301      -275.8228
   3   1.0000     -10.092853      -274.6405
   4   1.0000     -10.077089      -274.2115
   5   1.0000     -10.074270      -274.1348
   6   1.0000     -10.070128      -274.0221
   7   1.0000     -10.065718      -273.9021
   8   1.0000     -10.062693      -273.8198
   9   1.0000     -10.050523      -273.4886
  10   1.0000      -1.071723       -29.1631
  11   1.0000      -0.820544       -22.3281
  12   1.0000      -0.703289       -19.1375
  13   1.0000      -0.609293       -16.5797
  14   1.0000      -0.600324       -16.3357
  15   1.0000      -0.565372       -15.3846
  16   1.0000      -0.478684       -13.0257
  17   1.0000      -0.462324       -12.5805
  18   1.0000      -0.396513       -10.7897
  19   1.0000      -0.391842       -10.6626
  20   1.0000      -0.337814        -9.1924
  21   1.0000      -0.326127        -8.8744
  22   1.0000      -0.310302        -8.4437
  23   1.0000      -0.294777        -8.0213
  24   1.0000      -0.280308        -7.6276
  25   1.0000      -0.277950        -7.5634
  26   1.0000      -0.259927        -7.0730
  27   1.0000      -0.252228        -6.8635
  28   1.0000      -0.222629        -6.0580
  29   1.0000      -0.216005        -5.8778
  30   1.0000      -0.210403        -5.7254
  31   1.0000      -0.178044        -4.8448
  32   1.0000      -0.177677        -4.8348
  33   1.0000      -0.113841        -3.0978
  34   1.0000      -0.092272        -2.5109
  35   1.0000      -0.061534        -1.6744
  36   1.0000       0.055545         1.5114
  37   0.0000       0.157877         4.2961
  38   0.0000       0.210852         5.7376
  39   0.0000       0.210928         5.7397
  40   0.0000       0.233061         6.3419
  41   0.0000       0.249913         6.8005

                 SPIN DOWN ORBITALS
  NO   OCC          E(Eh)            E(eV)
   0   1.0000     -24.621014      -669.9719
   1   1.0000     -18.962143      -515.9861
   2   1.0000     -10.130928      -275.6766
   3   1.0000     -10.089394      -274.5464
   4   1.0000     -10.078819      -274.2586
   5   1.0000     -10.075741      -274.1748
   6   1.0000     -10.067196      -273.9423
   7   1.0000     -10.066113      -273.9129
   8   1.0000     -10.060130      -273.7500
   9   1.0000     -10.049111      -273.4502
  10   1.0000      -1.069130       -29.0925
  11   1.0000      -0.807114       -21.9627
  12   1.0000      -0.699117       -19.0239
  13   1.0000      -0.603275       -16.4160
  14   1.0000      -0.596075       -16.2200
  15   1.0000      -0.562617       -15.3096
  16   1.0000      -0.470190       -12.7945
  17   1.0000      -0.459802       -12.5119
  18   1.0000      -0.394450       -10.7335
  19   1.0000      -0.386617       -10.5204
  20   1.0000      -0.336124        -9.1464
  21   1.0000      -0.315669        -8.5898
  22   1.0000      -0.306368        -8.3367
  23   1.0000      -0.293166        -7.9775
  24   1.0000      -0.277363        -7.5474
  25   1.0000      -0.272813        -7.4236
  26   1.0000      -0.257806        -7.0152
  27   1.0000      -0.250491        -6.8162
  28   1.0000      -0.219118        -5.9625
  29   1.0000      -0.206009        -5.6058
  30   1.0000      -0.203693        -5.5428
  31   1.0000      -0.176165        -4.7937
  32   1.0000      -0.147319        -4.0088
  33   1.0000      -0.104369        -2.8400
  34   1.0000      -0.064749        -1.7619
  35   1.0000      -0.054866        -1.4930
  36   0.0000       0.146124         3.9762
  37   0.0000       0.163800         4.4572
  38   0.0000       0.212040         5.7699
  39   0.0000       0.233559         6.3555
  40   0.0000       0.239710         6.5229

MULLIKEN ATOMIC CHARGES AND SPIN POPULATIONS
--------------------------------------------
   0 C :   -0.178446    0.212317
   1 C :   -0.191672   -0.131451
   2 C :    0.274812    0.310378
   3 C :   -0.193249   -0.113604
   4 C :   -0.154367    0.188788
   5 C :    0.015840    0.086021
   6 C :   -0.006600    0.201053
   7 O :   -0.394507    0.252693
   8 C :   -0.327655   -0.028164
   9 H :    0.088887    0.012609
  10 H :    0.088884    0.012601
  11 H :    0.083114   -0.000617
  12 H :    0.057954   -0.012067
  13 H :    0.039171    0.004338
  14 F :   -0.276005    0.012608
  15 H :    0.036225    0.005394
  16 H :    0.037613   -0.012897
Sum of atomic charges         :   -1.0000000

LOEWDIN ATOMIC CHARGES AND SPIN POPULATIONS
-------------------------------------------
   0 C :   -0.173724    0.163682
   1 C :   -0.190619   -0.071187
   2 C :   -0.012422    0.243763
   3 C :   -0.191230   -0.058386
   4 C :   -0.139965    0.148471
   5 C :   -0.139117    0.102202
   6 C :   -0.058218    0.194534
   7 O :   -0.341307    0.250403
   8 C :   -0.370760   -0.008823
   9 H :    0.103431    0.010643
  10 H :    0.103429    0.010638
  11 H :    0.107084   -0.000228
  12 H :    0.116714   -0.005642
  13 H :    0.107717    0.001971
  14 F :   -0.132604    0.021386
  15 H :    0.107171    0.002408
  16 H :    0.104419   -0.005833

  Mayer bond orders larger than 0.100000
B(  0-C ,  1-C ) :   1.4281 B(  0-C ,  5-C ) :   1.2126 B(  0-C , 16-H ) :   0.9439
B(  1-C ,  2-C ) :   1.3167 B(  1-C , 15-H ) :   0.9581 B(  2-C ,  3-C ) :   1.2719
B(  2-C , 14-F ) :   0.9771 B(  3-C ,  4-C ) :   1.4321 B(  3-C , 13-H ) :   0.9633
B(  4-C ,  5-C ) :   1.2307 B(  4-C , 12-H ) :   0.9525 B(  5-C ,  6-C ) :   1.2323
B(  6-C ,  7-O ) :   1.8898 B(  6-C ,  8-C ) :   1.0628 B(  8-C ,  9-H ) :   0.9329
B(  8-C , 10-H ) :   0.9329 B(  8-C , 11-H ) :   0.9499

Dispersion correction           -0.015265120
FINAL SINGLE POINT ENERGY      -483.239559688391

DIPOLE MOMENT
-------------

Method             : SCF
Type of density    : Electron Density
Multiplicity       :   2
Irrep              :   0
Energy             :  -483.2242945681074389 Eh
Relativity type    :
Basis              : AO
                                X                 Y                 Z
Electronic contribution:     10.871860844      -3.455370343       0.000607573
Nuclear contribution   :     -9.605928906       4.332386022      -0.000475554
                        -----------------------------------------
Total Dipole Moment    :      1.265931937       0.877015679       0.000132019
                        -----------------------------------------
Magnitude (a.u.)       :      1.540045515
Magnitude (Debye)      :      3.914484611

VIBRATIONAL FREQUENCIES
-----------------------

Scaling factor for frequencies =  1.000000000  (already applied!)

     0:       0.00 cm**-1
     1:       0.00 cm**-1
     2:       0.00 cm**-1
     3:       0.00 cm**-1
     4:       0.00 cm**-1
     5:       0.00 cm**-1
     6:      93.90 cm**-1
     7:     118.06 cm**-1
     8:     147.77 cm**-1
     9:     186.69 cm**-1
    10:     263.33 cm**-1
    11:     331.15 cm**-1
    12:     374.18 cm**-1
    13:     383.82 cm**-1
    14:     450.35 cm**-1
    15:     466.52 cm**-1
    16:     544.96 cm**-1
    17:     555.14 cm**-1
    18:     640.64 cm**-1
    19:     682.94 cm**-1
    20:     689.17 cm**-1
    21:     755.31 cm**-1
    22:     789.69 cm**-1
    23:     812.18 cm**-1
    24:     911.08 cm**-1
    25:     952.00 cm**-1
    26:     954.16 cm**-1
    27:     994.10 cm**-1
    28:    1001.93 cm**-1
    29:    1068.00 cm**-1
    30:    1091.37 cm**-1
    31:    1144.21 cm**-1
    32:    1252.40 cm**-1
    33:    1273.08 cm**-1
    34:    1341.60 cm**-1
    35:    1348.71 cm**-1
    36:    1376.09 cm**-1
    37:    1443.10 cm**-1
    38:    1454.94 cm**-1
    39:    1459.25 cm**-1
    40:    1523.33 cm**-1
    41:    1531.76 cm**-1
    42:    1633.18 cm**-1
    43:    1697.96 cm**-1
    44:    2970.04 cm**-1
    45:    3033.43 cm**-1
    46:    3123.91 cm**-1
    47:    3169.53 cm**-1
    48:    3172.19 cm**-1
    49:    3193.29 cm**-1
    50:    3211.42 cm**-1

IR SPECTRUM
-----------

 Mode   freq       eps      Int      T**2         TX        TY        TZ
       cm**-1   L/(mol*cm) km/mol    a.u.
----------------------------------------------------------------------------
  6:     93.90   0.000000    0.00  0.000000  ( 0.000002 -0.000007  0.000125)
  7:    118.06   0.000468    2.36  0.001237  ( 0.000006  0.000007 -0.035166)
  8:    147.77   0.000198    1.00  0.000417  (-0.000001 -0.000006 -0.020431)
  9:    186.69   0.000620    3.14  0.001037  (-0.031842  0.004804 -0.000002)
 10:    263.33   0.000000    0.00  0.000000  ( 0.000001  0.000004  0.000036)
 11:    331.15   0.000056    0.28  0.000053  (-0.000867  0.007197  0.000003)
 12:    374.18   0.001374    6.94  0.001146  ( 0.000005  0.000004 -0.033848)
 13:    383.82   0.000540    2.73  0.000439  (-0.016583 -0.012799 -0.000004)
 14:    450.35   0.000017    0.08  0.000012  (-0.000000 -0.000007  0.003414)
 15:    466.52   0.000012    0.06  0.000008  (-0.002540  0.001259  0.000001)
 16:    544.96   0.001894    9.57  0.001085  ( 0.000025 -0.000005 -0.032934)
 17:    555.14   0.004109   20.76  0.002310  (-0.043687  0.020028 -0.000007)
 18:    640.64   0.000061    0.31  0.000030  ( 0.000382 -0.005425  0.000002)
 19:    682.94   0.001405    7.10  0.000642  ( 0.000012 -0.000001  0.025336)
 20:    689.17   0.005481   27.70  0.002482  ( 0.049254  0.007478 -0.000001)
 21:    755.31   0.003221   16.28  0.001331  ( 0.000005  0.000007 -0.036480)
 22:    789.69   0.003741   18.90  0.001478  (-0.000011 -0.000001  0.038448)
 23:    812.18   0.015647   79.07  0.006012  (-0.077526 -0.001344 -0.000009)
 24:    911.08   0.000269    1.36  0.000092  ( 0.000003  0.000000 -0.009594)
 25:    952.00   0.012897   65.18  0.004228  ( 0.064173 -0.010462  0.000002)
 26:    954.16   0.000000    0.00  0.000000  ( 0.000009  0.000002  0.000129)
 27:    994.10   0.003856   19.49  0.001211  (-0.034108  0.006869 -0.000002)
 28:   1001.93   0.000355    1.80  0.000111  ( 0.000005 -0.000003 -0.010522)
 29:   1068.00   0.000635    3.21  0.000185  ( 0.009009 -0.010211 -0.000001)
 30:   1091.37   0.005169   26.12  0.001478  (-0.017304 -0.034332 -0.000003)
 31:   1144.21   0.000031    0.16  0.000009  (-0.001315 -0.002614 -0.000001)
 32:   1252.40   0.013972   70.61  0.003481  (-0.059002  0.000351 -0.000005)
 33:   1273.08   0.008303   41.96  0.002035  (-0.043992 -0.010005 -0.000004)
 34:   1341.60   0.002536   12.81  0.000590  ( 0.016967 -0.017376  0.000001)
 35:   1348.71   0.001865    9.43  0.000432  (-0.008273 -0.019057 -0.000001)
 36:   1376.09   0.011005   55.62  0.002496  ( 0.030770 -0.039356 -0.000000)
 37:   1443.10   0.003135   15.84  0.000678  ( 0.006469  0.025222 -0.000001)
 38:   1454.94   0.014304   72.29  0.003068  (-0.053274 -0.015165 -0.000033)
 39:   1459.25   0.000573    2.90  0.000123  ( 0.000130  0.000037 -0.011073)
 40:   1523.33   0.004408   22.27  0.000903  (-0.024196 -0.017817 -0.000004)
 41:   1531.76   0.018988   95.96  0.003868  (-0.061433 -0.009714 -0.000006)
 42:   1633.18   0.047084  237.94  0.008997  ( 0.087269  0.037161  0.000007)
 43:   1697.96   0.015478   78.22  0.002845  ( 0.039617  0.035711  0.000005)
 44:   2970.04   0.023915  120.86  0.002513  (-0.037623  0.033126  0.000023)
 45:   3033.43   0.010608   53.61  0.001091  (-0.000019  0.000024 -0.033035)
 46:   3123.91   0.003976   20.09  0.000397  ( 0.018054  0.008442 -0.000002)
 47:   3169.53   0.004489   22.69  0.000442  (-0.019023 -0.008951 -0.000002)
 48:   3172.19   0.006987   35.31  0.000687  (-0.018695  0.018380 -0.000001)
 49:   3193.29   0.006684   33.78  0.000653  (-0.002401 -0.025444 -0.000002)
 50:   3211.42   0.001887    9.54  0.000183  ( 0.005829 -0.012224 -0.000000)

--------------------------
THERMOCHEMISTRY AT 298.15K
--------------------------

Temperature         ...   298.15 K
Pressure            ...     1.00 atm
Total Mass          ...   138.14 AMU
Quasi RRHO          ...     True
Cut-Off Frequency   ...     1.00 cm^-1

Throughout the following assumptions are being made:
  (1) The electronic state is orbitally nondegenerate
      but the spin degeneracy is treated
  (2) There are no thermally accessible electronically excited states
  (3) Hindered rotations indicated by low frequency modes are not
      treated as such but are treated as vibrations and this may
      cause some error
  (4) All equations used are the standard statistical mechanics
      equations for an ideal gas
  (5) All vibrations are strictly harmonic

freq.      93.90  E(vib)   ...       0.47
freq.     118.06  E(vib)   ...       0.44
freq.     147.77  E(vib)   ...       0.41
freq.     186.69  E(vib)   ...       0.37
freq.     263.33  E(vib)   ...       0.29
freq.     331.15  E(vib)   ...       0.24
freq.     374.18  E(vib)   ...       0.21
freq.     383.82  E(vib)   ...       0.20
freq.     450.35  E(vib)   ...       0.17
freq.     466.52  E(vib)   ...       0.16
freq.     544.96  E(vib)   ...       0.12
freq.     555.14  E(vib)   ...       0.12
freq.     640.64  E(vib)   ...       0.09
freq.     682.94  E(vib)   ...       0.08
freq.     689.17  E(vib)   ...       0.07
freq.     755.31  E(vib)   ...       0.06
freq.     789.69  E(vib)   ...       0.05
freq.     812.18  E(vib)   ...       0.05
freq.     911.08  E(vib)   ...       0.03
freq.     952.00  E(vib)   ...       0.03
freq.     954.16  E(vib)   ...       0.03
freq.     994.10  E(vib)   ...       0.02
freq.    1001.93  E(vib)   ...       0.02
freq.    1068.00  E(vib)   ...       0.02
freq.    1091.37  E(vib)   ...       0.02
freq.    1144.21  E(vib)   ...       0.01
freq.    1252.40  E(vib)   ...       0.01
freq.    1273.08  E(vib)   ...       0.01
freq.    1341.60  E(vib)   ...       0.01
freq.    1348.71  E(vib)   ...       0.01
freq.    1376.09  E(vib)   ...       0.01
freq.    1443.10  E(vib)   ...       0.00
freq.    1454.94  E(vib)   ...       0.00
freq.    1459.25  E(vib)   ...       0.00
freq.    1523.33  E(vib)   ...       0.00
freq.    1531.76  E(vib)   ...       0.00
freq.    1633.18  E(vib)   ...       0.00
freq.    1697.96  E(vib)   ...       0.00
freq.    2970.04  E(vib)   ...       0.00
freq.    3033.43  E(vib)   ...       0.00
freq.    3123.91  E(vib)   ...       0.00
freq.    3169.53  E(vib)   ...       0.00
freq.    3172.19  E(vib)   ...       0.00
freq.    3193.29  E(vib)   ...       0.00
freq.    3211.42  E(vib)   ...       0.00

------------
INNER ENERGY
------------

The inner energy is: U= E(el) + E(ZPE) + E(vib) + E(rot) + E(trans)
    E(el)   - is the total energy from the electronic structure calculation
              = E(kin-el) + E(nuc-el) + E(el-el) + E(nuc-nuc)
    E(ZPE)  - the the zero temperature vibrational energy from the frequency calculation
    E(vib)  - the the finite temperature correction to E(ZPE) due to population
              of excited vibrational states
    E(rot)  - is the rotational thermal energy
    E(trans)- is the translational thermal energy

Summary of contributions to the inner energy U:
Electronic energy                ...   -483.23955969 Eh
Zero point energy                ...      0.12669321 Eh      79.50 kcal/mol
Thermal vibrational correction   ...      0.00607909 Eh       3.81 kcal/mol
Thermal rotational correction    ...      0.00141627 Eh       0.89 kcal/mol
Thermal translational correction ...      0.00141627 Eh       0.89 kcal/mol
-----------------------------------------------------------------------
Total thermal energy                   -483.10395485 Eh

Summary of corrections to the electronic energy:
(perhaps to be used in another calculation)
Total thermal correction                  0.00891163 Eh       5.59 kcal/mol
Non-thermal (ZPE) correction              0.12669321 Eh      79.50 kcal/mol
-----------------------------------------------------------------------
Total correction                          0.13560484 Eh      85.09 kcal/mol

--------
ENTHALPY
--------

The enthalpy is H = U + kB*T
                kB is Boltzmann's constant
Total thermal energy              ...   -483.10395485 Eh
Thermal Enthalpy correction       ...      0.00094421 Eh       0.59 kcal/mol
-----------------------------------------------------------------------
Total Enthalpy                    ...   -483.10301064 Eh

Note: Only C1 symmetry has been detected, increase convergence thresholds
      if your molecule has a higher symmetry. Symmetry factor of 1.0 is
      used for the rotational entropy correction.

Note: Rotational entropy computed according to Herzberg
Infrared and Raman Spectra, Chapter V,1, Van Nostrand Reinhold, 1945
Point Group:  C1, Symmetry Number:   1
Rotational constants in cm-1:     0.120873     0.025381     0.021060

Vibrational entropy computed according to the QRRHO of S. Grimme
Chem.Eur.J. 2012 18 9955 using a reference frequency of 100.0 cm-1

-------
ENTROPY
-------

The entropy contributions are T*S = T*(S(el)+S(vib)+S(rot)+S(trans))
     S(el)   - electronic entropy
     S(vib)  - vibrational entropy
     S(rot)  - rotational entropy
     S(trans)- translational entropy
The entropies will be listed as multiplied by the temperature to get
units of energy

Electronic entropy                ...      0.00065446 Eh      0.41 kcal/mol
Vibrational entropy               ...      0.01015309 Eh      6.37 kcal/mol
Rotational entropy                ...      0.01406515 Eh      8.83 kcal/mol
Translational entropy             ...      0.01932885 Eh     12.13 kcal/mol
-----------------------------------------------------------------------
Final entropy term                ...      0.04420155 Eh     27.74 kcal/mol

In case the symmetry of your molecule has not been determined correctly
or in case you have a reason to use a different symmetry number we print
out the resulting rotational entropy values for sn=1,12:

 non-linear molecules -----------------------------------
|  sn= 1 | S(rot)=       0.01406515 Eh      8.83 kcal/mol|
|  sn= 2 | S(rot)=       0.01341070 Eh      8.42 kcal/mol|
|  sn= 3 | S(rot)=       0.01302786 Eh      8.18 kcal/mol|
|  sn= 4 | S(rot)=       0.01275624 Eh      8.00 kcal/mol|
|  sn= 5 | S(rot)=       0.01254555 Eh      7.87 kcal/mol|
|  sn= 6 | S(rot)=       0.01237341 Eh      7.76 kcal/mol|
|  sn= 7 | S(rot)=       0.01222786 Eh      7.67 kcal/mol|
|  sn= 8 | S(rot)=       0.01210178 Eh      7.59 kcal/mol|
|  sn= 9 | S(rot)=       0.01199058 Eh      7.52 kcal/mol|
|  sn=10 | S(rot)=       0.01189110 Eh      7.46 kcal/mol|
|  sn=11 | S(rot)=       0.01180111 Eh      7.41 kcal/mol|
|  sn=12 | S(rot)=       0.01171895 Eh      7.35 kcal/mol|
 linear molecules ---------------------------------------
|  Dinfh | S(rot)=       0.00897072 Eh      5.63 kcal/mol|

                             ****ORCA TERMINATED NORMALLY****
TOTAL RUN TIME: 0 days 0 hours 8 minutes 53 seconds 726 msec
