                         Program Version 6.0.0  -   RELEASE  -
|  1> !TPSSh aug-cc-pVTZ d3 TightSCF SlowConv RIJCOSX defgrid2
|  2>
|  3> %pal
|  4> nprocs 4
|  5> end
|  6>
|  7> %scf
|  8> MaxIter 1500
|  9> end
| 10>
| 11> %maxcore 3000
| 12>
| 13> !CPCM
| 14> %cpcm smd true
| 15> SMDsolvent "MeCN"
| 16> surfacetype gepol_ses
| 17> rsolv 2.19
| 18> end
| 19>
| 20> * xyz 0 1
| 21> C          -2.28943628984998     -1.08285381421457     -0.27215993229653
| 22> C          -1.22862023156136      0.01586077259453     -0.25601491731078
| 23> N           0.00661098110282     -0.50212633579045      0.31354199000874
| 24> H           0.04448546198884     -0.34374633262279      1.31992834627211
| 25> C           1.26761402703144     -0.16050590389698     -0.31641071653716
| 26> C           1.61227695016871      1.33248737268488     -0.33804198779464
| 27> H           1.67848646199772      1.73094232260326      0.69159025810039
| 28> H           0.85105477369420      1.91805645848033     -0.88142696576002
| 29> H           2.58358136031093      1.51068050094161     -0.83364819199688
| 30> C           2.37625730002657     -0.96447955561106      0.35107581249572
| 31> H           2.13332648923035     -2.03958118968627      0.33268241243102
| 32> H           3.34622361909672     -0.80670159196001     -0.15062911203137
| 33> H           2.49537611972548     -0.65946405577216      1.40819901441394
| 34> H           1.19295505843491     -0.50230950030642     -1.36701945226968
| 35> C          -1.75092025319689      1.26393539098600      0.45804448286514
| 36> H          -1.01077279835727      2.08120251713453      0.44660788818213
| 37> H          -1.98089959571268      1.02983730439430      1.51486395854639
| 38> H          -2.68129026142747      1.63712259892000     -0.00568309259664
| 39> H          -1.00714489185693      0.28572149795558     -1.30571438011138
| 40> H          -1.91525958204469     -1.96452646149950     -0.81800405837007
| 41> H          -2.52324219300596     -1.40342780976556      0.75957368070162
| 42> H          -3.22778530579547     -0.74080268556924     -0.74485933694205
| 43> *
| 44>
| 45>                          ****END OF INPUT****

CARTESIAN COORDINATES (ANGSTROEM)
---------------------------------
  C     -2.289436   -1.082854   -0.272160
  C     -1.228620    0.015861   -0.256015
  N      0.006611   -0.502126    0.313542
  H      0.044485   -0.343746    1.319928
  C      1.267614   -0.160506   -0.316411
  C      1.612277    1.332487   -0.338042
  H      1.678486    1.730942    0.691590
  H      0.851055    1.918056   -0.881427
  H      2.583581    1.510681   -0.833648
  C      2.376257   -0.964480    0.351076
  H      2.133326   -2.039581    0.332682
  H      3.346224   -0.806702   -0.150629
  H      2.495376   -0.659464    1.408199
  H      1.192955   -0.502310   -1.367019
  C     -1.750920    1.263935    0.458044
  H     -1.010773    2.081203    0.446608
  H     -1.980900    1.029837    1.514864
  H     -2.681290    1.637123   -0.005683
  H     -1.007145    0.285721   -1.305714
  H     -1.915260   -1.964526   -0.818004
  H     -2.523242   -1.403428    0.759574
  H     -3.227785   -0.740803   -0.744859

 Total Charge           Charge          ....    0
 Multiplicity           Mult            ....    1
 Number of Electrons    NEL             ....   58
 Basis Dimension        Dim             ....  667

ORBITAL ENERGIES
----------------

  NO   OCC          E(Eh)            E(eV)
   0   2.0000     -14.219046      -386.9199
   1   2.0000     -10.132863      -275.7292
   2   2.0000     -10.132383      -275.7161
   3   2.0000     -10.095074      -274.7009
   4   2.0000     -10.094672      -274.6900
   5   2.0000     -10.093005      -274.6446
   6   2.0000     -10.092535      -274.6318
   7   2.0000      -0.879213       -23.9246
   8   2.0000      -0.759381       -20.6638
   9   2.0000      -0.700344       -19.0573
  10   2.0000      -0.658976       -17.9317
  11   2.0000      -0.652724       -17.7615
  12   2.0000      -0.559259       -15.2182
  13   2.0000      -0.555084       -15.1046
  14   2.0000      -0.453315       -12.3353
  15   2.0000      -0.442411       -12.0386
  16   2.0000      -0.411982       -11.2106
  17   2.0000      -0.398417       -10.8415
  18   2.0000      -0.397394       -10.8137
  19   2.0000      -0.376106       -10.2344
  20   2.0000      -0.364246        -9.9116
  21   2.0000      -0.357962        -9.7406
  22   2.0000      -0.354993        -9.6598
  23   2.0000      -0.329615        -8.9693
  24   2.0000      -0.327207        -8.9037
  25   2.0000      -0.308744        -8.4014
  26   2.0000      -0.306368        -8.3367
  27   2.0000      -0.300538        -8.1781
  28   2.0000      -0.194761        -5.2997
  29   0.0000      -0.002423        -0.0659
  30   0.0000       0.010665         0.2902
  31   0.0000       0.011205         0.3049
  32   0.0000       0.013511         0.3677
  33   0.0000       0.030936         0.8418

MULLIKEN ATOMIC CHARGES
-----------------------
   0 C :   -0.674264
   1 C :    0.863460
   2 N :   -0.561930
   3 H :   -0.146687
   4 C :    0.817706
   5 C :   -0.320110
   6 H :    0.145351
   7 H :    0.127224
   8 H :   -0.056647
   9 C :   -0.615790
  10 H :    0.067765
  11 H :    0.074479
  12 H :    0.087302
  13 H :    0.091085
  14 C :   -0.464039
  15 H :    0.128550
  16 H :    0.084190
  17 H :    0.047941
  18 H :    0.082126
  19 H :    0.060645
  20 H :    0.085260
  21 H :    0.076382
Sum of atomic charges:   -0.0000000

LOEWDIN ATOMIC CHARGES
----------------------
   0 C :    0.570032
   1 C :   -0.195043
   2 N :    0.573174
   3 H :   -0.281869
   4 C :   -0.199492
   5 C :    0.577186
   6 H :   -0.151705
   7 H :   -0.173626
   8 H :   -0.157841
   9 C :    0.567258
  10 H :   -0.163415
  11 H :   -0.158041
  12 H :   -0.154901
  13 H :   -0.126883
  14 C :    0.579861
  15 H :   -0.176211
  16 H :   -0.153576
  17 H :   -0.155757
  18 H :   -0.132016
  19 H :   -0.166555
  20 H :   -0.160297
  21 H :   -0.160281

  Mayer bond orders larger than 0.100000
B(  0-C ,  1-C ) :   0.7618 B(  0-C ,  2-N ) :   0.1658 B(  0-C , 14-C ) :   0.1337
B(  0-C , 19-H ) :   1.0295 B(  0-C , 20-H ) :   0.9972 B(  0-C , 21-H ) :   1.0089
B(  1-C ,  2-N ) :   0.7106 B(  1-C ,  4-C ) :   0.1293 B(  1-C , 14-C ) :   0.8595
B(  1-C , 18-H ) :   0.8819 B(  2-N ,  3-H ) :   0.9830 B(  2-N ,  4-C ) :   0.6600
B(  2-N ,  9-C ) :   0.1360 B(  2-N , 13-H ) :  -0.1321 B(  4-C ,  5-C ) :   0.9071
B(  4-C ,  9-C ) :   0.7896 B(  4-C , 13-H ) :   0.8969 B(  5-C ,  6-H ) :   0.9278
B(  5-C ,  7-H ) :   0.9520 B(  5-C ,  8-H ) :   1.0653 B(  5-C ,  9-C ) :   0.1383
B(  9-C , 10-H ) :   1.0112 B(  9-C , 11-H ) :   1.0386 B(  9-C , 12-H ) :   0.9855
B( 14-C , 15-H ) :   0.9490 B( 14-C , 16-H ) :   0.9950 B( 14-C , 17-H ) :   1.0249

Dispersion correction           -0.021070730
FINAL SINGLE POINT ENERGY      -292.576150564018

DIPOLE MOMENT
-------------

Method             : SCF
Type of density    : Electron Density
Multiplicity       :   1
Irrep              :   0
Energy             :  -292.5550798340588585 Eh
Relativity type    :
Basis              : AO
                                X                 Y                 Z
Electronic contribution:      0.076173533      -1.183012237      -0.297000963
Nuclear contribution   :     -0.008091156       1.682730653       0.307275943
                        -----------------------------------------
Total Dipole Moment    :      0.068082377       0.499718416       0.010274980
                        -----------------------------------------
Magnitude (a.u.)       :      0.504439571
Magnitude (Debye)      :      1.282183492

Rotational constants in cm-1:             0.137775             0.051485             0.041834
Rotational constants in MHz :          4130.376208          1543.470169          1254.154944

                             ****ORCA TERMINATED NORMALLY****
TOTAL RUN TIME: 0 days 0 hours 4 minutes 3 seconds 269 msec
