                         Program Version 6.0.0  -   RELEASE  -
|  1> !PBE0 def2-SV(p) Opt Freq d3 TightSCF SlowConv RIJCOSX defgrid2
|  2>
|  3> %pal
|  4> nprocs 4
|  5> end
|  6>
|  7> %scf
|  8> MaxIter 1500
|  9> end
| 10>
| 11> %maxcore 3000
| 12>
| 13>
| 14>
| 15> * xyz 0 1
| 16> C    -2.3499168   -1.1865306    0.4222736
| 17> C    -3.6185996   -0.6428199    0.3974103
| 18> C    -3.8197277    0.6448377   -0.0732580
| 19> C    -2.7377844    1.3727362   -0.5405921
| 20> C    -1.4645844    0.8358744   -0.5242894
| 21> C    -1.2490981   -0.4480030   -0.0205935
| 22> N    -0.0000030   -1.0432030   -0.0000137
| 23> C     1.2490939   -0.4480122    0.0205693
| 24> C     1.4645799    0.8358701    0.5242536
| 25> C     2.7377842    1.3727196    0.5405848
| 26> C     3.8197345    0.6448029    0.0732932
| 27> C     3.6186055   -0.6428565   -0.3973679
| 28> C     2.3499175   -1.1865537   -0.4222637
| 29> H     2.1992371   -2.1927026   -0.7883102
| 30> H     4.4561847   -1.2273472   -0.7496018
| 31> H     4.8110858    1.0717450    0.0870960
| 32> H     2.8867498    2.3679477    0.9340158
| 33> H     0.6378008    1.3997729    0.9272124
| 34> H    -0.0000059   -2.0527341   -0.0000452
| 35> H    -0.6378114    1.3997636   -0.9272802
| 36> H    -2.8867521    2.3679612   -0.9340302
| 37> H    -4.8110729    1.0717947   -0.0870285
| 38> H    -4.4561737   -1.2272950    0.7496822
| 39> H    -2.1992344   -2.1926770    0.7883253
| 40> *
| 41>
| 42>                          ****END OF INPUT****
 Total Charge           Charge          ....    0
 Multiplicity           Mult            ....    1
 Number of Electrons    NEL             ....   90
Dispersion correction           -0.025064611
FINAL SINGLE POINT ENERGY      -517.669878931064
Dispersion correction             ... done (  0.1 sec)
Dispersion correction           -0.024903248
FINAL SINGLE POINT ENERGY      -517.672379161969
Dispersion correction             ... done (  0.1 sec)
Dispersion correction           -0.024902283
FINAL SINGLE POINT ENERGY      -517.672420705482
Dispersion correction             ... done (  0.1 sec)
Dispersion correction           -0.024892219
FINAL SINGLE POINT ENERGY      -517.672427109719
Dispersion correction             ... done (  0.1 sec)
Dispersion correction           -0.024899181
FINAL SINGLE POINT ENERGY      -517.672428436609
Dispersion correction             ... done (  0.1 sec)
                    ***********************HURRAY********************

CARTESIAN COORDINATES (ANGSTROEM)
---------------------------------
  C     -2.358556   -1.182987    0.447465
  C     -3.639986   -0.644947    0.405313
  C     -3.853032    0.641847   -0.089229
  C     -2.761603    1.371498   -0.559446
  C     -1.476601    0.836619   -0.537741
  C     -1.254407   -0.450590   -0.020984
  N     -0.000004   -1.046911   -0.000006
  C      1.254402   -0.450599    0.020971
  C      1.476601    0.836613    0.537720
  C      2.761607    1.371481    0.559440
  C      3.853038    0.641815    0.089248
  C      3.639988   -0.644982   -0.405287
  C      2.358553   -1.183010   -0.447456
  H      2.199089   -2.186680   -0.855224
  H      4.481998   -1.237979   -0.775281
  H      4.859167    1.068867    0.112855
  H      2.910877    2.375565    0.968522
  H      0.642460    1.409340    0.948012
  H     -0.000007   -2.059104   -0.000010
  H     -0.642461    1.409333   -0.948051
  H     -2.910870    2.375580   -0.968534
  H     -4.859157    1.068908   -0.112818
  H     -4.481996   -1.237932    0.775326
  H     -2.199093   -2.186654    0.855239

 Multiplicity           Mult            ....    1
 Number of Electrons    NEL             ....   90
 Basis Dimension        Dim             ....  204

ORBITAL ENERGIES
----------------

  NO   OCC          E(Eh)            E(eV)
   0   2.0000     -14.419263      -392.3681
   1   2.0000     -10.282908      -279.8121
   2   2.0000     -10.282896      -279.8118
   3   2.0000     -10.237129      -278.5665
   4   2.0000     -10.237129      -278.5664
   5   2.0000     -10.236280      -278.5433
   6   2.0000     -10.236275      -278.5432
   7   2.0000     -10.234321      -278.4900
   8   2.0000     -10.234318      -278.4900
   9   2.0000     -10.231738      -278.4198
  10   2.0000     -10.231704      -278.4188
  11   2.0000     -10.228321      -278.3268
  12   2.0000     -10.228321      -278.3268
  13   2.0000      -0.977886       -26.6096
  14   2.0000      -0.877400       -23.8753
  15   2.0000      -0.856963       -23.3191
  16   2.0000      -0.776892       -21.1403
  17   2.0000      -0.765884       -20.8408
  18   2.0000      -0.759357       -20.6632
  19   2.0000      -0.730608       -19.8808
  20   2.0000      -0.642069       -17.4716
  21   2.0000      -0.641908       -17.4672
  22   2.0000      -0.614519       -16.7219
  23   2.0000      -0.597369       -16.2552
  24   2.0000      -0.553255       -15.0548
  25   2.0000      -0.546803       -14.8793
  26   2.0000      -0.512774       -13.9533
  27   2.0000      -0.492096       -13.3906
  28   2.0000      -0.470189       -12.7945
  29   2.0000      -0.462439       -12.5836
  30   2.0000      -0.447545       -12.1783
  31   2.0000      -0.444866       -12.1054
  32   2.0000      -0.436347       -11.8736
  33   2.0000      -0.434042       -11.8109
  34   2.0000      -0.412146       -11.2151
  35   2.0000      -0.384775       -10.4703
  36   2.0000      -0.380962       -10.3665
  37   2.0000      -0.370029       -10.0690
  38   2.0000      -0.357852        -9.7376
  39   2.0000      -0.356970        -9.7137
  40   2.0000      -0.334972        -9.1150
  41   2.0000      -0.269237        -7.3263
  42   2.0000      -0.268169        -7.2973
  43   2.0000      -0.266173        -7.2429
  44   2.0000      -0.204975        -5.5777
  45   0.0000      -0.011500        -0.3129
  46   0.0000      -0.005211        -0.1418
  47   0.0000      -0.001466        -0.0399
  48   0.0000       0.029557         0.8043
  49   0.0000       0.065412         1.7800

MULLIKEN ATOMIC CHARGES
-----------------------
   0 C :   -0.164396
   1 C :   -0.099986
   2 C :   -0.093029
   3 C :   -0.101268
   4 C :   -0.172744
   5 C :    0.206634
   6 N :   -0.338056
   7 C :    0.206633
   8 C :   -0.172743
   9 C :   -0.101270
  10 C :   -0.093029
  11 C :   -0.099987
  12 C :   -0.164397
  13 H :    0.074485
  14 H :    0.095832
  15 H :    0.092810
  16 H :    0.096083
  17 H :    0.107030
  18 H :    0.255158
  19 H :    0.107030
  20 H :    0.096083
  21 H :    0.092810
  22 H :    0.095832
  23 H :    0.074485
Sum of atomic charges:    0.0000000

LOEWDIN ATOMIC CHARGES
----------------------
   0 C :   -0.159176
   1 C :   -0.118501
   2 C :   -0.155063
   3 C :   -0.117509
   4 C :   -0.157997
   5 C :    0.012894
   6 N :   -0.149597
   7 C :    0.012894
   8 C :   -0.157998
   9 C :   -0.117509
  10 C :   -0.155063
  11 C :   -0.118501
  12 C :   -0.159177
  13 H :    0.125091
  14 H :    0.129257
  15 H :    0.127934
  16 H :    0.129382
  17 H :    0.135986
  18 H :    0.245003
  19 H :    0.135987
  20 H :    0.129382
  21 H :    0.127934
  22 H :    0.129257
  23 H :    0.125091

  Mayer bond orders larger than 0.100000
B(  0-C ,  1-C ) :   1.4114 B(  0-C ,  5-C ) :   1.3512 B(  0-C , 23-H ) :   0.9607
B(  1-C ,  2-C ) :   1.3822 B(  1-C , 22-H ) :   0.9601 B(  2-C ,  3-C ) :   1.3854
B(  2-C , 21-H ) :   0.9666 B(  3-C ,  4-C ) :   1.4003 B(  3-C , 20-H ) :   0.9604
B(  4-C ,  5-C ) :   1.3569 B(  4-C , 19-H ) :   0.9537 B(  5-C ,  6-N ) :   1.0632
B(  6-N ,  7-C ) :   1.0632 B(  6-N , 18-H ) :   0.8553 B(  7-C ,  8-C ) :   1.3569
B(  7-C , 12-C ) :   1.3512 B(  8-C ,  9-C ) :   1.4003 B(  8-C , 17-H ) :   0.9537
B(  9-C , 10-C ) :   1.3854 B(  9-C , 16-H ) :   0.9604 B( 10-C , 11-C ) :   1.3822
B( 10-C , 15-H ) :   0.9666 B( 11-C , 12-C ) :   1.4114 B( 11-C , 14-H ) :   0.9601
B( 12-C , 13-H ) :   0.9607

Dispersion correction           -0.024902063
FINAL SINGLE POINT ENERGY      -517.672428515002

DIPOLE MOMENT
-------------

Method             : SCF
Type of density    : Electron Density
Multiplicity       :   1
Irrep              :   0
Energy             :  -517.6475264519201573 Eh
Relativity type    :
Basis              : AO
                                X                 Y                 Z
Electronic contribution:     -0.000017761      -1.110508856      -0.000025351
Nuclear contribution   :      0.000006870       0.752166841       0.000025965
                        -----------------------------------------
Total Dipole Moment    :     -0.000010891      -0.358342015       0.000000614
                        -----------------------------------------
Magnitude (a.u.)       :      0.358342015
Magnitude (Debye)      :      0.910833017

VIBRATIONAL FREQUENCIES
-----------------------

Scaling factor for frequencies =  1.000000000  (already applied!)

     0:       0.00 cm**-1
     1:       0.00 cm**-1
     2:       0.00 cm**-1
     3:       0.00 cm**-1
     4:       0.00 cm**-1
     5:       0.00 cm**-1
     6:      36.53 cm**-1
     7:      54.37 cm**-1
     8:     107.59 cm**-1
     9:     222.52 cm**-1
    10:     231.11 cm**-1
    11:     314.98 cm**-1
    12:     346.87 cm**-1
    13:     403.60 cm**-1
    14:     420.79 cm**-1
    15:     427.94 cm**-1
    16:     509.52 cm**-1
    17:     526.39 cm**-1
    18:     579.82 cm**-1
    19:     626.19 cm**-1
    20:     630.53 cm**-1
    21:     656.68 cm**-1
    22:     716.18 cm**-1
    23:     724.80 cm**-1
    24:     773.02 cm**-1
    25:     776.38 cm**-1
    26:     834.44 cm**-1
    27:     839.70 cm**-1
    28:     856.16 cm**-1
    29:     907.51 cm**-1
    30:     911.11 cm**-1
    31:     924.29 cm**-1
    32:     984.82 cm**-1
    33:     990.44 cm**-1
    34:    1008.89 cm**-1
    35:    1012.27 cm**-1
    36:    1013.21 cm**-1
    37:    1013.52 cm**-1
    38:    1064.17 cm**-1
    39:    1065.74 cm**-1
    40:    1109.41 cm**-1
    41:    1120.46 cm**-1
    42:    1170.34 cm**-1
    43:    1170.86 cm**-1
    44:    1193.64 cm**-1
    45:    1199.70 cm**-1
    46:    1281.97 cm**-1
    47:    1292.92 cm**-1
    48:    1354.10 cm**-1
    49:    1362.98 cm**-1
    50:    1407.78 cm**-1
    51:    1410.34 cm**-1
    52:    1472.11 cm**-1
    53:    1513.25 cm**-1
    54:    1543.25 cm**-1
    55:    1554.13 cm**-1
    56:    1591.71 cm**-1
    57:    1672.02 cm**-1
    58:    1676.36 cm**-1
    59:    1693.03 cm**-1
    60:    1706.49 cm**-1
    61:    3183.89 cm**-1
    62:    3184.18 cm**-1
    63:    3196.30 cm**-1
    64:    3196.86 cm**-1
    65:    3205.64 cm**-1
    66:    3205.89 cm**-1
    67:    3220.17 cm**-1
    68:    3221.77 cm**-1
    69:    3226.13 cm**-1
    70:    3230.44 cm**-1
    71:    3604.01 cm**-1

IR SPECTRUM
-----------

 Mode   freq       eps      Int      T**2         TX        TY        TZ
       cm**-1   L/(mol*cm) km/mol    a.u.
----------------------------------------------------------------------------
  6:     36.53   0.000251    1.27  0.002142  (-0.043059 -0.000001  0.016970)
  7:     54.37   0.000003    0.02  0.000018  ( 0.000014 -0.004218 -0.000005)
  8:    107.59   0.000003    0.01  0.000008  ( 0.000002 -0.002879  0.000002)
  9:    222.52   0.001398    7.07  0.001961  (-0.040272 -0.000000 -0.018420)
 10:    231.11   0.000080    0.40  0.000108  ( 0.000002 -0.010398  0.000002)
 11:    314.98   0.000031    0.16  0.000031  (-0.000001  0.005542 -0.000001)
 12:    346.87   0.002121   10.72  0.001908  ( 0.032705  0.000000  0.028955)
 13:    403.60   0.027738  140.18  0.021447  (-0.103305  0.000000 -0.103804)
 14:    420.79   0.000151    0.77  0.000112  (-0.010279  0.000000  0.002580)
 15:    427.94   0.000090    0.45  0.000066  (-0.000002  0.008100 -0.000003)
 16:    509.52   0.000466    2.36  0.000286  (-0.000002 -0.016898 -0.000002)
 17:    526.39   0.002759   13.95  0.001636  (-0.024191  0.000001 -0.032414)
 18:    579.82   0.000555    2.80  0.000299  ( 0.017281  0.000000  0.000092)
 19:    626.19   0.000052    0.26  0.000026  (-0.000000  0.005078  0.000000)
 20:    630.53   0.000306    1.55  0.000152  (-0.008537  0.000000  0.008877)
 21:    656.68   0.000303    1.53  0.000144  (-0.000001 -0.011991  0.000000)
 22:    716.18   0.012213   61.72  0.005322  (-0.025913 -0.000002 -0.068191)
 23:    724.80   0.001785    9.02  0.000769  ( 0.000002 -0.027722  0.000005)
 24:    773.02   0.000846    4.28  0.000342  (-0.000001  0.018481  0.000034)
 25:    776.38   0.014043   70.97  0.005645  (-0.004460 -0.000008  0.074997)
 26:    834.44   0.000046    0.23  0.000017  (-0.000000 -0.004144  0.000000)
 27:    839.70   0.000370    1.87  0.000138  ( 0.010890 -0.000000  0.004363)
 28:    856.16   0.000007    0.04  0.000003  (-0.000000 -0.001609 -0.000000)
 29:    907.51   0.001252    6.33  0.000431  ( 0.017269 -0.000000 -0.011509)
 30:    911.11   0.001390    7.02  0.000476  (-0.008118 -0.000001 -0.020253)
 31:    924.29   0.000233    1.18  0.000079  ( 0.000001 -0.008875  0.000000)
 32:    984.82   0.000028    0.14  0.000009  (-0.002928  0.000000  0.000644)
 33:    990.44   0.000005    0.03  0.000002  (-0.000001 -0.001258  0.000000)
 34:   1008.89   0.000194    0.98  0.000060  (-0.007090 -0.000001 -0.003101)
 35:   1012.27   0.000335    1.70  0.000103  (-0.010117 -0.000005  0.001033)
 36:   1013.21   0.000080    0.41  0.000025  ( 0.000006 -0.004972 -0.000000)
 37:   1013.52   0.000005    0.02  0.000002  (-0.000011  0.001233  0.000001)
 38:   1064.17   0.001845    9.32  0.000541  ( 0.023159 -0.000004  0.002173)
 39:   1065.74   0.000075    0.38  0.000022  (-0.000021 -0.004672 -0.000002)
 40:   1109.41   0.000746    3.77  0.000210  ( 0.005469 -0.000002 -0.013410)
 41:   1120.46   0.002294   11.59  0.000639  ( 0.000000 -0.025278  0.000002)
 42:   1170.34   0.000088    0.45  0.000024  (-0.001360 -0.000033  0.004654)
 43:   1170.86   0.000293    1.48  0.000078  ( 0.000006 -0.008837 -0.000017)
 44:   1193.64   0.001875    9.48  0.000490  (-0.022094 -0.000000  0.001449)
 45:   1199.70   0.000330    1.67  0.000086  ( 0.000002  0.009267  0.000001)
 46:   1281.97   0.000764    3.86  0.000186  ( 0.000007  0.013637 -0.000000)
 47:   1292.92   0.002044   10.33  0.000493  ( 0.022207 -0.000001  0.000428)
 48:   1354.10   0.000005    0.02  0.000001  ( 0.000005 -0.001062  0.000000)
 49:   1362.98   0.013935   70.42  0.003191  ( 0.056441 -0.000001  0.002250)
 50:   1407.78   0.001066    5.39  0.000236  (-0.000028  0.015371  0.000003)
 51:   1410.34   0.019125   96.65  0.004232  ( 0.064626  0.000006 -0.007432)
 52:   1472.11   0.003185   16.10  0.000675  ( 0.025900  0.000000  0.002095)
 53:   1513.25   0.000816    4.12  0.000168  ( 0.000001 -0.012973  0.000000)
 54:   1543.25   0.019490   98.49  0.003941  ( 0.062692  0.000002 -0.003283)
 55:   1554.13   0.001258    6.36  0.000253  (-0.000002  0.015893  0.000001)
 56:   1591.71   0.085359  431.37  0.016735  ( 0.129192 -0.000001  0.006676)
 57:   1672.02   0.001913    9.67  0.000357  (-0.000001  0.018894 -0.000001)
 58:   1676.36   0.002450   12.38  0.000456  (-0.019094  0.000001  0.009563)
 59:   1693.03   0.073181  369.83  0.013489  (-0.116134 -0.000000 -0.001332)
 60:   1706.49   0.001551    7.84  0.000284  ( 0.000005 -0.016844  0.000000)
 61:   3183.89   0.002357   11.91  0.000231  ( 0.014757  0.000113  0.003633)
 62:   3184.18   0.001535    7.76  0.000150  (-0.000136  0.012264 -0.000033)
 63:   3196.30   0.000295    1.49  0.000029  (-0.004958 -0.000014 -0.002051)
 64:   3196.86   0.000098    0.49  0.000010  ( 0.000021 -0.003090  0.000008)
 65:   3205.64   0.000886    4.48  0.000086  (-0.001622  0.000157  0.009143)
 66:   3205.89   0.005140   25.98  0.000500  ( 0.000011  0.022369 -0.000064)
 67:   3220.17   0.005956   30.10  0.000577  (-0.023756 -0.000001  0.003584)
 68:   3221.77   0.000047    0.24  0.000005  ( 0.000007 -0.002136 -0.000002)
 69:   3226.13   0.000368    1.86  0.000036  (-0.005182  0.000001 -0.002956)
 70:   3230.44   0.000397    2.01  0.000038  ( 0.000000 -0.006191  0.000001)
 71:   3604.01   0.005738   29.00  0.000497  ( 0.000000  0.022290  0.000000)

--------------------------
THERMOCHEMISTRY AT 298.15K
--------------------------

Temperature         ...   298.15 K
Pressure            ...     1.00 atm
Total Mass          ...   169.23 AMU
Quasi RRHO          ...     True
Cut-Off Frequency   ...     1.00 cm^-1

Throughout the following assumptions are being made:
  (1) The electronic state is orbitally nondegenerate
  (2) There are no thermally accessible electronically excited states
  (3) Hindered rotations indicated by low frequency modes are not
      treated as such but are treated as vibrations and this may
      cause some error
  (4) All equations used are the standard statistical mechanics
      equations for an ideal gas
  (5) All vibrations are strictly harmonic

freq.      36.53  E(vib)   ...       0.54
freq.      54.37  E(vib)   ...       0.52
freq.     107.59  E(vib)   ...       0.45
freq.     222.52  E(vib)   ...       0.33
freq.     231.11  E(vib)   ...       0.32
freq.     314.98  E(vib)   ...       0.25
freq.     346.87  E(vib)   ...       0.23
freq.     403.60  E(vib)   ...       0.19
freq.     420.79  E(vib)   ...       0.18
freq.     427.94  E(vib)   ...       0.18
freq.     509.52  E(vib)   ...       0.14
freq.     526.39  E(vib)   ...       0.13
freq.     579.82  E(vib)   ...       0.11
freq.     626.19  E(vib)   ...       0.09
freq.     630.53  E(vib)   ...       0.09
freq.     656.68  E(vib)   ...       0.08
freq.     716.18  E(vib)   ...       0.07
freq.     724.80  E(vib)   ...       0.06
freq.     773.02  E(vib)   ...       0.05
freq.     776.38  E(vib)   ...       0.05
freq.     834.44  E(vib)   ...       0.04
freq.     839.70  E(vib)   ...       0.04
freq.     856.16  E(vib)   ...       0.04
freq.     907.51  E(vib)   ...       0.03
freq.     911.11  E(vib)   ...       0.03
freq.     924.29  E(vib)   ...       0.03
freq.     984.82  E(vib)   ...       0.02
freq.     990.44  E(vib)   ...       0.02
freq.    1008.89  E(vib)   ...       0.02
freq.    1012.27  E(vib)   ...       0.02
freq.    1013.21  E(vib)   ...       0.02
freq.    1013.52  E(vib)   ...       0.02
freq.    1064.17  E(vib)   ...       0.02
freq.    1065.74  E(vib)   ...       0.02
freq.    1109.41  E(vib)   ...       0.02
freq.    1120.46  E(vib)   ...       0.01
freq.    1170.34  E(vib)   ...       0.01
freq.    1170.86  E(vib)   ...       0.01
freq.    1193.64  E(vib)   ...       0.01
freq.    1199.70  E(vib)   ...       0.01
freq.    1281.97  E(vib)   ...       0.01
freq.    1292.92  E(vib)   ...       0.01
freq.    1354.10  E(vib)   ...       0.01
freq.    1362.98  E(vib)   ...       0.01
freq.    1407.78  E(vib)   ...       0.00
freq.    1410.34  E(vib)   ...       0.00
freq.    1472.11  E(vib)   ...       0.00
freq.    1513.25  E(vib)   ...       0.00
freq.    1543.25  E(vib)   ...       0.00
freq.    1554.13  E(vib)   ...       0.00
freq.    1591.71  E(vib)   ...       0.00
freq.    1672.02  E(vib)   ...       0.00
freq.    1676.36  E(vib)   ...       0.00
freq.    1693.03  E(vib)   ...       0.00
freq.    1706.49  E(vib)   ...       0.00
freq.    3183.89  E(vib)   ...       0.00
freq.    3184.18  E(vib)   ...       0.00
freq.    3196.30  E(vib)   ...       0.00
freq.    3196.86  E(vib)   ...       0.00
freq.    3205.64  E(vib)   ...       0.00
freq.    3205.89  E(vib)   ...       0.00
freq.    3220.17  E(vib)   ...       0.00
freq.    3221.77  E(vib)   ...       0.00
freq.    3226.13  E(vib)   ...       0.00
freq.    3230.44  E(vib)   ...       0.00
freq.    3604.01  E(vib)   ...       0.00

------------
INNER ENERGY
------------

The inner energy is: U= E(el) + E(ZPE) + E(vib) + E(rot) + E(trans)
    E(el)   - is the total energy from the electronic structure calculation
              = E(kin-el) + E(nuc-el) + E(el-el) + E(nuc-nuc)
    E(ZPE)  - the the zero temperature vibrational energy from the frequency calculation
    E(vib)  - the the finite temperature correction to E(ZPE) due to population
              of excited vibrational states
    E(rot)  - is the rotational thermal energy
    E(trans)- is the translational thermal energy

Summary of contributions to the inner energy U:
Electronic energy                ...   -517.67242852 Eh
Zero point energy                ...      0.19975927 Eh     125.35 kcal/mol
Thermal vibrational correction   ...      0.00732536 Eh       4.60 kcal/mol
Thermal rotational correction    ...      0.00141627 Eh       0.89 kcal/mol
Thermal translational correction ...      0.00141627 Eh       0.89 kcal/mol
-----------------------------------------------------------------------
Total thermal energy                   -517.46251134 Eh

Summary of corrections to the electronic energy:
(perhaps to be used in another calculation)
Total thermal correction                  0.01015790 Eh       6.37 kcal/mol
Non-thermal (ZPE) correction              0.19975927 Eh     125.35 kcal/mol
-----------------------------------------------------------------------
Total correction                          0.20991717 Eh     131.72 kcal/mol

--------
ENTHALPY
--------

The enthalpy is H = U + kB*T
                kB is Boltzmann's constant
Total thermal energy              ...   -517.46251134 Eh
Thermal Enthalpy correction       ...      0.00094421 Eh       0.59 kcal/mol
-----------------------------------------------------------------------
Total Enthalpy                    ...   -517.46156714 Eh

Note: Rotational entropy computed according to Herzberg
Infrared and Raman Spectra, Chapter V,1, Van Nostrand Reinhold, 1945
Point Group:  C2, Symmetry Number:   2
Rotational constants in cm-1:     0.084180     0.013733     0.012322

Vibrational entropy computed according to the QRRHO of S. Grimme
Chem.Eur.J. 2012 18 9955 using a reference frequency of 100.0 cm-1

-------
ENTROPY
-------

The entropy contributions are T*S = T*(S(el)+S(vib)+S(rot)+S(trans))
     S(el)   - electronic entropy
     S(vib)  - vibrational entropy
     S(rot)  - rotational entropy
     S(trans)- translational entropy
The entropies will be listed as multiplied by the temperature to get
units of energy

Electronic entropy                ...      0.00000000 Eh      0.00 kcal/mol
Vibrational entropy               ...      0.01216780 Eh      7.64 kcal/mol
Rotational entropy                ...      0.01412447 Eh      8.86 kcal/mol
Translational entropy             ...      0.01961630 Eh     12.31 kcal/mol
-----------------------------------------------------------------------
Final entropy term                ...      0.04590857 Eh     28.81 kcal/mol

In case the symmetry of your molecule has not been determined correctly
or in case you have a reason to use a different symmetry number we print
out the resulting rotational entropy values for sn=1,12:

                             ****ORCA TERMINATED NORMALLY****
TOTAL RUN TIME: 0 days 0 hours 12 minutes 9 seconds 772 msec
