                         Program Version 6.0.0  -   RELEASE  -
|  1> !PBE0 aug-cc-pVTZ d3 TightSCF SlowConv RIJCOSX defgrid2
|  2>
|  3> %pal
|  4> nprocs 4
|  5> end
|  6>
|  7> %scf
|  8> MaxIter 1500
|  9> end
| 10>
| 11> %maxcore 3000
| 12>
| 13> !CPCM
| 14> %cpcm smd true
| 15> SMDsolvent "MeCN"
| 16> surfacetype gepol_ses
| 17> rsolv 2.19
| 18> end
| 19>
| 20> * xyz 0 1
| 21> C           1.86847672101122     -0.00008236176043      0.00934069542278
| 22> C           1.16491620854655     -1.20399668013187      0.00231506739479
| 23> C          -0.22896335284967     -1.20071978485061     -0.00929652137640
| 24> C          -0.94900034920378      0.00006360460976     -0.01194017646160
| 25> C          -2.45182373447190      0.00004409306138      0.01139598288954
| 26> H          -2.86400768085413      0.89448921652384     -0.48498227844954
| 27> H          -2.86406757845967     -0.89139694424087     -0.49034168247459
| 28> H          -2.83153291351154     -0.00310912605040      1.05029467072035
| 29> C          -0.22885343288002      1.20074830825039     -0.00915605869330
| 30> C           1.16505216971292      1.20388451241840      0.00245858099490
| 31> H           1.70620101334868      2.15511788824393      0.00229991498037
| 32> H          -0.77200932779939      2.15177858845512     -0.01887855569817
| 33> H          -0.77221541101255     -2.15169724965365     -0.01913454693012
| 34> H           1.70598089527851     -2.15527912856971      0.00204061695885
| 35> H           2.96252007314476     -0.00014523630528      0.01580649072214
| 36> *
| 37>
| 38>                          ****END OF INPUT****

CARTESIAN COORDINATES (ANGSTROEM)
---------------------------------
  C      1.868477   -0.000082    0.009341
  C      1.164916   -1.203997    0.002315
  C     -0.228963   -1.200720   -0.009297
  C     -0.949000    0.000064   -0.011940
  C     -2.451824    0.000044    0.011396
  H     -2.864008    0.894489   -0.484982
  H     -2.864068   -0.891397   -0.490342
  H     -2.831533   -0.003109    1.050295
  C     -0.228853    1.200748   -0.009156
  C      1.165052    1.203885    0.002459
  H      1.706201    2.155118    0.002300
  H     -0.772009    2.151779   -0.018879
  H     -0.772215   -2.151697   -0.019135
  H      1.705981   -2.155279    0.002041
  H      2.962520   -0.000145    0.015806

 Total Charge           Charge          ....    0
 Multiplicity           Mult            ....    1
 Number of Electrons    NEL             ....   50
 Basis Dimension        Dim             ....  506

ORBITAL ENERGIES
----------------

  NO   OCC          E(Eh)            E(eV)
   0   2.0000     -10.239724      -278.6370
   1   2.0000     -10.228978      -278.3446
   2   2.0000     -10.228891      -278.3423
   3   2.0000     -10.226587      -278.2796
   4   2.0000     -10.225979      -278.2630
   5   2.0000     -10.225978      -278.2630
   6   2.0000     -10.215477      -277.9773
   7   2.0000      -0.883009       -24.0279
   8   2.0000      -0.793043       -21.5798
   9   2.0000      -0.765879       -20.8406
  10   2.0000      -0.700290       -19.0558
  11   2.0000      -0.620196       -16.8764
  12   2.0000      -0.597897       -16.2696
  13   2.0000      -0.521786       -14.1985
  14   2.0000      -0.472506       -12.8575
  15   2.0000      -0.460849       -12.5403
  16   2.0000      -0.427675       -11.6376
  17   2.0000      -0.426731       -11.6119
  18   2.0000      -0.416644       -11.3375
  19   2.0000      -0.387657       -10.5487
  20   2.0000      -0.371445       -10.1075
  21   2.0000      -0.348989        -9.4965
  22   2.0000      -0.343866        -9.3571
  23   2.0000      -0.267642        -7.2829
  24   2.0000      -0.256701        -6.9852
  25   0.0000      -0.010842        -0.2950
  26   0.0000      -0.008490        -0.2310
  27   0.0000       0.003065         0.0834
  28   0.0000       0.015683         0.4267
  29   0.0000       0.019550         0.5320

MULLIKEN ATOMIC CHARGES
-----------------------
   0 C :   -0.420564
   1 C :   -0.598156
   2 C :   -0.973450
   3 C :    1.018205
   4 C :   -0.656348
   5 H :    0.264208
   6 H :    0.263906
   7 H :    0.262455
   8 C :   -0.970128
   9 C :   -0.596451
  10 H :    0.602136
  11 H :    0.340150
  12 H :    0.341160
  13 H :    0.596379
  14 H :    0.526497
Sum of atomic charges:   -0.0000000

LOEWDIN ATOMIC CHARGES
----------------------
   0 C :    0.170195
   1 C :    0.175166
   2 C :    0.193394
   3 C :   -0.154208
   4 C :    0.565339
   5 H :   -0.163617
   6 H :   -0.163512
   7 H :   -0.149818
   8 C :    0.193411
   9 C :    0.175172
  10 H :   -0.170248
  11 H :   -0.164118
  12 H :   -0.164060
  13 H :   -0.170254
  14 H :   -0.172843

  Mayer bond orders larger than 0.100000
B(  0-C ,  1-C ) :   1.2661 B(  0-C ,  9-C ) :   1.2684 B(  0-C , 14-H ) :   0.5694
B(  1-C ,  2-C ) :   1.3565 B(  1-C , 13-H ) :   0.4206 B(  2-C ,  3-C ) :   0.7720
B(  2-C , 12-H ) :   0.8412 B(  3-C ,  4-C ) :   0.5869 B(  3-C ,  8-C ) :   0.7682
B(  4-C ,  5-H ) :   0.9173 B(  4-C ,  6-H ) :   0.9174 B(  4-C ,  7-H ) :   0.9267
B(  8-C ,  9-C ) :   1.3574 B(  8-C , 11-H ) :   0.8441 B(  9-C , 10-H ) :   0.4117

Dispersion correction           -0.012164838
FINAL SINGLE POINT ENERGY      -271.345134975125

DIPOLE MOMENT
-------------

Method             : SCF
Type of density    : Electron Density
Multiplicity       :   1
Irrep              :   0
Energy             :  -271.3329701369326017 Eh
Relativity type    :
Basis              : AO
                                X                 Y                 Z
Electronic contribution:      3.288823737      -0.000055331      -0.028708128
Nuclear contribution   :     -3.524846021      -0.000150115       0.053662303
                        -----------------------------------------
Total Dipole Moment    :     -0.236022284      -0.000205445       0.024954175
                        -----------------------------------------
Magnitude (a.u.)       :      0.237337885
Magnitude (Debye)      :      0.603264961

Rotational constants in cm-1:             0.184524             0.083891             0.058309
Rotational constants in MHz :          5531.875560          2514.985236          1748.069221

                             ****ORCA TERMINATED NORMALLY****
TOTAL RUN TIME: 0 days 0 hours 3 minutes 0 seconds 417 msec
