                         Program Version 6.0.0  -   RELEASE  -
|  1> !r2SCAN aug-cc-pVTZ d3 TightSCF SlowConv RIJCOSX defgrid2
|  2>
|  3> %pal
|  4> nprocs 4
|  5> end
|  6>
|  7> %scf
|  8> MaxIter 1500
|  9> end
| 10>
| 11> %maxcore 3000
| 12>
| 13> !CPCM
| 14> %cpcm smd true
| 15> SMDsolvent "MeCN"
| 16> surfacetype gepol_ses
| 17> rsolv 2.19
| 18> end
| 19>
| 20> * xyz 0 1
| 21> N           0.15975924296332      0.12445058338132      0.31604288059979
| 22> C          -1.19113288858807     -0.03866597413313      0.81654672996346
| 23> C          -2.31404669003534     -0.01392479742617     -0.22115980972317
| 24> H          -3.29712795220661     -0.11050189519336      0.27216270478690
| 25> H          -2.22374427381768     -0.84298980217516     -0.94495572722258
| 26> H          -2.31766293194652      0.93130971057126     -0.79241152719390
| 27> H          -1.24118777155842     -0.98367549326804      1.38531777446702
| 28> H          -1.36414427314090      0.76090167006913      1.55962872548440
| 29> C           0.62547089775175     -0.92869162394065     -0.56188129632475
| 30> C           0.59510137492734     -2.31310993961179      0.06527507131526
| 31> H          -0.43217334595978     -2.68538495815961      0.21937250172711
| 32> H           1.11073003856311     -3.03735318800821     -0.58821336851619
| 33> H           1.10594756855008     -2.30061285180890      1.04369021631712
| 34> H           0.06636480368987     -0.94738167933480     -1.52902550894480
| 35> H           1.66989109901219     -0.69687695874228     -0.82974302531472
| 36> C           0.44663628376999      1.45259534411955     -0.18717965378079
| 37> C           1.91168679391593      1.84575888559843     -0.05684387193733
| 38> H           2.57178979071434      1.21847816004489     -0.68008856196741
| 39> H           2.23976832497324      1.74559120055302      0.99176343824238
| 40> H           2.05890339514312      2.89253491311342     -0.37523787624847
| 41> H           0.12405895964874      1.58040814853664     -1.24813910560320
| 42> H          -0.15649294636972      2.16687674581443      0.40066148987389
| 43> *
| 44>
| 45>                          ****END OF INPUT****

CARTESIAN COORDINATES (ANGSTROEM)
---------------------------------
  N      0.159759    0.124451    0.316043
  C     -1.191133   -0.038666    0.816547
  C     -2.314047   -0.013925   -0.221160
  H     -3.297128   -0.110502    0.272163
  H     -2.223744   -0.842990   -0.944956
  H     -2.317663    0.931310   -0.792412
  H     -1.241188   -0.983675    1.385318
  H     -1.364144    0.760902    1.559629
  C      0.625471   -0.928692   -0.561881
  C      0.595101   -2.313110    0.065275
  H     -0.432173   -2.685385    0.219373
  H      1.110730   -3.037353   -0.588213
  H      1.105948   -2.300613    1.043690
  H      0.066365   -0.947382   -1.529026
  H      1.669891   -0.696877   -0.829743
  C      0.446636    1.452595   -0.187180
  C      1.911687    1.845759   -0.056844
  H      2.571790    1.218478   -0.680089
  H      2.239768    1.745591    0.991763
  H      2.058903    2.892535   -0.375238
  H      0.124059    1.580408   -1.248139
  H     -0.156493    2.166877    0.400661

 Total Charge           Charge          ....    0
 Multiplicity           Mult            ....    1
 Number of Electrons    NEL             ....   58
 Basis Dimension        Dim             ....  667

ORBITAL ENERGIES
----------------

  NO   OCC          E(Eh)            E(eV)
   0   2.0000     -14.146087      -384.9346
   1   2.0000     -10.048906      -273.4446
   2   2.0000     -10.048219      -273.4259
   3   2.0000     -10.047621      -273.4097
   4   2.0000     -10.017813      -272.5985
   5   2.0000     -10.016585      -272.5651
   6   2.0000     -10.015269      -272.5293
   7   2.0000      -0.884577       -24.0706
   8   2.0000      -0.720857       -19.6155
   9   2.0000      -0.715642       -19.4736
  10   2.0000      -0.665039       -18.0966
  11   2.0000      -0.594615       -16.1803
  12   2.0000      -0.578111       -15.7312
  13   2.0000      -0.509280       -13.8582
  14   2.0000      -0.450023       -12.2457
  15   2.0000      -0.436974       -11.8907
  16   2.0000      -0.414419       -11.2769
  17   2.0000      -0.398667       -10.8483
  18   2.0000      -0.373868       -10.1735
  19   2.0000      -0.361626        -9.8404
  20   2.0000      -0.353186        -9.6107
  21   2.0000      -0.338293        -9.2054
  22   2.0000      -0.331813        -9.0291
  23   2.0000      -0.323563        -8.8046
  24   2.0000      -0.311199        -8.4682
  25   2.0000      -0.303816        -8.2672
  26   2.0000      -0.294275        -8.0076
  27   2.0000      -0.283325        -7.7097
  28   2.0000      -0.175260        -4.7691
  29   0.0000       0.009241         0.2515
  30   0.0000       0.021291         0.5793
  31   0.0000       0.021833         0.5941
  32   0.0000       0.025349         0.6898
  33   0.0000       0.044153         1.2015

MULLIKEN ATOMIC CHARGES
-----------------------
   0 N :    0.016274
   1 C :   -0.160722
   2 C :   -0.653507
   3 H :    0.158812
   4 H :    0.209251
   5 H :    0.184870
   6 H :    0.043409
   7 H :    0.242361
   8 C :   -0.101949
   9 C :   -0.769749
  10 H :    0.229694
  11 H :    0.088253
  12 H :    0.193450
  13 H :    0.049143
  14 H :    0.370774
  15 C :   -0.199430
  16 C :   -0.860275
  17 H :    0.222234
  18 H :    0.172301
  19 H :    0.120428
  20 H :    0.142567
  21 H :    0.301810
Sum of atomic charges:   -0.0000000

LOEWDIN ATOMIC CHARGES
----------------------
   0 N :    0.264317
   1 C :    0.126986
   2 C :    0.578944
   3 H :   -0.161326
   4 H :   -0.169059
   5 H :   -0.163650
   6 H :   -0.158145
   7 H :   -0.141862
   8 C :    0.111145
   9 C :    0.574811
  10 H :   -0.171989
  11 H :   -0.158927
  12 H :   -0.155708
  13 H :   -0.128297
  14 H :   -0.163196
  15 C :    0.109401
  16 C :    0.579067
  17 H :   -0.177631
  18 H :   -0.161096
  19 H :   -0.161933
  20 H :   -0.125227
  21 H :   -0.146621

  Mayer bond orders larger than 0.100000
B(  0-N ,  1-C ) :   0.8680 B(  0-N ,  8-C ) :   0.7561 B(  0-N , 15-C ) :   0.9070
B(  1-C ,  2-C ) :   0.7054 B(  1-C ,  6-H ) :   1.0637 B(  1-C ,  7-H ) :   0.8942
B(  2-C ,  3-H ) :   1.0003 B(  2-C ,  4-H ) :   0.9568 B(  2-C ,  5-H ) :   0.9852
B(  8-C ,  9-C ) :   0.7284 B(  8-C , 13-H ) :   1.0561 B(  8-C , 14-H ) :   0.7772
B(  8-C , 15-C ) :   0.1234 B(  9-C , 10-H ) :   0.9266 B(  9-C , 11-H ) :   1.1422
B(  9-C , 12-H ) :   0.9831 B( 15-C , 16-C ) :   0.6580 B( 15-C , 20-H ) :   0.9964
B( 15-C , 21-H ) :   0.8565 B( 16-C , 17-H ) :   0.9867 B( 16-C , 18-H ) :   1.0181
B( 16-C , 19-H ) :   1.0974

Dispersion correction           -0.005732496
FINAL SINGLE POINT ENERGY      -292.341683677296

DIPOLE MOMENT
-------------

Method             : SCF
Type of density    : Electron Density
Multiplicity       :   1
Irrep              :   0
Energy             :  -292.3359511811654556 Eh
Relativity type    :
Basis              : AO
                                X                 Y                 Z
Electronic contribution:      0.286468056       0.534579723       1.028249977
Nuclear contribution   :     -0.501506717      -0.494754897      -1.261304975
                        -----------------------------------------
Total Dipole Moment    :     -0.215038661       0.039824826      -0.233054998
                        -----------------------------------------
Magnitude (a.u.)       :      0.319597050
Magnitude (Debye)      :      0.812351144

Rotational constants in cm-1:             0.094674             0.067966             0.045296
Rotational constants in MHz :          2838.248460          2037.567031          1357.933108

                             ****ORCA TERMINATED NORMALLY****
TOTAL RUN TIME: 0 days 0 hours 3 minutes 4 seconds 354 msec
