                         Program Version 6.0.0  -   RELEASE  -
|  1> !PBE0 aug-cc-pVTZ d3 TightSCF SlowConv RIJCOSX defgrid2
|  2>
|  3> %pal
|  4> nprocs 15
|  5> end
|  6>
|  7> %scf
|  8> MaxIter 1500
|  9> end
| 10>
| 11> %maxcore 3500
| 12>
| 13> !CPCM
| 14> %cpcm smd true
| 15> SMDsolvent "WATER"
| 16> surfacetype gepol_ses
| 17> rsolv 1.40
| 18> end
| 19>
| 20> * xyz -1 2
| 21> C          -0.71119473453608     -1.27753769603753     -1.66469193495667
| 22> C          -0.84757971737407     -1.37051300939389      2.56012596471587
| 23> C           0.17600407523538     -0.66718968097552      3.30203602345821
| 24> C           0.07441786205000     -0.73736210099662      4.72686229958031
| 25> C          -0.95819946382070     -1.44732964560191      5.30922921995402
| 26> C          -1.89246898961745     -2.08918221632698      4.48282869513414
| 27> N          -1.82946922247699     -2.04538372747969      3.14996632780079
| 28> H           0.82375813463839     -0.22230666320522      5.33950916179957
| 29> H          -1.05139748109670     -1.51180696271490      6.40034489381934
| 30> H          -2.72424323526883     -2.66100937066717      4.91891129019417
| 31> C          -0.79539610804297     -1.33457211558685      1.08568997656786
| 32> C           0.27704054129144     -0.59784286447255      0.45308262509050
| 33> C           0.27660122861131     -0.59863568883798     -0.97709504218512
| 34> C          -1.70061257174833     -1.95699542487128     -0.93863375126110
| 35> N          -1.73203419494814     -1.97823597597462      0.39590607204878
| 36> H           1.06664268699891     -0.05607062090082     -1.50961690897062
| 37> H          -0.72694279099019     -1.28881726054281     -2.76150198645861
| 38> H          -2.49859691297974     -2.50535045021093     -1.45973231485977
| 39> C           1.19223786884036      0.03130278829810      2.63097992514689
| 40> C           1.24199802211239      0.06547304417526      1.22748014190895
| 41> H           1.95294993788081      0.55389136062698      3.22288120162125
| 42> H           2.04173228124121      0.61487911869694      0.71689035185124
| 43> *
| 44>
| 45>                          ****END OF INPUT****

CARTESIAN COORDINATES (ANGSTROEM)
---------------------------------
  C     -0.711195   -1.277538   -1.664692
  C     -0.847580   -1.370513    2.560126
  C      0.176004   -0.667190    3.302036
  C      0.074418   -0.737362    4.726862
  C     -0.958199   -1.447330    5.309229
  C     -1.892469   -2.089182    4.482829
  N     -1.829469   -2.045384    3.149966
  H      0.823758   -0.222307    5.339509
  H     -1.051397   -1.511807    6.400345
  H     -2.724243   -2.661009    4.918911
  C     -0.795396   -1.334572    1.085690
  C      0.277041   -0.597843    0.453083
  C      0.276601   -0.598636   -0.977095
  C     -1.700613   -1.956995   -0.938634
  N     -1.732034   -1.978236    0.395906
  H      1.066643   -0.056071   -1.509617
  H     -0.726943   -1.288817   -2.761502
  H     -2.498597   -2.505350   -1.459732
  C      1.192238    0.031303    2.630980
  C      1.241998    0.065473    1.227480
  H      1.952950    0.553891    3.222881
  H      2.041732    0.614879    0.716890

 Total Charge           Charge          ....   -1
 Multiplicity           Mult            ....    2
 Number of Electrons    NEL             ....   95
 Basis Dimension        Dim             ....  828

ORBITAL ENERGIES
----------------
                 SPIN UP ORBITALS
  NO   OCC          E(Eh)            E(eV)
   0   1.0000     -14.363640      -390.8545
   1   1.0000     -14.363614      -390.8538
   2   1.0000     -10.248556      -278.8774
   3   1.0000     -10.248188      -278.8674
   4   1.0000     -10.233112      -278.4571
   5   1.0000     -10.233091      -278.4566
   6   1.0000     -10.224910      -278.2339
   7   1.0000     -10.224874      -278.2330
   8   1.0000     -10.219510      -278.0870
   9   1.0000     -10.219451      -278.0854
  10   1.0000     -10.218794      -278.0675
  11   1.0000     -10.218739      -278.0660
  12   1.0000     -10.201155      -277.5875
  13   1.0000     -10.200574      -277.5717
  14   1.0000      -0.965388       -26.2695
  15   1.0000      -0.941404       -25.6169
  16   1.0000      -0.846343       -23.0302
  17   1.0000      -0.808768       -22.0077
  18   1.0000      -0.804472       -21.8908
  19   1.0000      -0.752197       -20.4683
  20   1.0000      -0.736841       -20.0505
  21   1.0000      -0.652189       -17.7470
  22   1.0000      -0.650032       -17.6883
  23   1.0000      -0.625443       -17.0192
  24   1.0000      -0.594851       -16.1867
  25   1.0000      -0.550386       -14.9768
  26   1.0000      -0.526953       -14.3391
  27   1.0000      -0.505933       -13.7671
  28   1.0000      -0.476203       -12.9582
  29   1.0000      -0.475845       -12.9484
  30   1.0000      -0.459024       -12.4907
  31   1.0000      -0.430487       -11.7141
  32   1.0000      -0.424656       -11.5555
  33   1.0000      -0.405979       -11.0472
  34   1.0000      -0.397444       -10.8150
  35   1.0000      -0.395559       -10.7637
  36   1.0000      -0.392591       -10.6830
  37   1.0000      -0.387034       -10.5317
  38   1.0000      -0.360457        -9.8085
  39   1.0000      -0.340651        -9.2696
  40   1.0000      -0.339813        -9.2468
  41   1.0000      -0.303867        -8.2686
  42   1.0000      -0.297388        -8.0923
  43   1.0000      -0.260815        -7.0971
  44   1.0000      -0.249234        -6.7820
  45   1.0000      -0.246731        -6.7139
  46   1.0000      -0.225637        -6.1399
  47   1.0000      -0.100745        -2.7414
  48   0.0000      -0.041937        -1.1412
  49   0.0000      -0.004459        -0.1213
  50   0.0000       0.002004         0.0545
  51   0.0000       0.011044         0.3005
  52   0.0000       0.014424         0.3925

                 SPIN DOWN ORBITALS
  NO   OCC          E(Eh)            E(eV)
   0   1.0000     -14.363812      -390.8592
   1   1.0000     -14.363787      -390.8585
   2   1.0000     -10.247875      -278.8588
   3   1.0000     -10.247501      -278.8487
   4   1.0000     -10.229743      -278.3655
   5   1.0000     -10.229716      -278.3647
   6   1.0000     -10.225094      -278.2389
   7   1.0000     -10.225060      -278.2380
   8   1.0000     -10.220428      -278.1120
   9   1.0000     -10.220381      -278.1107
  10   1.0000     -10.216156      -277.9957
  11   1.0000     -10.216091      -277.9940
  12   1.0000     -10.198317      -277.5103
  13   1.0000     -10.197712      -277.4939
  14   1.0000      -0.963372       -26.2147
  15   1.0000      -0.939227       -25.5577
  16   1.0000      -0.841804       -22.9066
  17   1.0000      -0.805171       -21.9098
  18   1.0000      -0.801186       -21.8014
  19   1.0000      -0.748967       -20.3804
  20   1.0000      -0.731450       -19.9038
  21   1.0000      -0.649995       -17.6873
  22   1.0000      -0.641949       -17.4683
  23   1.0000      -0.623150       -16.9568
  24   1.0000      -0.592153       -16.1133
  25   1.0000      -0.546806       -14.8793
  26   1.0000      -0.524897       -14.2832
  27   1.0000      -0.503985       -13.7141
  28   1.0000      -0.474075       -12.9002
  29   1.0000      -0.473846       -12.8940
  30   1.0000      -0.457589       -12.4516
  31   1.0000      -0.424009       -11.5379
  32   1.0000      -0.423854       -11.5337
  33   1.0000      -0.404155       -10.9976
  34   1.0000      -0.395909       -10.7732
  35   1.0000      -0.393916       -10.7190
  36   1.0000      -0.385405       -10.4874
  37   1.0000      -0.383699       -10.4410
  38   1.0000      -0.358774        -9.7627
  39   1.0000      -0.338268        -9.2047
  40   1.0000      -0.325498        -8.8573
  41   1.0000      -0.294951        -8.0260
  42   1.0000      -0.284537        -7.7426
  43   1.0000      -0.260683        -7.0936
  44   1.0000      -0.246743        -6.7142
  45   1.0000      -0.240627        -6.5478
  46   1.0000      -0.205201        -5.5838
  47   0.0000      -0.036178        -0.9845
  48   0.0000      -0.032547        -0.8856
  49   0.0000       0.003212         0.0874
  50   0.0000       0.008137         0.2214
  51   0.0000       0.012351         0.3361

MULLIKEN ATOMIC CHARGES AND SPIN POPULATIONS
--------------------------------------------
   0 C :   -0.347248   -0.078958
   1 C :    1.127947    0.045438
   2 C :    1.459692    0.014926
   3 C :   -1.283124    0.199093
   4 C :   -0.342113   -0.079024
   5 C :   -0.929380    0.239199
   6 N :   -0.853555   -0.019485
   7 H :    0.465315   -0.015521
   8 H :    0.443612   -0.003340
   9 H :    0.555422   -0.013320
  10 C :    1.113640    0.045481
  11 C :    1.457089    0.014941
  12 C :   -1.254547    0.199098
  13 C :   -0.909601    0.238524
  14 N :   -0.850071   -0.019690
  15 H :    0.473637   -0.015631
  16 H :    0.412465   -0.003513
  17 H :    0.552750   -0.013189
  18 C :   -1.353993    0.158646
  19 C :   -1.358442    0.159526
  20 H :    0.205804   -0.026518
  21 H :    0.214699   -0.026683
Sum of atomic charges         :   -1.0000000

LOEWDIN ATOMIC CHARGES AND SPIN POPULATIONS
-------------------------------------------
   0 C :    0.147334    0.025174
   1 C :   -0.317389    0.019188
   2 C :   -0.172968    0.051691
   3 C :    0.176977    0.090663
   4 C :    0.147291    0.025273
   5 C :   -0.051969    0.105757
   6 N :    0.320278    0.026383
   7 H :   -0.172895    0.019426
   8 H :   -0.177638   -0.005234
   9 H :   -0.209040    0.026714
  10 C :   -0.317327    0.019233
  11 C :   -0.172637    0.051654
  12 C :    0.177421    0.090519
  13 C :   -0.051858    0.105495
  14 N :    0.320426    0.026170
  15 H :   -0.172668    0.019397
  16 H :   -0.177677   -0.005238
  17 H :   -0.209028    0.026658
  18 C :    0.147918    0.120141
  19 C :    0.148103    0.120395
  20 H :   -0.191417    0.020229
  21 H :   -0.191235    0.020313

  Mayer bond orders larger than 0.100000
B(  0-C , 11-C ) :  -0.1756 B(  0-C , 12-C ) :   1.4682 B(  0-C , 13-C ) :   0.8367
B(  0-C , 14-N ) :  -0.1987 B(  0-C , 16-H ) :   0.7705 B(  1-C ,  2-C ) :   0.8252
B(  1-C ,  3-C ) :   0.5220 B(  1-C ,  5-C ) :  -0.1910 B(  1-C ,  6-N ) :  -0.6923
B(  1-C ,  9-H ) :   0.1703 B(  1-C , 10-C ) :   0.5565 B(  1-C , 11-C ) :   0.3027
B(  1-C , 14-N ) :   0.2400 B(  1-C , 18-C ) :  -0.4122 B(  2-C ,  4-C ) :  -0.1764
B(  2-C ,  5-C ) :  -0.4253 B(  2-C ,  7-H ) :   0.1170 B(  2-C , 10-C ) :   0.3151
B(  2-C , 11-C ) :  -0.3392 B(  2-C , 12-C ) :   0.1118 B(  2-C , 18-C ) :   0.1149
B(  3-C ,  4-C ) :   1.5238 B(  3-C ,  5-C ) :   0.3615 B(  3-C ,  7-H ) :   0.6514
B(  3-C , 11-C ) :   0.1119 B(  3-C , 18-C ) :   0.3600 B(  4-C ,  5-C ) :   0.8464
B(  4-C ,  6-N ) :  -0.2052 B(  4-C ,  8-H ) :   0.7210 B(  5-C ,  6-N ) :   1.9721
B(  5-C ,  9-H ) :   0.4035 B(  5-C , 19-C ) :   0.1258 B(  6-N , 10-C ) :   0.2315
B(  6-N , 14-N ) :  -0.3096 B( 10-C , 11-C ) :   0.8372 B( 10-C , 12-C ) :   0.5309
B( 10-C , 13-C ) :  -0.1965 B( 10-C , 14-N ) :  -0.6931 B( 10-C , 17-H ) :   0.1707
B( 10-C , 19-C ) :  -0.4121 B( 11-C , 13-C ) :  -0.4180 B( 11-C , 15-H ) :   0.1195
B( 11-C , 19-C ) :   0.1111 B( 12-C , 13-C ) :   0.3610 B( 12-C , 15-H ) :   0.6324
B( 12-C , 19-C ) :   0.3627 B( 13-C , 14-N ) :   1.9535 B( 13-C , 17-H ) :   0.4123
B( 13-C , 18-C ) :   0.1272 B( 18-C , 19-C ) :   1.3041 B( 18-C , 20-H ) :   1.1952
B( 19-C , 21-H ) :   1.1857

Dispersion correction           -0.025616610
FINAL SINGLE POINT ENERGY      -571.247425027539

DIPOLE MOMENT
-------------

Method             : SCF
Type of density    : Electron Density
Multiplicity       :   2
Irrep              :   0
Energy             :  -571.2218084177250148 Eh
Relativity type    :
Basis              : AO
                                X                 Y                 Z
Electronic contribution:     -1.625073999      -1.115327199      -0.091611764
Nuclear contribution   :      2.898055306       1.988769949       0.150906317
                        -----------------------------------------
Total Dipole Moment    :      1.272981307       0.873442750       0.059294552
                        -----------------------------------------
Magnitude (a.u.)       :      1.544959381
Magnitude (Debye)      :      3.926974665

Rotational constants in cm-1:             0.053930             0.019113             0.014112
Rotational constants in MHz :          1616.774375           573.004447           423.065068

                             ****ORCA TERMINATED NORMALLY****
TOTAL RUN TIME: 0 days 0 hours 6 minutes 19 seconds 587 msec
