                         Program Version 6.0.0  -   RELEASE  -
|  1> !B3LYP aug-cc-pVTZ d3 TightSCF SlowConv RIJCOSX defgrid2
|  2>
|  3> %pal
|  4> nprocs 4
|  5> end
|  6>
|  7> %scf
|  8> MaxIter 1500
|  9> end
| 10>
| 11> %maxcore 3000
| 12>
| 13> !CPCM
| 14> %cpcm smd true
| 15> SMDsolvent "MeCN"
| 16> surfacetype gepol_ses
| 17> rsolv 2.19
| 18> end
| 19>
| 20> * xyz 1 2
| 21> C           0.40691282511463     -1.70325741551343      0.00016490908038
| 22> C          -0.96671189262499     -1.83667983985275      0.00018183586636
| 23> C          -1.68805707115252     -0.64261847572794      0.00008964722041
| 24> C          -1.04965590853916      0.63174029183313     -0.00002815696193
| 25> C           0.31128268883802      0.76926444998310     -0.00006174051828
| 26> C           1.07563281783288     -0.42742383238868      0.00003976058398
| 27> C           2.50697376337741     -0.44842167152090      0.00002305530846
| 28> C           3.33194801420144      0.64326709175403     -0.00015920562991
| 29> C           4.80599658250123      0.57741183606312     -0.00011946162688
| 30> H           5.18832353952918     -0.45487585344274     -0.00025429959810
| 31> H           5.21029428249422      1.11436451749660     -0.88040742471441
| 32> H           5.21019265645541      1.11403585874487      0.88042635965306
| 33> H           2.89207932946336      1.64904733647115     -0.00030687813280
| 34> H           2.97508026944189     -1.43956967985044      0.00016270833927
| 35> H           0.76741616602726      1.75937954473271     -0.00014274226054
| 36> O          -1.99397501474410      1.57230653765351     -0.00008671930137
| 37> C          -3.25136220491207      0.93015345618164     -0.00001294315373
| 38> H          -3.81339036666005      1.19156590903578     -0.91179779853392
| 39> H          -3.81336621741767      1.19172534012324      0.91174226589655
| 40> O          -2.99199983018881     -0.47270763267778      0.00010157254283
| 41> H          -1.46695007676095     -2.80656600519405      0.00027477962737
| 42> H           1.02699584772340     -2.60385336390417      0.00024457631318
| 43> *
| 44>
| 45>                          ****END OF INPUT****

CARTESIAN COORDINATES (ANGSTROEM)
---------------------------------
  C      0.406913   -1.703257    0.000165
  C     -0.966712   -1.836680    0.000182
  C     -1.688057   -0.642618    0.000090
  C     -1.049656    0.631740   -0.000028
  C      0.311283    0.769264   -0.000062
  C      1.075633   -0.427424    0.000040
  C      2.506974   -0.448422    0.000023
  C      3.331948    0.643267   -0.000159
  C      4.805997    0.577412   -0.000119
  H      5.188324   -0.454876   -0.000254
  H      5.210294    1.114365   -0.880407
  H      5.210193    1.114036    0.880426
  H      2.892079    1.649047   -0.000307
  H      2.975080   -1.439570    0.000163
  H      0.767416    1.759380   -0.000143
  O     -1.993975    1.572307   -0.000087
  C     -3.251362    0.930153   -0.000013
  H     -3.813390    1.191566   -0.911798
  H     -3.813366    1.191725    0.911742
  O     -2.992000   -0.472708    0.000102
  H     -1.466950   -2.806566    0.000275
  H      1.026996   -2.603853    0.000245

 Total Charge           Charge          ....    1
 Multiplicity           Mult            ....    2
 Number of Electrons    NEL             ....   85
 Basis Dimension        Dim             ....  782

ORBITAL ENERGIES
----------------
                 SPIN UP ORBITALS
  NO   OCC          E(Eh)            E(eV)
   0   1.0000     -19.238719      -523.5122
   1   1.0000     -19.222519      -523.0713
   2   1.0000     -10.317947      -280.7656
   3   1.0000     -10.300552      -280.2923
   4   1.0000     -10.286827      -279.9188
   5   1.0000     -10.241370      -278.6818
   6   1.0000     -10.225980      -278.2631
   7   1.0000     -10.223683      -278.2005
   8   1.0000     -10.217119      -278.0220
   9   1.0000     -10.211043      -277.8566
  10   1.0000     -10.206202      -277.7249
  11   1.0000     -10.178847      -276.9805
  12   1.0000      -1.197888       -32.5962
  13   1.0000      -1.105239       -30.0751
  14   1.0000      -0.906879       -24.6774
  15   1.0000      -0.841046       -22.8860
  16   1.0000      -0.801624       -21.8133
  17   1.0000      -0.791171       -21.5288
  18   1.0000      -0.733791       -19.9675
  19   1.0000      -0.695880       -18.9359
  20   1.0000      -0.668954       -18.2032
  21   1.0000      -0.659549       -17.9472
  22   1.0000      -0.590018       -16.0552
  23   1.0000      -0.566859       -15.4250
  24   1.0000      -0.565855       -15.3977
  25   1.0000      -0.553912       -15.0727
  26   1.0000      -0.526421       -14.3246
  27   1.0000      -0.484476       -13.1833
  28   1.0000      -0.475228       -12.9316
  29   1.0000      -0.466561       -12.6958
  30   1.0000      -0.445616       -12.1258
  31   1.0000      -0.437977       -11.9180
  32   1.0000      -0.436838       -11.8870
  33   1.0000      -0.427047       -11.6205
  34   1.0000      -0.424877       -11.5615
  35   1.0000      -0.424388       -11.5482
  36   1.0000      -0.392497       -10.6804
  37   1.0000      -0.382830       -10.4173
  38   1.0000      -0.376209       -10.2372
  39   1.0000      -0.368892       -10.0381
  40   1.0000      -0.312619        -8.5068
  41   1.0000      -0.274862        -7.4794
  42   1.0000      -0.239845        -6.5265
  43   0.0000      -0.078859        -2.1459
  44   0.0000      -0.040915        -1.1134
  45   0.0000      -0.007534        -0.2050
  46   0.0000       0.001411         0.0384
  47   0.0000       0.006551         0.1783

                 SPIN DOWN ORBITALS
  NO   OCC          E(Eh)            E(eV)
   0   1.0000     -19.234384      -523.3942
   1   1.0000     -19.220357      -523.0125
   2   1.0000     -10.318117      -280.7702
   3   1.0000     -10.297103      -280.1984
   4   1.0000     -10.285635      -279.8864
   5   1.0000     -10.238819      -278.6124
   6   1.0000     -10.223596      -278.1982
   7   1.0000     -10.219430      -278.0848
   8   1.0000     -10.217611      -278.0353
   9   1.0000     -10.212012      -277.8830
  10   1.0000     -10.206623      -277.7363
  11   1.0000     -10.178990      -276.9844
  12   1.0000      -1.192322       -32.4447
  13   1.0000      -1.099107       -29.9082
  14   1.0000      -0.901413       -24.5287
  15   1.0000      -0.834607       -22.7108
  16   1.0000      -0.798144       -21.7186
  17   1.0000      -0.786088       -21.3905
  18   1.0000      -0.732252       -19.9256
  19   1.0000      -0.689893       -18.7730
  20   1.0000      -0.665752       -18.1160
  21   1.0000      -0.655626       -17.8405
  22   1.0000      -0.586184       -15.9509
  23   1.0000      -0.564838       -15.3700
  24   1.0000      -0.555176       -15.1071
  25   1.0000      -0.551482       -15.0066
  26   1.0000      -0.523700       -14.2506
  27   1.0000      -0.482140       -13.1197
  28   1.0000      -0.474613       -12.9149
  29   1.0000      -0.463604       -12.6153
  30   1.0000      -0.434553       -11.8248
  31   1.0000      -0.428044       -11.6477
  32   1.0000      -0.425521       -11.5790
  33   1.0000      -0.424922       -11.5627
  34   1.0000      -0.422042       -11.4843
  35   1.0000      -0.416022       -11.3205
  36   1.0000      -0.390799       -10.6342
  37   1.0000      -0.381063       -10.3692
  38   1.0000      -0.367283        -9.9943
  39   1.0000      -0.360464        -9.8087
  40   1.0000      -0.299185        -8.1412
  41   1.0000      -0.263832        -7.1792
  42   0.0000      -0.174361        -4.7446
  43   0.0000      -0.057594        -1.5672
  44   0.0000      -0.027889        -0.7589
  45   0.0000      -0.007255        -0.1974
  46   0.0000       0.001619         0.0441

MULLIKEN ATOMIC CHARGES AND SPIN POPULATIONS
--------------------------------------------
   0 C :   -0.893453    0.143272
   1 C :   -0.585034   -0.040941
   2 C :    0.908543    0.211260
   3 C :    1.035993    0.084807
   4 C :   -0.521139   -0.082449
   5 C :    1.484397    0.191959
   6 C :   -0.336802   -0.008841
   7 C :   -0.098321    0.296313
   8 C :   -0.812169   -0.027483
   9 H :    0.248916   -0.003657
  10 H :    0.214552    0.019647
  11 H :    0.215136    0.019815
  12 H :    0.160353   -0.022732
  13 H :    0.084364    0.003747
  14 H :   -0.029026    0.007180
  15 O :   -0.680091    0.066718
  16 C :   -0.060972   -0.021609
  17 H :    0.304361    0.016674
  18 H :    0.303323    0.016660
  19 O :   -0.665545    0.137736
  20 H :    0.528784   -0.000170
  21 H :    0.193830   -0.007906
Sum of atomic charges         :    1.0000000

LOEWDIN ATOMIC CHARGES AND SPIN POPULATIONS
-------------------------------------------
   0 C :    0.263936    0.105297
   1 C :    0.290832    0.043681
   2 C :   -0.345204    0.139101
   3 C :   -0.344545    0.069300
   4 C :    0.279826    0.000345
   5 C :   -0.093096    0.101183
   6 C :    0.256333    0.058935
   7 C :    0.270217    0.149982
   8 C :    0.586028    0.048804
   9 H :   -0.157533    0.001046
  10 H :   -0.144566    0.010739
  11 H :   -0.144549    0.010748
  12 H :   -0.153960    0.026869
  13 H :   -0.162482   -0.001323
  14 H :   -0.155857   -0.006354
  15 O :    0.658617    0.061663
  16 C :   -0.057980    0.020395
  17 H :   -0.118854    0.007270
  18 H :   -0.118856    0.007270
  19 O :    0.673097    0.129695
  20 H :   -0.138800   -0.002055
  21 H :   -0.142607    0.017411

  Mayer bond orders larger than 0.100000
B(  0-C ,  1-C ) :   1.3852 B(  0-C ,  2-C ) :  -0.2397 B(  0-C ,  3-C ) :  -0.1441
B(  0-C ,  4-C ) :  -0.1654 B(  0-C ,  5-C ) :   0.4019 B(  0-C ,  7-C ) :   0.2720
B(  0-C , 21-H ) :   1.1208 B(  1-C ,  2-C ) :   0.6338 B(  1-C ,  5-C ) :   0.1354
B(  1-C , 20-H ) :   0.4526 B(  2-C ,  3-C ) :   1.0892 B(  2-C ,  4-C ) :  -0.1147
B(  2-C ,  6-C ) :   0.1828 B(  2-C , 15-O ) :   0.1099 B(  2-C , 19-O ) :   0.3977
B(  3-C ,  4-C ) :   0.5410 B(  3-C ,  5-C ) :   0.3570 B(  3-C , 14-H ) :  -0.1663
B(  3-C , 15-O ) :   0.1354 B(  3-C , 19-O ) :   0.1396 B(  4-C ,  5-C ) :   0.3962
B(  4-C ,  7-C ) :  -0.1246 B(  4-C , 12-H ) :  -0.1625 B(  4-C , 14-H ) :   1.4206
B(  4-C , 15-O ) :   0.2658 B(  5-C ,  7-C ) :  -0.1221 B(  5-C , 12-H ) :  -0.1542
B(  5-C , 13-H ) :  -0.1090 B(  5-C , 14-H ) :  -0.2176 B(  6-C ,  7-C ) :   0.7909
B(  6-C , 13-H ) :   1.2564 B(  7-C ,  8-C ) :   0.5791 B(  7-C , 12-H ) :   1.3064
B(  7-C , 13-H ) :  -0.1196 B(  8-C ,  9-H ) :   0.9612 B(  8-C , 10-H ) :   1.0096
B(  8-C , 11-H ) :   1.0091 B(  8-C , 12-H ) :  -0.1132 B( 15-O , 16-C ) :   0.8902
B( 15-O , 19-O ) :   0.1020 B( 16-C , 17-H ) :   0.8846 B( 16-C , 18-H ) :   0.8861
B( 16-C , 19-O ) :   0.8581

Dispersion correction           -0.038888707
FINAL SINGLE POINT ENERGY      -537.240618973070

DIPOLE MOMENT
-------------

Method             : SCF
Type of density    : Electron Density
Multiplicity       :   2
Irrep              :   0
Energy             :  -537.2017302660822224 Eh
Relativity type    :
Basis              : AO
                                X                 Y                 Z
Electronic contribution:    -12.988983864      -0.697186254      -0.000070208
Nuclear contribution   :     13.204705509       0.674639604      -0.000147023
                        -----------------------------------------
Total Dipole Moment    :      0.215721645      -0.022546650      -0.000217231
                        -----------------------------------------
Magnitude (a.u.)       :      0.216896812
Magnitude (Debye)      :      0.551307882

Rotational constants in cm-1:             0.088323             0.016345             0.013866
Rotational constants in MHz :          2647.863415           489.996572           415.683402

                             ****ORCA TERMINATED NORMALLY****
TOTAL RUN TIME: 0 days 0 hours 10 minutes 28 seconds 556 msec
