                         Program Version 6.0.0  -   RELEASE  -
|  1> !TPSSh aug-cc-pVTZ d3 TightSCF SlowConv RIJCOSX defgrid2
|  2>
|  3> %pal
|  4> nprocs 4
|  5> end
|  6>
|  7> %scf
|  8> MaxIter 1500
|  9> end
| 10>
| 11> %maxcore 3000
| 12>
| 13> !CPCM
| 14> %cpcm smd true
| 15> SMDsolvent "MeCN"
| 16> surfacetype gepol_ses
| 17> rsolv 2.19
| 18> end
| 19>
| 20> * xyz 1 2
| 21> C          -0.34387230731091     -1.07485258731093      0.00001401455947
| 22> C           1.01873873128556     -0.69031657008063      0.00000558569428
| 23> C           1.01870490582575      0.69036389318440     -0.00000682964124
| 24> C          -0.34392442171075      1.07483366235896      0.00001800846145
| 25> O          -1.13547856663301     -0.00002908301850      0.00002620600599
| 26> H          -0.83940000391177      2.04941022022650      0.00001956675718
| 27> H           1.87273127254573      1.37048388860066     -0.00002227053780
| 28> H           1.87279848731196     -1.37039565302222     -0.00000085844917
| 29> H          -0.83930199740254     -2.04945297093823      0.00002127714986
| 30> *
| 31>
| 32>                          ****END OF INPUT****

CARTESIAN COORDINATES (ANGSTROEM)
---------------------------------
  C     -0.343872   -1.074853    0.000014
  C      1.018739   -0.690317    0.000006
  C      1.018705    0.690364   -0.000007
  C     -0.343924    1.074834    0.000018
  O     -1.135479   -0.000029    0.000026
  H     -0.839400    2.049410    0.000020
  H      1.872731    1.370484   -0.000022
  H      1.872798   -1.370396   -0.000001
  H     -0.839302   -2.049453    0.000021

 Total Charge           Charge          ....    1
 Multiplicity           Mult            ....    2
 Number of Electrons    NEL             ....   35
 Basis Dimension        Dim             ....  322

ORBITAL ENERGIES
----------------
                 SPIN UP ORBITALS
  NO   OCC          E(Eh)            E(eV)
   0   1.0000     -19.197292      -522.3849
   1   1.0000     -10.268448      -279.4187
   2   1.0000     -10.268424      -279.4180
   3   1.0000     -10.188376      -277.2398
   4   1.0000     -10.187823      -277.2248
   5   1.0000      -1.182858       -32.1872
   6   1.0000      -0.854403       -23.2495
   7   1.0000      -0.805909       -21.9299
   8   1.0000      -0.645985       -17.5781
   9   1.0000      -0.618137       -16.8204
  10   1.0000      -0.583245       -15.8709
  11   1.0000      -0.522506       -14.2181
  12   1.0000      -0.489124       -13.3097
  13   1.0000      -0.447827       -12.1860
  14   1.0000      -0.438591       -11.9347
  15   1.0000      -0.419270       -11.4089
  16   1.0000      -0.339934        -9.2501
  17   1.0000      -0.308526        -8.3954
  18   0.0000      -0.095467        -2.5978
  19   0.0000      -0.019425        -0.5286
  20   0.0000      -0.004501        -0.1225
  21   0.0000       0.014752         0.4014
  22   0.0000       0.016585         0.4513

                 SPIN DOWN ORBITALS
  NO   OCC          E(Eh)            E(eV)
   0   1.0000     -19.199134      -522.4350
   1   1.0000     -10.259580      -279.1774
   2   1.0000     -10.259564      -279.1769
   3   1.0000     -10.187651      -277.2201
   4   1.0000     -10.187093      -277.2049
   5   1.0000      -1.180456       -32.1218
   6   1.0000      -0.848903       -23.0998
   7   1.0000      -0.785448       -21.3731
   8   1.0000      -0.640099       -17.4180
   9   1.0000      -0.605878       -16.4868
  10   1.0000      -0.580894       -15.8069
  11   1.0000      -0.501197       -13.6383
  12   1.0000      -0.485117       -13.2007
  13   1.0000      -0.447950       -12.1893
  14   1.0000      -0.434111       -11.8128
  15   1.0000      -0.417198       -11.3525
  16   1.0000      -0.330513        -8.9937
  17   0.0000      -0.216903        -5.9022
  18   0.0000      -0.048117        -1.3093
  19   0.0000      -0.002551        -0.0694
  20   0.0000       0.006803         0.1851
  21   0.0000       0.016241         0.4419

MULLIKEN ATOMIC CHARGES AND SPIN POPULATIONS
--------------------------------------------
   0 C :   -0.011681    0.466525
   1 C :   -0.205631    0.069133
   2 C :   -0.207423    0.068491
   3 C :   -0.012248    0.466401
   4 O :   -0.207597   -0.067647
   5 H :    0.504945    0.006433
   6 H :    0.317262   -0.007865
   7 H :    0.317571   -0.007886
   8 H :    0.504803    0.006416
Sum of atomic charges         :    1.0000000

LOEWDIN ATOMIC CHARGES AND SPIN POPULATIONS
-------------------------------------------
   0 C :    0.116144    0.293676
   1 C :    0.297625    0.114677
   2 C :    0.297519    0.114445
   3 C :    0.115970    0.293531
   4 O :    0.643921    0.060489
   5 H :   -0.109660    0.053332
   6 H :   -0.125977    0.008222
   7 H :   -0.125919    0.008283
   8 H :   -0.109623    0.053344

  Mayer bond orders larger than 0.100000
B(  0-C ,  1-C ) :   1.1020 B(  0-C ,  3-C ) :   0.1352 B(  0-C ,  4-O ) :   1.0284
B(  0-C ,  8-H ) :   0.6988 B(  1-C ,  2-C ) :   1.4872 B(  1-C ,  7-H ) :   0.9250
B(  2-C ,  3-C ) :   1.1025 B(  2-C ,  6-H ) :   0.9252 B(  3-C ,  4-O ) :   1.0282
B(  3-C ,  5-H ) :   0.6983

Dispersion correction           -0.007151652
FINAL SINGLE POINT ENERGY      -229.913115683492

DIPOLE MOMENT
-------------

Method             : SCF
Type of density    : Electron Density
Multiplicity       :   2
Irrep              :   0
Energy             :  -229.9059640315529691 Eh
Relativity type    :
Basis              : AO
                                X                 Y                 Z
Electronic contribution:     -1.383148491      -0.001077492      -0.000381219
Nuclear contribution   :      1.915202636       0.000046579      -0.000027644
                        -----------------------------------------
Total Dipole Moment    :      0.532054146      -0.001030913      -0.000408863
                        -----------------------------------------
Magnitude (a.u.)       :      0.532055301
Magnitude (Debye)      :      1.352377101

Rotational constants in cm-1:             0.327624             0.296324             0.155594
Rotational constants in MHz :          9821.913267          8883.568671          4664.602670

                             ****ORCA TERMINATED NORMALLY****
TOTAL RUN TIME: 0 days 0 hours 1 minutes 38 seconds 732 msec
