                         Program Version 6.0.0  -   RELEASE  -
|  1> !PBE0 aug-cc-pVTZ d3 TightSCF SlowConv RIJCOSX defgrid2
|  2>
|  3> %pal
|  4> nprocs 4
|  5> end
|  6>
|  7> %scf
|  8> MaxIter 1500
|  9> end
| 10>
| 11> %maxcore 3000
| 12>
| 13> !CPCM
| 14> %cpcm smd true
| 15> SMDsolvent "MeCN"
| 16> surfacetype gepol_ses
| 17> rsolv 2.19
| 18> end
| 19>
| 20> * xyz 0 1
| 21> C           1.25000164855842     -1.41071448361037     -0.00000168415599
| 22> C           2.42472534447790     -0.69479139615512     -0.00000685047100
| 23> C           2.39854270226079      0.72067524520134     -0.00000877481015
| 24> C           1.20117735810590      1.39751150319993     -0.00000445095683
| 25> C          -0.02745588139686      0.68852480495358      0.00000564240260
| 26> N          -1.18625775877000      1.39381645036295      0.00001070560090
| 27> C          -2.31490188933646      0.73049306279294      0.00001689560908
| 28> C          -2.40570196692451     -0.68397826108981      0.00001755935062
| 29> C          -1.24368635715401     -1.41618109472248      0.00000969922177
| 30> C           0.00094011374072     -0.74022051327369      0.00000330710167
| 31> H          -1.26232776653674     -2.51106064954577      0.00000897425095
| 32> H          -3.38563440939795     -1.16889742637107      0.00002394159015
| 33> H          -3.23552246654660      1.32983924434354      0.00002054423920
| 34> H           1.15201317629262      2.48898402488494     -0.00000554947415
| 35> H           3.34113721025286      1.27611845570769     -0.00001383228755
| 36> H           3.38561855542436     -1.21756928095046     -0.00000963669760
| 37> H           1.26320168694954     -2.50529278572813     -0.00000049051368
| 38> *
| 39>
| 40>                          ****END OF INPUT****

CARTESIAN COORDINATES (ANGSTROEM)
---------------------------------
  C      1.250002   -1.410714   -0.000002
  C      2.424725   -0.694791   -0.000007
  C      2.398543    0.720675   -0.000009
  C      1.201177    1.397512   -0.000004
  C     -0.027456    0.688525    0.000006
  N     -1.186258    1.393816    0.000011
  C     -2.314902    0.730493    0.000017
  C     -2.405702   -0.683978    0.000018
  C     -1.243686   -1.416181    0.000010
  C      0.000940   -0.740221    0.000003
  H     -1.262328   -2.511061    0.000009
  H     -3.385634   -1.168897    0.000024
  H     -3.235522    1.329839    0.000021
  H      1.152013    2.488984   -0.000006
  H      3.341137    1.276118   -0.000014
  H      3.385619   -1.217569   -0.000010
  H      1.263202   -2.505293   -0.000000

 Total Charge           Charge          ....    0
 Multiplicity           Mult            ....    1
 Number of Electrons    NEL             ....   68
 Basis Dimension        Dim             ....  621

ORBITAL ENERGIES
----------------

  NO   OCC          E(Eh)            E(eV)
   0   2.0000     -14.390037      -391.5728
   1   2.0000     -10.270062      -279.4626
   2   2.0000     -10.267099      -279.3820
   3   2.0000     -10.249440      -278.9014
   4   2.0000     -10.248850      -278.8854
   5   2.0000     -10.238121      -278.5934
   6   2.0000     -10.237903      -278.5875
   7   2.0000     -10.237789      -278.5844
   8   2.0000     -10.236052      -278.5371
   9   2.0000     -10.233296      -278.4621
  10   2.0000      -0.981539       -26.7090
  11   2.0000      -0.879948       -23.9446
  12   2.0000      -0.834654       -22.7121
  13   2.0000      -0.778171       -21.1751
  14   2.0000      -0.765868       -20.8403
  15   2.0000      -0.664649       -18.0860
  16   2.0000      -0.652273       -17.7492
  17   2.0000      -0.622237       -16.9319
  18   2.0000      -0.544975       -14.8295
  19   2.0000      -0.531885       -14.4733
  20   2.0000      -0.522853       -14.2276
  21   2.0000      -0.468957       -12.7610
  22   2.0000      -0.452330       -12.3085
  23   2.0000      -0.441939       -12.0258
  24   2.0000      -0.437585       -11.9073
  25   2.0000      -0.421468       -11.4687
  26   2.0000      -0.413898       -11.2627
  27   2.0000      -0.369869       -10.0646
  28   2.0000      -0.364923        -9.9301
  29   2.0000      -0.360182        -9.8010
  30   2.0000      -0.326786        -8.8923
  31   2.0000      -0.279442        -7.6040
  32   2.0000      -0.268864        -7.3162
  33   2.0000      -0.250838        -6.8256
  34   0.0000      -0.059597        -1.6217
  35   0.0000      -0.023817        -0.6481
  36   0.0000       0.002551         0.0694
  37   0.0000       0.004709         0.1281
  38   0.0000       0.013642         0.3712

MULLIKEN ATOMIC CHARGES
-----------------------
   0 C :   -0.984410
   1 C :   -0.589235
   2 C :   -0.327503
   3 C :   -0.993474
   4 C :    0.628765
   5 N :   -0.697754
   6 C :   -0.506829
   7 C :   -0.387764
   8 C :   -0.945708
   9 C :    1.420077
  10 H :    0.552934
  11 H :    0.343238
  12 H :    0.546024
  13 H :    0.496250
  14 H :    0.545402
  15 H :    0.698124
  16 H :    0.201863
Sum of atomic charges:    0.0000000

LOEWDIN ATOMIC CHARGES
----------------------
   0 C :    0.212566
   1 C :    0.195054
   2 C :    0.192226
   3 C :    0.199542
   4 C :   -0.325416
   5 N :    0.371205
   6 C :    0.001098
   7 C :    0.214423
   8 C :    0.220347
   9 C :   -0.130981
  10 H :   -0.146972
  11 H :   -0.165793
  12 H :   -0.177070
  13 H :   -0.170612
  14 H :   -0.165669
  15 H :   -0.166218
  16 H :   -0.157731

  Mayer bond orders larger than 0.100000
B(  0-C ,  1-C ) :   1.3724 B(  0-C ,  2-C ) :  -0.1990 B(  0-C ,  4-C ) :  -0.4835
B(  0-C ,  8-C ) :   0.2780 B(  0-C ,  9-C ) :   0.4018 B(  0-C , 15-H ) :  -0.1650
B(  0-C , 16-H ) :   1.2196 B(  1-C ,  2-C ) :   1.1637 B(  1-C , 15-H ) :   0.2193
B(  2-C ,  3-C ) :   1.4137 B(  2-C ,  4-C ) :  -0.2259 B(  2-C ,  7-C ) :   0.1062
B(  2-C ,  8-C ) :   0.1233 B(  2-C ,  9-C ) :  -0.1530 B(  2-C , 13-H ) :   0.1108
B(  2-C , 14-H ) :   0.5142 B(  3-C ,  4-C ) :   0.7796 B(  3-C ,  5-N ) :   0.2561
B(  3-C ,  9-C ) :   0.2702 B(  3-C , 13-H ) :   0.3648 B(  4-C ,  6-C ) :   0.2531
B(  4-C ,  8-C ) :   0.5647 B(  4-C ,  9-C ) :   0.8114 B(  5-N ,  6-C ) :   1.7490
B(  6-C ,  7-C ) :   0.8821 B(  6-C ,  8-C ) :   0.2491 B(  6-C ,  9-C ) :  -0.3737
B(  6-C , 12-H ) :   0.4927 B(  7-C ,  8-C ) :   1.3562 B(  7-C ,  9-C ) :  -0.3110
B(  7-C , 11-H ) :   0.8830 B(  8-C ,  9-C ) :   0.1070 B(  8-C , 10-H ) :   0.4573
B(  9-C , 10-H ) :   0.1650 B(  9-C , 12-H ) :   0.1002

Dispersion correction           -0.017381491
FINAL SINGLE POINT ENERGY      -401.617442434297

DIPOLE MOMENT
-------------

Method             : SCF
Type of density    : Electron Density
Multiplicity       :   1
Irrep              :   0
Energy             :  -401.6000609433525597 Eh
Relativity type    :
Basis              : AO
                                X                 Y                 Z
Electronic contribution:     -1.097676229       0.903028361      -0.000183522
Nuclear contribution   :      1.170564310      -2.171626680      -0.000005487
                        -----------------------------------------
Total Dipole Moment    :      0.072888081      -1.268598319      -0.000189010
                        -----------------------------------------
Magnitude (a.u.)       :      1.270690522
Magnitude (Debye)      :      3.229838628

Rotational constants in cm-1:             0.105214             0.042414             0.030228
Rotational constants in MHz :          3154.234858          1271.541430           906.223008

                             ****ORCA TERMINATED NORMALLY****
TOTAL RUN TIME: 0 days 0 hours 4 minutes 19 seconds 814 msec
