                         Program Version 6.0.0  -   RELEASE  -
|  1> !B3LYP aug-cc-pVTZ d3 TightSCF SlowConv RIJCOSX defgrid2
|  2>
|  3> %pal
|  4> nprocs 4
|  5> end
|  6>
|  7> %scf
|  8> MaxIter 1500
|  9> end
| 10>
| 11> %maxcore 3000
| 12>
| 13> !CPCM
| 14> %cpcm smd true
| 15> SMDsolvent "MeCN"
| 16> surfacetype gepol_ses
| 17> rsolv 2.19
| 18> end
| 19>
| 20> * xyz 1 2
| 21> C           0.42766922826058      1.09250554753671     -0.00002934984792
| 22> C          -0.91803929338371      1.32112616186701     -0.00007862922355
| 23> C          -1.83359468145124      0.22604701172772     -0.00005052019445
| 24> C          -1.34403470586700     -1.10812997260672      0.00004176990950
| 25> C           0.01076802795708     -1.32157729093281      0.00010017037764
| 26> C           0.94695487201857     -0.24147431186404      0.00005526206874
| 27> C           2.33481183567959     -0.54917553496955      0.00008494824583
| 28> C           3.37151795017655      0.35638842083076      0.00003100754924
| 29> C           4.79867889425726     -0.01212296739284      0.00003041343018
| 30> H           5.30495592523331      0.43227355340951      0.87968521925492
| 31> H           5.30486849674351      0.43200595766830     -0.87981167059255
| 32> H           4.96193499106042     -1.10070955791719      0.00017599972354
| 33> H           3.14539862986225      1.43012139140852     -0.00004517175902
| 34> H           2.59593124142522     -1.61436223702820      0.00015424626296
| 35> H           0.39241616474177     -2.34656611487460      0.00017208140391
| 36> H          -2.03091333615712     -1.95604876858454      0.00007442711173
| 37> O          -3.09670762656711      0.54742056766508     -0.00013047431290
| 38> C          -4.12777516023530     -0.43476601526242     -0.00013255885468
| 39> H          -4.06321175276157     -1.05773088391001      0.90732683477409
| 40> H          -4.06307084433532     -1.05786982004323     -0.90748503150178
| 41> H          -5.07065366505136      0.12679713547228     -0.00024982874602
| 42> H          -1.33253890672666      2.33189179701734     -0.00014213674034
| 43> H           1.10842431512030      1.94641593078294     -0.00005240833907
| 44> *
| 45>
| 46>                          ****END OF INPUT****

CARTESIAN COORDINATES (ANGSTROEM)
---------------------------------
  C      0.427669    1.092506   -0.000029
  C     -0.918039    1.321126   -0.000079
  C     -1.833595    0.226047   -0.000051
  C     -1.344035   -1.108130    0.000042
  C      0.010768   -1.321577    0.000100
  C      0.946955   -0.241474    0.000055
  C      2.334812   -0.549176    0.000085
  C      3.371518    0.356388    0.000031
  C      4.798679   -0.012123    0.000030
  H      5.304956    0.432274    0.879685
  H      5.304868    0.432006   -0.879812
  H      4.961935   -1.100710    0.000176
  H      3.145399    1.430121   -0.000045
  H      2.595931   -1.614362    0.000154
  H      0.392416   -2.346566    0.000172
  H     -2.030913   -1.956049    0.000074
  O     -3.096708    0.547421   -0.000130
  C     -4.127775   -0.434766   -0.000133
  H     -4.063212   -1.057731    0.907327
  H     -4.063071   -1.057870   -0.907485
  H     -5.070654    0.126797   -0.000250
  H     -1.332539    2.331892   -0.000142
  H      1.108424    1.946416   -0.000052

 Total Charge           Charge          ....    1
 Multiplicity           Mult            ....    2
 Number of Electrons    NEL             ....   79
 Basis Dimension        Dim             ....  782

ORBITAL ENERGIES
----------------
                 SPIN UP ORBITALS
  NO   OCC          E(Eh)            E(eV)
   0   1.0000     -19.215944      -522.8924
   1   1.0000     -10.293916      -280.1117
   2   1.0000     -10.235958      -278.5346
   3   1.0000     -10.234819      -278.5036
   4   1.0000     -10.231479      -278.4127
   5   1.0000     -10.217614      -278.0354
   6   1.0000     -10.214979      -277.9637
   7   1.0000     -10.214360      -277.9469
   8   1.0000     -10.210406      -277.8393
   9   1.0000     -10.209368      -277.8110
  10   1.0000     -10.181256      -277.0461
  11   1.0000      -1.132607       -30.8198
  12   1.0000      -0.897625       -24.4256
  13   1.0000      -0.838946       -22.8289
  14   1.0000      -0.795261       -21.6402
  15   1.0000      -0.784041       -21.3348
  16   1.0000      -0.742672       -20.2091
  17   1.0000      -0.691369       -18.8131
  18   1.0000      -0.646084       -17.5809
  19   1.0000      -0.625936       -17.0326
  20   1.0000      -0.579628       -15.7725
  21   1.0000      -0.564417       -15.3586
  22   1.0000      -0.525757       -14.3066
  23   1.0000      -0.518657       -14.1134
  24   1.0000      -0.508374       -13.8336
  25   1.0000      -0.471262       -12.8237
  26   1.0000      -0.454811       -12.3760
  27   1.0000      -0.453331       -12.3358
  28   1.0000      -0.434644       -11.8273
  29   1.0000      -0.431915       -11.7530
  30   1.0000      -0.425902       -11.5894
  31   1.0000      -0.415886       -11.3168
  32   1.0000      -0.390815       -10.6346
  33   1.0000      -0.388947       -10.5838
  34   1.0000      -0.377914       -10.2836
  35   1.0000      -0.372279       -10.1302
  36   1.0000      -0.352140        -9.5822
  37   1.0000      -0.312955        -8.5159
  38   1.0000      -0.295598        -8.0436
  39   1.0000      -0.242858        -6.6085
  40   0.0000      -0.078565        -2.1379
  41   0.0000      -0.043715        -1.1895
  42   0.0000      -0.006637        -0.1806
  43   0.0000       0.001289         0.0351
  44   0.0000       0.006665         0.1814

                 SPIN DOWN ORBITALS
  NO   OCC          E(Eh)            E(eV)
   0   1.0000     -19.212125      -522.7885
   1   1.0000     -10.291502      -280.0460
   2   1.0000     -10.236089      -278.5381
   3   1.0000     -10.231707      -278.4189
   4   1.0000     -10.226046      -278.2648
   5   1.0000     -10.216935      -278.0169
   6   1.0000     -10.214668      -277.9553
   7   1.0000     -10.214461      -277.9496
   8   1.0000     -10.209852      -277.8242
   9   1.0000     -10.208825      -277.7962
  10   1.0000     -10.181434      -277.0509
  11   1.0000      -1.125494       -30.6262
  12   1.0000      -0.891927       -24.2706
  13   1.0000      -0.830829       -22.6080
  14   1.0000      -0.790677       -21.5154
  15   1.0000      -0.779330       -21.2067
  16   1.0000      -0.741131       -20.1672
  17   1.0000      -0.686114       -18.6701
  18   1.0000      -0.642963       -17.4959
  19   1.0000      -0.621012       -16.8986
  20   1.0000      -0.575838       -15.6694
  21   1.0000      -0.562163       -15.2972
  22   1.0000      -0.523486       -14.2448
  23   1.0000      -0.515961       -14.0400
  24   1.0000      -0.495398       -13.4805
  25   1.0000      -0.469173       -12.7669
  26   1.0000      -0.453013       -12.3271
  27   1.0000      -0.452334       -12.3086
  28   1.0000      -0.432714       -11.7748
  29   1.0000      -0.424302       -11.5458
  30   1.0000      -0.420132       -11.4324
  31   1.0000      -0.405714       -11.0400
  32   1.0000      -0.389336       -10.5944
  33   1.0000      -0.387016       -10.5312
  34   1.0000      -0.370408       -10.0793
  35   1.0000      -0.363161        -9.8821
  36   1.0000      -0.349721        -9.5164
  37   1.0000      -0.293067        -7.9748
  38   1.0000      -0.288745        -7.8572
  39   0.0000      -0.176117        -4.7924
  40   0.0000      -0.055232        -1.5029
  41   0.0000      -0.033623        -0.9149
  42   0.0000      -0.006410        -0.1744
  43   0.0000       0.001492         0.0406

MULLIKEN ATOMIC CHARGES AND SPIN POPULATIONS
--------------------------------------------
   0 C :   -0.479820    0.002952
   1 C :   -0.942871    0.028005
   2 C :    1.255974    0.161115
   3 C :   -0.383287    0.038530
   4 C :   -0.716625    0.031928
   5 C :    1.860376    0.230246
   6 C :   -0.147080    0.016103
   7 C :   -0.147679    0.368189
   8 C :   -0.825810   -0.034537
   9 H :    0.213069    0.025502
  10 H :    0.212940    0.025515
  11 H :    0.260907   -0.004464
  12 H :    0.263586   -0.024611
  13 H :    0.132755    0.004916
  14 H :    0.032176   -0.003950
  15 H :    0.463299    0.005105
  16 O :   -0.701845    0.124458
  17 C :   -0.661697   -0.008683
  18 H :    0.310654    0.005577
  19 H :    0.310495    0.005424
  20 H :    0.248573    0.000651
  21 H :    0.559013    0.001892
  22 H :   -0.117104    0.000136
Sum of atomic charges         :    1.0000000

LOEWDIN ATOMIC CHARGES AND SPIN POPULATIONS
-------------------------------------------
   0 C :    0.255087    0.043783
   1 C :    0.262623    0.046708
   2 C :   -0.350215    0.112187
   3 C :    0.268549    0.056218
   4 C :    0.259637    0.060090
   5 C :   -0.086106    0.120374
   6 C :    0.269903    0.088457
   7 C :    0.284865    0.194944
   8 C :    0.593209    0.063124
   9 H :   -0.141734    0.013953
  10 H :   -0.141683    0.013959
  11 H :   -0.155819    0.001369
  12 H :   -0.151806    0.033670
  13 H :   -0.154821    0.002237
  14 H :   -0.139628    0.005289
  15 H :   -0.160582    0.005242
  16 O :    0.641104    0.115467
  17 C :    0.404326    0.011936
  18 H :   -0.146667    0.003122
  19 H :   -0.146713    0.003122
  20 H :   -0.157474   -0.000291
  21 H :   -0.146875    0.003697
  22 H :   -0.159180    0.001344

  Mayer bond orders larger than 0.100000
B(  0-C ,  1-C ) :   1.0444 B(  0-C ,  2-C ) :  -0.3476 B(  0-C ,  3-C ) :  -0.3798
B(  0-C ,  4-C ) :  -0.6500 B(  0-C ,  5-C ) :   0.2697 B(  0-C ,  6-C ) :   0.3496
B(  0-C ,  7-C ) :   0.1194 B(  0-C , 21-H ) :   0.1060 B(  0-C , 22-H ) :   1.7034
B(  1-C ,  2-C ) :   0.6879 B(  1-C ,  3-C ) :   0.2757 B(  1-C ,  5-C ) :   0.3249
B(  1-C ,  7-C ) :  -0.1036 B(  1-C , 16-O ) :   0.3294 B(  1-C , 21-H ) :   0.2276
B(  1-C , 22-H ) :  -0.1591 B(  2-C ,  3-C ) :   0.9734 B(  2-C ,  4-C ) :  -0.3425
B(  2-C ,  6-C ) :   0.1158 B(  2-C , 15-H ) :   0.1409 B(  2-C , 16-O ) :   0.3391
B(  2-C , 21-H ) :   0.1314 B(  3-C ,  4-C ) :   0.9972 B(  3-C ,  5-C ) :   0.2654
B(  3-C , 14-H ) :  -0.1397 B(  3-C , 15-H ) :   0.3758 B(  3-C , 17-C ) :  -0.1226
B(  4-C , 14-H ) :   1.5727 B(  5-C ,  6-C ) :   0.2004 B(  5-C ,  7-C ) :  -0.2141
B(  5-C , 12-H ) :  -0.1371 B(  5-C , 14-H ) :  -0.2179 B(  5-C , 22-H ) :  -0.2673
B(  6-C ,  7-C ) :   0.8569 B(  6-C , 13-H ) :   1.1153 B(  7-C ,  8-C ) :   0.6703
B(  7-C , 12-H ) :   1.1606 B(  7-C , 13-H ) :  -0.1327 B(  8-C ,  9-H ) :   1.0045
B(  8-C , 10-H ) :   1.0042 B(  8-C , 11-H ) :   0.9417 B(  8-C , 12-H ) :  -0.1330
B( 14-H , 22-H ) :   0.2100 B( 16-O , 17-C ) :   0.9877 B( 17-C , 18-H ) :   0.8885
B( 17-C , 19-H ) :   0.8882 B( 17-C , 20-H ) :   0.9742

Dispersion correction           -0.038848118
FINAL SINGLE POINT ENERGY      -463.228622684163

DIPOLE MOMENT
-------------

Method             : SCF
Type of density    : Electron Density
Multiplicity       :   2
Irrep              :   0
Energy             :  -463.1897745658185954 Eh
Relativity type    :
Basis              : AO
                                X                 Y                 Z
Electronic contribution:     -5.277921988       1.628097134      -0.000383396
Nuclear contribution   :      5.760035760      -2.141608365      -0.000061222
                        -----------------------------------------
Total Dipole Moment    :      0.482113771      -0.513511230      -0.000444618
                        -----------------------------------------
Magnitude (a.u.)       :      0.704363308
Magnitude (Debye)      :      1.790349248

Rotational constants in cm-1:             0.146577             0.015467             0.014066
Rotational constants in MHz :          4394.279814           463.685769           421.681577

                             ****ORCA TERMINATED NORMALLY****
TOTAL RUN TIME: 0 days 0 hours 11 minutes 27 seconds 423 msec
