                         Program Version 6.0.0  -   RELEASE  -
|  1> !r2SCANh aug-cc-pVTZ d3 TightSCF SlowConv RIJCOSX defgrid2
|  2>
|  3> %pal
|  4> nprocs 4
|  5> end
|  6>
|  7> %scf
|  8> MaxIter 1500
|  9> end
| 10>
| 11> %maxcore 3000
| 12>
| 13> !CPCM
| 14> %cpcm smd true
| 15> SMDsolvent "MeCN"
| 16> surfacetype gepol_ses
| 17> rsolv 2.19
| 18> end
| 19>
| 20> * xyz 0 1
| 21> C           0.21548830233766     -1.31254052777573      0.00010422762952
| 22> C           1.59988954372279     -1.21584408900209     -0.00004926404309
| 23> C           2.20799859707677      0.04926876567316     -0.00017056079371
| 24> C           1.41929623512531      1.20975167076323     -0.00015034385102
| 25> C           0.03428838131423      1.10376838714684      0.00000853976851
| 26> C          -0.57189434190993     -0.15685634129961      0.00012888388170
| 27> C          -2.05244741323264     -0.32717869220259      0.00024717867959
| 28> O          -2.60855273307034     -1.39562203145168      0.00027570374344
| 29> O          -2.69833688538420      0.84120384412168      0.00023595438148
| 30> C          -4.11294581717618      0.76544881509859      0.00031914102461
| 31> H          -4.47359030585060      0.23317558937230     -0.89509819147298
| 32> H          -4.47329861249430      1.80336428589702      0.00085057660351
| 33> H          -4.47344996909725      0.23226341742374      0.89524607056349
| 34> H          -0.58911726931978      1.99981071426323      0.00001933079670
| 35> H           1.90124452922407      2.19015192252547     -0.00025667551397
| 36> C           3.63651162843124      0.15662159321331     -0.00028047012477
| 37> N           4.79247297713842      0.24396014896989      0.00010497590390
| 38> H           2.22105451043260     -2.11448267300194     -0.00006713475520
| 39> H          -0.28337085726787     -2.28467319973482      0.00020605757830
| 40> *
| 41>
| 42>                          ****END OF INPUT****

CARTESIAN COORDINATES (ANGSTROEM)
---------------------------------
  C      0.215488   -1.312541    0.000104
  C      1.599890   -1.215844   -0.000049
  C      2.207999    0.049269   -0.000171
  C      1.419296    1.209752   -0.000150
  C      0.034288    1.103768    0.000009
  C     -0.571894   -0.156856    0.000129
  C     -2.052447   -0.327179    0.000247
  O     -2.608553   -1.395622    0.000276
  O     -2.698337    0.841204    0.000236
  C     -4.112946    0.765449    0.000319
  H     -4.473590    0.233176   -0.895098
  H     -4.473299    1.803364    0.000851
  H     -4.473450    0.232263    0.895246
  H     -0.589117    1.999811    0.000019
  H      1.901245    2.190152   -0.000257
  C      3.636512    0.156622   -0.000280
  N      4.792473    0.243960    0.000105
  H      2.221055   -2.114483   -0.000067
  H     -0.283371   -2.284673    0.000206

 Total Charge           Charge          ....    0
 Multiplicity           Mult            ....    1
 Number of Electrons    NEL             ....   84
 Basis Dimension        Dim             ....  713

ORBITAL ENERGIES
----------------

  NO   OCC          E(Eh)            E(eV)
   0   2.0000     -19.173174      -521.7286
   1   2.0000     -19.112630      -520.0811
   2   2.0000     -14.318558      -389.6278
   3   2.0000     -10.293661      -280.1048
   4   2.0000     -10.219617      -278.0899
   5   2.0000     -10.216067      -277.9933
   6   2.0000     -10.203166      -277.6423
   7   2.0000     -10.195884      -277.4441
   8   2.0000     -10.190664      -277.3021
   9   2.0000     -10.190548      -277.2989
  10   2.0000     -10.185226      -277.1541
  11   2.0000     -10.183956      -277.1195
  12   2.0000      -1.126033       -30.6409
  13   2.0000      -1.034769       -28.1575
  14   2.0000      -0.927966       -25.2512
  15   2.0000      -0.887817       -24.1587
  16   2.0000      -0.804574       -21.8936
  17   2.0000      -0.771634       -20.9972
  18   2.0000      -0.732140       -19.9225
  19   2.0000      -0.664756       -18.0889
  20   2.0000      -0.627042       -17.0627
  21   2.0000      -0.573746       -15.6124
  22   2.0000      -0.558478       -15.1970
  23   2.0000      -0.529921       -14.4199
  24   2.0000      -0.489411       -13.3176
  25   2.0000      -0.483123       -13.1464
  26   2.0000      -0.462510       -12.5855
  27   2.0000      -0.450710       -12.2645
  28   2.0000      -0.431839       -11.7509
  29   2.0000      -0.425229       -11.5711
  30   2.0000      -0.413443       -11.2504
  31   2.0000      -0.393014       -10.6945
  32   2.0000      -0.391224       -10.6457
  33   2.0000      -0.371369       -10.1055
  34   2.0000      -0.363609        -9.8943
  35   2.0000      -0.352893        -9.6027
  36   2.0000      -0.349988        -9.5237
  37   2.0000      -0.337823        -9.1926
  38   2.0000      -0.304769        -8.2932
  39   2.0000      -0.281531        -7.6608
  40   2.0000      -0.275142        -7.4870
  41   2.0000      -0.273217        -7.4346
  42   0.0000      -0.096096        -2.6149
  43   0.0000      -0.044685        -1.2159
  44   0.0000      -0.002673        -0.0727
  45   0.0000       0.003097         0.0843
  46   0.0000       0.006091         0.1657

MULLIKEN ATOMIC CHARGES
-----------------------
   0 C :   -1.140092
   1 C :   -1.136946
   2 C :    1.893509
   3 C :   -1.339080
   4 C :   -0.282236
   5 C :    1.990655
   6 C :    0.842653
   7 O :   -0.923826
   8 O :   -0.310533
   9 C :   -0.636508
  10 H :    0.277847
  11 H :    0.249140
  12 H :    0.278175
  13 H :    0.174463
  14 H :    0.054426
  15 C :    0.720984
  16 N :   -0.846690
  17 H :    0.071304
  18 H :    0.062753
Sum of atomic charges:    0.0000000

LOEWDIN ATOMIC CHARGES
----------------------
   0 C :    0.220998
   1 C :    0.226341
   2 C :   -0.191811
   3 C :    0.225594
   4 C :    0.228141
   5 C :   -0.136434
   6 C :   -0.844002
   7 O :    0.490911
   8 O :    0.586196
   9 C :    0.347124
  10 H :   -0.170097
  11 H :   -0.170421
  12 H :   -0.170156
  13 H :   -0.173197
  14 H :   -0.150876
  15 C :   -0.237858
  16 N :    0.241545
  17 H :   -0.150977
  18 H :   -0.171021

  Mayer bond orders larger than 0.100000
B(  0-C ,  1-C ) :   1.6515 B(  0-C ,  3-C ) :   0.2602 B(  0-C ,  4-C ) :  -0.7735
B(  0-C ,  6-C ) :   0.4202 B(  0-C , 15-C ) :  -0.2142 B(  0-C , 18-H ) :   1.2812
B(  1-C ,  3-C ) :  -0.1567 B(  1-C ,  4-C ) :   0.1568 B(  1-C ,  5-C ) :  -0.3587
B(  1-C ,  6-C ) :  -0.1438 B(  1-C , 15-C ) :   0.3835 B(  1-C , 16-N ) :   0.1063
B(  1-C , 17-H ) :   1.3764 B(  2-C ,  4-C ) :   0.2139 B(  2-C ,  6-C ) :   0.2289
B(  2-C , 14-H ) :  -0.3463 B(  2-C , 15-C ) :   0.5980 B(  2-C , 16-N ) :   0.3714
B(  2-C , 17-H ) :  -0.3248 B(  3-C ,  4-C ) :   1.1063 B(  3-C ,  5-C ) :  -0.2800
B(  3-C , 14-H ) :   1.4411 B(  3-C , 15-C ) :   0.4226 B(  3-C , 16-N ) :   0.1103
B(  4-C ,  5-C ) :   0.4006 B(  4-C ,  6-C ) :   0.1597 B(  4-C ,  8-O ) :  -0.1080
B(  4-C , 13-H ) :   1.2493 B(  4-C , 15-C ) :  -0.2574 B(  5-C ,  6-C ) :   0.1777
B(  5-C ,  8-O ) :   0.2146 B(  5-C , 13-H ) :  -0.2352 B(  5-C , 15-C ) :   0.4390
B(  5-C , 17-H ) :  -0.1238 B(  5-C , 18-H ) :  -0.2390 B(  6-C ,  7-O ) :   1.0184
B(  6-C ,  8-O ) :   0.8875 B(  6-C , 15-C ) :   0.1356 B(  7-O , 18-H ) :   0.1457
B(  8-O ,  9-C ) :   0.8702 B(  9-C , 10-H ) :   0.9045 B(  9-C , 11-H ) :   0.9551
B(  9-C , 12-H ) :   0.9044 B( 13-H , 18-H ) :   0.1832 B( 14-H , 17-H ) :   0.1521
B( 15-C , 16-N ) :   1.4395

Dispersion correction           -0.006488643
FINAL SINGLE POINT ENERGY      -552.260580916012

DIPOLE MOMENT
-------------

Method             : SCF
Type of density    : Electron Density
Multiplicity       :   1
Irrep              :   0
Energy             :  -552.2540922726941517 Eh
Relativity type    :
Basis              : AO
                                X                 Y                 Z
Electronic contribution:      7.522939347      -1.155429434      -0.000308299
Nuclear contribution   :     -9.614807611       1.929707877       0.000342352
                        -----------------------------------------
Total Dipole Moment    :     -2.091868264       0.774278444       0.000034054
                        -----------------------------------------
Magnitude (a.u.)       :      2.230564938
Magnitude (Debye)      :      5.669645499

Rotational constants in cm-1:             0.115026             0.014673             0.013046
Rotational constants in MHz :          3448.390341           439.899337           391.107079

                             ****ORCA TERMINATED NORMALLY****
TOTAL RUN TIME: 0 days 0 hours 6 minutes 29 seconds 749 msec
