                         Program Version 6.0.0  -   RELEASE  -
|  1> !PBE0 def2-SV(p) Opt Freq d3 TightSCF SlowConv RIJCOSX defgrid2
|  2>
|  3> %pal
|  4> nprocs 4
|  5> end
|  6>
|  7> %scf
|  8> MaxIter 1500
|  9> end
| 10>
| 11> %maxcore 3000
| 12>
| 13>
| 14>
| 15> * xyz 0 1
| 16> C     2.4154325   -0.7023326   -0.0000190
| 17> C     2.4154446    0.7022982   -0.0000236
| 18> C     1.2353831    1.3924660   -0.0000120
| 19> C     0.0000073    0.7101183   -0.0000000
| 20> C    -1.2353581    1.3924858   -0.0000014
| 21> C    -2.4154290    0.7023351    0.0000055
| 22> C    -2.4154402   -0.7022965    0.0000403
| 23> C    -1.2353799   -1.3924640    0.0000311
| 24> C    -0.0000042   -0.7101154    0.0000055
| 25> C     1.2353611   -1.3924824   -0.0000103
| 26> H     1.2302302   -2.4735109    0.0000138
| 27> H    -1.2302593   -2.4734915   -0.0000240
| 28> H    -3.3573009   -1.2316357   -0.0000548
| 29> H    -3.3572810    1.2316905   -0.0000255
| 30> H    -1.2302251    2.4735139    0.0000358
| 31> H     1.2302636    2.4734946    0.0000110
| 32> H     3.3573041    1.2316393    0.0000595
| 33> H     3.3572825   -1.2316906    0.0000445
| 34> *
| 35>
| 36>                          ****END OF INPUT****
 Total Charge           Charge          ....    0
 Multiplicity           Mult            ....    1
 Number of Electrons    NEL             ....   68
Dispersion correction           -0.018581879
FINAL SINGLE POINT ENERGY      -385.157372290440
Dispersion correction             ... done (  0.1 sec)
Dispersion correction           -0.018497876
FINAL SINGLE POINT ENERGY      -385.159182555793
Dispersion correction             ... done (  0.1 sec)
Dispersion correction           -0.018490519
FINAL SINGLE POINT ENERGY      -385.159202435572
Dispersion correction             ... done (  0.1 sec)
                    ***********************HURRAY********************

CARTESIAN COORDINATES (ANGSTROEM)
---------------------------------
  C      2.430314   -0.707491    0.000014
  C      2.430324    0.707457    0.000018
  C      1.242257    1.400670    0.000013
  C      0.000007    0.714794    0.000005
  C     -1.242231    1.400689    0.000003
  C     -2.430310    0.707494   -0.000004
  C     -2.430321   -0.707454   -0.000010
  C     -1.242254   -1.400668   -0.000006
  C     -0.000004   -0.714793    0.000002
  C      1.242235   -1.400687    0.000005
  H      1.238244   -2.495276    0.000002
  H     -1.238278   -2.495257   -0.000009
  H     -3.381752   -1.247549   -0.000014
  H     -3.381731    1.247604   -0.000005
  H     -1.238238    2.495278    0.000007
  H      1.238280    2.495260    0.000014
  H      3.381754    1.247553    0.000023
  H      3.381735   -1.247601    0.000018

 Multiplicity           Mult            ....    1
 Number of Electrons    NEL             ....   68
 Basis Dimension        Dim             ....  156

ORBITAL ENERGIES
----------------

  NO   OCC          E(Eh)            E(eV)
   0   2.0000     -10.247426      -278.8466
   1   2.0000     -10.247137      -278.8388
   2   2.0000     -10.239269      -278.6247
   3   2.0000     -10.239248      -278.6241
   4   2.0000     -10.239147      -278.6214
   5   2.0000     -10.239144      -278.6213
   6   2.0000     -10.238679      -278.6086
   7   2.0000     -10.238666      -278.6083
   8   2.0000     -10.238537      -278.6048
   9   2.0000     -10.238518      -278.6042
  10   2.0000      -0.896557       -24.3966
  11   2.0000      -0.841944       -22.9104
  12   2.0000      -0.791980       -21.5509
  13   2.0000      -0.758885       -20.6503
  14   2.0000      -0.735729       -20.0202
  15   2.0000      -0.642190       -17.4749
  16   2.0000      -0.628160       -17.0931
  17   2.0000      -0.613090       -16.6830
  18   2.0000      -0.532871       -14.5002
  19   2.0000      -0.523365       -14.2415
  20   2.0000      -0.512520       -13.9464
  21   2.0000      -0.461432       -12.5562
  22   2.0000      -0.459463       -12.5026
  23   2.0000      -0.434528       -11.8241
  24   2.0000      -0.433101       -11.7853
  25   2.0000      -0.414855       -11.2888
  26   2.0000      -0.410814       -11.1788
  27   2.0000      -0.384600       -10.4655
  28   2.0000      -0.353961        -9.6318
  29   2.0000      -0.346213        -9.4209
  30   2.0000      -0.345461        -9.4005
  31   2.0000      -0.302859        -8.2412
  32   2.0000      -0.260516        -7.0890
  33   2.0000      -0.231727        -6.3056
  34   0.0000      -0.041807        -1.1376
  35   0.0000      -0.012218        -0.3325
  36   0.0000       0.028984         0.7887
  37   0.0000       0.071349         1.9415
  38   0.0000       0.087742         2.3876

MULLIKEN ATOMIC CHARGES
-----------------------
   0 C :   -0.088156
   1 C :   -0.088154
   2 C :   -0.131778
   3 C :    0.076452
   4 C :   -0.131779
   5 C :   -0.088152
   6 C :   -0.088159
   7 C :   -0.131777
   8 C :    0.076451
   9 C :   -0.131777
  10 H :    0.084758
  11 H :    0.084758
  12 H :    0.096949
  13 H :    0.096949
  14 H :    0.084758
  15 H :    0.084758
  16 H :    0.096949
  17 H :    0.096949
Sum of atomic charges:    0.0000000

LOEWDIN ATOMIC CHARGES
----------------------
   0 C :   -0.129731
   1 C :   -0.129731
   2 C :   -0.114981
   3 C :   -0.029364
   4 C :   -0.114981
   5 C :   -0.129731
   6 C :   -0.129731
   7 C :   -0.114982
   8 C :   -0.029364
   9 C :   -0.114982
  10 H :    0.129364
  11 H :    0.129364
  12 H :    0.130031
  13 H :    0.130031
  14 H :    0.129364
  15 H :    0.129364
  16 H :    0.130031
  17 H :    0.130031

  Mayer bond orders larger than 0.100000
B(  0-C ,  1-C ) :   1.2603 B(  0-C ,  9-C ) :   1.5042 B(  0-C , 17-H ) :   0.9616
B(  1-C ,  2-C ) :   1.5042 B(  1-C , 16-H ) :   0.9616 B(  2-C ,  3-C ) :   1.2532
B(  2-C , 15-H ) :   0.9625 B(  3-C ,  4-C ) :   1.2532 B(  3-C ,  8-C ) :   1.2615
B(  4-C ,  5-C ) :   1.5042 B(  4-C , 14-H ) :   0.9625 B(  5-C ,  6-C ) :   1.2603
B(  5-C , 13-H ) :   0.9616 B(  6-C ,  7-C ) :   1.5042 B(  6-C , 12-H ) :   0.9616
B(  7-C ,  8-C ) :   1.2532 B(  7-C , 11-H ) :   0.9625 B(  8-C ,  9-C ) :   1.2532
B(  9-C , 10-H ) :   0.9625

Dispersion correction           -0.018489409
FINAL SINGLE POINT ENERGY      -385.159205018967

DIPOLE MOMENT
-------------

Method             : SCF
Type of density    : Electron Density
Multiplicity       :   1
Irrep              :   0
Energy             :  -385.1407156101797113 Eh
Relativity type    :
Basis              : AO
                                X                 Y                 Z
Electronic contribution:      0.000000549      -0.000001764      -0.000003075
Nuclear contribution   :     -0.000000379       0.000001978       0.000003856
                        -----------------------------------------
Total Dipole Moment    :      0.000000170       0.000000214       0.000000781
                        -----------------------------------------
Magnitude (a.u.)       :      0.000000827
Magnitude (Debye)      :      0.000002103

VIBRATIONAL FREQUENCIES
-----------------------

Scaling factor for frequencies =  1.000000000  (already applied!)

     0:       0.00 cm**-1
     1:       0.00 cm**-1
     2:       0.00 cm**-1
     3:       0.00 cm**-1
     4:       0.00 cm**-1
     5:       0.00 cm**-1
     6:     174.77 cm**-1
     7:     189.30 cm**-1
     8:     365.09 cm**-1
     9:     399.98 cm**-1
    10:     486.87 cm**-1
    11:     496.09 cm**-1
    12:     517.11 cm**-1
    13:     521.19 cm**-1
    14:     631.99 cm**-1
    15:     648.10 cm**-1
    16:     736.16 cm**-1
    17:     787.52 cm**-1
    18:     808.68 cm**-1
    19:     808.93 cm**-1
    20:     810.95 cm**-1
    21:     861.26 cm**-1
    22:     921.90 cm**-1
    23:     947.10 cm**-1
    24:     975.93 cm**-1
    25:     995.34 cm**-1
    26:    1015.42 cm**-1
    27:    1021.43 cm**-1
    28:    1054.64 cm**-1
    29:    1063.25 cm**-1
    30:    1150.42 cm**-1
    31:    1167.00 cm**-1
    32:    1168.42 cm**-1
    33:    1174.02 cm**-1
    34:    1252.02 cm**-1
    35:    1270.44 cm**-1
    36:    1290.25 cm**-1
    37:    1421.23 cm**-1
    38:    1439.97 cm**-1
    39:    1462.04 cm**-1
    40:    1503.59 cm**-1
    41:    1511.50 cm**-1
    42:    1585.34 cm**-1
    43:    1664.39 cm**-1
    44:    1683.12 cm**-1
    45:    1723.74 cm**-1
    46:    3188.49 cm**-1
    47:    3189.32 cm**-1
    48:    3193.33 cm**-1
    49:    3195.15 cm**-1
    50:    3206.77 cm**-1
    51:    3207.42 cm**-1
    52:    3218.75 cm**-1
    53:    3219.45 cm**-1

IR SPECTRUM
-----------

 Mode   freq       eps      Int      T**2         TX        TY        TZ
       cm**-1   L/(mol*cm) km/mol    a.u.
----------------------------------------------------------------------------
  6:    174.77   0.000484    2.45  0.000865  ( 0.000000 -0.000000  0.029410)
  7:    189.30   0.000000    0.00  0.000000  ( 0.000000  0.000000 -0.000004)
  8:    365.09   0.000288    1.46  0.000247  ( 0.000000  0.015703  0.000000)
  9:    399.98   0.000000    0.00  0.000000  ( 0.000000  0.000000  0.000001)
 10:    486.87   0.000000    0.00  0.000000  (-0.000000  0.000000 -0.000006)
 11:    496.09   0.004121   20.83  0.002593  ( 0.000000 -0.000000 -0.050917)
 12:    517.11   0.000000    0.00  0.000000  ( 0.000000  0.000000 -0.000000)
 13:    521.19   0.000000    0.00  0.000000  ( 0.000000  0.000000 -0.000001)
 14:    631.99   0.000701    3.54  0.000346  ( 0.018603 -0.000000  0.000000)
 15:    648.10   0.000000    0.00  0.000000  (-0.000000 -0.000000  0.000000)
 16:    736.16   0.000000    0.00  0.000000  ( 0.000000 -0.000000 -0.000001)
 17:    787.52   0.000000    0.00  0.000000  (-0.000000  0.000000  0.000001)
 18:    808.68   0.018801   95.01  0.007255  ( 0.000000  0.000001 -0.085178)
 19:    808.93   0.000027    0.14  0.000010  ( 0.000000  0.003233  0.000019)
 20:    810.95   0.000000    0.00  0.000000  ( 0.000000 -0.000000  0.000011)
 21:    861.26   0.000000    0.00  0.000000  (-0.000000  0.000000 -0.000001)
 22:    921.90   0.000000    0.00  0.000000  ( 0.000000  0.000000 -0.000000)
 23:    947.10   0.000000    0.00  0.000000  ( 0.000000 -0.000000  0.000000)
 24:    975.93   0.000000    0.00  0.000000  (-0.000000 -0.000000  0.000000)
 25:    995.34   0.000471    2.38  0.000148  (-0.000000  0.000000  0.012154)
 26:   1015.42   0.000000    0.00  0.000000  (-0.000000 -0.000000  0.000001)
 27:   1021.43   0.000000    0.00  0.000000  (-0.000000 -0.000000  0.000000)
 28:   1054.64   0.001565    7.91  0.000463  (-0.021519  0.000000 -0.000000)
 29:   1063.25   0.000000    0.00  0.000000  ( 0.000000 -0.000001 -0.000000)
 30:   1150.42   0.001334    6.74  0.000362  (-0.000000 -0.019026 -0.000000)
 31:   1167.00   0.000175    0.89  0.000047  (-0.006850  0.000001 -0.000000)
 32:   1168.42   0.000000    0.00  0.000000  (-0.000001  0.000000 -0.000000)
 33:   1174.02   0.000000    0.00  0.000000  (-0.000000 -0.000001 -0.000000)
 34:   1252.02   0.000432    2.18  0.000108  (-0.010377 -0.000000 -0.000000)
 35:   1270.44   0.000000    0.00  0.000000  (-0.000000  0.000000  0.000000)
 36:   1290.25   0.001328    6.71  0.000321  ( 0.000000  0.017924  0.000000)
 37:   1421.23   0.001246    6.30  0.000274  ( 0.000000 -0.016540 -0.000000)
 38:   1439.97   0.000426    2.15  0.000092  (-0.009609 -0.000000 -0.000000)
 39:   1462.04   0.000000    0.00  0.000000  ( 0.000000 -0.000000 -0.000000)
 40:   1503.59   0.000000    0.00  0.000000  ( 0.000000  0.000000 -0.000000)
 41:   1511.50   0.000000    0.00  0.000000  ( 0.000000  0.000000  0.000000)
 42:   1585.34   0.001592    8.04  0.000313  (-0.017700  0.000000 -0.000000)
 43:   1664.39   0.000000    0.00  0.000000  ( 0.000000  0.000000  0.000000)
 44:   1683.12   0.000951    4.81  0.000176  ( 0.000000  0.013277  0.000000)
 45:   1723.74   0.000000    0.00  0.000000  ( 0.000000  0.000000 -0.000000)
 46:   3188.49   0.000000    0.00  0.000000  ( 0.000000 -0.000012  0.000000)
 47:   3189.32   0.000825    4.17  0.000081  ( 0.000001 -0.008985 -0.000000)
 48:   3193.33   0.000088    0.45  0.000009  ( 0.002938  0.000003  0.000000)
 49:   3195.15   0.000000    0.00  0.000000  ( 0.000000  0.000001 -0.000000)
 50:   3206.77   0.000000    0.00  0.000000  (-0.000000  0.000038  0.000000)
 51:   3207.42   0.007580   38.31  0.000737  ( 0.000004  0.027156  0.000000)
 52:   3218.75   0.005466   27.62  0.000530  ( 0.023021 -0.000004  0.000000)
 53:   3219.45   0.000000    0.00  0.000000  (-0.000032  0.000000 -0.000000)

--------------------------
THERMOCHEMISTRY AT 298.15K
--------------------------

Temperature         ...   298.15 K
Pressure            ...     1.00 atm
Total Mass          ...   128.17 AMU
Quasi RRHO          ...     True
Cut-Off Frequency   ...     1.00 cm^-1

Throughout the following assumptions are being made:
  (1) The electronic state is orbitally nondegenerate
  (2) There are no thermally accessible electronically excited states
  (3) Hindered rotations indicated by low frequency modes are not
      treated as such but are treated as vibrations and this may
      cause some error
  (4) All equations used are the standard statistical mechanics
      equations for an ideal gas
  (5) All vibrations are strictly harmonic

freq.     174.77  E(vib)   ...       0.38
freq.     189.30  E(vib)   ...       0.36
freq.     365.09  E(vib)   ...       0.22
freq.     399.98  E(vib)   ...       0.19
freq.     486.87  E(vib)   ...       0.15
freq.     496.09  E(vib)   ...       0.14
freq.     517.11  E(vib)   ...       0.13
freq.     521.19  E(vib)   ...       0.13
freq.     631.99  E(vib)   ...       0.09
freq.     648.10  E(vib)   ...       0.08
freq.     736.16  E(vib)   ...       0.06
freq.     787.52  E(vib)   ...       0.05
freq.     808.68  E(vib)   ...       0.05
freq.     808.93  E(vib)   ...       0.05
freq.     810.95  E(vib)   ...       0.05
freq.     861.26  E(vib)   ...       0.04
freq.     921.90  E(vib)   ...       0.03
freq.     947.10  E(vib)   ...       0.03
freq.     975.93  E(vib)   ...       0.03
freq.     995.34  E(vib)   ...       0.02
freq.    1015.42  E(vib)   ...       0.02
freq.    1021.43  E(vib)   ...       0.02
freq.    1054.64  E(vib)   ...       0.02
freq.    1063.25  E(vib)   ...       0.02
freq.    1150.42  E(vib)   ...       0.01
freq.    1167.00  E(vib)   ...       0.01
freq.    1168.42  E(vib)   ...       0.01
freq.    1174.02  E(vib)   ...       0.01
freq.    1252.02  E(vib)   ...       0.01
freq.    1270.44  E(vib)   ...       0.01
freq.    1290.25  E(vib)   ...       0.01
freq.    1421.23  E(vib)   ...       0.00
freq.    1439.97  E(vib)   ...       0.00
freq.    1462.04  E(vib)   ...       0.00
freq.    1503.59  E(vib)   ...       0.00
freq.    1511.50  E(vib)   ...       0.00
freq.    1585.34  E(vib)   ...       0.00
freq.    1664.39  E(vib)   ...       0.00
freq.    1683.12  E(vib)   ...       0.00
freq.    1723.74  E(vib)   ...       0.00
freq.    3188.49  E(vib)   ...       0.00
freq.    3189.32  E(vib)   ...       0.00
freq.    3193.33  E(vib)   ...       0.00
freq.    3195.15  E(vib)   ...       0.00
freq.    3206.77  E(vib)   ...       0.00
freq.    3207.42  E(vib)   ...       0.00
freq.    3218.75  E(vib)   ...       0.00
freq.    3219.45  E(vib)   ...       0.00

------------
INNER ENERGY
------------

The inner energy is: U= E(el) + E(ZPE) + E(vib) + E(rot) + E(trans)
    E(el)   - is the total energy from the electronic structure calculation
              = E(kin-el) + E(nuc-el) + E(el-el) + E(nuc-nuc)
    E(ZPE)  - the the zero temperature vibrational energy from the frequency calculation
    E(vib)  - the the finite temperature correction to E(ZPE) due to population
              of excited vibrational states
    E(rot)  - is the rotational thermal energy
    E(trans)- is the translational thermal energy

Summary of contributions to the inner energy U:
Electronic energy                ...   -385.15920502 Eh
Zero point energy                ...      0.14882169 Eh      93.39 kcal/mol
Thermal vibrational correction   ...      0.00391789 Eh       2.46 kcal/mol
Thermal rotational correction    ...      0.00141627 Eh       0.89 kcal/mol
Thermal translational correction ...      0.00141627 Eh       0.89 kcal/mol
-----------------------------------------------------------------------
Total thermal energy                   -385.00363290 Eh

Summary of corrections to the electronic energy:
(perhaps to be used in another calculation)
Total thermal correction                  0.00675043 Eh       4.24 kcal/mol
Non-thermal (ZPE) correction              0.14882169 Eh      93.39 kcal/mol
-----------------------------------------------------------------------
Total correction                          0.15557212 Eh      97.62 kcal/mol

--------
ENTHALPY
--------

The enthalpy is H = U + kB*T
                kB is Boltzmann's constant
Total thermal energy              ...   -385.00363290 Eh
Thermal Enthalpy correction       ...      0.00094421 Eh       0.59 kcal/mol
-----------------------------------------------------------------------
Total Enthalpy                    ...   -385.00268869 Eh

Note: Rotational entropy computed according to Herzberg
Infrared and Raman Spectra, Chapter V,1, Van Nostrand Reinhold, 1945
Point Group:  D2h, Symmetry Number:   4
Rotational constants in cm-1:     0.104086     0.041096     0.029463

Vibrational entropy computed according to the QRRHO of S. Grimme
Chem.Eur.J. 2012 18 9955 using a reference frequency of 100.0 cm-1

-------
ENTROPY
-------

The entropy contributions are T*S = T*(S(el)+S(vib)+S(rot)+S(trans))
     S(el)   - electronic entropy
     S(vib)  - vibrational entropy
     S(rot)  - rotational entropy
     S(trans)- translational entropy
The entropies will be listed as multiplied by the temperature to get
units of energy

Electronic entropy                ...      0.00000000 Eh      0.00 kcal/mol
Vibrational entropy               ...      0.00590277 Eh      3.70 kcal/mol
Rotational entropy                ...      0.01244080 Eh      7.81 kcal/mol
Translational entropy             ...      0.01922279 Eh     12.06 kcal/mol
-----------------------------------------------------------------------
Final entropy term                ...      0.03756635 Eh     23.57 kcal/mol

In case the symmetry of your molecule has not been determined correctly
or in case you have a reason to use a different symmetry number we print
out the resulting rotational entropy values for sn=1,12:

 non-linear molecules -----------------------------------
|  sn= 1 | S(rot)=       0.01374971 Eh      8.63 kcal/mol|
|  sn= 2 | S(rot)=       0.01309525 Eh      8.22 kcal/mol|
|  sn= 3 | S(rot)=       0.01271242 Eh      7.98 kcal/mol|
|  sn= 4 | S(rot)=       0.01244080 Eh      7.81 kcal/mol|
|  sn= 5 | S(rot)=       0.01223011 Eh      7.67 kcal/mol|
|  sn= 6 | S(rot)=       0.01205796 Eh      7.57 kcal/mol|
|  sn= 7 | S(rot)=       0.01191242 Eh      7.48 kcal/mol|
|  sn= 8 | S(rot)=       0.01178634 Eh      7.40 kcal/mol|
|  sn= 9 | S(rot)=       0.01167513 Eh      7.33 kcal/mol|
|  sn=10 | S(rot)=       0.01157565 Eh      7.26 kcal/mol|
|  sn=11 | S(rot)=       0.01148566 Eh      7.21 kcal/mol|
|  sn=12 | S(rot)=       0.01140351 Eh      7.16 kcal/mol|
 linear molecules ---------------------------------------
|  Dinfh | S(rot)=       0.00865368 Eh      5.43 kcal/mol|
|  Cinfv | S(rot)=       0.00930814 Eh      5.84 kcal/mol|
 --------------------------------------------------------

                             ****ORCA TERMINATED NORMALLY****
TOTAL RUN TIME: 0 days 0 hours 7 minutes 5 seconds 269 msec
