                         Program Version 6.0.0  -   RELEASE  -
|  1> !B3LYP aug-cc-pVTZ d3 TightSCF SlowConv RIJCOSX defgrid2
|  2>
|  3> %pal
|  4> nprocs 15
|  5> end
|  6>
|  7> %scf
|  8> MaxIter 1500
|  9> end
| 10>
| 11> %maxcore 3500
| 12>
| 13> !CPCM
| 14> %cpcm smd true
| 15> SMDsolvent "WATER"
| 16> surfacetype gepol_ses
| 17> rsolv 1.40
| 18> end
| 19>
| 20> * xyz 0 1
| 21> C          -0.00000020978988      0.00000073694249     -0.05069100410522
| 22> C          -1.20906788297771     -0.37099775736022      0.72498240348112
| 23> C           1.20906839531154      0.37099639744085      0.72498233629225
| 24> H          -2.08965714718270     -0.64109787483542      0.13413739306601
| 25> H           2.08965862753959      0.64109516807399      0.13413744999163
| 26> C          -1.20906829311347     -0.37099671339690      2.06767561532039
| 27> C           1.20906814538816      0.37099731197670      2.06767588420582
| 28> H          -2.08965863090342     -0.64109537543156      2.65852032753444
| 29> H           2.08965866999056      0.64109660483906      2.65852006555801
| 30> C          -0.00000017070001      0.00000032151215      2.84334909378969
| 31> O          -0.00000037912842     -0.00000048181393      4.05737768473263
| 32> O          -0.00000112443423      0.00000166205280     -1.26471924986679
| 33> *
| 34>
| 35>                          ****END OF INPUT****

CARTESIAN COORDINATES (ANGSTROEM)
---------------------------------
  C     -0.000000    0.000001   -0.050691
  C     -1.209068   -0.370998    0.724982
  C      1.209068    0.370996    0.724982
  H     -2.089657   -0.641098    0.134137
  H      2.089659    0.641095    0.134137
  C     -1.209068   -0.370997    2.067676
  C      1.209068    0.370997    2.067676
  H     -2.089659   -0.641095    2.658520
  H      2.089659    0.641097    2.658520
  C     -0.000000    0.000000    2.843349
  O     -0.000000   -0.000000    4.057378
  O     -0.000001    0.000002   -1.264719

 Total Charge           Charge          ....    0
 Multiplicity           Mult            ....    1
 Number of Electrons    NEL             ....   56
 Basis Dimension        Dim             ....  460

ORBITAL ENERGIES
----------------

  NO   OCC          E(Eh)            E(eV)
   0   2.0000     -19.147877      -521.0402
   1   2.0000     -19.147874      -521.0401
   2   2.0000     -10.286033      -279.8972
   3   2.0000     -10.286000      -279.8963
   4   2.0000     -10.208132      -277.7774
   5   2.0000     -10.208101      -277.7765
   6   2.0000     -10.207244      -277.7532
   7   2.0000     -10.207217      -277.7525
   8   2.0000      -1.074233       -29.2314
   9   2.0000      -1.072665       -29.1887
  10   2.0000      -0.854981       -23.2652
  11   2.0000      -0.783012       -21.3068
  12   2.0000      -0.705197       -19.1894
  13   2.0000      -0.634851       -17.2752
  14   2.0000      -0.599335       -16.3087
  15   2.0000      -0.515985       -14.0407
  16   2.0000      -0.510396       -13.8886
  17   2.0000      -0.487145       -13.2559
  18   2.0000      -0.449823       -12.2403
  19   2.0000      -0.448103       -12.1935
  20   2.0000      -0.443632       -12.0718
  21   2.0000      -0.426571       -11.6076
  22   2.0000      -0.422046       -11.4845
  23   2.0000      -0.397539       -10.8176
  24   2.0000      -0.311249        -8.4695
  25   2.0000      -0.295645        -8.0449
  26   2.0000      -0.292556        -7.9609
  27   2.0000      -0.279515        -7.6060
  28   0.0000      -0.132818        -3.6142
  29   0.0000      -0.026319        -0.7162
  30   0.0000       0.000783         0.0213
  31   0.0000       0.001606         0.0437
  32   0.0000       0.014542         0.3957

MULLIKEN ATOMIC CHARGES
-----------------------
   0 C :    1.065282
   1 C :   -0.527802
   2 C :   -0.527371
   3 H :    0.470968
   4 H :    0.470814
   5 C :   -0.527351
   6 C :   -0.527506
   7 H :    0.470862
   8 H :    0.471001
   9 C :    1.064385
  10 O :   -0.951623
  11 O :   -0.951660
Sum of atomic charges:    0.0000000

LOEWDIN ATOMIC CHARGES
----------------------
   0 C :   -0.578985
   1 C :    0.223260
   2 C :    0.223267
   3 H :   -0.163369
   4 H :   -0.163360
   5 C :    0.223268
   6 C :    0.223261
   7 H :   -0.163360
   8 H :   -0.163369
   9 C :   -0.578985
  10 O :    0.459186
  11 O :    0.459187

  Mayer bond orders larger than 0.100000
B(  0-C ,  1-C ) :   0.8979 B(  0-C ,  2-C ) :   0.8983 B(  0-C ,  9-C ) :   0.1089
B(  0-C , 11-O ) :   0.7901 B(  1-C ,  2-C ) :   0.3207 B(  1-C ,  3-H ) :   0.5028
B(  1-C ,  5-C ) :   1.7497 B(  1-C ,  6-C ) :  -0.1278 B(  1-C , 11-O ) :   0.1481
B(  2-C ,  4-H ) :   0.5030 B(  2-C ,  5-C ) :  -0.1277 B(  2-C ,  6-C ) :   1.7489
B(  2-C , 11-O ) :   0.1482 B(  5-C ,  6-C ) :   0.3208 B(  5-C ,  7-H ) :   0.5031
B(  5-C ,  9-C ) :   0.8985 B(  5-C , 10-O ) :   0.1480 B(  6-C ,  8-H ) :   0.5029
B(  6-C ,  9-C ) :   0.8986 B(  6-C , 10-O ) :   0.1479 B(  9-C , 10-O ) :   0.7909

Dispersion correction           -0.020853850
FINAL SINGLE POINT ENERGY      -381.420724943812

DIPOLE MOMENT
-------------

Method             : SCF
Type of density    : Electron Density
Multiplicity       :   1
Irrep              :   0
Energy             :  -381.3998710942016146 Eh
Relativity type    :
Basis              : AO
                                X                 Y                 Z
Electronic contribution:     -0.000001247       0.000001360      -0.000000773
Nuclear contribution   :      0.000002198      -0.000002102      -0.000001065
                        -----------------------------------------
Total Dipole Moment    :      0.000000951      -0.000000742      -0.000001838
                        -----------------------------------------
Magnitude (a.u.)       :      0.000002199
Magnitude (Debye)      :      0.000005589

Rotational constants in cm-1:             0.175401             0.055278             0.042032
Rotational constants in MHz :          5258.386443          1657.201068          1260.081464

                             ****ORCA TERMINATED NORMALLY****
TOTAL RUN TIME: 0 days 0 hours 2 minutes 16 seconds 278 msec
