                         Program Version 6.0.0  -   RELEASE  -
|  1> !r2SCAN aug-cc-pVTZ d3 TightSCF SlowConv RIJCOSX defgrid2
|  2>
|  3> %pal
|  4> nprocs 4
|  5> end
|  6>
|  7> %scf
|  8> MaxIter 1500
|  9> end
| 10>
| 11> %maxcore 3000
| 12>
| 13> !CPCM
| 14> %cpcm smd true
| 15> SMDsolvent "MeCN"
| 16> surfacetype gepol_ses
| 17> rsolv 2.19
| 18> end
| 19>
| 20> * xyz 0 1
| 21>   C          -1.20570013774955     -1.10039697930563      0.01543175480109
| 22>   C           0.00111933111067     -1.79372463480323      0.03716937828290
| 23>   C           1.21118544677794     -1.10088196681091      0.03388616244552
| 24>   C           1.22835326598804      0.29682839071349      0.00494538015242
| 25>   C           2.52368903063881      1.05844071578900     -0.03593104667324
| 26>   H           2.48341162103777      1.96024689395608      0.59889265106332
| 27>   H           3.36770598220524      0.43706826741282      0.30599555459239
| 28>   H           2.75516930508487      1.39410942865254     -1.06399807973417
| 29>   C           0.00347119857744      0.97499778484913     -0.01291371518520
| 30>   C          -1.22031342403745      0.30000889914392     -0.00614524998718
| 31>   C          -2.51971268891073      1.05570005797022      0.00936042521607
| 32>   H          -2.39731022829722      2.08016889230358     -0.37956919154311
| 33>   H          -2.91823280700184      1.13851573828558      1.03779552551247
| 34>   H          -3.28893296665078      0.54842098009693     -0.59747808691160
| 35>   H           0.00394355087374      2.07111276662115     -0.03278330541863
| 36>   H           2.15666081819569     -1.65279950277184      0.05208747237142
| 37>   H           0.00027512568056     -2.88802960033678      0.05674445713596
| 38>   H          -2.15204978452320     -1.65147955576605      0.01700562287958
| 39> *
| 40>
| 41>                          ****END OF INPUT****

CARTESIAN COORDINATES (ANGSTROEM)
---------------------------------
  C     -1.205700   -1.100397    0.015432
  C      0.001119   -1.793725    0.037169
  C      1.211185   -1.100882    0.033886
  C      1.228353    0.296828    0.004945
  C      2.523689    1.058441   -0.035931
  H      2.483412    1.960247    0.598893
  H      3.367706    0.437068    0.305996
  H      2.755169    1.394109   -1.063998
  C      0.003471    0.974998   -0.012914
  C     -1.220313    0.300009   -0.006145
  C     -2.519713    1.055700    0.009360
  H     -2.397310    2.080169   -0.379569
  H     -2.918233    1.138516    1.037796
  H     -3.288933    0.548421   -0.597478
  H      0.003944    2.071113   -0.032783
  H      2.156661   -1.652800    0.052087
  H      0.000275   -2.888030    0.056744
  H     -2.152050   -1.651480    0.017006

 Total Charge           Charge          ....    0
 Multiplicity           Mult            ....    1
 Number of Electrons    NEL             ....   58
 Basis Dimension        Dim             ....  598

ORBITAL ENERGIES
----------------

  NO   OCC          E(Eh)            E(eV)
   0   2.0000     -10.047433      -273.4045
   1   2.0000     -10.047288      -273.4006
   2   2.0000     -10.036411      -273.1046
   3   2.0000     -10.031334      -272.9665
   4   2.0000     -10.031302      -272.9656
   5   2.0000     -10.030567      -272.9456
   6   2.0000     -10.026009      -272.8216
   7   2.0000     -10.025992      -272.8211
   8   2.0000      -0.823546       -22.4098
   9   2.0000      -0.745130       -20.2760
  10   2.0000      -0.722331       -19.6556
  11   2.0000      -0.651499       -17.7282
  12   2.0000      -0.641201       -17.4480
  13   2.0000      -0.560338       -15.2476
  14   2.0000      -0.533781       -14.5249
  15   2.0000      -0.464694       -12.6450
  16   2.0000      -0.432939       -11.7809
  17   2.0000      -0.407368       -11.0850
  18   2.0000      -0.389998       -10.6124
  19   2.0000      -0.375194       -10.2095
  20   2.0000      -0.373866       -10.1734
  21   2.0000      -0.367200        -9.9920
  22   2.0000      -0.354800        -9.6546
  23   2.0000      -0.333940        -9.0870
  24   2.0000      -0.318538        -8.6679
  25   2.0000      -0.302034        -8.2188
  26   2.0000      -0.298208        -8.1146
  27   2.0000      -0.229697        -6.2504
  28   2.0000      -0.220885        -6.0106
  29   0.0000      -0.034655        -0.9430
  30   0.0000      -0.030392        -0.8270
  31   0.0000       0.008502         0.2313
  32   0.0000       0.023778         0.6470
  33   0.0000       0.025017         0.6807

MULLIKEN ATOMIC CHARGES
-----------------------
   0 C :   -0.911305
   1 C :   -0.544586
   2 C :   -0.795008
   3 C :    1.437480
   4 C :   -0.645682
   5 H :    0.177599
   6 H :    0.175451
   7 H :    0.226841
   8 C :   -1.319321
   9 C :    1.446088
  10 C :   -0.702939
  11 H :    0.183224
  12 H :    0.227447
  13 H :    0.172243
  14 H :    0.000538
  15 H :    0.126273
  16 H :    0.538908
  17 H :    0.206750
Sum of atomic charges:   -0.0000000

LOEWDIN ATOMIC CHARGES
----------------------
   0 C :    0.195160
   1 C :    0.182668
   2 C :    0.196183
   3 C :   -0.148438
   4 C :    0.573960
   5 H :   -0.162279
   6 H :   -0.168991
   7 H :   -0.152370
   8 C :    0.217516
   9 C :   -0.148609
  10 C :    0.573863
  11 H :   -0.168065
  12 H :   -0.152161
  13 H :   -0.163422
  14 H :   -0.161937
  15 H :   -0.171402
  16 H :   -0.173373
  17 H :   -0.168302

  Mayer bond orders larger than 0.100000
B(  0-C ,  1-C ) :   1.0373 B(  0-C ,  3-C ) :  -0.2025 B(  0-C ,  9-C ) :   0.3882
B(  0-C , 10-C ) :   0.1414 B(  0-C , 17-H ) :   1.0600 B(  1-C ,  2-C ) :   1.0089
B(  1-C ,  3-C ) :   0.1614 B(  1-C ,  8-C ) :  -0.2373 B(  1-C ,  9-C ) :   0.1714
B(  1-C , 16-H ) :   0.4252 B(  2-C ,  3-C ) :   0.3739 B(  2-C ,  9-C ) :  -0.1202
B(  2-C , 15-H ) :   1.2238 B(  3-C ,  4-C ) :   0.2313 B(  3-C ,  8-C ) :   0.3515
B(  3-C ,  9-C ) :   0.4631 B(  3-C , 14-H ) :  -0.1024 B(  4-C ,  5-H ) :   1.0234
B(  4-C ,  6-H ) :   1.0096 B(  4-C ,  7-H ) :   0.9737 B(  4-C ,  8-C ) :   0.1533
B(  8-C ,  9-C ) :   0.3778 B(  8-C , 14-H ) :   1.2958 B(  8-C , 15-H ) :   0.1109
B(  9-C , 10-C ) :   0.2272 B(  9-C , 14-H ) :  -0.1168 B( 10-C , 11-H ) :   1.0074
B( 10-C , 12-H ) :   0.9755 B( 10-C , 13-H ) :   1.0333

Dispersion correction           -0.005141365
FINAL SINGLE POINT ENERGY      -310.814609769335

DIPOLE MOMENT
-------------

Method             : SCF
Type of density    : Electron Density
Multiplicity       :   1
Irrep              :   0
Energy             :  -310.8094684048303407 Eh
Relativity type    :
Basis              : AO
                                X                 Y                 Z
Electronic contribution:      0.001987461      -3.004645720       0.050581495
Nuclear contribution   :     -0.014413012       3.246643755      -0.053120895
                        -----------------------------------------
Total Dipole Moment    :     -0.012425551       0.241998035      -0.002539400
                        -----------------------------------------
Magnitude (a.u.)       :      0.242330130
Magnitude (Debye)      :      0.615954240

Rotational constants in cm-1:             0.119041             0.058741             0.039927
Rotational constants in MHz :          3568.763708          1760.997706          1196.993882

                             ****ORCA TERMINATED NORMALLY****
TOTAL RUN TIME: 0 days 0 hours 2 minutes 11 seconds 911 msec
