                         Program Version 6.0.0  -   RELEASE  -
|  1> !r2SCANh aug-cc-pVTZ d3 TightSCF SlowConv RIJCOSX defgrid2
|  2>
|  3> %pal
|  4> nprocs 4
|  5> end
|  6>
|  7> %scf
|  8> MaxIter 1500
|  9> end
| 10>
| 11> %maxcore 3000
| 12>
| 13> !CPCM
| 14> %cpcm smd true
| 15> SMDsolvent "MeCN"
| 16> surfacetype gepol_ses
| 17> rsolv 2.19
| 18> end
| 19>
| 20> * xyz 1 2
| 21> C          -0.22428548195010     -1.24213438922305     -0.03849982740281
| 22> C           1.14800811610277     -1.22870080724969      0.00227297677880
| 23> C           1.84566180598227     -0.00004019353139      0.02297012210753
| 24> C           1.14805042698559      1.22864411313713      0.00227054482980
| 25> C          -0.22424154749405      1.24212983950181     -0.03850931873892
| 26> C          -0.94084900168795      0.00001024661649     -0.05989305493678
| 27> N          -2.26985305582395      0.00003075135377     -0.09979281491323
| 28> H          -2.80165535396914      0.86997483968693     -0.11591197867223
| 29> H          -2.80167508667297     -0.86990117124685     -0.11590823438470
| 30> H          -0.77890173993705      2.18488554366972     -0.05504522287995
| 31> H           1.70373713208460      2.16980587419055      0.01885237386387
| 32> H           2.93889913121278     -0.00005967561260      0.05550059305168
| 33> H           1.70365895934134     -2.16988118368011      0.01885253182221
| 34> H          -0.77898600417414     -2.18486378761269     -0.05503389052528
| 35> *
| 36>
| 37>                          ****END OF INPUT****

CARTESIAN COORDINATES (ANGSTROEM)
---------------------------------
  C     -0.224285   -1.242134   -0.038500
  C      1.148008   -1.228701    0.002273
  C      1.845662   -0.000040    0.022970
  C      1.148050    1.228644    0.002271
  C     -0.224242    1.242130   -0.038509
  C     -0.940849    0.000010   -0.059893
  N     -2.269853    0.000031   -0.099793
  H     -2.801655    0.869975   -0.115912
  H     -2.801675   -0.869901   -0.115908
  H     -0.778902    2.184886   -0.055045
  H      1.703737    2.169806    0.018852
  H      2.938899   -0.000060    0.055501
  H      1.703659   -2.169881    0.018853
  H     -0.778986   -2.184864   -0.055034

 Total Charge           Charge          ....    1
 Multiplicity           Mult            ....    2
 Number of Electrons    NEL             ....   49
 Basis Dimension        Dim             ....  483

ORBITAL ENERGIES
----------------
                 SPIN UP ORBITALS
  NO   OCC          E(Eh)            E(eV)
   0   1.0000     -14.402156      -391.9026
   1   1.0000     -10.267134      -279.3829
   2   1.0000     -10.210548      -277.8431
   3   1.0000     -10.206865      -277.7429
   4   1.0000     -10.206863      -277.7429
   5   1.0000     -10.193728      -277.3855
   6   1.0000     -10.193726      -277.3854
   7   1.0000      -1.002688       -27.2845
   8   1.0000      -0.883812       -24.0498
   9   1.0000      -0.788930       -21.4679
  10   1.0000      -0.769455       -20.9379
  11   1.0000      -0.648104       -17.6358
  12   1.0000      -0.646842       -17.6015
  13   1.0000      -0.563472       -15.3329
  14   1.0000      -0.555754       -15.1228
  15   1.0000      -0.511648       -13.9226
  16   1.0000      -0.460801       -12.5390
  17   1.0000      -0.452038       -12.3006
  18   1.0000      -0.448530       -12.2051
  19   1.0000      -0.444168       -12.0864
  20   1.0000      -0.382096       -10.3974
  21   1.0000      -0.370859       -10.0916
  22   1.0000      -0.360919        -9.8211
  23   1.0000      -0.295672        -8.0457
  24   1.0000      -0.262970        -7.1558
  25   0.0000      -0.055512        -1.5106
  26   0.0000      -0.055512        -1.5106
  27   0.0000       0.007263         0.1976
  28   0.0000       0.020215         0.5501
  29   0.0000       0.025783         0.7016

                 SPIN DOWN ORBITALS
  NO   OCC          E(Eh)            E(eV)
   0   1.0000     -14.391805      -391.6209
   1   1.0000     -10.267053      -279.3807
   2   1.0000     -10.203186      -277.6428
   3   1.0000     -10.202363      -277.6204
   4   1.0000     -10.202363      -277.6204
   5   1.0000     -10.196443      -277.4593
   6   1.0000     -10.196432      -277.4590
   7   1.0000      -0.986883       -26.8545
   8   1.0000      -0.874409       -23.7939
   9   1.0000      -0.784962       -21.3599
  10   1.0000      -0.752678       -20.4814
  11   1.0000      -0.645393       -17.5620
  12   1.0000      -0.638809       -17.3829
  13   1.0000      -0.561483       -15.2787
  14   1.0000      -0.550215       -14.9721
  15   1.0000      -0.506472       -13.7818
  16   1.0000      -0.457445       -12.4477
  17   1.0000      -0.449439       -12.2299
  18   1.0000      -0.443791       -12.0762
  19   1.0000      -0.417296       -11.3552
  20   1.0000      -0.380093       -10.3429
  21   1.0000      -0.359334        -9.7780
  22   1.0000      -0.337111        -9.1733
  23   1.0000      -0.285655        -7.7731
  24   0.0000      -0.182794        -4.9741
  25   0.0000      -0.042672        -1.1612
  26   0.0000      -0.026045        -0.7087
  27   0.0000       0.008978         0.2443
  28   0.0000       0.022421         0.6101

MULLIKEN ATOMIC CHARGES AND SPIN POPULATIONS
--------------------------------------------
   0 C :   -0.669696    0.266226
   1 C :   -0.338208   -0.197264
   2 C :   -0.356177    0.450027
   3 C :   -0.338755   -0.197265
   4 C :   -0.669245    0.266228
   5 C :    1.175618    0.037657
   6 N :   -0.366399    0.417615
   7 H :    0.074140   -0.010179
   8 H :    0.074217   -0.010178
   9 H :    0.601430   -0.007748
  10 H :    0.341574   -0.011003
  11 H :    0.529017    0.014640
  12 H :    0.341161   -0.011011
  13 H :    0.601322   -0.007747
Sum of atomic charges         :    1.0000000

LOEWDIN ATOMIC CHARGES AND SPIN POPULATIONS
-------------------------------------------
   0 C :    0.279270    0.121661
   1 C :    0.242228    0.022726
   2 C :    0.260594    0.187277
   3 C :    0.242226    0.022726
   4 C :    0.279270    0.121660
   5 C :   -0.162292    0.128284
   6 N :    0.966542    0.260970
   7 H :   -0.192117    0.033422
   8 H :   -0.192119    0.033422
   9 H :   -0.138780    0.023646
  10 H :   -0.150475   -0.012894
  11 H :   -0.145086    0.046347
  12 H :   -0.150477   -0.012894
  13 H :   -0.138783    0.023646

  Mayer bond orders larger than 0.100000
B(  0-C ,  1-C ) :   1.3947 B(  0-C ,  2-C ) :   0.2744 B(  0-C ,  3-C ) :  -0.1513
B(  0-C ,  4-C ) :   0.3464 B(  0-C ,  5-C ) :   0.5333 B(  0-C ,  6-N ) :  -0.1417
B(  0-C , 13-H ) :   0.2163 B(  1-C ,  2-C ) :   0.9332 B(  1-C ,  3-C ) :  -0.1306
B(  1-C ,  4-C ) :  -0.1515 B(  1-C ,  5-C ) :  -0.2023 B(  1-C , 12-H ) :   0.8486
B(  2-C ,  3-C ) :   0.9331 B(  2-C ,  4-C ) :   0.2745 B(  2-C ,  5-C ) :  -0.1091
B(  2-C , 11-H ) :   0.5069 B(  3-C ,  4-C ) :   1.3938 B(  3-C ,  5-C ) :  -0.2025
B(  3-C , 10-H ) :   0.8483 B(  4-C ,  5-C ) :   0.5322 B(  4-C ,  6-N ) :  -0.1417
B(  4-C ,  9-H ) :   0.2164 B(  5-C ,  6-N ) :   0.9503 B(  6-N ,  7-H ) :   1.1019
B(  6-N ,  8-H ) :   1.1017

Dispersion correction           -0.003924724
FINAL SINGLE POINT ENERGY      -287.355592674748

DIPOLE MOMENT
-------------

Method             : SCF
Type of density    : Electron Density
Multiplicity       :   2
Irrep              :   0
Energy             :  -287.3516679507434333 Eh
Relativity type    :
Basis              : AO
                                X                 Y                 Z
Electronic contribution:     -0.979219057       0.000022315      -0.029317024
Nuclear contribution   :     -0.808315718       0.000012771      -0.024795382
                        -----------------------------------------
Total Dipole Moment    :     -1.787534775       0.000035087      -0.054112407
                        -----------------------------------------
Magnitude (a.u.)       :      1.788353635
Magnitude (Debye)      :      4.545633694

Rotational constants in cm-1:             0.179396             0.089500             0.059711
Rotational constants in MHz :          5378.149152          2683.142053          1790.077786

                             ****ORCA TERMINATED NORMALLY****
TOTAL RUN TIME: 0 days 0 hours 5 minutes 10 seconds 967 msec
