                         Program Version 6.0.0  -   RELEASE  -
|  1> !TPSSh aug-cc-pVTZ d3 TightSCF SlowConv RIJCOSX defgrid2
|  2>
|  3> %pal
|  4> nprocs 4
|  5> end
|  6>
|  7> %scf
|  8> MaxIter 1500
|  9> end
| 10>
| 11> %maxcore 3000
| 12>
| 13> !CPCM
| 14> %cpcm smd true
| 15> SMDsolvent "MeCN"
| 16> surfacetype gepol_ses
| 17> rsolv 2.19
| 18> end
| 19>
| 20> * xyz 0 1
| 21> C           0.03260910228520      1.08137561321675     -0.00005519024681
| 22> C          -1.34067616416986      1.33940990966857     -0.00006277386150
| 23> C          -2.26505829948608      0.29987796591520     -0.00002637645918
| 24> C          -1.80355661628939     -1.01995706797392      0.00001567004565
| 25> C          -0.44212934457685     -1.29206473885913      0.00002194287208
| 26> C           0.48773718530999     -0.24207145865110     -0.00001289966776
| 27> O           1.78848371232752     -0.60054348212568     -0.00000734481067
| 28> C           2.76447200773818      0.40008618654603     -0.00000767276834
| 29> H           2.69619012376907      1.04049548625701     -0.90084775937446
| 30> H           2.69616289260516      1.04052094820081      0.90081198872589
| 31> H           3.73793416758510     -0.11300324243944      0.00001415192437
| 32> H          -0.06314832394927     -2.31720165011296      0.00005410336572
| 33> H          -2.51681541922482     -1.84998358326110      0.00004248911056
| 34> H          -3.33762461646730      0.51193314493410     -0.00003142013851
| 35> H          -1.68480228384705      2.37828066720121     -0.00009724328111
| 36> H           0.73383607639040      1.91798680148364     -0.00008576543595
| 37> *
| 38>
| 39>                          ****END OF INPUT****

CARTESIAN COORDINATES (ANGSTROEM)
---------------------------------
  C      0.032609    1.081376   -0.000055
  C     -1.340676    1.339410   -0.000063
  C     -2.265058    0.299878   -0.000026
  C     -1.803557   -1.019957    0.000016
  C     -0.442129   -1.292065    0.000022
  C      0.487737   -0.242071   -0.000013
  O      1.788484   -0.600543   -0.000007
  C      2.764472    0.400086   -0.000008
  H      2.696190    1.040495   -0.900848
  H      2.696163    1.040521    0.900812
  H      3.737934   -0.113003    0.000014
  H     -0.063148   -2.317202    0.000054
  H     -2.516815   -1.849984    0.000042
  H     -3.337625    0.511933   -0.000031
  H     -1.684802    2.378281   -0.000097
  H      0.733836    1.917987   -0.000086

 Total Charge           Charge          ....    0
 Multiplicity           Mult            ....    1
 Number of Electrons    NEL             ....   58
 Basis Dimension        Dim             ....  552

ORBITAL ENERGIES
----------------

  NO   OCC          E(Eh)            E(eV)
   0   2.0000     -19.085680      -519.3478
   1   2.0000     -10.174811      -276.8707
   2   2.0000     -10.157552      -276.4010
   3   2.0000     -10.117784      -275.3189
   4   2.0000     -10.117651      -275.3153
   5   2.0000     -10.113869      -275.2124
   6   2.0000     -10.112513      -275.1755
   7   2.0000     -10.109270      -275.0872
   8   2.0000      -1.052584       -28.6423
   9   2.0000      -0.831329       -22.6216
  10   2.0000      -0.736465       -20.0402
  11   2.0000      -0.725571       -19.7438
  12   2.0000      -0.669995       -18.2315
  13   2.0000      -0.589482       -16.0406
  14   2.0000      -0.568086       -15.4584
  15   2.0000      -0.515610       -14.0305
  16   2.0000      -0.465380       -12.6636
  17   2.0000      -0.458817       -12.4850
  18   2.0000      -0.448051       -12.1921
  19   2.0000      -0.423517       -11.5245
  20   2.0000      -0.401657       -10.9296
  21   2.0000      -0.390099       -10.6151
  22   2.0000      -0.363596        -9.8940
  23   2.0000      -0.345714        -9.4073
  24   2.0000      -0.336423        -9.1545
  25   2.0000      -0.306982        -8.3534
  26   2.0000      -0.305572        -8.3150
  27   2.0000      -0.247318        -6.7299
  28   2.0000      -0.213742        -5.8162
  29   0.0000      -0.025465        -0.6929
  30   0.0000      -0.010825        -0.2946
  31   0.0000      -0.003147        -0.0856
  32   0.0000       0.009595         0.2611
  33   0.0000       0.013117         0.3569

MULLIKEN ATOMIC CHARGES
-----------------------
   0 C :   -0.403857
   1 C :   -0.345290
   2 C :   -0.535612
   3 C :   -0.164193
   4 C :   -0.812805
   5 C :    0.967975
   6 O :   -0.728288
   7 C :   -0.309328
   8 H :    0.195177
   9 H :    0.195542
  10 H :    0.043499
  11 H :    0.433259
  12 H :    0.260147
  13 H :    0.464320
  14 H :    0.232028
  15 H :    0.507425
Sum of atomic charges:    0.0000000

LOEWDIN ATOMIC CHARGES
----------------------
   0 C :    0.193203
   1 C :    0.171895
   2 C :    0.169143
   3 C :    0.166970
   4 C :    0.187883
   5 C :   -0.412560
   6 O :    0.593382
   7 C :    0.314850
   8 H :   -0.161177
   9 H :   -0.161198
  10 H :   -0.169486
  11 H :   -0.175219
  12 H :   -0.172932
  13 H :   -0.180383
  14 H :   -0.171885
  15 H :   -0.192488

  Mayer bond orders larger than 0.100000
B(  0-C ,  1-C ) :   1.1997 B(  0-C ,  2-C ) :   0.2678 B(  0-C ,  4-C ) :   0.5064
B(  0-C ,  5-C ) :   0.9857 B(  0-C , 14-H ) :   0.1083 B(  0-C , 15-H ) :   0.2026
B(  1-C ,  2-C ) :   1.3768 B(  1-C ,  3-C ) :  -0.2189 B(  1-C ,  5-C ) :  -0.3967
B(  1-C , 14-H ) :   0.9108 B(  1-C , 15-H ) :   0.1258 B(  2-C ,  3-C ) :   1.2915
B(  2-C ,  4-C ) :   0.3820 B(  2-C , 13-H ) :   0.4218 B(  3-C ,  4-C ) :   1.3736
B(  3-C ,  5-C ) :  -0.3317 B(  3-C , 11-H ) :   0.1322 B(  3-C , 12-H ) :   0.8488
B(  3-C , 15-H ) :   0.1235 B(  4-C ,  5-C ) :   0.7988 B(  4-C ,  6-O ) :   0.2727
B(  4-C , 11-H ) :   0.3081 B(  4-C , 12-H ) :   0.1362 B(  5-C ,  6-O ) :   0.2822
B(  5-C ,  7-C ) :   0.1142 B(  5-C , 11-H ) :   0.1464 B(  5-C , 15-H ) :   0.1362
B(  6-O ,  7-C ) :   1.0451 B(  7-C ,  8-H ) :   0.9306 B(  7-C ,  9-H ) :   0.9306
B(  7-C , 10-H ) :   1.0670

Dispersion correction           -0.017312106
FINAL SINGLE POINT ENERGY      -346.943796522372

DIPOLE MOMENT
-------------

Method             : SCF
Type of density    : Electron Density
Multiplicity       :   1
Irrep              :   0
Energy             :  -346.9264844162917711 Eh
Relativity type    :
Basis              : AO
                                X                 Y                 Z
Electronic contribution:     -1.698529756      -1.899125487      -0.000002187
Nuclear contribution   :      2.143742692       2.450814428      -0.000006666
                        -----------------------------------------
Total Dipole Moment    :      0.445212936       0.551688940      -0.000008853
                        -----------------------------------------
Magnitude (a.u.)       :      0.708925416
Magnitude (Debye)      :      1.801945205

Rotational constants in cm-1:             0.168604             0.052375             0.040274
Rotational constants in MHz :          5054.615103          1570.170626          1207.382090

                             ****ORCA TERMINATED NORMALLY****
TOTAL RUN TIME: 0 days 0 hours 3 minutes 9 seconds 700 msec
