                         Program Version 6.0.0  -   RELEASE  -
|  1> !TPSSh opt aug-cc-pVTZ d3 TightSCF SlowConv RIJCOSX defgrid2
|  2>
|  3> %pal
|  4> nprocs 8
|  5> end
|  6>
|  7> %scf
|  8> MaxIter 1500
|  9> end
| 10>
| 11> %maxcore 3500
| 12>
| 13> !CPCM
| 14> %cpcm smd true
| 15> SMDsolvent "MeCN"
| 16> surfacetype gepol_ses
| 17> rsolv 2.19
| 18> end
| 19>
| 20> * xyz 0 1
| 21>   C           1.35417777117907     -0.65406995240560      0.79948726944426
| 22>   C           2.60438513280883     -1.25994276894922      0.84954003747904
| 23>   C           3.68344790380097     -0.71999641049965      0.15497211057626
| 24>   C           3.50660738351577      0.43947194664888     -0.59401215387855
| 25>   C           2.26060390365759      1.05304135560245     -0.65888291426072
| 26>   C           1.19171004686849      0.49898658044043      0.03645013929688
| 27>   O          -0.00001641304932      1.19288277645614      0.00010190817305
| 28>   C          -1.19171118388442      0.49900233774687     -0.03638058606476
| 29>   C          -2.26073143386919      1.05309671680890      0.65874573635241
| 30>   C          -3.50672129933369      0.43951119140539      0.59370893351233
| 31>   C          -3.68343750339537     -0.72003192620985     -0.15518626198969
| 32>   C          -2.60425130219278     -1.26007972735717     -0.84947443996517
| 33>   C          -1.35407111022235     -0.65417339438681     -0.79927336088568
| 34>   H          -0.51726340198580     -1.06965515696509     -1.34679672259882
| 35>   H          -2.73380230233493     -2.15751438471684     -1.44311666275030
| 36>   H          -4.65433657701428     -1.19810235944476     -0.20028196634197
| 37>   H          -4.34007086552899      0.87022201246994      1.13631011439279
| 38>   H          -2.10719151371809      1.95492125572489      1.23885613902283
| 39>   H           2.10696960257248      1.95483629764118     -1.23902045617933
| 40>   H           4.33987477531195      0.87015227662086     -1.13676761059202
| 41>   H           4.65436181626334     -1.19805192085525      0.19996962143919
| 42>   H           2.73406310958975     -2.15728853568205      1.44329395480944
| 43>   H           0.51745176096101     -1.06946241009361      1.34721687100852
| 44> *
| 45>
| 46>                          ****END OF INPUT****
 Total Charge           Charge          ....    0
 Multiplicity           Mult            ....    1
 Number of Electrons    NEL             ....   90
Dispersion correction           -0.031485327
FINAL SINGLE POINT ENERGY      -538.780991196831
Dispersion correction             ... done (  0.1 sec)
Dispersion correction           -0.031503554
FINAL SINGLE POINT ENERGY      -538.781017746021
Dispersion correction             ... done (  0.0 sec)
Dispersion correction           -0.031487787
FINAL SINGLE POINT ENERGY      -538.781024992988
Dispersion correction             ... done (  0.1 sec)
                    ***********************HURRAY********************

CARTESIAN COORDINATES (ANGSTROEM)
---------------------------------
  C      1.349926   -0.650026    0.796683
  C      2.597499   -1.263440    0.844862
  C      3.680129   -0.726121    0.151999
  C      3.508847    0.437396   -0.593897
  C      2.264877    1.057515   -0.657255
  C      1.192930    0.506925    0.037317
  O     -0.000013    1.204558    0.000273
  C     -1.192929    0.506980   -0.037095
  C     -2.265093    1.057619    0.657126
  C     -3.509040    0.437482    0.593467
  C     -3.680116   -0.726115   -0.152348
  C     -2.597278   -1.263541   -0.844798
  C     -1.349741   -0.650088   -0.796327
  H     -0.510682   -1.063576   -1.340612
  H     -2.721553   -2.163912   -1.434322
  H     -4.648264   -1.209115   -0.195890
  H     -4.344101    0.865260    1.134910
  H     -2.117192    1.960580    1.235972
  H      2.116810    1.960435   -1.236129
  H      4.343766    0.865145   -1.135584
  H      4.648293   -1.209112    0.195329
  H      2.721979   -2.163707    1.434509
  H      0.510994   -1.063386    1.341271

 Multiplicity           Mult            ....    1
 Number of Electrons    NEL             ....   90
 Basis Dimension        Dim             ....  828

ORBITAL ENERGIES
----------------

  NO   OCC          E(Eh)            E(eV)
   0   2.0000     -19.097290      -519.6637
   1   2.0000     -10.178851      -276.9806
   2   2.0000     -10.178821      -276.9798
   3   2.0000     -10.119313      -275.3605
   4   2.0000     -10.119288      -275.3598
   5   2.0000     -10.119031      -275.3528
   6   2.0000     -10.119010      -275.3523
   7   2.0000     -10.117751      -275.3180
   8   2.0000     -10.117705      -275.3167
   9   2.0000     -10.116315      -275.2789
  10   2.0000     -10.116297      -275.2784
  11   2.0000     -10.112785      -275.1829
  12   2.0000     -10.112771      -275.1825
  13   2.0000      -1.058870       -28.8133
  14   2.0000      -0.845036       -22.9946
  15   2.0000      -0.831412       -22.6239
  16   2.0000      -0.746583       -20.3156
  17   2.0000      -0.734767       -19.9940
  18   2.0000      -0.730553       -19.8794
  19   2.0000      -0.707682       -19.2570
  20   2.0000      -0.617136       -16.7931
  21   2.0000      -0.601320       -16.3627
  22   2.0000      -0.589338       -16.0367
  23   2.0000      -0.563674       -15.3383
  24   2.0000      -0.529111       -14.3978
  25   2.0000      -0.493422       -13.4267
  26   2.0000      -0.469931       -12.7875
  27   2.0000      -0.459125       -12.4934
  28   2.0000      -0.450251       -12.2520
  29   2.0000      -0.428861       -11.6699
  30   2.0000      -0.423777       -11.5316
  31   2.0000      -0.407946       -11.1008
  32   2.0000      -0.407262       -11.0822
  33   2.0000      -0.388995       -10.5851
  34   2.0000      -0.382267       -10.4020
  35   2.0000      -0.356625        -9.7042
  36   2.0000      -0.347925        -9.4675
  37   2.0000      -0.342881        -9.3303
  38   2.0000      -0.339939        -9.2502
  39   2.0000      -0.322072        -8.7640
  40   2.0000      -0.314996        -8.5715
  41   2.0000      -0.254649        -6.9293
  42   2.0000      -0.248271        -6.7558
  43   2.0000      -0.246343        -6.7033
  44   2.0000      -0.214223        -5.8293
  45   0.0000      -0.035550        -0.9674
  46   0.0000      -0.028594        -0.7781
  47   0.0000      -0.020364        -0.5541
  48   0.0000      -0.010733        -0.2921
  49   0.0000      -0.004038        -0.1099

MULLIKEN ATOMIC CHARGES
-----------------------
   0 C :   -0.379475
   1 C :   -0.475020
   2 C :   -0.465335
   3 C :   -0.278512
   4 C :   -1.038964
   5 C :    1.244939
   6 O :   -0.939746
   7 C :    1.246755
   8 C :   -1.046605
   9 C :   -0.277653
  10 C :   -0.463277
  11 C :   -0.476369
  12 C :   -0.377571
  13 H :    0.439017
  14 H :    0.331473
  15 H :    0.424609
  16 H :    0.329241
  17 H :    0.339934
  18 H :    0.340679
  19 H :    0.330453
  20 H :    0.417401
  21 H :    0.333232
  22 H :    0.440794
Sum of atomic charges:   -0.0000000

LOEWDIN ATOMIC CHARGES
----------------------
   0 C :    0.199862
   1 C :    0.193261
   2 C :    0.188190
   3 C :    0.186129
   4 C :    0.205644
   5 C :   -0.396406
   6 O :    0.622340
   7 C :   -0.396446
   8 C :    0.205622
   9 C :    0.186122
  10 C :    0.188200
  11 C :    0.193272
  12 C :    0.199780
  13 H :   -0.173855
  14 H :   -0.176489
  15 H :   -0.183512
  16 H :   -0.177973
  17 H :   -0.175980
  18 H :   -0.175981
  19 H :   -0.177986
  20 H :   -0.183526
  21 H :   -0.176510
  22 H :   -0.173757

  Mayer bond orders larger than 0.100000
B(  0-C ,  1-C ) :   1.3538 B(  0-C ,  4-C ) :   0.3224 B(  0-C ,  5-C ) :   1.0492
B(  0-C ,  7-C ) :  -0.1172 B(  0-C , 12-C ) :   0.3105 B(  0-C , 22-H ) :   0.4645
B(  1-C ,  2-C ) :   1.4398 B(  1-C ,  5-C ) :  -0.2978 B(  1-C , 21-H ) :   0.7771
B(  2-C ,  3-C ) :   1.4548 B(  2-C ,  4-C ) :   0.3913 B(  2-C , 20-H ) :   0.5392
B(  3-C ,  4-C ) :   1.4687 B(  3-C ,  5-C ) :  -0.3440 B(  3-C , 19-H ) :   0.7482
B(  4-C ,  5-C ) :   0.4943 B(  4-C ,  6-O ) :   0.2557 B(  4-C , 18-H ) :   0.4269
B(  4-C , 19-H ) :   0.1251 B(  5-C ,  6-O ) :   0.3274 B(  5-C , 12-C ) :  -0.1157
B(  5-C , 18-H ) :   0.1065 B(  6-O ,  7-C ) :   0.3280 B(  6-O ,  8-C ) :   0.2554
B(  7-C ,  8-C ) :   0.4935 B(  7-C ,  9-C ) :  -0.3443 B(  7-C , 11-C ) :  -0.2980
B(  7-C , 12-C ) :   1.0497 B(  7-C , 17-H ) :   0.1061 B(  8-C ,  9-C ) :   1.4745
B(  8-C , 10-C ) :   0.3945 B(  8-C , 12-C ) :   0.3214 B(  8-C , 16-H ) :   0.1256
B(  8-C , 17-H ) :   0.4269 B(  9-C , 10-C ) :   1.4528 B(  9-C , 16-H ) :   0.7485
B( 10-C , 11-C ) :   1.4421 B( 10-C , 15-H ) :   0.5296 B( 11-C , 12-C ) :   1.3540
B( 11-C , 14-H ) :   0.7778 B( 12-C , 13-H ) :   0.4651

Dispersion correction           -0.031493154
FINAL SINGLE POINT ENERGY      -538.781025063426

DIPOLE MOMENT
-------------

Method             : SCF
Type of density    : Electron Density
Multiplicity       :   1
Irrep              :   0
Energy             :  -538.7495319095759214 Eh
Relativity type    :
Basis              : AO
                                X                 Y                 Z
Electronic contribution:     -0.000455366       2.505330595       0.000677665
Nuclear contribution   :      0.000049039      -3.043364969      -0.000541986
                        -----------------------------------------
Total Dipole Moment    :     -0.000406327      -0.538034374       0.000135679
                        -----------------------------------------
Magnitude (a.u.)       :      0.538034545
Magnitude (Debye)      :      1.367575130

Rotational constants in cm-1:             0.079790             0.014585             0.013634
Rotational constants in MHz :          2392.054192           437.252309           408.747427

                             ****ORCA TERMINATED NORMALLY****
TOTAL RUN TIME: 0 days 0 hours 27 minutes 43 seconds 302 msec
