                         Program Version 6.0.0  -   RELEASE  -
|  1> !B3LYP aug-cc-pVTZ d3 TightSCF SlowConv RIJCOSX defgrid2
|  2>
|  3> %pal
|  4> nprocs 4
|  5> end
|  6>
|  7> %scf
|  8> MaxIter 1500
|  9> end
| 10>
| 11> %maxcore 3000
| 12>
| 13> !CPCM
| 14> %cpcm smd true
| 15> SMDsolvent "MeCN"
| 16> surfacetype gepol_ses
| 17> rsolv 2.19
| 18> end
| 19>
| 20> * xyz 0 1
| 21> C           1.11186063431218     -1.27161750848334      0.03529687525431
| 22> C           0.40062560849469      0.06050080568744      0.01645658990368
| 23> C           1.09132291899843      1.22728525455366     -0.01481187748794
| 24> C           2.59071448413322      1.31213757575100     -0.04259953894168
| 25> C           3.24159815994134     -0.01937627947586     -0.39841325306825
| 26> C           2.58911379103733     -1.14676967388403      0.38832716012891
| 27> H           3.09748891391144     -2.10891626969463      0.20096696093946
| 28> H           2.69042588645759     -0.93817776710244      1.47032103152836
| 29> H           4.32799261089383      0.01691698871123     -0.20339895848800
| 30> H           3.11607401581807     -0.21456505742642     -1.48081651387058
| 31> H           2.90797745861562      2.08798412644276     -0.76484604682040
| 32> H           2.97758486033447      1.65547047948827      0.94073256876005
| 33> H           0.54718288972158      2.17640255493605     -0.01902463744638
| 34> N          -0.97616721213332      0.00495853491955      0.02697160227337
| 35> C          -1.78872482665766      1.19747534852265      0.05715418513192
| 36> C          -3.21005262050385      0.66964169739812      0.23596327149758
| 37> C          -3.15237336592481     -0.69599286303147     -0.44293484397097
| 38> C          -1.76610643119617     -1.20659042879325     -0.05714971676551
| 39> H          -1.36563278919925     -1.91141795135958     -0.80640934529533
| 40> H          -1.80537787661672     -1.75015520174994      0.91214209774396
| 41> H          -3.95970487602702     -1.37895631866201     -0.13218330548580
| 42> H          -3.21412175894358     -0.57519572273874     -1.53925950514829
| 43> H          -3.97216674301970      1.34137885928184     -0.19076791065005
| 44> H          -3.43419513408562      0.54752707903326      1.31073431906276
| 45> H          -1.48163666786281      1.86730753786198      0.88332008233158
| 46> H          -1.67922253541657      1.78041926532680     -0.88331716928986
| 47> H           0.61356353671055     -1.94715361756419      0.75320195239957
| 48> H           1.00544556820675     -1.75500544794871     -0.95629237422648
| 49> *
| 50>
| 51>                          ****END OF INPUT****

CARTESIAN COORDINATES (ANGSTROEM)
---------------------------------
  C      1.111861   -1.271618    0.035297
  C      0.400626    0.060501    0.016457
  C      1.091323    1.227285   -0.014812
  C      2.590714    1.312138   -0.042600
  C      3.241598   -0.019376   -0.398413
  C      2.589114   -1.146770    0.388327
  H      3.097489   -2.108916    0.200967
  H      2.690426   -0.938178    1.470321
  H      4.327993    0.016917   -0.203399
  H      3.116074   -0.214565   -1.480817
  H      2.907977    2.087984   -0.764846
  H      2.977585    1.655470    0.940733
  H      0.547183    2.176403   -0.019025
  N     -0.976167    0.004959    0.026972
  C     -1.788725    1.197475    0.057154
  C     -3.210053    0.669642    0.235963
  C     -3.152373   -0.695993   -0.442935
  C     -1.766106   -1.206590   -0.057150
  H     -1.365633   -1.911418   -0.806409
  H     -1.805378   -1.750155    0.912142
  H     -3.959705   -1.378956   -0.132183
  H     -3.214122   -0.575196   -1.539260
  H     -3.972167    1.341379   -0.190768
  H     -3.434195    0.547527    1.310734
  H     -1.481637    1.867308    0.883320
  H     -1.679223    1.780419   -0.883317
  H      0.613564   -1.947154    0.753202
  H      1.005446   -1.755005   -0.956292

 Total Charge           Charge          ....    0
 Multiplicity           Mult            ....    1
 Number of Electrons    NEL             ....   84
 Basis Dimension        Dim             ....  897

ORBITAL ENERGIES
----------------

  NO   OCC          E(Eh)            E(eV)
   0   2.0000     -14.314538      -389.5184
   1   2.0000     -10.193460      -277.3782
   2   2.0000     -10.191535      -277.3258
   3   2.0000     -10.188627      -277.2466
   4   2.0000     -10.163243      -276.5559
   5   2.0000     -10.162390      -276.5327
   6   2.0000     -10.162039      -276.5231
   7   2.0000     -10.157162      -276.3904
   8   2.0000     -10.156556      -276.3739
   9   2.0000     -10.154385      -276.3149
  10   2.0000     -10.133672      -275.7512
  11   2.0000      -0.944644       -25.7051
  12   2.0000      -0.823940       -22.4205
  13   2.0000      -0.779384       -21.2081
  14   2.0000      -0.736098       -20.0303
  15   2.0000      -0.717282       -19.5182
  16   2.0000      -0.706140       -19.2151
  17   2.0000      -0.616783       -16.7835
  18   2.0000      -0.606367       -16.5001
  19   2.0000      -0.568445       -15.4682
  20   2.0000      -0.561606       -15.2821
  21   2.0000      -0.520435       -14.1618
  22   2.0000      -0.489482       -13.3195
  23   2.0000      -0.486493       -13.2381
  24   2.0000      -0.444762       -12.1026
  25   2.0000      -0.429499       -11.6873
  26   2.0000      -0.417736       -11.3672
  27   2.0000      -0.416435       -11.3318
  28   2.0000      -0.410971       -11.1831
  29   2.0000      -0.394269       -10.7286
  30   2.0000      -0.381097       -10.3702
  31   2.0000      -0.371901       -10.1199
  32   2.0000      -0.365358        -9.9419
  33   2.0000      -0.362478        -9.8635
  34   2.0000      -0.335958        -9.1419
  35   2.0000      -0.334202        -9.0941
  36   2.0000      -0.319309        -8.6888
  37   2.0000      -0.314756        -8.5650
  38   2.0000      -0.309854        -8.4316
  39   2.0000      -0.297062        -8.0835
  40   2.0000      -0.273826        -7.4512
  41   2.0000      -0.173188        -4.7127
  42   0.0000      -0.005844        -0.1590
  43   0.0000       0.005053         0.1375
  44   0.0000       0.010756         0.2927
  45   0.0000       0.010933         0.2975
  46   0.0000       0.022079         0.6008

MULLIKEN ATOMIC CHARGES
-----------------------
   0 C :    0.068351
   1 C :    0.265693
   2 C :   -0.491411
   3 C :   -0.360661
   4 C :   -0.327945
   5 C :   -0.540123
   6 H :    0.201548
   7 H :    0.110501
   8 H :    0.197199
   9 H :    0.123232
  10 H :    0.192946
  11 H :    0.127525
  12 H :    0.035819
  13 N :    0.357853
  14 C :   -0.490054
  15 C :   -0.465218
  16 C :   -0.396665
  17 C :   -0.395984
  18 H :    0.209210
  19 H :    0.200679
  20 H :    0.238596
  21 H :    0.093042
  22 H :    0.238593
  23 H :    0.094301
  24 H :    0.212175
  25 H :    0.168285
  26 H :    0.190125
  27 H :    0.142387
Sum of atomic charges:   -0.0000000

LOEWDIN ATOMIC CHARGES
----------------------
   0 C :    0.269456
   1 C :   -0.192963
   2 C :    0.227482
   3 C :    0.222964
   4 C :    0.253996
   5 C :    0.268982
   6 H :   -0.126489
   7 H :   -0.124895
   8 H :   -0.130223
   9 H :   -0.128036
  10 H :   -0.144455
  11 H :   -0.139950
  12 H :   -0.203466
  13 N :    0.275674
  14 C :    0.162338
  15 C :    0.294265
  16 C :    0.292464
  17 C :    0.177098
  18 H :   -0.130735
  19 H :   -0.115127
  20 H :   -0.124682
  21 H :   -0.125629
  22 H :   -0.125960
  23 H :   -0.126811
  24 H :   -0.129710
  25 H :   -0.115369
  26 H :   -0.138727
  27 H :   -0.121494

  Mayer bond orders larger than 0.100000
B(  0-C ,  1-C ) :   0.5193 B(  0-C ,  5-C ) :   0.9148 B(  0-C , 26-H ) :   0.9534
B(  0-C , 27-H ) :   1.0041 B(  1-C ,  2-C ) :   0.6701 B(  1-C ,  3-C ) :  -0.1927
B(  1-C , 12-H ) :  -0.1082 B(  1-C , 13-N ) :   0.3578 B(  1-C , 17-C ) :  -0.1061
B(  1-C , 26-H ) :  -0.1224 B(  2-C ,  3-C ) :   0.7359 B(  2-C ,  4-C ) :   0.1408
B(  2-C , 12-H ) :   1.0814 B(  2-C , 13-N ) :  -0.3223 B(  2-C , 17-C ) :   0.1282
B(  3-C ,  4-C ) :   0.9620 B(  3-C , 10-H ) :   0.9772 B(  3-C , 11-H ) :   1.0508
B(  4-C ,  5-C ) :   0.9836 B(  4-C ,  8-H ) :   0.9569 B(  4-C ,  9-H ) :   1.0400
B(  5-C ,  6-H ) :   0.9338 B(  5-C ,  7-H ) :   1.0764 B( 12-H , 14-C ) :  -0.1176
B( 13-N , 14-C ) :   0.7445 B( 13-N , 17-C ) :   0.6381 B( 14-C , 15-C ) :   0.9830
B( 14-C , 24-H ) :   1.0113 B( 14-C , 25-H ) :   1.0469 B( 15-C , 16-C ) :   1.0126
B( 15-C , 22-H ) :   0.9373 B( 15-C , 23-H ) :   1.0772 B( 16-C , 17-C ) :   0.9479
B( 16-C , 20-H ) :   0.9351 B( 16-C , 21-H ) :   1.0794 B( 17-C , 18-H ) :   0.9935
B( 17-C , 19-H ) :   1.0021

Dispersion correction           -0.048911585
FINAL SINGLE POINT ENERGY      -445.951543141708

DIPOLE MOMENT
-------------

Method             : SCF
Type of density    : Electron Density
Multiplicity       :   1
Irrep              :   0
Energy             :  -445.9026315571648524 Eh
Relativity type    :
Basis              : AO
                                X                 Y                 Z
Electronic contribution:     -1.128402855       0.490037090       0.147660163
Nuclear contribution   :      0.342331497      -1.087953366      -0.177536996
                        -----------------------------------------
Total Dipole Moment    :     -0.786071358      -0.597916276      -0.029876834
                        -----------------------------------------
Magnitude (a.u.)       :      0.988081311
Magnitude (Debye)      :      2.511503101

Rotational constants in cm-1:             0.091846             0.021037             0.017897
Rotational constants in MHz :          2753.468293           630.660673           536.548584

                             ****ORCA TERMINATED NORMALLY****
TOTAL RUN TIME: 0 days 0 hours 8 minutes 54 seconds 544 msec
