                         Program Version 6.0.0  -   RELEASE  -
|  1> !TPSSh aug-cc-pVTZ d3 TightSCF SlowConv RIJCOSX defgrid2
|  2>
|  3> %pal
|  4> nprocs 4
|  5> end
|  6>
|  7> %scf
|  8> MaxIter 1500
|  9> end
| 10>
| 11> %maxcore 3000
| 12>
| 13> !CPCM
| 14> %cpcm smd true
| 15> SMDsolvent "MeCN"
| 16> surfacetype gepol_ses
| 17> rsolv 2.19
| 18> end
| 19>
| 20> * xyz -1 2
| 21> C           1.11485619102810      1.23346524770146     -0.04246013453408
| 22> C          -0.25819562047262      1.22933924261312     -0.01684176169193
| 23> C          -0.98793269131212      0.01064750984396      0.05369590147558
| 24> C          -0.25058397748058     -1.19914135084411      0.08408385170358
| 25> C           1.12686728083616     -1.19737445120311      0.05863833511697
| 26> C           1.88049207762006      0.02114016337723     -0.00784905676085
| 27> C           3.31422748057564      0.08999258300288     -0.03795740062188
| 28> O           3.95234377580661      1.16292200275802     -0.09390298789975
| 29> C           4.09411941134499     -1.22295178548747      0.00021080612150
| 30> H           3.89267162008921     -1.80863657997959      0.91865553015964
| 31> H           3.85410305658271     -1.88234976738815     -0.85682984004010
| 32> H           5.16792059393726     -0.97680478465363     -0.03317483614463
| 33> H           1.65189479450597     -2.15740095025540      0.09479003543363
| 34> H          -0.78941773964287     -2.15112643070549      0.13915861506264
| 35> C          -2.45525752462587      0.00050473870139     -0.00850205506014
| 36> F          -2.97297788080586     -0.04926536736079     -1.27295539154986
| 37> F          -3.00617659842767     -1.06434755608644      0.61734313114911
| 38> F          -3.01722345304082      1.10181905294511      0.53770926863957
| 39> H          -0.80650005596301      2.17740366385070     -0.04085176525521
| 40> H           1.67725065944470      2.17036951917034     -0.08706394530380
| 41> *
| 42>
| 43>                          ****END OF INPUT****

CARTESIAN COORDINATES (ANGSTROEM)
---------------------------------
  C      1.114856    1.233465   -0.042460
  C     -0.258196    1.229339   -0.016842
  C     -0.987933    0.010648    0.053696
  C     -0.250584   -1.199141    0.084084
  C      1.126867   -1.197374    0.058638
  C      1.880492    0.021140   -0.007849
  C      3.314227    0.089993   -0.037957
  O      3.952344    1.162922   -0.093903
  C      4.094119   -1.222952    0.000211
  H      3.892672   -1.808637    0.918656
  H      3.854103   -1.882350   -0.856830
  H      5.167921   -0.976805   -0.033175
  H      1.651895   -2.157401    0.094790
  H     -0.789418   -2.151126    0.139159
  C     -2.455258    0.000505   -0.008502
  F     -2.972978   -0.049265   -1.272955
  F     -3.006177   -1.064348    0.617343
  F     -3.017223    1.101819    0.537709
  H     -0.806500    2.177404   -0.040852
  H      1.677251    2.170370   -0.087064

 Total Charge           Charge          ....   -1
 Multiplicity           Mult            ....    2
 Number of Electrons    NEL             ....   97
 Basis Dimension        Dim             ....  759

ORBITAL ENERGIES
----------------
                 SPIN UP ORBITALS
  NO   OCC          E(Eh)            E(eV)
   0   1.0000     -24.619756      -669.9376
   1   1.0000     -24.619634      -669.9343
   2   1.0000     -24.611860      -669.7227
   3   1.0000     -18.985504      -516.6218
   4   1.0000     -10.341071      -281.3948
   5   1.0000     -10.137806      -275.8637
   6   1.0000     -10.105307      -274.9794
   7   1.0000     -10.105203      -274.9766
   8   1.0000     -10.103989      -274.9435
   9   1.0000     -10.098182      -274.7855
  10   1.0000     -10.093228      -274.6507
  11   1.0000     -10.088560      -274.5237
  12   1.0000     -10.088491      -274.5218
  13   1.0000      -1.272003       -34.6130
  14   1.0000      -1.188861       -32.3506
  15   1.0000      -1.179570       -32.0977
  16   1.0000      -0.954838       -25.9825
  17   1.0000      -0.820697       -22.3323
  18   1.0000      -0.747968       -20.3532
  19   1.0000      -0.713034       -19.4027
  20   1.0000      -0.691750       -18.8235
  21   1.0000      -0.658182       -17.9100
  22   1.0000      -0.601417       -16.3654
  23   1.0000      -0.575172       -15.6512
  24   1.0000      -0.552654       -15.0385
  25   1.0000      -0.543861       -14.7992
  26   1.0000      -0.526281       -14.3208
  27   1.0000      -0.508274       -13.8308
  28   1.0000      -0.437416       -11.9027
  29   1.0000      -0.435072       -11.8389
  30   1.0000      -0.432311       -11.7638
  31   1.0000      -0.418884       -11.3984
  32   1.0000      -0.409975       -11.1560
  33   1.0000      -0.395126       -10.7519
  34   1.0000      -0.391756       -10.6602
  35   1.0000      -0.391370       -10.6497
  36   1.0000      -0.385811       -10.4984
  37   1.0000      -0.380446       -10.3525
  38   1.0000      -0.372651       -10.1403
  39   1.0000      -0.354264        -9.6400
  40   1.0000      -0.344515        -9.3747
  41   1.0000      -0.341716        -9.2986
  42   1.0000      -0.323813        -8.8114
  43   1.0000      -0.309134        -8.4120
  44   1.0000      -0.295624        -8.0443
  45   1.0000      -0.240745        -6.5510
  46   1.0000      -0.235082        -6.3969
  47   1.0000      -0.196585        -5.3493
  48   1.0000      -0.097532        -2.6540
  49   0.0000      -0.009196        -0.2502
  50   0.0000      -0.002976        -0.0810
  51   0.0000       0.010147         0.2761
  52   0.0000       0.014030         0.3818
  53   0.0000       0.018069         0.4917

                 SPIN DOWN ORBITALS
  NO   OCC          E(Eh)            E(eV)
   0   1.0000     -24.619544      -669.9318
   1   1.0000     -24.619430      -669.9287
   2   1.0000     -24.611146      -669.7033
   3   1.0000     -18.980223      -516.4781
   4   1.0000     -10.340982      -281.3924
   5   1.0000     -10.134702      -275.7793
   6   1.0000     -10.105737      -274.9911
   7   1.0000     -10.105513      -274.9850
   8   1.0000     -10.099550      -274.8227
   9   1.0000     -10.096614      -274.7428
  10   1.0000     -10.091541      -274.6048
  11   1.0000     -10.088778      -274.5296
  12   1.0000     -10.086239      -274.4605
  13   1.0000      -1.271301       -34.5939
  14   1.0000      -1.188453       -32.3394
  15   1.0000      -1.178335       -32.0641
  16   1.0000      -0.945879       -25.7387
  17   1.0000      -0.816247       -22.2112
  18   1.0000      -0.741296       -20.1717
  19   1.0000      -0.709907       -19.3175
  20   1.0000      -0.688175       -18.7262
  21   1.0000      -0.656882       -17.8747
  22   1.0000      -0.596232       -16.2243
  23   1.0000      -0.574090       -15.6218
  24   1.0000      -0.550277       -14.9738
  25   1.0000      -0.543444       -14.7879
  26   1.0000      -0.523026       -14.2323
  27   1.0000      -0.504615       -13.7313
  28   1.0000      -0.436273       -11.8716
  29   1.0000      -0.433588       -11.7985
  30   1.0000      -0.430040       -11.7020
  31   1.0000      -0.417142       -11.3510
  32   1.0000      -0.407211       -11.0808
  33   1.0000      -0.391498       -10.6532
  34   1.0000      -0.390815       -10.6346
  35   1.0000      -0.384756       -10.4697
  36   1.0000      -0.384109       -10.4521
  37   1.0000      -0.379745       -10.3334
  38   1.0000      -0.372054       -10.1241
  39   1.0000      -0.351035        -9.5521
  40   1.0000      -0.342218        -9.3122
  41   1.0000      -0.332798        -9.0559
  42   1.0000      -0.321687        -8.7535
  43   1.0000      -0.294573        -8.0158
  44   1.0000      -0.288718        -7.8564
  45   1.0000      -0.231042        -6.2870
  46   1.0000      -0.213052        -5.7974
  47   1.0000      -0.192847        -5.2476
  48   0.0000      -0.048911        -1.3309
  49   0.0000      -0.005109        -0.1390
  50   0.0000      -0.001241        -0.0338
  51   0.0000       0.011087         0.3017
  52   0.0000       0.015877         0.4320

MULLIKEN ATOMIC CHARGES AND SPIN POPULATIONS
--------------------------------------------
   0 C :   -0.966132    0.157340
   1 C :   -0.532662   -0.015495
   2 C :    0.591561    0.271269
   3 C :   -0.729082   -0.010742
   4 C :   -0.507479    0.151520
   5 C :    1.279959    0.116456
   6 C :    0.781108    0.167196
   7 O :   -1.169444    0.200013
   8 C :   -0.304223   -0.024772
   9 H :    0.174808    0.008256
  10 H :    0.174858    0.007808
  11 H :   -0.052853   -0.001332
  12 H :   -0.014972   -0.006725
  13 H :    0.210855   -0.002320
  14 C :    1.067204   -0.012949
  15 F :   -0.405883    0.011664
  16 F :   -0.398328    0.001758
  17 F :   -0.398359    0.001819
  18 H :    0.256068   -0.004288
  19 H :   -0.057006   -0.016476
Sum of atomic charges         :   -1.0000000

LOEWDIN ATOMIC CHARGES AND SPIN POPULATIONS
-------------------------------------------
   0 C :    0.152224    0.077358
   1 C :    0.149941    0.043038
   2 C :   -0.223344    0.138609
   3 C :    0.151416    0.046758
   4 C :    0.165657    0.078233
   5 C :   -0.192464    0.132764
   6 C :   -0.654154    0.157507
   7 O :    0.367856    0.177264
   8 C :    0.507868    0.026467
   9 H :   -0.176099    0.006665
  10 H :   -0.176223    0.006640
  11 H :   -0.200312   -0.000620
  12 H :   -0.198965    0.013517
  13 H :   -0.190382    0.002064
  14 C :   -1.600665    0.048165
  15 F :    0.482905    0.017517
  16 F :    0.517852    0.006430
  17 F :    0.518256    0.006671
  18 H :   -0.191361    0.001058
  19 H :   -0.210006    0.013895

  Mayer bond orders larger than 0.100000
B(  0-C ,  1-C ) :   1.6295 B(  0-C ,  2-C ) :  -0.1059 B(  0-C ,  4-C ) :  -0.4131
B(  0-C ,  5-C ) :   0.2821 B(  0-C ,  6-C ) :   0.2318 B(  0-C , 19-H ) :   1.1949
B(  1-C ,  2-C ) :   0.8586 B(  1-C ,  6-C ) :   0.1147 B(  1-C , 18-H ) :   0.7212
B(  2-C ,  3-C ) :   0.7406 B(  2-C , 14-C ) :   1.1277 B(  2-C , 15-F ) :   0.1245
B(  2-C , 16-F ) :   0.1019 B(  2-C , 17-F ) :   0.1254 B(  3-C ,  4-C ) :   1.3880
B(  3-C , 13-H ) :   0.7750 B(  4-C ,  5-C ) :   0.3410 B(  4-C ,  6-C ) :   0.1601
B(  4-C , 12-H ) :   1.3164 B(  5-C ,  6-C ) :   0.6064 B(  5-C ,  7-O ) :   0.4025
B(  6-C ,  7-O ) :   0.1786 B(  6-C ,  8-C ) :   1.0447 B(  6-C , 19-H ) :  -0.1224
B(  7-O , 19-H ) :   0.1670 B(  8-C ,  9-H ) :   0.9548 B(  8-C , 10-H ) :   0.9521
B(  8-C , 11-H ) :   1.0460 B( 12-H , 19-H ) :   0.1055 B( 14-C , 15-F ) :   0.6496
B( 14-C , 16-F ) :   0.6408 B( 14-C , 17-F ) :   0.6340

Dispersion correction           -0.024822728
FINAL SINGLE POINT ENERGY      -722.354886489818

DIPOLE MOMENT
-------------

Method             : SCF
Type of density    : Electron Density
Multiplicity       :   2
Irrep              :   0
Energy             :  -722.3300637617722941 Eh
Relativity type    :
Basis              : AO
                                X                 Y                 Z
Electronic contribution:    -24.365468597       2.962202142      -0.167765293
Nuclear contribution   :     22.174393419      -4.340377650       0.286944378
                        -----------------------------------------
Total Dipole Moment    :     -2.191075179      -1.378175508       0.119179085
                        -----------------------------------------
Magnitude (a.u.)       :      2.591212424
Magnitude (Debye)      :      6.586338556

Rotational constants in cm-1:             0.074129             0.012365             0.011236
Rotational constants in MHz :          2222.330337           370.696975           336.858086

                             ****ORCA TERMINATED NORMALLY****
TOTAL RUN TIME: 0 days 0 hours 11 minutes 6 seconds 221 msec
