                         Program Version 6.0.0  -   RELEASE  -
|  1> !PBE0 freq aug-cc-pVTZ d3 TightSCF SlowConv RIJCOSX defgrid2
|  2>
|  3> %pal
|  4> nprocs 12
|  5> end
|  6>
|  7> %scf
|  8> MaxIter 1500
|  9> end
| 10>
| 11> %maxcore 5000
| 12>
| 13> !CPCM
| 14> %cpcm smd true
| 15> SMDsolvent "MeCN"
| 16> surfacetype gepol_ses
| 17> rsolv 2.19
| 18> end
| 19>
| 20> * xyz 1 2
| 21> C          -0.22368317239482     -1.23625149501737     -0.03897534789507
| 22> C           1.14073173321165     -1.22107441298115      0.00222609102018
| 23> C           1.83223417666682     -0.00003913378052      0.02307501106839
| 24> C           1.14077724097872      1.22102189938313      0.00222005748549
| 25> C          -0.22363800872743      1.23624445208961     -0.03897964599650
| 26> C          -0.93252565437447      0.00000888135223     -0.05980762048777
| 27> N          -2.25042461460441      0.00003063261771     -0.09813130747331
| 28> H          -2.77456280587432      0.86431316206298     -0.11471288221429
| 29> H          -2.77459342591490     -0.86423297502156     -0.11471780809486
| 30> H          -0.78315207454268      2.16280038732931     -0.05626584714943
| 31> H           1.69290071417624      2.15101772160972      0.01879976619383
| 32> H           2.91390745774963     -0.00006135276030      0.05484458430832
| 33> H           1.69282382656920     -2.15108843200700      0.01881038069815
| 34> H          -0.78322709291924     -2.16278933487678     -0.05626063146314
| 35> *
| 36>
| 37>                          ****END OF INPUT****

CARTESIAN COORDINATES (ANGSTROEM)
---------------------------------
  C     -0.223683   -1.236251   -0.038975
  C      1.140732   -1.221074    0.002226
  C      1.832234   -0.000039    0.023075
  C      1.140777    1.221022    0.002220
  C     -0.223638    1.236244   -0.038980
  C     -0.932526    0.000009   -0.059808
  N     -2.250425    0.000031   -0.098131
  H     -2.774563    0.864313   -0.114713
  H     -2.774593   -0.864233   -0.114718
  H     -0.783152    2.162800   -0.056266
  H      1.692901    2.151018    0.018800
  H      2.913907   -0.000061    0.054845
  H      1.692824   -2.151088    0.018810
  H     -0.783227   -2.162789   -0.056261

 Total Charge           Charge          ....    1
 Multiplicity           Mult            ....    2
 Number of Electrons    NEL             ....   49
 Basis Dimension        Dim             ....  483

ORBITAL ENERGIES
----------------
                 SPIN UP ORBITALS
  NO   OCC          E(Eh)            E(eV)
   0   1.0000     -14.479613      -394.0103
   1   1.0000     -10.332142      -281.1519
   2   1.0000     -10.277457      -279.6638
   3   1.0000     -10.273108      -279.5455
   4   1.0000     -10.273107      -279.5454
   5   1.0000     -10.260495      -279.2023
   6   1.0000     -10.260489      -279.2021
   7   1.0000      -1.033186       -28.1144
   8   1.0000      -0.913870       -24.8677
   9   1.0000      -0.816491       -22.2178
  10   1.0000      -0.795509       -21.6469
  11   1.0000      -0.677613       -18.4388
  12   1.0000      -0.673157       -18.3175
  13   1.0000      -0.591817       -16.1042
  14   1.0000      -0.583675       -15.8826
  15   1.0000      -0.538195       -14.6450
  16   1.0000      -0.487483       -13.2651
  17   1.0000      -0.477192       -12.9850
  18   1.0000      -0.474017       -12.8987
  19   1.0000      -0.470707       -12.8086
  20   1.0000      -0.407226       -11.0812
  21   1.0000      -0.393236       -10.7005
  22   1.0000      -0.385347       -10.4858
  23   1.0000      -0.313300        -8.5253
  24   1.0000      -0.275640        -7.5006
  25   0.0000      -0.040503        -1.1022
  26   0.0000      -0.038700        -1.0531
  27   0.0000      -0.001897        -0.0516
  28   0.0000       0.010962         0.2983
  29   0.0000       0.015659         0.4261

                 SPIN DOWN ORBITALS
  NO   OCC          E(Eh)            E(eV)
   0   1.0000     -14.470774      -393.7698
   1   1.0000     -10.331880      -281.1448
   2   1.0000     -10.271317      -279.4968
   3   1.0000     -10.269506      -279.4475
   4   1.0000     -10.269503      -279.4474
   5   1.0000     -10.262408      -279.2543
   6   1.0000     -10.262394      -279.2539
   7   1.0000      -1.017889       -27.6982
   8   1.0000      -0.904924       -24.6242
   9   1.0000      -0.812691       -22.1144
  10   1.0000      -0.780214       -21.2307
  11   1.0000      -0.674174       -18.3452
  12   1.0000      -0.666083       -18.1250
  13   1.0000      -0.589213       -16.0333
  14   1.0000      -0.578196       -15.7335
  15   1.0000      -0.533204       -14.5092
  16   1.0000      -0.483738       -13.1632
  17   1.0000      -0.474495       -12.9117
  18   1.0000      -0.469904       -12.7867
  19   1.0000      -0.442145       -12.0314
  20   1.0000      -0.404804       -11.0153
  21   1.0000      -0.383449       -10.4342
  22   1.0000      -0.356230        -9.6935
  23   1.0000      -0.303369        -8.2551
  24   0.0000      -0.170635        -4.6432
  25   0.0000      -0.027275        -0.7422
  26   0.0000      -0.011969        -0.3257
  27   0.0000      -0.000767        -0.0209
  28   0.0000       0.012163         0.3310

MULLIKEN ATOMIC CHARGES AND SPIN POPULATIONS
--------------------------------------------
   0 C :   -0.670219    0.196071
   1 C :   -0.472496   -0.109474
   2 C :   -0.474776    0.357078
   3 C :   -0.473356   -0.109486
   4 C :   -0.672111    0.196043
   5 C :    0.906038    0.097574
   6 N :   -0.323132    0.366917
   7 H :    0.072447   -0.003646
   8 H :    0.073015   -0.003649
   9 H :    0.708466   -0.001464
  10 H :    0.499117    0.003196
  11 H :    0.624643    0.009112
  12 H :    0.493682    0.003191
  13 H :    0.708681   -0.001464
Sum of atomic charges         :    1.0000000

LOEWDIN ATOMIC CHARGES AND SPIN POPULATIONS
-------------------------------------------
   0 C :    0.284005    0.112662
   1 C :    0.246168    0.036805
   2 C :    0.264704    0.180852
   3 C :    0.246168    0.036804
   4 C :    0.284003    0.112664
   5 C :   -0.168923    0.129723
   6 N :    0.975650    0.253254
   7 H :   -0.197684    0.034142
   8 H :   -0.197684    0.034142
   9 H :   -0.141034    0.021243
  10 H :   -0.153570   -0.008988
  11 H :   -0.147194    0.044441
  12 H :   -0.153575   -0.008987
  13 H :   -0.141033    0.021243

  Mayer bond orders larger than 0.100000
B(  0-C ,  1-C ) :   1.5639 B(  0-C ,  2-C ) :   0.2171 B(  0-C ,  4-C ) :   0.2624
B(  0-C ,  5-C ) :   0.7879 B(  0-C ,  6-N ) :  -0.1380 B(  1-C ,  2-C ) :   1.1738
B(  1-C ,  3-C ) :  -0.1003 B(  1-C ,  5-C ) :  -0.2350 B(  1-C , 12-H ) :   0.6428
B(  2-C ,  3-C ) :   1.1752 B(  2-C ,  4-C ) :   0.2163 B(  2-C , 11-H ) :   0.3801
B(  3-C ,  4-C ) :   1.5660 B(  3-C ,  5-C ) :  -0.2344 B(  3-C , 10-H ) :   0.6355
B(  4-C ,  5-C ) :   0.7881 B(  4-C ,  6-N ) :  -0.1380 B(  5-C ,  6-N ) :   1.0829
B(  6-N ,  7-H ) :   1.1172 B(  6-N ,  8-H ) :   1.1162

Dispersion correction           -0.011489675
FINAL SINGLE POINT ENERGY      -287.197854743807

DIPOLE MOMENT
-------------

Method             : SCF
Type of density    : Electron Density
Multiplicity       :   2
Irrep              :   0
Energy             :  -287.1863650686212850 Eh
Relativity type    :
Basis              : AO
                                X                 Y                 Z
Electronic contribution:     -0.916678884       0.000022022      -0.026965067
Nuclear contribution   :     -0.812626830       0.000010622      -0.026406841
                        -----------------------------------------
Total Dipole Moment    :     -1.729305714       0.000032644      -0.053371908
                        -----------------------------------------
Magnitude (a.u.)       :      1.730129132
Magnitude (Debye)      :      4.397638768

VIBRATIONAL FREQUENCIES
-----------------------

Scaling factor for frequencies =  1.000000000  (already applied!)

     0:       0.00 cm**-1
     1:       0.00 cm**-1
     2:       0.00 cm**-1
     3:       0.00 cm**-1
     4:       0.00 cm**-1
     5:       0.00 cm**-1
     6:     170.59 cm**-1
     7:     351.68 cm**-1
     8:     367.97 cm**-1
     9:     431.80 cm**-1
    10:     523.71 cm**-1
    11:     533.27 cm**-1
    12:     569.47 cm**-1
    13:     585.32 cm**-1
    14:     619.02 cm**-1
    15:     787.87 cm**-1
    16:     802.58 cm**-1
    17:     833.72 cm**-1
    18:     931.23 cm**-1
    19:     994.66 cm**-1
    20:     997.46 cm**-1
    21:    1006.83 cm**-1
    22:    1013.73 cm**-1
    23:    1019.00 cm**-1
    24:    1115.96 cm**-1
    25:    1150.28 cm**-1
    26:    1176.68 cm**-1
    27:    1339.30 cm**-1
    28:    1395.20 cm**-1
    29:    1399.66 cm**-1
    30:    1482.83 cm**-1
    31:    1521.05 cm**-1
    32:    1563.39 cm**-1
    33:    1625.40 cm**-1
    34:    1643.83 cm**-1
    35:    3208.07 cm**-1
    36:    3211.15 cm**-1
    37:    3217.09 cm**-1
    38:    3226.45 cm**-1
    39:    3232.73 cm**-1
    40:    3543.73 cm**-1
    41:    3660.22 cm**-1

IR SPECTRUM
-----------

 Mode   freq       eps      Int      T**2         TX        TY        TZ
       cm**-1   L/(mol*cm) km/mol    a.u.
----------------------------------------------------------------------------
  6:    170.59   0.003178   16.06  0.005813  (-0.003167 -0.000000  0.076180)
  7:    351.68   0.000001    0.01  0.000001  (-0.000001 -0.001066  0.000009)
  8:    367.97   0.001795    9.07  0.001522  (-0.000003  0.039016 -0.000000)
  9:    431.80   0.006866   34.70  0.004962  ( 0.001703 -0.000001 -0.070421)
 10:    523.71   0.000445    2.25  0.000265  ( 0.016292  0.000001 -0.000167)
 11:    533.27   0.000000    0.00  0.000000  (-0.000001  0.000086  0.000004)
 12:    569.47   0.053171  268.70  0.029137  ( 0.005763 -0.000000 -0.170598)
 13:    585.32   0.000051    0.26  0.000027  ( 0.000001  0.005192 -0.000006)
 14:    619.02   0.005143   25.99  0.002593  (-0.001700  0.000001  0.050890)
 15:    787.87   0.017139   86.61  0.006788  (-0.002577 -0.000000  0.082351)
 16:    802.58   0.000000    0.00  0.000000  ( 0.000000  0.000177 -0.000013)
 17:    833.72   0.000393    1.99  0.000147  (-0.012093 -0.000001 -0.000992)
 18:    931.23   0.002027   10.24  0.000679  ( 0.000478  0.000001 -0.026058)
 19:    994.66   0.000006    0.03  0.000002  ( 0.001320  0.000002 -0.000127)
 20:    997.46   0.000000    0.00  0.000000  ( 0.000000 -0.000112  0.000001)
 21:   1006.83   0.000182    0.92  0.000056  ( 0.000355 -0.000001 -0.007496)
 22:   1013.73   0.000320    1.61  0.000098  (-0.009909  0.000001 -0.000432)
 23:   1019.00   0.000041    0.21  0.000013  ( 0.000000  0.003537 -0.000000)
 24:   1115.96   0.005784   29.23  0.001617  ( 0.000001 -0.040217  0.000000)
 25:   1150.28   0.000033    0.17  0.000009  (-0.000000  0.003000 -0.000000)
 26:   1176.68   0.000473    2.39  0.000125  ( 0.011192 -0.000001  0.000275)
 27:   1339.30   0.000001    0.01  0.000000  ( 0.000001  0.000552 -0.000000)
 28:   1395.20   0.006796   34.34  0.001520  (-0.000002 -0.038988  0.000001)
 29:   1399.66   0.004416   22.32  0.000985  ( 0.031364 -0.000004  0.000970)
 30:   1482.83   0.001978    9.99  0.000416  (-0.000001  0.020401 -0.000000)
 31:   1521.05   0.013757   69.52  0.002823  ( 0.053104  0.000000  0.001565)
 32:   1563.39   0.002336   11.81  0.000466  ( 0.000005 -0.021594  0.000000)
 33:   1625.40   0.055799  281.99  0.010713  ( 0.103457 -0.000000  0.003094)
 34:   1643.83   0.006740   34.06  0.001280  ( 0.035757 -0.000002  0.001021)
 35:   3208.07   0.000088    0.45  0.000009  ( 0.002930  0.000009  0.000010)
 36:   3211.15   0.000327    1.65  0.000032  (-0.000002  0.005637  0.000000)
 37:   3217.09   0.000772    3.90  0.000075  (-0.008648  0.000002 -0.000314)
 38:   3226.45   0.000075    0.38  0.000007  (-0.000000  0.002696 -0.000000)
 39:   3232.73   0.000399    2.01  0.000038  ( 0.006199  0.000001  0.000230)
 40:   3543.73   0.094107  475.58  0.008287  ( 0.090992 -0.000003  0.002746)
 41:   3660.22   0.035253  178.16  0.003006  (-0.000003 -0.054824 -0.000000)

--------------------------
THERMOCHEMISTRY AT 298.15K
--------------------------

Temperature         ...   298.15 K
Pressure            ...     1.00 atm
Total Mass          ...    93.13 AMU
Quasi RRHO          ...     True
Cut-Off Frequency   ...     1.00 cm^-1

Throughout the following assumptions are being made:
  (1) The electronic state is orbitally nondegenerate
      but the spin degeneracy is treated
  (2) There are no thermally accessible electronically excited states
  (3) Hindered rotations indicated by low frequency modes are not
      treated as such but are treated as vibrations and this may
      cause some error
  (4) All equations used are the standard statistical mechanics
      equations for an ideal gas
  (5) All vibrations are strictly harmonic

freq.     170.59  E(vib)   ...       0.38
freq.     351.68  E(vib)   ...       0.23
freq.     367.97  E(vib)   ...       0.21
freq.     431.80  E(vib)   ...       0.18
freq.     523.71  E(vib)   ...       0.13
freq.     533.27  E(vib)   ...       0.13
freq.     569.47  E(vib)   ...       0.11
freq.     585.32  E(vib)   ...       0.11
freq.     619.02  E(vib)   ...       0.09
freq.     787.87  E(vib)   ...       0.05
freq.     802.58  E(vib)   ...       0.05
freq.     833.72  E(vib)   ...       0.04
freq.     931.23  E(vib)   ...       0.03
freq.     994.66  E(vib)   ...       0.02
freq.     997.46  E(vib)   ...       0.02
freq.    1006.83  E(vib)   ...       0.02
freq.    1013.73  E(vib)   ...       0.02
freq.    1019.00  E(vib)   ...       0.02
freq.    1115.96  E(vib)   ...       0.01
freq.    1150.28  E(vib)   ...       0.01
freq.    1176.68  E(vib)   ...       0.01
freq.    1339.30  E(vib)   ...       0.01
freq.    1395.20  E(vib)   ...       0.00
freq.    1399.66  E(vib)   ...       0.00
freq.    1482.83  E(vib)   ...       0.00
freq.    1521.05  E(vib)   ...       0.00
freq.    1563.39  E(vib)   ...       0.00
freq.    1625.40  E(vib)   ...       0.00
freq.    1643.83  E(vib)   ...       0.00
freq.    3208.07  E(vib)   ...       0.00
freq.    3211.15  E(vib)   ...       0.00
freq.    3217.09  E(vib)   ...       0.00
freq.    3226.45  E(vib)   ...       0.00
freq.    3232.73  E(vib)   ...       0.00
freq.    3543.73  E(vib)   ...       0.00
freq.    3660.22  E(vib)   ...       0.00

------------
INNER ENERGY
------------

The inner energy is: U= E(el) + E(ZPE) + E(vib) + E(rot) + E(trans)
    E(el)   - is the total energy from the electronic structure calculation
              = E(kin-el) + E(nuc-el) + E(el-el) + E(nuc-nuc)
    E(ZPE)  - the the zero temperature vibrational energy from the frequency calculation
    E(vib)  - the the finite temperature correction to E(ZPE) due to population
              of excited vibrational states
    E(rot)  - is the rotational thermal energy
    E(trans)- is the translational thermal energy

Summary of contributions to the inner energy U:
Electronic energy                ...   -287.19785474 Eh
Zero point energy                ...      0.11676284 Eh      73.27 kcal/mol
Thermal vibrational correction   ...      0.00305546 Eh       1.92 kcal/mol
Thermal rotational correction    ...      0.00141627 Eh       0.89 kcal/mol
Thermal translational correction ...      0.00141627 Eh       0.89 kcal/mol
-----------------------------------------------------------------------
Total thermal energy                   -287.07520389 Eh

Summary of corrections to the electronic energy:
(perhaps to be used in another calculation)
Total thermal correction                  0.00588801 Eh       3.69 kcal/mol
Non-thermal (ZPE) correction              0.11676284 Eh      73.27 kcal/mol
-----------------------------------------------------------------------
Total correction                          0.12265085 Eh      76.96 kcal/mol

--------
ENTHALPY
--------

The enthalpy is H = U + kB*T
                kB is Boltzmann's constant
Total thermal energy              ...   -287.07520389 Eh
Thermal Enthalpy correction       ...      0.00094421 Eh       0.59 kcal/mol
-----------------------------------------------------------------------
Total Enthalpy                    ...   -287.07425969 Eh

Note: Rotational entropy computed according to Herzberg
Infrared and Raman Spectra, Chapter V,1, Van Nostrand Reinhold, 1945
Point Group:  Cs, Symmetry Number:   1
Rotational constants in cm-1:     0.181669     0.090916     0.060593

Vibrational entropy computed according to the QRRHO of S. Grimme
Chem.Eur.J. 2012 18 9955 using a reference frequency of 100.0 cm-1

-------
ENTROPY
-------

The entropy contributions are T*S = T*(S(el)+S(vib)+S(rot)+S(trans))
     S(el)   - electronic entropy
     S(vib)  - vibrational entropy
     S(rot)  - rotational entropy
     S(trans)- translational entropy
The entropies will be listed as multiplied by the temperature to get
units of energy

Electronic entropy                ...      0.00065446 Eh      0.41 kcal/mol
Vibrational entropy               ...      0.00453883 Eh      2.85 kcal/mol
Rotational entropy                ...      0.01277152 Eh      8.01 kcal/mol
Translational entropy             ...      0.01877043 Eh     11.78 kcal/mol
-----------------------------------------------------------------------
Final entropy term                ...      0.03673524 Eh     23.05 kcal/mol

In case the symmetry of your molecule has not been determined correctly
or in case you have a reason to use a different symmetry number we print
out the resulting rotational entropy values for sn=1,12:

 non-linear molecules -----------------------------------
|  sn= 1 | S(rot)=       0.01277152 Eh      8.01 kcal/mol|
|  sn= 2 | S(rot)=       0.01211707 Eh      7.60 kcal/mol|
|  sn= 3 | S(rot)=       0.01173424 Eh      7.36 kcal/mol|
|  sn= 4 | S(rot)=       0.01146261 Eh      7.19 kcal/mol|
|  sn= 5 | S(rot)=       0.01125192 Eh      7.06 kcal/mol|
|  sn= 6 | S(rot)=       0.01107978 Eh      6.95 kcal/mol|
|  sn= 7 | S(rot)=       0.01093423 Eh      6.86 kcal/mol|
|  sn= 8 | S(rot)=       0.01080816 Eh      6.78 kcal/mol|
|  sn= 9 | S(rot)=       0.01069695 Eh      6.71 kcal/mol|
|  sn=10 | S(rot)=       0.01059747 Eh      6.65 kcal/mol|
|  sn=11 | S(rot)=       0.01050748 Eh      6.59 kcal/mol|
|  sn=12 | S(rot)=       0.01042532 Eh      6.54 kcal/mol|
 linear molecules ---------------------------------------
|  Dinfh | S(rot)=       0.00797290 Eh      5.00 kcal/mol|
|  Cinfv | S(rot)=       0.00862735 Eh      5.41 kcal/mol|
 --------------------------------------------------------

-------------------
GIBBS FREE ENERGY
-------------------

The Gibbs free energy is G = H - T*S

Total enthalpy                    ...   -287.07425969 Eh
Total entropy correction          ...     -0.03673524 Eh    -23.05 kcal/mol
-----------------------------------------------------------------------
Final Gibbs free energy         ...   -287.11099492 Eh

                             ****ORCA TERMINATED NORMALLY****
TOTAL RUN TIME: 0 days 0 hours 54 minutes 43 seconds 191 msec
