                         Program Version 6.0.0  -   RELEASE  -
|  1> !PBE0 aug-cc-pVTZ d3 TightSCF SlowConv RIJCOSX defgrid2
|  2>
|  3> %pal
|  4> nprocs 4
|  5> end
|  6>
|  7> %scf
|  8> MaxIter 1500
|  9> end
| 10>
| 11> %maxcore 3000
| 12>
| 13> !CPCM
| 14> %cpcm smd true
| 15> SMDsolvent "MeCN"
| 16> surfacetype gepol_ses
| 17> rsolv 2.19
| 18> end
| 19>
| 20> * xyz 0 1
| 21> C          -1.05292788857862     -0.90195039312492     -0.00079244620406
| 22> C           0.25383306266426     -1.38568004993578     -0.00080152214741
| 23> C           0.54028267273191     -2.86138571234637      0.00203288995712
| 24> H          -0.38883857252285     -3.45325509542062     -0.03604059678385
| 25> H           1.09291811063176     -3.16010644297053      0.91112317693211
| 26> H           1.16170282070714     -3.15090864321875     -0.86421399390079
| 27> C           1.30789207458922     -0.46067464080260     -0.00180567347016
| 28> C           1.07324062808844      0.91294695875315     -0.00214657152903
| 29> C           2.20817617786651      1.89865124490654      0.00209849597546
| 30> H           3.18449974454796      1.39049576009947     -0.05807100437114
| 31> H           2.13663406413115      2.59705801641470     -0.85077030664783
| 32> H           2.20331535520643      2.51020555090965      0.92262417706601
| 33> C          -0.25483018407266      1.36349671392215     -0.00225647131416
| 34> C          -1.32705255805093      0.47346516287692     -0.00103317270303
| 35> C          -2.74855528335392      0.96238121268857      0.00245367553351
| 36> H          -3.31064008145775      0.56663508720282     -0.86228812948984
| 37> H          -2.79782100162226      2.06283177128710     -0.03746981852679
| 38> H          -3.28188878628492      0.63396678514828      0.91282151769573
| 39> H          -0.45362964993404      2.44124989130836     -0.00465260761200
| 40> H           2.34086357869234     -0.82683387520777     -0.00378196652349
| 41> H          -1.88684908397918     -1.61312760249038     -0.00182455193637
| 42> *
| 43>
| 44>                          ****END OF INPUT****

CARTESIAN COORDINATES (ANGSTROEM)
---------------------------------
  C     -1.052928   -0.901950   -0.000792
  C      0.253833   -1.385680   -0.000802
  C      0.540283   -2.861386    0.002033
  H     -0.388839   -3.453255   -0.036041
  H      1.092918   -3.160106    0.911123
  H      1.161703   -3.150909   -0.864214
  C      1.307892   -0.460675   -0.001806
  C      1.073241    0.912947   -0.002147
  C      2.208176    1.898651    0.002098
  H      3.184500    1.390496   -0.058071
  H      2.136634    2.597058   -0.850770
  H      2.203315    2.510206    0.922624
  C     -0.254830    1.363497   -0.002256
  C     -1.327053    0.473465   -0.001033
  C     -2.748555    0.962381    0.002454
  H     -3.310640    0.566635   -0.862288
  H     -2.797821    2.062832   -0.037470
  H     -3.281889    0.633967    0.912822
  H     -0.453630    2.441250   -0.004653
  H      2.340864   -0.826834   -0.003782
  H     -1.886849   -1.613128   -0.001825

 Total Charge           Charge          ....    0
 Multiplicity           Mult            ....    1
 Number of Electrons    NEL             ....   66
 Basis Dimension        Dim             ....  690

ORBITAL ENERGIES
----------------

  NO   OCC          E(Eh)            E(eV)
   0   2.0000     -10.236116      -278.5389
   1   2.0000     -10.236096      -278.5383
   2   2.0000     -10.236089      -278.5381
   3   2.0000     -10.217616      -278.0355
   4   2.0000     -10.217605      -278.0352
   5   2.0000     -10.217574      -278.0343
   6   2.0000     -10.214245      -277.9437
   7   2.0000     -10.214244      -277.9437
   8   2.0000     -10.214234      -277.9434
   9   2.0000      -0.885610       -24.0987
  10   2.0000      -0.800943       -21.7948
  11   2.0000      -0.800929       -21.7944
  12   2.0000      -0.714319       -19.4376
  13   2.0000      -0.693855       -18.8807
  14   2.0000      -0.693800       -18.8793
  15   2.0000      -0.585085       -15.9210
  16   2.0000      -0.585072       -15.9206
  17   2.0000      -0.505391       -13.7524
  18   2.0000      -0.488976       -13.3057
  19   2.0000      -0.439549       -11.9607
  20   2.0000      -0.436941       -11.8898
  21   2.0000      -0.417199       -11.3526
  22   2.0000      -0.417178       -11.3520
  23   2.0000      -0.410314       -11.1652
  24   2.0000      -0.410272       -11.1641
  25   2.0000      -0.396718       -10.7952
  26   2.0000      -0.396673       -10.7940
  27   2.0000      -0.366352        -9.9690
  28   2.0000      -0.345618        -9.4047
  29   2.0000      -0.339861        -9.2481
  30   2.0000      -0.339842        -9.2476
  31   2.0000      -0.249037        -6.7766
  32   2.0000      -0.248994        -6.7755
  33   0.0000      -0.005951        -0.1619
  34   0.0000      -0.005893        -0.1604
  35   0.0000       0.001422         0.0387
  36   0.0000       0.014799         0.4027
  37   0.0000       0.014809         0.4030

MULLIKEN ATOMIC CHARGES
-----------------------
   0 C :   -1.018773
   1 C :    0.918532
   2 C :   -0.732377
   3 H :    0.246194
   4 H :    0.246879
   5 H :    0.239034
   6 C :   -1.071329
   7 C :    0.918668
   8 C :   -0.742649
   9 H :    0.247370
  10 H :    0.240285
  11 H :    0.247158
  12 C :   -1.070359
  13 C :    0.918338
  14 C :   -0.730265
  15 H :    0.238270
  16 H :    0.245093
  17 H :    0.243676
  18 H :    0.157282
  19 H :    0.116959
  20 H :    0.142015
Sum of atomic charges:    0.0000000

LOEWDIN ATOMIC CHARGES
----------------------
   0 C :    0.214864
   1 C :   -0.146353
   2 C :    0.567524
   3 H :   -0.168437
   4 H :   -0.153159
   5 H :   -0.154513
   6 C :    0.214803
   7 C :   -0.146294
   8 C :    0.567440
   9 H :   -0.168433
  10 H :   -0.154802
  11 H :   -0.152836
  12 C :    0.214860
  13 C :   -0.146349
  14 C :    0.567504
  15 H :   -0.154555
  16 H :   -0.168317
  17 H :   -0.153183
  18 H :   -0.159930
  19 H :   -0.159942
  20 H :   -0.159892

  Mayer bond orders larger than 0.100000
B(  0-C ,  1-C ) :   0.6537 B(  0-C ,  7-C ) :  -0.1207 B(  0-C , 13-C ) :   0.5310
B(  0-C , 14-C ) :   0.2109 B(  0-C , 18-H ) :   0.1175 B(  0-C , 20-H ) :   1.2151
B(  1-C ,  2-C ) :   0.4533 B(  1-C ,  6-C ) :   0.4762 B(  1-C ,  7-C ) :   0.4104
B(  1-C , 12-C ) :  -0.1565 B(  1-C , 13-C ) :   0.3863 B(  1-C , 19-H ) :  -0.1088
B(  2-C ,  3-H ) :   0.9327 B(  2-C ,  4-H ) :   0.9741 B(  2-C ,  5-H ) :   0.9826
B(  2-C ,  6-C ) :   0.2117 B(  6-C ,  7-C ) :   0.6747 B(  6-C , 13-C ) :  -0.1393
B(  6-C , 19-H ) :   1.2811 B(  6-C , 20-H ) :   0.1109 B(  7-C ,  8-C ) :   0.4225
B(  7-C , 12-C ) :   0.4921 B(  7-C , 13-C ) :   0.3839 B(  8-C ,  9-H ) :   0.9341
B(  8-C , 10-H ) :   0.9832 B(  8-C , 11-H ) :   0.9771 B(  8-C , 12-C ) :   0.2030
B( 12-C , 13-C ) :   0.6140 B( 12-C , 18-H ) :   1.2081 B( 12-C , 19-H ) :   0.1269
B( 13-C , 14-C ) :   0.4381 B( 13-C , 19-H ) :  -0.1059 B( 14-C , 15-H ) :   0.9833
B( 14-C , 16-H ) :   0.9348 B( 14-C , 17-H ) :   0.9789

Dispersion correction           -0.017923692
FINAL SINGLE POINT ENERGY      -349.914704391816

DIPOLE MOMENT
-------------

Method             : SCF
Type of density    : Electron Density
Multiplicity       :   1
Irrep              :   0
Energy             :  -349.8967807000286712 Eh
Relativity type    :
Basis              : AO
                                X                 Y                 Z
Electronic contribution:     -0.000772949       0.002348569      -0.011911146
Nuclear contribution   :      0.000158820      -0.002916147       0.025698413
                        -----------------------------------------
Total Dipole Moment    :     -0.000614128      -0.000567577       0.013787266
                        -----------------------------------------
Magnitude (a.u.)       :      0.013812603
Magnitude (Debye)      :      0.035108848

Rotational constants in cm-1:             0.058235             0.058222             0.029602
Rotational constants in MHz :          1745.843649          1745.444193           887.453553

                             ****ORCA TERMINATED NORMALLY****
TOTAL RUN TIME: 0 days 0 hours 6 minutes 19 seconds 345 msec
