                         Program Version 6.0.0  -   RELEASE  -
|  1> !PBE0 opt aug-cc-pVTZ d3 TightSCF SlowConv RIJCOSX defgrid2
|  2>
|  3> %pal
|  4> nprocs 8
|  5> end
|  6>
|  7> %scf
|  8> MaxIter 1500
|  9> end
| 10>
| 11> %maxcore 3500
| 12>
| 13> !CPCM
| 14> %cpcm smd true
| 15> SMDsolvent "MeCN"
| 16> surfacetype gepol_ses
| 17> rsolv 2.19
| 18> end
| 19>
| 20> * xyz 1 2
| 21> C           0.86770061929664     -1.42689432299132      0.00000897101558
| 22> C           2.10468085183811     -0.72689058389273     -0.00000825447661
| 23> C           2.18067581844409      0.67999913600521     -0.00001076122154
| 24> C           1.03283927538202      1.45145343690800      0.00000700381243
| 25> C          -0.22537653673213      0.77678989280940      0.00001343275561
| 26> C          -0.25105693451531     -0.64408759720608      0.00001506224490
| 27> O          -1.55281870061497     -1.07751154880539      0.00002630462179
| 28> C          -2.31401480280601     -0.00668804123383      0.00001929043081
| 29> C          -1.56234358562406      1.18487206630760      0.00001231970991
| 30> H          -1.97074260676972      2.19593761753153      0.00001018835187
| 31> H          -3.39348512015147     -0.17364143845796      0.00002005021122
| 32> H           1.07805269996545      2.54351477894486     -0.00000377489980
| 33> H           3.16218666325774      1.15998906195145     -0.00002790877216
| 34> H           3.03083245792013     -1.30967197800346     -0.00002115939682
| 35> H           0.82193140110952     -2.51820987986727      0.00000983561282
| 36> *
| 37>
| 38>                          ****END OF INPUT****
 Total Charge           Charge          ....    1
 Multiplicity           Mult            ....    2
 Number of Electrons    NEL             ....   61
Dispersion correction           -0.013688724
FINAL SINGLE POINT ENERGY      -383.166656065010
Dispersion correction             ... done (  0.1 sec)
Dispersion correction           -0.013710425
FINAL SINGLE POINT ENERGY      -383.167748942599
Dispersion correction             ... done (  0.1 sec)
Dispersion correction           -0.013712742
FINAL SINGLE POINT ENERGY      -383.167785920552
Dispersion correction             ... done (  0.0 sec)
Dispersion correction           -0.013713116
FINAL SINGLE POINT ENERGY      -383.167794401488
Dispersion correction             ... done (  0.1 sec)
                    ***********************HURRAY********************

CARTESIAN COORDINATES (ANGSTROEM)
---------------------------------
  C      0.867928   -1.421642   -0.000793
  C      2.092301   -0.721813    0.000546
  C      2.165334    0.678760   -0.000190
  C      1.026045    1.444296   -0.001128
  C     -0.220667    0.769648   -0.001458
  C     -0.242038   -0.643703   -0.002284
  O     -1.547436   -1.083038   -0.002444
  C     -2.302143    0.000147   -0.000084
  C     -1.547991    1.178043    0.000272
  H     -1.951870    2.177782    0.002920
  H     -3.371470   -0.149845    0.002345
  H      1.064078    2.525173   -0.001662
  H      3.137223    1.152647    0.000598
  H      3.010041   -1.295630    0.003204
  H      0.829727   -2.501865    0.000230

 Multiplicity           Mult            ....    2
 Number of Electrons    NEL             ....   61
 Basis Dimension        Dim             ....  552

ORBITAL ENERGIES
----------------
                 SPIN UP ORBITALS
  NO   OCC          E(Eh)            E(eV)
   0   1.0000     -19.338516      -526.2278
   1   1.0000     -10.364434      -282.0306
   2   1.0000     -10.337159      -281.2884
   3   1.0000     -10.294261      -280.1211
   4   1.0000     -10.292066      -280.0614
   5   1.0000     -10.290626      -280.0222
   6   1.0000     -10.283724      -279.8343
   7   1.0000     -10.278176      -279.6834
   8   1.0000     -10.260056      -279.1903
   9   1.0000      -1.214942       -33.0602
  10   1.0000      -0.940137       -25.5824
  11   1.0000      -0.884693       -24.0737
  12   1.0000      -0.828671       -22.5493
  13   1.0000      -0.802909       -21.8483
  14   1.0000      -0.706078       -19.2134
  15   1.0000      -0.669515       -18.2184
  16   1.0000      -0.653758       -17.7897
  17   1.0000      -0.585276       -15.9262
  18   1.0000      -0.560314       -15.2469
  19   1.0000      -0.544103       -14.8058
  20   1.0000      -0.535241       -14.5646
  21   1.0000      -0.495497       -13.4832
  22   1.0000      -0.484409       -13.1814
  23   1.0000      -0.470638       -12.8067
  24   1.0000      -0.446040       -12.1374
  25   1.0000      -0.425060       -11.5665
  26   1.0000      -0.414681       -11.2840
  27   1.0000      -0.395839       -10.7713
  28   1.0000      -0.368592       -10.0299
  29   1.0000      -0.306980        -8.3533
  30   1.0000      -0.289266        -7.8713
  31   0.0000      -0.082585        -2.2473
  32   0.0000      -0.033325        -0.9068
  33   0.0000      -0.005177        -0.1409
  34   0.0000      -0.000162        -0.0044
  35   0.0000       0.011315         0.3079

                 SPIN DOWN ORBITALS
  NO   OCC          E(Eh)            E(eV)
   0   1.0000     -19.337874      -526.2103
   1   1.0000     -10.358834      -281.8782
   2   1.0000     -10.335502      -281.2433
   3   1.0000     -10.292099      -280.0623
   4   1.0000     -10.291422      -280.0438
   5   1.0000     -10.285730      -279.8890
   6   1.0000     -10.280301      -279.7412
   7   1.0000     -10.278603      -279.6950
   8   1.0000     -10.261859      -279.2394
   9   1.0000      -1.211223       -32.9590
  10   1.0000      -0.934740       -25.4356
  11   1.0000      -0.875919       -23.8350
  12   1.0000      -0.825428       -22.4610
  13   1.0000      -0.789150       -21.4739
  14   1.0000      -0.701640       -19.0926
  15   1.0000      -0.663660       -18.0591
  16   1.0000      -0.648849       -17.6561
  17   1.0000      -0.582576       -15.8527
  18   1.0000      -0.556118       -15.1327
  19   1.0000      -0.532808       -14.4985
  20   1.0000      -0.527415       -14.3517
  21   1.0000      -0.494038       -13.4434
  22   1.0000      -0.481585       -13.1046
  23   1.0000      -0.468563       -12.7503
  24   1.0000      -0.442988       -12.0543
  25   1.0000      -0.413007       -11.2385
  26   1.0000      -0.407635       -11.0923
  27   1.0000      -0.394320       -10.7300
  28   1.0000      -0.339698        -9.2437
  29   1.0000      -0.301231        -8.1969
  30   0.0000      -0.198199        -5.3933
  31   0.0000      -0.050567        -1.3760
  32   0.0000      -0.020573        -0.5598
  33   0.0000       0.000828         0.0225
  34   0.0000       0.012339         0.3357

MULLIKEN ATOMIC CHARGES AND SPIN POPULATIONS
--------------------------------------------
   0 C :   -0.926867   -0.004815
   1 C :   -0.230248    0.280788
   2 C :   -0.645004   -0.094969
   3 C :   -0.583123    0.200310
   4 C :    0.942257    0.042024
   5 C :    0.363303    0.082892
   6 O :   -0.462851    0.005933
   7 C :   -0.357768    0.303377
   8 C :   -0.612174    0.195738
   9 H :    0.524472   -0.006714
  10 H :    0.672379    0.006869
  11 H :    0.287797   -0.013380
  12 H :    0.780834   -0.002064
  13 H :    0.483979   -0.001353
  14 H :    0.763014    0.005362
Sum of atomic charges         :    1.0000000

LOEWDIN ATOMIC CHARGES AND SPIN POPULATIONS
-------------------------------------------
   0 C :    0.302255    0.049108
   1 C :    0.278338    0.151228
   2 C :    0.255242    0.025238
   3 C :    0.298590    0.106104
   4 C :   -0.107800    0.080244
   5 C :   -0.329937    0.058354
   6 O :    0.677450    0.059210
   7 C :    0.102320    0.217440
   8 C :    0.343302    0.146511
   9 H :   -0.125289    0.019965
  10 H :   -0.122653    0.038044
  11 H :   -0.135654    0.022057
  12 H :   -0.157477   -0.009184
  13 H :   -0.140808    0.035504
  14 H :   -0.137879    0.000177

  Mayer bond orders larger than 0.100000
B(  0-C ,  1-C ) :   1.3145 B(  0-C ,  2-C ) :   0.3337 B(  0-C ,  4-C ) :   0.1887
B(  0-C ,  5-C ) :   1.2582 B(  0-C ,  6-O ) :   0.1206 B(  0-C , 13-H ) :   0.1386
B(  1-C ,  2-C ) :   1.3138 B(  1-C ,  3-C ) :  -0.3036 B(  1-C ,  5-C ) :  -0.6020
B(  1-C ,  8-C ) :   0.1262 B(  1-C , 12-H ) :   0.1605 B(  1-C , 13-H ) :   0.6212
B(  1-C , 14-H ) :   0.1494 B(  2-C ,  3-C ) :   1.3180 B(  2-C ,  5-C ) :   0.1745
B(  2-C ,  8-C ) :   0.1774 B(  3-C ,  4-C ) :   0.7691 B(  3-C ,  5-C ) :  -0.6098
B(  3-C ,  9-H ) :   0.1134 B(  3-C , 11-H ) :   1.1570 B(  3-C , 12-H ) :  -0.1257
B(  3-C , 14-H ) :   0.1130 B(  4-C ,  5-C ) :   1.2068 B(  4-C ,  7-C ) :  -0.3518
B(  4-C ,  8-C ) :   0.8143 B(  4-C , 13-H ) :  -0.1336 B(  5-C ,  6-O ) :   0.5074
B(  5-C ,  8-C ) :   0.2574 B(  5-C , 11-H ) :   0.1281 B(  5-C , 13-H ) :   0.1360
B(  6-O ,  7-C ) :   1.4279 B(  7-C ,  8-C ) :   1.1081 B(  7-C , 10-H ) :   0.4739
B(  8-C ,  9-H ) :   0.5957 B(  8-C , 11-H ) :  -0.1100

Dispersion correction           -0.013712895
FINAL SINGLE POINT ENERGY      -383.167796759443

DIPOLE MOMENT
-------------

Method             : SCF
Type of density    : Electron Density
Multiplicity       :   2
Irrep              :   0
Energy             :  -383.1540838646409384 Eh
Relativity type    :
Basis              : AO
                                X                 Y                 Z
Electronic contribution:     -2.999106049      -1.154364730      -0.007722832
Nuclear contribution   :      2.523599272       1.773554375       0.011564623
                        -----------------------------------------
Total Dipole Moment    :     -0.475506777       0.619189645       0.003841791
                        -----------------------------------------
Magnitude (a.u.)       :      0.780715871
Magnitude (Debye)      :      1.984422039

Rotational constants in cm-1:             0.130542             0.056399             0.039384
Rotational constants in MHz :          3913.563456          1690.808537          1180.701617

                             ****ORCA TERMINATED NORMALLY****
TOTAL RUN TIME: 0 days 0 hours 22 minutes 55 seconds 575 msec
