                         Program Version 6.0.0  -   RELEASE  -
|  1> !r2SCANh aug-cc-pVTZ d3 TightSCF SlowConv RIJCOSX defgrid2
|  2>
|  3> %pal
|  4> nprocs 15
|  5> end
|  6>
|  7> %scf
|  8> MaxIter 1500
|  9> end
| 10>
| 11> %maxcore 3500
| 12>
| 13> !CPCM
| 14> %cpcm smd true
| 15> SMDsolvent "WATER"
| 16> surfacetype gepol_ses
| 17> rsolv 1.40
| 18> end
| 19>
| 20> * xyz 1 1
| 21> O           1.69028117689558      3.37274922443931      1.11633962460164
| 22> N           2.64508834536190      2.69181678814397      1.22297469266331
| 23> C           3.79364432352713      2.91279474875315      0.25576222257425
| 24> C           4.41690502024746      1.55735729533319     -0.09476254953002
| 25> C           4.67733661079369      0.66452443423856      1.10383738520721
| 26> C           3.37045256120440      0.39731336490166      1.83970504256275
| 27> C           2.66799498342616      1.66587031114268      2.34113152200502
| 28> C           4.78664458888588      3.85507766004816      0.96313769772216
| 29> C           3.22421911588956      3.59522010625645     -0.98009687677033
| 30> C           3.40931008600286      2.31997828440322      3.52226317122572
| 31> C           1.22422162814495      1.38082655937204      2.72997366883812
| 32> H           5.34884078835654      1.75906997936546     -0.64631285848774
| 33> H           3.75796437018198      1.02598628901689     -0.80296027442862
| 34> H           5.40042447879038      1.13288543625525      1.79577627089786
| 35> H           3.53775872621371     -0.24608048611092      2.71808872702049
| 36> H           2.68001252116369     -0.14819003704925      1.17146867751790
| 37> H           4.27985954283953      4.75359746707821      1.35111103609992
| 38> H           5.34884375946348      3.37256256672533      1.77397975191263
| 39> H           5.50897207558620      4.17777907092180      0.19549951134991
| 40> H           2.86192360014995      4.61263606074173     -0.76851470910027
| 41> H           2.40394906868267      3.00772813007802     -1.42457373280581
| 42> H           4.03437736873618      3.66442610394421     -1.72341542384058
| 43> H           2.99610733981189      3.31548991868264      3.75198408999862
| 44> H           4.49382233017226      2.39980342242512      3.36909605423605
| 45> H           3.23745517084425      1.67163833982347      4.39703137060060
| 46> H           0.73408005868470      2.25325337031983      3.18793394277703
| 47> H           0.62783916292596      1.05008904763585      1.86346734061458
| 48> H           1.23475255281246      0.56405590576186      3.46909994981412
| 49> C           5.33166078892950     -0.63197308222401      0.65212318052779
| 50> O           5.67009393201701     -0.85879399844318     -0.47432905828358
| 51> O           5.48410818268575     -1.47484874010900      1.67290341721619
| 52> H           5.91800326157221     -2.28673051887174      1.34333539126303
| 53> *
| 54>
| 55>                          ****END OF INPUT****

CARTESIAN COORDINATES (ANGSTROEM)
---------------------------------
  O      1.690281    3.372749    1.116340
  N      2.645088    2.691817    1.222975
  C      3.793644    2.912795    0.255762
  C      4.416905    1.557357   -0.094763
  C      4.677337    0.664524    1.103837
  C      3.370453    0.397313    1.839705
  C      2.667995    1.665870    2.341132
  C      4.786645    3.855078    0.963138
  C      3.224219    3.595220   -0.980097
  C      3.409310    2.319978    3.522263
  C      1.224222    1.380827    2.729974
  H      5.348841    1.759070   -0.646313
  H      3.757964    1.025986   -0.802960
  H      5.400424    1.132885    1.795776
  H      3.537759   -0.246080    2.718089
  H      2.680013   -0.148190    1.171469
  H      4.279860    4.753597    1.351111
  H      5.348844    3.372563    1.773980
  H      5.508972    4.177779    0.195500
  H      2.861924    4.612636   -0.768515
  H      2.403949    3.007728   -1.424574
  H      4.034377    3.664426   -1.723415
  H      2.996107    3.315490    3.751984
  H      4.493822    2.399803    3.369096
  H      3.237455    1.671638    4.397031
  H      0.734080    2.253253    3.187934
  H      0.627839    1.050089    1.863467
  H      1.234753    0.564056    3.469100
  C      5.331661   -0.631973    0.652123
  O      5.670094   -0.858794   -0.474329
  O      5.484108   -1.474849    1.672903
  H      5.918003   -2.286731    1.343335

 Total Charge           Charge          ....    1
 Multiplicity           Mult            ....    1
 Number of Electrons    NEL             ....  108
 Basis Dimension        Dim             .... 1058

ORBITAL ENERGIES
----------------

  NO   OCC          E(Eh)            E(eV)
   0   2.0000     -19.252782      -523.8948
   1   2.0000     -19.174849      -521.7742
   2   2.0000     -19.123778      -520.3845
   3   2.0000     -14.544321      -395.7711
   4   2.0000     -10.304017      -280.3866
   5   2.0000     -10.255797      -279.0744
   6   2.0000     -10.254993      -279.0525
   7   2.0000     -10.193202      -277.3711
   8   2.0000     -10.184913      -277.1456
   9   2.0000     -10.180268      -277.0192
  10   2.0000     -10.174680      -276.8671
  11   2.0000     -10.174401      -276.8595
  12   2.0000     -10.163941      -276.5749
  13   2.0000     -10.163408      -276.5604
  14   2.0000      -1.275851       -34.7177
  15   2.0000      -1.129506       -30.7354
  16   2.0000      -1.042702       -28.3734
  17   2.0000      -0.928499       -25.2657
  18   2.0000      -0.862483       -23.4694
  19   2.0000      -0.820976       -22.3399
  20   2.0000      -0.756661       -20.5898
  21   2.0000      -0.716493       -19.4968
  22   2.0000      -0.707904       -19.2630
  23   2.0000      -0.704889       -19.1810
  24   2.0000      -0.677387       -18.4326
  25   2.0000      -0.650459       -17.6999
  26   2.0000      -0.599820       -16.3219
  27   2.0000      -0.583833       -15.8869
  28   2.0000      -0.552887       -15.0448
  29   2.0000      -0.527325       -14.3492
  30   2.0000      -0.525107       -14.2889
  31   2.0000      -0.505415       -13.7530
  32   2.0000      -0.498815       -13.5734
  33   2.0000      -0.472718       -12.8633
  34   2.0000      -0.457163       -12.4400
  35   2.0000      -0.447693       -12.1824
  36   2.0000      -0.441380       -12.0106
  37   2.0000      -0.433867       -11.8061
  38   2.0000      -0.420510       -11.4426
  39   2.0000      -0.413279       -11.2459
  40   2.0000      -0.411092       -11.1864
  41   2.0000      -0.400001       -10.8846
  42   2.0000      -0.389902       -10.6098
  43   2.0000      -0.383487       -10.4352
  44   2.0000      -0.376324       -10.2403
  45   2.0000      -0.372233       -10.1290
  46   2.0000      -0.363698        -9.8967
  47   2.0000      -0.356202        -9.6927
  48   2.0000      -0.350712        -9.5434
  49   2.0000      -0.348850        -9.4927
  50   2.0000      -0.337188        -9.1754
  51   2.0000      -0.331825        -9.0294
  52   2.0000      -0.315938        -8.5971
  53   2.0000      -0.287031        -7.8105
  54   0.0000      -0.179404        -4.8818
  55   0.0000      -0.021038        -0.5725
  56   0.0000       0.006918         0.1882
  57   0.0000       0.016500         0.4490
  58   0.0000       0.021786         0.5928

MULLIKEN ATOMIC CHARGES
-----------------------
   0 O :   -0.897942
   1 N :    0.841512
   2 C :    2.140117
   3 C :   -0.565997
   4 C :    1.036008
   5 C :   -0.920378
   6 C :    2.324187
   7 C :   -1.143694
   8 C :   -1.478397
   9 C :   -1.147329
  10 C :   -1.477902
  11 H :    0.489373
  12 H :    0.124043
  13 H :    0.085120
  14 H :    0.290689
  15 H :    0.257141
  16 H :    0.193281
  17 H :    0.275490
  18 H :    0.039448
  19 H :    0.161339
  20 H :    0.179563
  21 H :    0.152540
  22 H :    0.187849
  23 H :    0.245687
  24 H :    0.044056
  25 H :    0.169742
  26 H :    0.184348
  27 H :    0.130450
  28 C :    0.311271
  29 O :   -1.010280
  30 O :   -0.479596
  31 H :    0.258260
Sum of atomic charges:    1.0000000

LOEWDIN ATOMIC CHARGES
----------------------
   0 O :    0.652443
   1 N :    0.011517
   2 C :   -0.356238
   3 C :    0.302392
   4 C :   -0.020935
   5 C :    0.323766
   6 C :   -0.355923
   7 C :    0.644168
   8 C :    0.598026
   9 C :    0.643774
  10 C :    0.598356
  11 H :   -0.109721
  12 H :   -0.113220
  13 H :   -0.124601
  14 H :   -0.116334
  15 H :   -0.101857
  16 H :   -0.122413
  17 H :   -0.167542
  18 H :   -0.120645
  19 H :   -0.147073
  20 H :   -0.134758
  21 H :   -0.130216
  22 H :   -0.122183
  23 H :   -0.168020
  24 H :   -0.120092
  25 H :   -0.146708
  26 H :   -0.134424
  27 H :   -0.130145
  28 C :   -0.780807
  29 O :    0.478905
  30 O :    0.880459
  31 H :   -0.409949

  Mayer bond orders larger than 0.100000
B(  0-O ,  1-N ) :   0.8454 B(  0-O ,  2-C ) :  -0.1840 B(  0-O ,  6-C ) :  -0.2054
B(  0-O ,  8-C ) :   0.1500 B(  0-O , 10-C ) :   0.1555 B(  1-N ,  2-C ) :   0.7076
B(  1-N ,  3-C ) :   0.1966 B(  1-N ,  5-C ) :   0.1835 B(  1-N ,  6-C ) :   0.7318
B(  1-N ,  7-C ) :   0.1390 B(  1-N ,  8-C ) :  -0.1250 B(  1-N ,  9-C ) :   0.1428
B(  1-N , 10-C ) :  -0.1192 B(  2-C ,  3-C ) :   0.2465 B(  2-C ,  6-C ) :   0.3024
B(  2-C , 11-H ) :   0.1018 B(  2-C , 18-H ) :  -0.1272 B(  2-C , 20-H ) :  -0.1064
B(  3-C ,  4-C ) :   0.9166 B(  3-C ,  5-C ) :   0.2395 B(  3-C , 11-H ) :   0.5144
B(  3-C , 12-H ) :   1.0908 B(  3-C , 28-C ) :  -0.1468 B(  4-C ,  5-C ) :   0.9100
B(  4-C ,  6-C ) :   0.1570 B(  4-C , 13-H ) :   0.9489 B(  4-C , 28-C ) :  -0.2076
B(  4-C , 29-O ) :   0.1573 B(  4-C , 30-O ) :  -0.1453 B(  5-C ,  6-C ) :   0.2092
B(  5-C , 14-H ) :   0.6401 B(  5-C , 15-H ) :   0.9978 B(  5-C , 28-C ) :   0.3342
B(  6-C , 10-C ) :  -0.1124 B(  6-C , 24-H ) :  -0.1356 B(  6-C , 26-H ) :  -0.1102
B(  7-C ,  8-C ) :   0.1939 B(  7-C , 16-H ) :   1.0255 B(  7-C , 17-H ) :   0.9744
B(  7-C , 18-H ) :   1.2182 B(  8-C , 19-H ) :   1.0813 B(  8-C , 20-H ) :   1.1241
B(  8-C , 21-H ) :   1.0819 B(  9-C , 10-C ) :   0.2018 B(  9-C , 22-H ) :   1.0330
B(  9-C , 23-H ) :   1.0067 B(  9-C , 24-H ) :   1.2188 B( 10-C , 25-H ) :   1.0568
B( 10-C , 26-H ) :   1.1167 B( 10-C , 27-H ) :   1.1224 B( 13-H , 28-C ) :  -0.2146
B( 13-H , 29-O ) :  -0.1108 B( 28-C , 29-O ) :   1.1000 B( 28-C , 30-O ) :   0.9492
B( 30-O , 31-H ) :   0.9597

Dispersion correction           -0.012622690
FINAL SINGLE POINT ENERGY      -671.984282231699

DIPOLE MOMENT
-------------

Method             : SCF
Type of density    : Electron Density
Multiplicity       :   1
Irrep              :   0
Energy             :  -671.9716595414631684 Eh
Relativity type    :
Basis              : AO
                                X                 Y                 Z
Electronic contribution:      2.118324958      -6.933299843      -2.899539418
Nuclear contribution   :     -2.863841370       8.211044193       4.273231293
                        -----------------------------------------
Total Dipole Moment    :     -0.745516411       1.277744350       1.373691875
                        -----------------------------------------
Magnitude (a.u.)       :      2.018775547
Magnitude (Debye)      :      5.131319648

Rotational constants in cm-1:             0.032285             0.018393             0.014243
Rotational constants in MHz :           967.865978           551.414458           426.998453

                             ****ORCA TERMINATED NORMALLY****
TOTAL RUN TIME: 0 days 0 hours 9 minutes 16 seconds 680 msec
