                         Program Version 6.0.0  -   RELEASE  -
|  1> !r2SCANh aug-cc-pVTZ d3 TightSCF SlowConv RIJCOSX defgrid2
|  2>
|  3> %pal
|  4> nprocs 4
|  5> end
|  6>
|  7> %scf
|  8> MaxIter 1500
|  9> end
| 10>
| 11> %maxcore 3000
| 12>
| 13> !CPCM
| 14> %cpcm smd true
| 15> SMDsolvent "MeCN"
| 16> surfacetype gepol_ses
| 17> rsolv 2.19
| 18> end
| 19>
| 20> * xyz 0 1
| 21> C           0.89625463995169     -1.41558669005642      0.00000212581931
| 22> C           2.11505403593339     -0.74430991173074     -0.00000149555587
| 23> C           2.17542044953981      0.66118914619392      0.00000118790347
| 24> C           1.02073349490689      1.43411488081899      0.00000740816991
| 25> C          -0.21978579987357      0.78024255664200      0.00000882693723
| 26> C          -0.24734548849214     -0.62587635066739      0.00000530658827
| 27> O          -1.52601546021974     -1.07032389872869      0.00001342203642
| 28> C          -2.31826979056253      0.02952741578344      0.00002075604744
| 29> C          -1.60215379632981      1.18293934552638      0.00000260268759
| 30> H          -2.00251324968155      2.19537072670951     -0.00000431996804
| 31> H          -3.38877681335679     -0.16931307117016      0.00002936397660
| 32> H           1.07767380530056      2.52621447644394      0.00000712336235
| 33> H           3.15304280126425      1.15182904763925     -0.00000361572869
| 34> H           3.04441141911605     -1.32116718166862     -0.00000606251848
| 35> H           0.83131985250349     -2.50587419173540      0.00000217024247
| 36> *
| 37>
| 38>                          ****END OF INPUT****

CARTESIAN COORDINATES (ANGSTROEM)
---------------------------------
  C      0.896255   -1.415587    0.000002
  C      2.115054   -0.744310   -0.000001
  C      2.175420    0.661189    0.000001
  C      1.020733    1.434115    0.000007
  C     -0.219786    0.780243    0.000009
  C     -0.247345   -0.625876    0.000005
  O     -1.526015   -1.070324    0.000013
  C     -2.318270    0.029527    0.000021
  C     -1.602154    1.182939    0.000003
  H     -2.002513    2.195371   -0.000004
  H     -3.388777   -0.169313    0.000029
  H      1.077674    2.526214    0.000007
  H      3.153043    1.151829   -0.000004
  H      3.044411   -1.321167   -0.000006
  H      0.831320   -2.505874    0.000002

 Total Charge           Charge          ....    0
 Multiplicity           Mult            ....    1
 Number of Electrons    NEL             ....   62
 Basis Dimension        Dim             ....  552

ORBITAL ENERGIES
----------------

  NO   OCC          E(Eh)            E(eV)
   0   2.0000     -19.190410      -522.1976
   1   2.0000     -10.216370      -278.0016
   2   2.0000     -10.215473      -277.9772
   3   2.0000     -10.170500      -276.7534
   4   2.0000     -10.166774      -276.6520
   5   2.0000     -10.165099      -276.6064
   6   2.0000     -10.163170      -276.5539
   7   2.0000     -10.160599      -276.4840
   8   2.0000     -10.159774      -276.4615
   9   2.0000      -1.127944       -30.6929
  10   2.0000      -0.860994       -23.4288
  11   2.0000      -0.801827       -21.8188
  12   2.0000      -0.751526       -20.4501
  13   2.0000      -0.729547       -19.8520
  14   2.0000      -0.631487       -17.1836
  15   2.0000      -0.596734       -16.2379
  16   2.0000      -0.579231       -15.7617
  17   2.0000      -0.513731       -13.9793
  18   2.0000      -0.487372       -13.2621
  19   2.0000      -0.469314       -12.7707
  20   2.0000      -0.461257       -12.5514
  21   2.0000      -0.428606       -11.6630
  22   2.0000      -0.413593       -11.2544
  23   2.0000      -0.396697       -10.7947
  24   2.0000      -0.378585       -10.3018
  25   2.0000      -0.354443        -9.6449
  26   2.0000      -0.353458        -9.6181
  27   2.0000      -0.327208        -8.9038
  28   2.0000      -0.295761        -8.0481
  29   2.0000      -0.241929        -6.5832
  30   2.0000      -0.223082        -6.0704
  31   0.0000      -0.041197        -1.1210
  32   0.0000      -0.010886        -0.2962
  33   0.0000       0.011556         0.3145
  34   0.0000       0.023758         0.6465
  35   0.0000       0.027054         0.7362

MULLIKEN ATOMIC CHARGES
-----------------------
   0 C :   -1.075971
   1 C :   -0.178569
   2 C :   -0.536276
   3 C :   -0.648924
   4 C :    1.143844
   5 C :    0.346653
   6 O :   -0.508998
   7 C :   -0.541886
   8 C :   -0.689851
   9 H :    0.403517
  10 H :    0.630753
  11 H :    0.072076
  12 H :    0.613381
  13 H :    0.367781
  14 H :    0.602472
Sum of atomic charges:    0.0000000

LOEWDIN ATOMIC CHARGES
----------------------
   0 C :    0.220943
   1 C :    0.173812
   2 C :    0.175116
   3 C :    0.213454
   4 C :   -0.170671
   5 C :   -0.406528
   6 O :    0.612372
   7 C :   -0.017573
   8 C :    0.224098
   9 H :   -0.168939
  10 H :   -0.170824
  11 H :   -0.165676
  12 H :   -0.177905
  13 H :   -0.176029
  14 H :   -0.165652

  Mayer bond orders larger than 0.100000
B(  0-C ,  1-C ) :   1.2450 B(  0-C ,  2-C ) :   0.4503 B(  0-C ,  4-C ) :   0.1240
B(  0-C ,  5-C ) :   1.1632 B(  1-C ,  2-C ) :   1.0174 B(  1-C ,  3-C ) :  -0.4489
B(  1-C ,  5-C ) :  -0.6945 B(  1-C ,  7-C ) :   0.1013 B(  1-C , 12-H ) :   0.1556
B(  1-C , 13-H ) :   0.7832 B(  1-C , 14-H ) :   0.1803 B(  2-C ,  3-C ) :   0.9844
B(  2-C ,  5-C ) :   0.1288 B(  2-C ,  8-C ) :   0.2200 B(  2-C , 12-H ) :   0.3088
B(  2-C , 13-H ) :  -0.1434 B(  3-C ,  4-C ) :   0.7394 B(  3-C ,  5-C ) :  -0.7899
B(  3-C ,  8-C ) :   0.1148 B(  3-C ,  9-H ) :   0.1736 B(  3-C , 11-H ) :   1.4379
B(  3-C , 14-H ) :   0.1303 B(  4-C ,  5-C ) :   1.1817 B(  4-C ,  6-O ) :  -0.1307
B(  4-C ,  7-C ) :  -0.3029 B(  4-C ,  8-C ) :   0.4064 B(  4-C , 11-H ) :  -0.1903
B(  4-C , 13-H ) :  -0.1412 B(  5-C ,  6-O ) :   0.5427 B(  5-C ,  8-C ) :   0.2691
B(  5-C , 11-H ) :   0.2240 B(  5-C , 13-H ) :   0.1671 B(  6-O ,  7-C ) :   1.2086
B(  7-C ,  8-C ) :   1.1279 B(  7-C , 10-H ) :   0.4657 B(  8-C ,  9-H ) :   0.8243

Dispersion correction           -0.004775083
FINAL SINGLE POINT ENERGY      -383.593786976463

DIPOLE MOMENT
-------------

Method             : SCF
Type of density    : Electron Density
Multiplicity       :   1
Irrep              :   0
Energy             :  -383.5890118933077702 Eh
Relativity type    :
Basis              : AO
                                X                 Y                 Z
Electronic contribution:     -2.729605775      -1.420227978       0.000420456
Nuclear contribution   :      2.516077808       1.725635815      -0.000014921
                        -----------------------------------------
Total Dipole Moment    :     -0.213527967       0.305407837       0.000405535
                        -----------------------------------------
Magnitude (a.u.)       :      0.372650378
Magnitude (Debye)      :      0.947201985

Rotational constants in cm-1:             0.131103             0.055537             0.039011
Rotational constants in MHz :          3930.375234          1664.953413          1169.527667

                             ****ORCA TERMINATED NORMALLY****
TOTAL RUN TIME: 0 days 0 hours 4 minutes 9 seconds 438 msec
