                         Program Version 6.0.0  -   RELEASE  -
|  1> !r2SCANh aug-cc-pVTZ d3 TightSCF SlowConv RIJCOSX defgrid2
|  2>
|  3> %pal
|  4> nprocs 4
|  5> end
|  6>
|  7> %scf
|  8> MaxIter 1500
|  9> end
| 10>
| 11> %maxcore 3000
| 12>
| 13> !CPCM
| 14> %cpcm smd true
| 15> SMDsolvent "MeCN"
| 16> surfacetype gepol_ses
| 17> rsolv 2.19
| 18> end
| 19>
| 20> * xyz 0 1
| 21> C           1.70794904224376      1.04467574002160     -0.00082115823630
| 22> C           0.54506091843343      1.80041636987342      0.00092727542514
| 23> C          -0.71995737134675      1.20789382518015      0.00266725175734
| 24> C          -0.79928034034382     -0.18958869725345      0.00203404950996
| 25> C           0.36555187029785     -0.96292788679972     -0.00127682462626
| 26> C           1.62853570763603     -0.36210788791669     -0.00033727635058
| 27> N           2.77536570496609     -1.13072452733301      0.04605337906448
| 28> H           2.68782736481958     -2.09774939602609     -0.24334837672475
| 29> H           3.63153622370525     -0.68698285577236     -0.26446400959356
| 30> H           0.26012985099536     -2.05117646749275      0.00119199205899
| 31> O          -1.95887797909201     -0.88292631196206      0.00111465750073
| 32> C          -3.16473217214371     -0.17733625608172      0.00517658162857
| 33> H          -3.96763161416444     -0.93012200833219      0.00565020749220
| 34> H          -3.27146637162925      0.46046835612956     -0.89370073464759
| 35> H          -3.26716187551626      0.45698983325543      0.90693586054833
| 36> H          -1.61360225529630      1.83287965977611      0.00353042246975
| 37> H           0.61871381842504      2.89254399544489      0.00007743154790
| 38> H           2.68668417801016      1.53365321528886      0.00373907117562
| 39> *
| 40>
| 41>                          ****END OF INPUT****

CARTESIAN COORDINATES (ANGSTROEM)
---------------------------------
  C      1.707949    1.044676   -0.000821
  C      0.545061    1.800416    0.000927
  C     -0.719957    1.207894    0.002667
  C     -0.799280   -0.189589    0.002034
  C      0.365552   -0.962928   -0.001277
  C      1.628536   -0.362108   -0.000337
  N      2.775366   -1.130725    0.046053
  H      2.687827   -2.097749   -0.243348
  H      3.631536   -0.686983   -0.264464
  H      0.260130   -2.051176    0.001192
  O     -1.958878   -0.882926    0.001115
  C     -3.164732   -0.177336    0.005177
  H     -3.967632   -0.930122    0.005650
  H     -3.271466    0.460468   -0.893701
  H     -3.267162    0.456990    0.906936
  H     -1.613602    1.832880    0.003530
  H      0.618714    2.892544    0.000077
  H      2.686684    1.533653    0.003739

 Total Charge           Charge          ....    0
 Multiplicity           Mult            ....    1
 Number of Electrons    NEL             ....   66
 Basis Dimension        Dim             ....  621

ORBITAL ENERGIES
----------------

  NO   OCC          E(Eh)            E(eV)
   0   2.0000     -19.149515      -521.0848
   1   2.0000     -14.304575      -389.2473
   2   2.0000     -10.218811      -278.0680
   3   2.0000     -10.201781      -277.6046
   4   2.0000     -10.196534      -277.4618
   5   2.0000     -10.159899      -276.4649
   6   2.0000     -10.145442      -276.0715
   7   2.0000     -10.145438      -276.0714
   8   2.0000     -10.145362      -276.0693
   9   2.0000      -1.078345       -29.3432
  10   2.0000      -0.918779       -25.0012
  11   2.0000      -0.834804       -22.7162
  12   2.0000      -0.753410       -20.5013
  13   2.0000      -0.722900       -19.6711
  14   2.0000      -0.684710       -18.6319
  15   2.0000      -0.604450       -16.4479
  16   2.0000      -0.581999       -15.8370
  17   2.0000      -0.526794       -14.3348
  18   2.0000      -0.504310       -13.7230
  19   2.0000      -0.472927       -12.8690
  20   2.0000      -0.457482       -12.4487
  21   2.0000      -0.455888       -12.4053
  22   2.0000      -0.447175       -12.1682
  23   2.0000      -0.407161       -11.0794
  24   2.0000      -0.391340       -10.6489
  25   2.0000      -0.382692       -10.4136
  26   2.0000      -0.355685        -9.6787
  27   2.0000      -0.347667        -9.4605
  28   2.0000      -0.331829        -9.0295
  29   2.0000      -0.312325        -8.4988
  30   2.0000      -0.292053        -7.9472
  31   2.0000      -0.221541        -6.0284
  32   2.0000      -0.200497        -5.4558
  33   0.0000      -0.017553        -0.4776
  34   0.0000       0.003049         0.0830
  35   0.0000       0.009072         0.2469
  36   0.0000       0.021263         0.5786
  37   0.0000       0.025169         0.6849

MULLIKEN ATOMIC CHARGES
-----------------------
   0 C :   -0.886251
   1 C :   -0.352484
   2 C :   -0.484547
   3 C :    1.195332
   4 C :   -1.278516
   5 C :    1.277522
   6 N :   -0.632722
   7 H :    0.045179
   8 H :    0.046473
   9 H :    0.381098
  10 O :   -0.639656
  11 C :   -0.676322
  12 H :    0.250656
  13 H :    0.254782
  14 H :    0.257079
  15 H :    0.417853
  16 H :    0.383461
  17 H :    0.441063
Sum of atomic charges:   -0.0000000

LOEWDIN ATOMIC CHARGES
----------------------
   0 C :    0.192871
   1 C :    0.156641
   2 C :    0.179674
   3 C :   -0.425637
   4 C :    0.208652
   5 C :   -0.284082
   6 N :    0.855299
   7 H :   -0.283681
   8 H :   -0.284438
   9 H :   -0.173063
  10 O :    0.586747
  11 C :    0.315841
  12 H :   -0.170363
  13 H :   -0.162279
  14 H :   -0.162286
  15 H :   -0.201838
  16 H :   -0.172082
  17 H :   -0.175975

  Mayer bond orders larger than 0.100000
B(  0-C ,  1-C ) :   1.0555 B(  0-C ,  2-C ) :   0.4505 B(  0-C ,  3-C ) :  -0.2907
B(  0-C ,  4-C ) :   0.6847 B(  0-C ,  5-C ) :   0.4365 B(  0-C ,  6-N ) :  -0.1114
B(  0-C , 15-H ) :  -0.1070 B(  0-C , 17-H ) :   0.4689 B(  1-C ,  2-C ) :   0.7218
B(  1-C ,  3-C ) :  -0.2630 B(  1-C ,  4-C ) :  -0.2621 B(  1-C ,  5-C ) :  -0.1969
B(  1-C ,  9-H ) :   0.1039 B(  1-C , 15-H ) :   0.1082 B(  1-C , 16-H ) :   0.7373
B(  2-C ,  3-C ) :   0.7047 B(  2-C ,  4-C ) :   0.6273 B(  2-C ,  5-C ) :  -0.2638
B(  2-C ,  9-H ) :  -0.1150 B(  2-C , 10-O ) :  -0.1797 B(  2-C , 11-C ) :  -0.1114
B(  2-C , 15-H ) :   0.5092 B(  3-C ,  4-C ) :   0.2459 B(  3-C , 10-O ) :   0.3805
B(  4-C ,  5-C ) :   0.4094 B(  4-C ,  9-H ) :   0.4474 B(  4-C , 10-O ) :   0.2712
B(  5-C ,  6-N ) :   0.4961 B(  5-C ,  9-H ) :   0.1762 B(  5-C , 15-H ) :   0.1129
B(  5-C , 17-H ) :   0.1149 B(  6-N ,  7-H ) :   1.1056 B(  6-N ,  8-H ) :   1.1107
B( 10-O , 11-C ) :   1.0280 B( 11-C , 12-H ) :   0.9616 B( 11-C , 13-H ) :   0.9255
B( 11-C , 14-H ) :   0.9244 B( 11-C , 15-H ) :  -0.1156

Dispersion correction           -0.005363017
FINAL SINGLE POINT ENERGY      -402.053066742888

DIPOLE MOMENT
-------------

Method             : SCF
Type of density    : Electron Density
Multiplicity       :   1
Irrep              :   0
Energy             :  -402.0477037262095905 Eh
Relativity type    :
Basis              : AO
                                X                 Y                 Z
Electronic contribution:      2.282840151      -1.352336359       0.031425294
Nuclear contribution   :     -2.112843888       1.316658506      -0.469607068
                        -----------------------------------------
Total Dipole Moment    :      0.169996263      -0.035677853      -0.438181774
                        -----------------------------------------
Magnitude (a.u.)       :      0.471354331
Magnitude (Debye)      :      1.198087497

Rotational constants in cm-1:             0.120502             0.037824             0.028965
Rotational constants in MHz :          3612.547947          1133.927652           868.354096

                             ****ORCA TERMINATED NORMALLY****
TOTAL RUN TIME: 0 days 0 hours 5 minutes 52 seconds 52 msec
