                         Program Version 6.0.0  -   RELEASE  -
|  1> !TPSSh aug-cc-pVTZ d3 TightSCF SlowConv RIJCOSX defgrid2
|  2>
|  3> %pal
|  4> nprocs 4
|  5> end
|  6>
|  7> %scf
|  8> MaxIter 1500
|  9> end
| 10>
| 11> %maxcore 3000
| 12>
| 13> !CPCM
| 14> %cpcm smd true
| 15> SMDsolvent "MeCN"
| 16> surfacetype gepol_ses
| 17> rsolv 2.19
| 18> end
| 19>
| 20> * xyz 1 2
| 21> C          -0.67908643386725      1.23607676469241      0.05037688455432
| 22> C           0.69063537473082      1.22239505984825      0.03433122006490
| 23> C           1.41935940969442      0.00089697821530      0.02361032838992
| 24> C           2.90264582314279      0.00023187234458     -0.03154544602423
| 25> H           3.33275857806013      0.90982454248379      0.41704425889491
| 26> H           3.23040482362577     -0.02388819542517     -1.09174805024851
| 27> H           3.33188322628672     -0.89033444842890      0.45524306190015
| 28> C           0.69116135048355     -1.22128045675289      0.03322526814773
| 29> C          -0.67837863172589     -1.23584655805266      0.04927182441236
| 30> C          -1.40125371058004     -0.00006366269893      0.05776120704274
| 31> N          -2.73211521344069     -0.00040267889955      0.07439012831924
| 32> H          -3.26281790606968     -0.86988933466929      0.08068697932374
| 33> H          -3.26324263121073      0.86881860998728      0.08143282938743
| 34> H          -1.22754000431610     -2.18185307095538      0.05799598423108
| 35> H           1.24009901564024     -2.16715763912366      0.03003003714593
| 36> H           1.23900198016691      2.16857067789729      0.03198987167601
| 37> H          -1.22875875062097      2.18177673953752      0.05992551278228
| 38> *
| 39>
| 40>                          ****END OF INPUT****

CARTESIAN COORDINATES (ANGSTROEM)
---------------------------------
  C     -0.679086    1.236077    0.050377
  C      0.690635    1.222395    0.034331
  C      1.419359    0.000897    0.023610
  C      2.902646    0.000232   -0.031545
  H      3.332759    0.909825    0.417044
  H      3.230405   -0.023888   -1.091748
  H      3.331883   -0.890334    0.455243
  C      0.691161   -1.221280    0.033225
  C     -0.678379   -1.235847    0.049272
  C     -1.401254   -0.000064    0.057761
  N     -2.732115   -0.000403    0.074390
  H     -3.262818   -0.869889    0.080687
  H     -3.263243    0.868819    0.081433
  H     -1.227540   -2.181853    0.057996
  H      1.240099   -2.167158    0.030030
  H      1.239002    2.168571    0.031990
  H     -1.228759    2.181777    0.059926

 Total Charge           Charge          ....    1
 Multiplicity           Mult            ....    2
 Number of Electrons    NEL             ....   57
 Basis Dimension        Dim             ....  575

ORBITAL ENERGIES
----------------
                 SPIN UP ORBITALS
  NO   OCC          E(Eh)            E(eV)
   0   1.0000     -14.337545      -390.1444
   1   1.0000     -10.214538      -277.9517
   2   1.0000     -10.174356      -276.8583
   3   1.0000     -10.157797      -276.4077
   4   1.0000     -10.157713      -276.4054
   5   1.0000     -10.147518      -276.1280
   6   1.0000     -10.147484      -276.1271
   7   1.0000     -10.123094      -275.4634
   8   1.0000      -0.971150       -26.4263
   9   1.0000      -0.863902       -23.5080
  10   1.0000      -0.774071       -21.0635
  11   1.0000      -0.766317       -20.8525
  12   1.0000      -0.684457       -18.6250
  13   1.0000      -0.633074       -17.2268
  14   1.0000      -0.606382       -16.5005
  15   1.0000      -0.548456       -14.9242
  16   1.0000      -0.544283       -14.8107
  17   1.0000      -0.477613       -12.9965
  18   1.0000      -0.458097       -12.4654
  19   1.0000      -0.438486       -11.9318
  20   1.0000      -0.436158       -11.8684
  21   1.0000      -0.434708       -11.8290
  22   1.0000      -0.412897       -11.2355
  23   1.0000      -0.381060       -10.3692
  24   1.0000      -0.369618       -10.0578
  25   1.0000      -0.347134        -9.4460
  26   1.0000      -0.339767        -9.2455
  27   1.0000      -0.285699        -7.7743
  28   1.0000      -0.239122        -6.5068
  29   0.0000      -0.054661        -1.4874
  30   0.0000      -0.053166        -1.4467
  31   0.0000      -0.007550        -0.2055
  32   0.0000       0.002088         0.0568
  33   0.0000       0.009633         0.2621

                 SPIN DOWN ORBITALS
  NO   OCC          E(Eh)            E(eV)
   0   1.0000     -14.329328      -389.9208
   1   1.0000     -10.213666      -277.9280
   2   1.0000     -10.168477      -276.6983
   3   1.0000     -10.154862      -276.3279
   4   1.0000     -10.154805      -276.3263
   5   1.0000     -10.148727      -276.1609
   6   1.0000     -10.148700      -276.1602
   7   1.0000     -10.123341      -275.4701
   8   1.0000      -0.958431       -26.0802
   9   1.0000      -0.856183       -23.2979
  10   1.0000      -0.764172       -20.7942
  11   1.0000      -0.763412       -20.7735
  12   1.0000      -0.681188       -18.5361
  13   1.0000      -0.629895       -17.1403
  14   1.0000      -0.600570       -16.3423
  15   1.0000      -0.546136       -14.8611
  16   1.0000      -0.540566       -14.7095
  17   1.0000      -0.473752       -12.8914
  18   1.0000      -0.455508       -12.3950
  19   1.0000      -0.435707       -11.8562
  20   1.0000      -0.434012       -11.8101
  21   1.0000      -0.417033       -11.3481
  22   1.0000      -0.393680       -10.7126
  23   1.0000      -0.380073       -10.3423
  24   1.0000      -0.367631       -10.0038
  25   1.0000      -0.345522        -9.4021
  26   1.0000      -0.314709        -8.5637
  27   1.0000      -0.277146        -7.5415
  28   0.0000      -0.177904        -4.8410
  29   0.0000      -0.042681        -1.1614
  30   0.0000      -0.028491        -0.7753
  31   0.0000      -0.006476        -0.1762
  32   0.0000       0.003245         0.0883

MULLIKEN ATOMIC CHARGES AND SPIN POPULATIONS
--------------------------------------------
   0 C :   -0.460947    0.162995
   1 C :   -0.524027   -0.098274
   2 C :    0.872392    0.424016
   3 C :   -0.200146   -0.050767
   4 H :    0.141503    0.003799
   5 H :    0.165014    0.036134
   6 H :    0.143235    0.005224
   7 C :   -0.535251   -0.096621
   8 C :   -0.464133    0.161305
   9 C :    0.907228    0.115419
  10 N :   -0.316530    0.337379
  11 H :    0.035773   -0.001205
  12 H :    0.034944   -0.001232
  13 H :    0.457148   -0.000133
  14 H :    0.141459    0.001290
  15 H :    0.140501    0.000783
  16 H :    0.461837   -0.000111
Sum of atomic charges         :    1.0000000

LOEWDIN ATOMIC CHARGES AND SPIN POPULATIONS
-------------------------------------------
   0 C :    0.282270    0.100137
   1 C :    0.260525    0.041180
   2 C :   -0.077268    0.176382
   3 C :    0.604603    0.058553
   4 H :   -0.151852    0.005018
   5 H :   -0.131754    0.018779
   6 H :   -0.150968    0.005628
   7 C :    0.260298    0.040931
   8 C :    0.282138    0.099315
   9 C :   -0.167080    0.129597
  10 N :    0.955489    0.239118
  11 H :   -0.197972    0.031859
  12 H :   -0.197981    0.031844
  13 H :   -0.139600    0.016246
  14 H :   -0.145443   -0.005497
  15 H :   -0.145861   -0.005503
  16 H :   -0.139544    0.016413

  Mayer bond orders larger than 0.100000
B(  0-C ,  1-C ) :   1.7387 B(  0-C ,  2-C ) :   0.1290 B(  0-C ,  8-C ) :   0.1797
B(  0-C ,  9-C ) :   0.9122 B(  0-C , 10-N ) :  -0.1434 B(  0-C , 15-H ) :   0.1235
B(  0-C , 16-H ) :   0.3583 B(  1-C ,  2-C ) :   0.6800 B(  1-C ,  9-C ) :  -0.2105
B(  1-C , 15-H ) :   0.9252 B(  2-C ,  3-C ) :   0.7980 B(  2-C ,  7-C ) :   0.6817
B(  2-C ,  8-C ) :   0.1283 B(  2-C ,  9-C ) :   0.1641 B(  3-C ,  4-H ) :   0.9386
B(  3-C ,  5-H ) :   0.9216 B(  3-C ,  6-H ) :   0.9387 B(  7-C ,  8-C ) :   1.7393
B(  7-C ,  9-C ) :  -0.2093 B(  7-C , 14-H ) :   0.9214 B(  8-C ,  9-C ) :   0.9143
B(  8-C , 10-N ) :  -0.1456 B(  8-C , 13-H ) :   0.3659 B(  8-C , 14-H ) :   0.1199
B(  9-C , 10-N ) :   0.8344 B(  9-C , 13-H ) :   0.1476 B(  9-C , 16-H ) :   0.1489
B( 10-N , 11-H ) :   1.1351 B( 10-N , 12-H ) :   1.1367

Dispersion correction           -0.019045374
FINAL SINGLE POINT ENERGY      -326.909669997029

DIPOLE MOMENT
-------------

Method             : SCF
Type of density    : Electron Density
Multiplicity       :   2
Irrep              :   0
Energy             :  -326.8906246233672164 Eh
Relativity type    :
Basis              : AO
                                X                 Y                 Z
Electronic contribution:     -5.134663968       0.002481422       0.158497868
Nuclear contribution   :      3.125767574      -0.005388112      -0.182011929
                        -----------------------------------------
Total Dipole Moment    :     -2.008896395      -0.002906690      -0.023514062
                        -----------------------------------------
Magnitude (a.u.)       :      2.009036108
Magnitude (Debye)      :      5.106563962

Rotational constants in cm-1:             0.174913             0.049835             0.039071
Rotational constants in MHz :          5243.747665          1494.011541          1171.305405

                             ****ORCA TERMINATED NORMALLY****
TOTAL RUN TIME: 0 days 0 hours 5 minutes 7 seconds 896 msec
