                         Program Version 6.0.0  -   RELEASE  -
|  1> !TPSSh freq aug-cc-pVTZ d3 TightSCF SlowConv RIJCOSX defgrid2
|  2>
|  3> %pal
|  4> nprocs 12
|  5> end
|  6>
|  7> %scf
|  8> MaxIter 1500
|  9> end
| 10>
| 11> %maxcore 5000
| 12>
| 13> !CPCM
| 14> %cpcm smd true
| 15> SMDsolvent "MeCN"
| 16> surfacetype gepol_ses
| 17> rsolv 2.19
| 18> end
| 19>
| 20> * xyz 0 1
| 21> C          -0.02744958182921      1.19355106101602     -0.00014124741637
| 22> C           1.36124015794911      1.22498311821136      0.00004504840793
| 23> C           2.03890433303069      0.01841784302505      0.00010975405474
| 24> C           1.39790499226504     -1.21108348484715      0.00043287665444
| 25> C           0.01258839868584     -1.22082910696463     -0.00004096662540
| 26> C          -0.71576586339348     -0.02471106030310     -0.00043012380804
| 27> C          -2.20363333170080     -0.08684599220373     -0.00106220843728
| 28> O          -2.78103884707939     -1.16839151306050     -0.00239513647295
| 29> C          -2.97877905421773      1.20477472951682     -0.00008002566146
| 30> H          -2.72833587354227      1.80280325565992      0.87992775910340
| 31> H          -2.73058596787355      1.80295090453082     -0.88072716372166
| 32> H          -4.04473465477549      0.98645024014715      0.00126782746467
| 33> H          -0.52394867023204     -2.16051778463673      0.00009881605157
| 34> H           1.97423804972714     -2.12671794689089      0.00087943805160
| 35> F           3.39503857016351      0.03846604058365     -0.00004927432192
| 36> H           1.90736403471490      2.15874387641321      0.00000076766808
| 37> H          -0.56863859189226      2.13004791980272      0.00043745900866
| 38> *
| 39>
| 40>                          ****END OF INPUT****

CARTESIAN COORDINATES (ANGSTROEM)
---------------------------------
  C     -0.027450    1.193551   -0.000141
  C      1.361240    1.224983    0.000045
  C      2.038904    0.018418    0.000110
  C      1.397905   -1.211083    0.000433
  C      0.012588   -1.220829   -0.000041
  C     -0.715766   -0.024711   -0.000430
  C     -2.203633   -0.086846   -0.001062
  O     -2.781039   -1.168392   -0.002395
  C     -2.978779    1.204775   -0.000080
  H     -2.728336    1.802803    0.879928
  H     -2.730586    1.802951   -0.880727
  H     -4.044735    0.986450    0.001268
  H     -0.523949   -2.160518    0.000099
  H      1.974238   -2.126718    0.000879
  F      3.395039    0.038466   -0.000049
  H      1.907364    2.158744    0.000001
  H     -0.568639    2.130048    0.000437

 Total Charge           Charge          ....    0
 Multiplicity           Mult            ....    1
 Number of Electrons    NEL             ....   72
 Basis Dimension        Dim             ....  621

ORBITAL ENERGIES
----------------

  NO   OCC          E(Eh)            E(eV)
   0   2.0000     -24.622109      -670.0016
   1   2.0000     -19.041675      -518.1503
   2   2.0000     -10.209660      -277.8190
   3   2.0000     -10.201192      -277.5886
   4   2.0000     -10.134244      -275.7668
   5   2.0000     -10.131324      -275.6873
   6   2.0000     -10.129080      -275.6263
   7   2.0000     -10.128607      -275.6134
   8   2.0000     -10.128591      -275.6130
   9   2.0000     -10.107141      -275.0293
  10   2.0000      -1.209065       -32.9003
  11   2.0000      -1.014584       -27.6082
  12   2.0000      -0.854537       -23.2531
  13   2.0000      -0.759041       -20.6546
  14   2.0000      -0.746967       -20.3260
  15   2.0000      -0.710404       -19.3311
  16   2.0000      -0.618606       -16.8331
  17   2.0000      -0.611180       -16.6310
  18   2.0000      -0.541386       -14.7319
  19   2.0000      -0.530768       -14.4429
  20   2.0000      -0.480662       -13.0795
  21   2.0000      -0.462770       -12.5926
  22   2.0000      -0.454813       -12.3761
  23   2.0000      -0.439297       -11.9539
  24   2.0000      -0.423962       -11.5366
  25   2.0000      -0.420335       -11.4379
  26   2.0000      -0.411727       -11.2037
  27   2.0000      -0.391578       -10.6554
  28   2.0000      -0.379579       -10.3289
  29   2.0000      -0.363256        -9.8847
  30   2.0000      -0.360224        -9.8022
  31   2.0000      -0.337999        -9.1974
  32   2.0000      -0.333074        -9.0634
  33   2.0000      -0.262043        -7.1305
  34   2.0000      -0.248750        -6.7688
  35   2.0000      -0.238047        -6.4776
  36   0.0000      -0.074357        -2.0233
  37   0.0000      -0.036873        -1.0034
  38   0.0000      -0.003500        -0.0952
  39   0.0000       0.009381         0.2553
  40   0.0000       0.013865         0.3773

MULLIKEN ATOMIC CHARGES
-----------------------
   0 C :   -0.282851
   1 C :   -0.655935
   2 C :    0.578864
   3 C :   -0.485247
   4 C :   -0.552351
   5 C :    0.978020
   6 C :    0.836834
   7 O :   -1.005555
   8 C :   -0.210900
   9 H :    0.190797
  10 H :    0.191474
  11 H :   -0.033942
  12 H :    0.157209
  13 H :    0.313080
  14 F :   -0.526771
  15 H :    0.276857
  16 H :    0.230415
Sum of atomic charges:   -0.0000000

LOEWDIN ATOMIC CHARGES
----------------------
   0 C :    0.208618
   1 C :    0.215555
   2 C :   -0.522191
   3 C :    0.210863
   4 C :    0.196798
   5 C :   -0.131042
   6 C :   -0.539449
   7 O :    0.477957
   8 C :    0.575465
   9 H :   -0.164140
  10 H :   -0.163932
  11 H :   -0.181168
  12 H :   -0.187420
  13 H :   -0.172228
  14 F :    0.528277
  15 H :   -0.171300
  16 H :   -0.180662

  Mayer bond orders larger than 0.100000
B(  0-C ,  1-C ) :   1.1676 B(  0-C ,  2-C ) :  -0.1591 B(  0-C ,  4-C ) :  -0.1733
B(  0-C ,  5-C ) :   0.7523 B(  0-C , 16-H ) :   0.8958 B(  1-C ,  2-C ) :   1.4269
B(  1-C ,  3-C ) :   0.2513 B(  1-C , 14-F ) :   0.2154 B(  1-C , 15-H ) :   0.6247
B(  2-C ,  3-C ) :   1.4182 B(  2-C ,  4-C ) :  -0.2311 B(  2-C , 14-F ) :   0.1312
B(  3-C ,  4-C ) :   1.4686 B(  3-C ,  5-C ) :  -0.1409 B(  3-C , 13-H ) :   0.5859
B(  3-C , 14-F ) :   0.2155 B(  4-C ,  5-C ) :   0.6401 B(  4-C ,  6-C ) :   0.1180
B(  4-C , 12-H ) :   0.8526 B(  5-C ,  6-C ) :   0.5290 B(  5-C ,  7-O ) :   0.2313
B(  6-C ,  7-O ) :   0.4912 B(  6-C ,  8-C ) :   1.0576 B(  7-O , 12-H ) :   0.1624
B(  8-C ,  9-H ) :   0.9379 B(  8-C , 10-H ) :   0.9375 B(  8-C , 11-H ) :   1.0348
B( 13-H , 14-F ) :   0.1613 B( 14-F , 15-H ) :   0.1492

Dispersion correction           -0.020514191
FINAL SINGLE POINT ENERGY      -484.362444544705

DIPOLE MOMENT
-------------

Method             : SCF
Type of density    : Electron Density
Multiplicity       :   1
Irrep              :   0
Energy             :  -484.3419303539919269 Eh
Relativity type    :
Basis              : AO
                                X                 Y                 Z
Electronic contribution:      9.803275646      -2.922485645      -0.001592056
Nuclear contribution   :     -9.479903878       4.262595808       0.003881751
                        -----------------------------------------
Total Dipole Moment    :      0.323371769       1.340110162       0.002289695
                        -----------------------------------------
Magnitude (a.u.)       :      1.378575276
Magnitude (Debye)      :      3.504059878

VIBRATIONAL FREQUENCIES
-----------------------

Scaling factor for frequencies =  1.000000000  (already applied!)

     0:       0.00 cm**-1
     1:       0.00 cm**-1
     2:       0.00 cm**-1
     3:       0.00 cm**-1
     4:       0.00 cm**-1
     5:       0.00 cm**-1
     6:      45.19 cm**-1
     7:     102.20 cm**-1
     8:     132.74 cm**-1
     9:     186.61 cm**-1
    10:     287.17 cm**-1
    11:     330.95 cm**-1
    12:     389.04 cm**-1
    13:     418.03 cm**-1
    14:     459.62 cm**-1
    15:     493.07 cm**-1
    16:     561.15 cm**-1
    17:     588.96 cm**-1
    18:     630.67 cm**-1
    19:     681.53 cm**-1
    20:     731.98 cm**-1
    21:     822.62 cm**-1
    22:     831.55 cm**-1
    23:     851.03 cm**-1
    24:     958.25 cm**-1
    25:     970.93 cm**-1
    26:     992.69 cm**-1
    27:    1021.26 cm**-1
    28:    1037.53 cm**-1
    29:    1087.42 cm**-1
    30:    1109.19 cm**-1
    31:    1159.42 cm**-1
    32:    1219.51 cm**-1
    33:    1276.37 cm**-1
    34:    1312.87 cm**-1
    35:    1357.58 cm**-1
    36:    1377.30 cm**-1
    37:    1430.90 cm**-1
    38:    1454.69 cm**-1
    39:    1461.93 cm**-1
    40:    1524.85 cm**-1
    41:    1619.42 cm**-1
    42:    1626.70 cm**-1
    43:    1695.30 cm**-1
    44:    3032.40 cm**-1
    45:    3090.93 cm**-1
    46:    3137.89 cm**-1
    47:    3190.21 cm**-1
    48:    3192.11 cm**-1
    49:    3202.88 cm**-1
    50:    3205.19 cm**-1

IR SPECTRUM
-----------

 Mode   freq       eps      Int      T**2         TX        TY        TZ
       cm**-1   L/(mol*cm) km/mol    a.u.
----------------------------------------------------------------------------
  6:     45.19   0.001156    5.84  0.007986  ( 0.000675  0.000565 -0.089362)
  7:    102.20   0.000454    2.30  0.001388  ( 0.000214 -0.000247  0.037251)
  8:    132.74   0.000022    0.11  0.000052  ( 0.000541  0.000032  0.007199)
  9:    186.61   0.001799    9.09  0.003009  ( 0.051548 -0.018749  0.000128)
 10:    287.17   0.000140    0.71  0.000152  ( 0.000230  0.000111  0.012311)
 11:    330.95   0.000585    2.96  0.000551  ( 0.012344  0.019974  0.000182)
 12:    389.04   0.001331    6.73  0.001068  (-0.009109 -0.031378 -0.000008)
 13:    418.03   0.000002    0.01  0.000002  (-0.000033  0.000189  0.001284)
 14:    459.62   0.000731    3.69  0.000496  (-0.021586  0.005505  0.000193)
 15:    493.07   0.002913   14.72  0.001844  (-0.000045  0.000024 -0.042936)
 16:    561.15   0.014302   72.28  0.007953  (-0.086923  0.019945 -0.000046)
 17:    588.96   0.005151   26.03  0.002729  (-0.000057 -0.000065  0.052243)
 18:    630.67   0.000073    0.37  0.000036  (-0.000405  0.006007 -0.000135)
 19:    681.53   0.000472    2.39  0.000216  ( 0.011542  0.009114  0.000101)
 20:    731.98   0.000070    0.35  0.000030  (-0.000283 -0.000012  0.005460)
 21:    822.62   0.001099    5.55  0.000417  ( 0.000499 -0.000318 -0.020410)
 22:    831.55   0.009696   49.00  0.003639  (-0.060237 -0.003029  0.001021)
 23:    851.03   0.022414  113.27  0.008219  ( 0.000398  0.000139  0.090657)
 24:    958.25   0.016073   81.23  0.005234  (-0.068577  0.023053 -0.000173)
 25:    970.93   0.000061    0.31  0.000020  ( 0.002963 -0.000637  0.003233)
 26:    992.69   0.000053    0.27  0.000017  (-0.000283 -0.000554  0.004031)
 27:   1021.26   0.003295   16.65  0.001007  (-0.031568  0.003210  0.000216)
 28:   1037.53   0.000516    2.61  0.000155  ( 0.000364 -0.000210  0.012447)
 29:   1087.42   0.000288    1.46  0.000083  ( 0.002805  0.008654  0.000100)
 30:   1109.19   0.004350   21.98  0.001224  ( 0.003710 -0.034785 -0.000101)
 31:   1159.42   0.028895  146.02  0.007777  (-0.088187  0.000512 -0.000166)
 32:   1219.51   0.037882  191.44  0.009694  (-0.098327 -0.005063  0.000026)
 33:   1276.37   0.071301  360.32  0.017432  (-0.130821  0.017841 -0.000028)
 34:   1312.87   0.002988   15.10  0.000710  (-0.021863  0.015242  0.000050)
 35:   1357.58   0.003678   18.59  0.000845  ( 0.011044  0.026898  0.000073)
 36:   1377.30   0.015707   79.38  0.003559  ( 0.043319 -0.041015 -0.000246)
 37:   1430.90   0.008451   42.71  0.001843  ( 0.039276 -0.017332 -0.000028)
 38:   1454.69   0.007523   38.02  0.001614  ( 0.027586  0.029201 -0.000367)
 39:   1461.93   0.002819   14.25  0.000602  ( 0.000400 -0.000024  0.024528)
 40:   1524.85   0.010619   53.67  0.002173  (-0.046429 -0.004190 -0.000017)
 41:   1619.42   0.058049  293.36  0.011186  ( 0.105087  0.011949  0.000011)
 42:   1626.70   0.007101   35.88  0.001362  (-0.029758 -0.021831  0.000070)
 43:   1695.30   0.072332  365.54  0.013315  (-0.063467 -0.096367 -0.000174)
 44:   3032.40   0.000286    1.44  0.000029  (-0.001289 -0.005268  0.000069)
 45:   3090.93   0.001678    8.48  0.000169  (-0.000027 -0.000157 -0.013014)
 46:   3137.89   0.005695   28.78  0.000566  (-0.023674 -0.002435 -0.000063)
 47:   3190.21   0.000376    1.90  0.000037  (-0.005628 -0.002253 -0.000080)
 48:   3192.11   0.000793    4.01  0.000078  ( 0.006553 -0.005883  0.000062)
 49:   3202.88   0.001269    6.41  0.000124  ( 0.008169 -0.007541 -0.000025)
 50:   3205.19   0.000707    3.57  0.000069  ( 0.007104  0.004283 -0.000053)

--------------------------
THERMOCHEMISTRY AT 298.15K
--------------------------

Temperature         ...   298.15 K
Pressure            ...     1.00 atm
Total Mass          ...   138.14 AMU
Quasi RRHO          ...     True
Cut-Off Frequency   ...     1.00 cm^-1

Throughout the following assumptions are being made:
  (1) The electronic state is orbitally nondegenerate
  (2) There are no thermally accessible electronically excited states
  (3) Hindered rotations indicated by low frequency modes are not
      treated as such but are treated as vibrations and this may
      cause some error
  (4) All equations used are the standard statistical mechanics
      equations for an ideal gas
  (5) All vibrations are strictly harmonic

freq.      45.19  E(vib)   ...       0.53
freq.     102.20  E(vib)   ...       0.46
freq.     132.74  E(vib)   ...       0.42
freq.     186.61  E(vib)   ...       0.37
freq.     287.17  E(vib)   ...       0.27
freq.     330.95  E(vib)   ...       0.24
freq.     389.04  E(vib)   ...       0.20
freq.     418.03  E(vib)   ...       0.18
freq.     459.62  E(vib)   ...       0.16
freq.     493.07  E(vib)   ...       0.14
freq.     561.15  E(vib)   ...       0.11
freq.     588.96  E(vib)   ...       0.10
freq.     630.67  E(vib)   ...       0.09
freq.     681.53  E(vib)   ...       0.08
freq.     731.98  E(vib)   ...       0.06
freq.     822.62  E(vib)   ...       0.05
freq.     831.55  E(vib)   ...       0.04
freq.     851.03  E(vib)   ...       0.04
freq.     958.25  E(vib)   ...       0.03
freq.     970.93  E(vib)   ...       0.03
freq.     992.69  E(vib)   ...       0.02
freq.    1021.26  E(vib)   ...       0.02
freq.    1037.53  E(vib)   ...       0.02
freq.    1087.42  E(vib)   ...       0.02
freq.    1109.19  E(vib)   ...       0.02
freq.    1159.42  E(vib)   ...       0.01
freq.    1219.51  E(vib)   ...       0.01
freq.    1276.37  E(vib)   ...       0.01
freq.    1312.87  E(vib)   ...       0.01
freq.    1357.58  E(vib)   ...       0.01
freq.    1377.30  E(vib)   ...       0.01
freq.    1430.90  E(vib)   ...       0.00
freq.    1454.69  E(vib)   ...       0.00
freq.    1461.93  E(vib)   ...       0.00
freq.    1524.85  E(vib)   ...       0.00
freq.    1619.42  E(vib)   ...       0.00
freq.    1626.70  E(vib)   ...       0.00
freq.    1695.30  E(vib)   ...       0.00
freq.    3032.40  E(vib)   ...       0.00
freq.    3090.93  E(vib)   ...       0.00
freq.    3137.89  E(vib)   ...       0.00
freq.    3190.21  E(vib)   ...       0.00
freq.    3192.11  E(vib)   ...       0.00
freq.    3202.88  E(vib)   ...       0.00
freq.    3205.19  E(vib)   ...       0.00

------------
INNER ENERGY
------------

The inner energy is: U= E(el) + E(ZPE) + E(vib) + E(rot) + E(trans)
    E(el)   - is the total energy from the electronic structure calculation
              = E(kin-el) + E(nuc-el) + E(el-el) + E(nuc-nuc)
    E(ZPE)  - the the zero temperature vibrational energy from the frequency calculation
    E(vib)  - the the finite temperature correction to E(ZPE) due to population
              of excited vibrational states
    E(rot)  - is the rotational thermal energy
    E(trans)- is the translational thermal energy

Summary of contributions to the inner energy U:
Electronic energy                ...   -484.36244454 Eh
Zero point energy                ...      0.12823769 Eh      80.47 kcal/mol
Thermal vibrational correction   ...      0.00601274 Eh       3.77 kcal/mol
Thermal rotational correction    ...      0.00141627 Eh       0.89 kcal/mol
Thermal translational correction ...      0.00141627 Eh       0.89 kcal/mol
-----------------------------------------------------------------------
Total thermal energy                   -484.22536157 Eh

Summary of corrections to the electronic energy:
(perhaps to be used in another calculation)
Total thermal correction                  0.00884529 Eh       5.55 kcal/mol
Non-thermal (ZPE) correction              0.12823769 Eh      80.47 kcal/mol
-----------------------------------------------------------------------
Total correction                          0.13708297 Eh      86.02 kcal/mol

--------
ENTHALPY
--------

The enthalpy is H = U + kB*T
                kB is Boltzmann's constant
Total thermal energy              ...   -484.22536157 Eh
Thermal Enthalpy correction       ...      0.00094421 Eh       0.59 kcal/mol
-----------------------------------------------------------------------
Total Enthalpy                    ...   -484.22441737 Eh

Note: Only C1 symmetry has been detected, increase convergence thresholds
      if your molecule has a higher symmetry. Symmetry factor of 1.0 is
      used for the rotational entropy correction.

Note: Rotational entropy computed according to Herzberg
Infrared and Raman Spectra, Chapter V,1, Van Nostrand Reinhold, 1945
Point Group:  C1, Symmetry Number:   1
Rotational constants in cm-1:     0.122434     0.025907     0.021467

Vibrational entropy computed according to the QRRHO of S. Grimme
Chem.Eur.J. 2012 18 9955 using a reference frequency of 100.0 cm-1

-------
ENTROPY
-------

The entropy contributions are T*S = T*(S(el)+S(vib)+S(rot)+S(trans))
     S(el)   - electronic entropy
     S(vib)  - vibrational entropy
     S(rot)  - rotational entropy
     S(trans)- translational entropy
The entropies will be listed as multiplied by the temperature to get
units of energy

Electronic entropy                ...      0.00000000 Eh      0.00 kcal/mol
Vibrational entropy               ...      0.01017765 Eh      6.39 kcal/mol
Rotational entropy                ...      0.01404036 Eh      8.81 kcal/mol
Translational entropy             ...      0.01932885 Eh     12.13 kcal/mol
-----------------------------------------------------------------------
Final entropy term                ...      0.04354685 Eh     27.33 kcal/mol

In case the symmetry of your molecule has not been determined correctly
or in case you have a reason to use a different symmetry number we print
out the resulting rotational entropy values for sn=1,12:

 non-linear molecules -----------------------------------
|  sn= 1 | S(rot)=       0.01404036 Eh      8.81 kcal/mol|
|  sn= 2 | S(rot)=       0.01338590 Eh      8.40 kcal/mol|
|  sn= 3 | S(rot)=       0.01300307 Eh      8.16 kcal/mol|
|  sn= 4 | S(rot)=       0.01273145 Eh      7.99 kcal/mol|
|  sn= 5 | S(rot)=       0.01252076 Eh      7.86 kcal/mol|
|  sn= 6 | S(rot)=       0.01234862 Eh      7.75 kcal/mol|
|  sn= 7 | S(rot)=       0.01220307 Eh      7.66 kcal/mol|
|  sn= 8 | S(rot)=       0.01207699 Eh      7.58 kcal/mol|
|  sn= 9 | S(rot)=       0.01196578 Eh      7.51 kcal/mol|
|  sn=10 | S(rot)=       0.01186630 Eh      7.45 kcal/mol|
|  sn=11 | S(rot)=       0.01177631 Eh      7.39 kcal/mol|
|  sn=12 | S(rot)=       0.01169416 Eh      7.34 kcal/mol|
 linear molecules ---------------------------------------
|  Dinfh | S(rot)=       0.00895262 Eh      5.62 kcal/mol|
|  Cinfv | S(rot)=       0.00960708 Eh      6.03 kcal/mol|

                             ****ORCA TERMINATED NORMALLY****
TOTAL RUN TIME: 0 days 0 hours 35 minutes 55 seconds 73 msec
