                         Program Version 6.0.0  -   RELEASE  -
|  1> !TPSSh opt aug-cc-pVTZ d3 TightSCF SlowConv RIJCOSX defgrid2
|  2>
|  3> %pal
|  4> nprocs 8
|  5> end
|  6>
|  7> %scf
|  8> MaxIter 1500
|  9> end
| 10>
| 11> %maxcore 3500
| 12>
| 13> !CPCM
| 14> %cpcm smd true
| 15> SMDsolvent "MeCN"
| 16> surfacetype gepol_ses
| 17> rsolv 2.19
| 18> end
| 19>
| 20> * xyz 1 2
| 21> C           1.38821397253669     -0.85710928094571      0.60741622632202
| 22> C           2.66653568645174     -1.38554775804107      0.62328529651635
| 23> C           3.74096697508373     -0.66019599701418      0.08285810563013
| 24> C           3.54023898785237      0.62233127623213     -0.45460571699329
| 25> C           2.27463505486006      1.17691753163962     -0.46404721541233
| 26> C           1.19493732351435      0.42049377974261      0.03782457404784
| 27> O          -0.00001161826735      1.03053434324458     -0.00007618077340
| 28> C          -1.19494650110222      0.42046263969238     -0.03791233087995
| 29> C          -2.27466316694698      1.17692889833622      0.46385316504035
| 30> C          -3.54025869091077      0.62232307991007      0.45446120210222
| 31> C          -3.74095306617908     -0.66026678297616     -0.08285951221376
| 32> C          -2.66650374430337     -1.38566766681220     -0.62318898600472
| 33> C          -1.38818943489976     -0.85721178830951     -0.60735323061330
| 34> H          -0.55743963132106     -1.38478510741341     -1.08197323083020
| 35> H          -2.84302940822415     -2.36075586477487     -1.08456370453300
| 36> H          -4.74708768097790     -1.08795510804427     -0.10418715284565
| 37> H          -4.38474494788350      1.18417342168211      0.86161853827017
| 38> H          -2.07820409834794      2.17105532289927      0.87220985478457
| 39> H           2.07815534201669      2.17098917949467     -0.87253031915770
| 40> H           4.38471105702739      1.18414197451138     -0.86184555829131
| 41> H           4.74710919235526     -1.08786907382573      0.10421696325696
| 42> H           2.84307759651065     -2.36058562840449      1.08475174308550
| 43> H           0.55748160115515     -1.38464569082344      1.08211306949251
| 44> *
| 45>
| 46>                          ****END OF INPUT****
 Total Charge           Charge          ....    1
 Multiplicity           Mult            ....    2
 Number of Electrons    NEL             ....   89
Dispersion correction           -0.031305940
FINAL SINGLE POINT ENERGY      -538.567084930278
Dispersion correction             ... done (  0.1 sec)
Dispersion correction           -0.031498359
FINAL SINGLE POINT ENERGY      -538.568362890482
Dispersion correction             ... done (  0.1 sec)
Dispersion correction           -0.031402443
FINAL SINGLE POINT ENERGY      -538.568118161383
Dispersion correction             ... done (  0.1 sec)
FINAL SINGLE POINT ENERGY      -538.568481505582
Dispersion correction             ... done (  0.1 sec)
Dispersion correction           -0.031505631
FINAL SINGLE POINT ENERGY      -538.568508630832
Dispersion correction             ... done (  0.1 sec)
Dispersion correction           -0.031527468
FINAL SINGLE POINT ENERGY      -538.568514414776
Dispersion correction             ... done (  0.1 sec)
                    ***********************HURRAY********************

CARTESIAN COORDINATES (ANGSTROEM)
---------------------------------
  C      1.350669   -0.820621    0.618776
  C      2.612152   -1.378767    0.633822
  C      3.697223   -0.687449    0.082036
  C      3.525996    0.589855   -0.471236
  C      2.278551    1.174414   -0.484758
  C      1.193702    0.448165    0.033069
  O      0.000039    1.093099   -0.000918
  C     -1.193654    0.448042   -0.033948
  C     -2.278248    1.174257    0.484385
  C     -3.525694    0.589613    0.471668
  C     -3.697250   -0.687662   -0.081519
  C     -2.612441   -1.379002   -0.633765
  C     -1.350961   -0.820819   -0.619313
  H     -0.514787   -1.314258   -1.094120
  H     -2.765209   -2.343492   -1.098811
  H     -4.682809   -1.133736   -0.104589
  H     -4.372987    1.117657    0.887640
  H     -2.105933    2.155352    0.905589
  H      2.106395    2.155482   -0.906081
  H      4.373541    1.117974   -0.886588
  H      4.682757   -1.133548    0.105558
  H      2.764767   -2.343219    1.099004
  H      0.514214   -1.313582    1.093564

 Multiplicity           Mult            ....    2
 Number of Electrons    NEL             ....   89
 Basis Dimension        Dim             ....  828

ORBITAL ENERGIES
----------------
                 SPIN UP ORBITALS
  NO   OCC          E(Eh)            E(eV)
   0   1.0000     -19.182783      -521.9901
   1   1.0000     -10.230371      -278.3826
   2   1.0000     -10.230323      -278.3813
   3   1.0000     -10.157846      -276.4090
   4   1.0000     -10.157820      -276.4083
   5   1.0000     -10.156076      -276.3609
   6   1.0000     -10.156029      -276.3596
   7   1.0000     -10.153797      -276.2989
   8   1.0000     -10.153772      -276.2982
   9   1.0000     -10.146637      -276.1040
  10   1.0000     -10.146617      -276.1035
  11   1.0000     -10.146611      -276.1033
  12   1.0000     -10.146581      -276.1025
  13   1.0000      -1.140531       -31.0354
  14   1.0000      -0.884481       -24.0679
  15   1.0000      -0.866875       -23.5889
  16   1.0000      -0.790688       -21.5157
  17   1.0000      -0.771699       -20.9990
  18   1.0000      -0.764376       -20.7997
  19   1.0000      -0.741875       -20.1874
  20   1.0000      -0.665506       -18.1093
  21   1.0000      -0.638567       -17.3763
  22   1.0000      -0.619269       -16.8512
  23   1.0000      -0.595585       -16.2067
  24   1.0000      -0.565560       -15.3897
  25   1.0000      -0.524140       -14.2626
  26   1.0000      -0.503690       -13.7061
  27   1.0000      -0.503648       -13.7050
  28   1.0000      -0.497784       -13.5454
  29   1.0000      -0.456252       -12.4153
  30   1.0000      -0.456010       -12.4087
  31   1.0000      -0.441468       -12.0130
  32   1.0000      -0.441103       -12.0030
  33   1.0000      -0.430637       -11.7182
  34   1.0000      -0.423366       -11.5204
  35   1.0000      -0.392185       -10.6719
  36   1.0000      -0.381062       -10.3692
  37   1.0000      -0.375559       -10.2195
  38   1.0000      -0.371538       -10.1101
  39   1.0000      -0.354411        -9.6440
  40   1.0000      -0.352477        -9.5914
  41   1.0000      -0.287693        -7.8285
  42   1.0000      -0.283787        -7.7222
  43   1.0000      -0.279680        -7.6105
  44   1.0000      -0.255210        -6.9446
  45   0.0000      -0.069932        -1.9030
  46   0.0000      -0.057486        -1.5643
  47   0.0000      -0.050651        -1.3783
  48   0.0000      -0.044158        -1.2016
  49   0.0000      -0.008036        -0.2187

                 SPIN DOWN ORBITALS
  NO   OCC          E(Eh)            E(eV)
   0   1.0000     -19.175585      -521.7942
   1   1.0000     -10.229220      -278.3512
   2   1.0000     -10.229175      -278.3500
   3   1.0000     -10.156122      -276.3621
   4   1.0000     -10.156098      -276.3615
   5   1.0000     -10.152746      -276.2703
   6   1.0000     -10.152706      -276.2692
   7   1.0000     -10.152358      -276.2597
   8   1.0000     -10.152336      -276.2591
   9   1.0000     -10.147383      -276.1243
  10   1.0000     -10.147353      -276.1235
  11   1.0000     -10.147256      -276.1209
  12   1.0000     -10.147234      -276.1203
  13   1.0000      -1.128936       -30.7199
  14   1.0000      -0.880186       -23.9511
  15   1.0000      -0.862557       -23.4714
  16   1.0000      -0.786259       -21.3952
  17   1.0000      -0.769603       -20.9420
  18   1.0000      -0.762345       -20.7445
  19   1.0000      -0.734079       -19.9753
  20   1.0000      -0.661075       -17.9888
  21   1.0000      -0.636715       -17.3259
  22   1.0000      -0.616177       -16.7670
  23   1.0000      -0.592540       -16.1238
  24   1.0000      -0.563573       -15.3356
  25   1.0000      -0.521891       -14.2014
  26   1.0000      -0.501168       -13.6375
  27   1.0000      -0.499102       -13.5813
  28   1.0000      -0.483696       -13.1620
  29   1.0000      -0.454344       -12.3633
  30   1.0000      -0.451858       -12.2957
  31   1.0000      -0.439928       -11.9710
  32   1.0000      -0.439359       -11.9556
  33   1.0000      -0.424638       -11.5550
  34   1.0000      -0.417701       -11.3662
  35   1.0000      -0.383191       -10.4272
  36   1.0000      -0.379873       -10.3369
  37   1.0000      -0.370861       -10.0916
  38   1.0000      -0.364438        -9.9169
  39   1.0000      -0.350134        -9.5276
  40   1.0000      -0.347034        -9.4433
  41   1.0000      -0.280383        -7.6296
  42   1.0000      -0.275394        -7.4939
  43   1.0000      -0.266190        -7.2434
  44   0.0000      -0.210954        -5.7403
  45   0.0000      -0.057725        -1.5708
  46   0.0000      -0.050559        -1.3758
  47   0.0000      -0.042732        -1.1628
  48   0.0000      -0.028273        -0.7694

MULLIKEN ATOMIC CHARGES AND SPIN POPULATIONS
--------------------------------------------
   0 C :   -0.355338    0.097832
   1 C :   -0.519917   -0.056161
   2 C :   -0.380991    0.219287
   3 C :   -0.272397   -0.044165
   4 C :   -0.826465    0.067460
   5 C :    1.223672    0.118534
   6 O :   -0.800556    0.223313
   7 C :    1.217806    0.118158
   8 C :   -0.834899    0.067489
   9 C :   -0.267541   -0.043991
  10 C :   -0.379601    0.218891
  11 C :   -0.516926   -0.056083
  12 C :   -0.353331    0.098039
  13 H :    0.478855   -0.011791
  14 H :    0.379845    0.001685
  15 H :    0.480646    0.006238
  16 H :    0.341191   -0.000657
  17 H :    0.352569   -0.010082
  18 H :    0.353719   -0.009954
  19 H :    0.340305   -0.000585
  20 H :    0.482128    0.006420
  21 H :    0.378460    0.001517
  22 H :    0.478763   -0.011395
Sum of atomic charges         :    1.0000000

LOEWDIN ATOMIC CHARGES AND SPIN POPULATIONS
-------------------------------------------
   0 C :    0.247401    0.064460
   1 C :    0.252436    0.026090
   2 C :    0.258807    0.104288
   3 C :    0.244312    0.028268
   4 C :    0.258678    0.055148
   5 C :   -0.317848    0.089309
   6 O :    0.689600    0.189389
   7 C :   -0.317925    0.089146
   8 C :    0.258614    0.055042
   9 C :    0.244241    0.028225
  10 C :    0.258715    0.104079
  11 C :    0.252362    0.026024
  12 C :    0.247280    0.064359
  13 H :   -0.163123    0.010640
  14 H :   -0.157014   -0.002844
  15 H :   -0.155358    0.024142
  16 H :   -0.159155   -0.002176
  17 H :   -0.153702    0.008288
  18 H :   -0.153690    0.008304
  19 H :   -0.159142   -0.002184
  20 H :   -0.155332    0.024190
  21 H :   -0.157003   -0.002845
  22 H :   -0.163156    0.010658

  Mayer bond orders larger than 0.100000
B(  0-C ,  1-C ) :   1.5088 B(  0-C ,  2-C ) :   0.1475 B(  0-C ,  4-C ) :   0.1757
B(  0-C ,  5-C ) :   0.9082 B(  0-C , 12-C ) :   0.2363 B(  0-C , 22-H ) :   0.4930
B(  1-C ,  2-C ) :   1.4280 B(  1-C ,  5-C ) :  -0.2827 B(  1-C , 21-H ) :   0.7151
B(  2-C ,  3-C ) :   1.3278 B(  2-C ,  4-C ) :   0.3311 B(  2-C , 20-H ) :   0.4689
B(  3-C ,  4-C ) :   1.5971 B(  3-C ,  5-C ) :  -0.3430 B(  3-C , 19-H ) :   0.7420
B(  4-C ,  5-C ) :   0.5880 B(  4-C ,  6-O ) :   0.2752 B(  4-C , 18-H ) :   0.4374
B(  4-C , 19-H ) :   0.1041 B(  5-C ,  6-O ) :   0.5047 B(  5-C ,  7-C ) :   0.1158
B(  5-C , 18-H ) :   0.1174 B(  6-O ,  7-C ) :   0.5065 B(  6-O ,  8-C ) :   0.2760
B(  7-C ,  8-C ) :   0.5941 B(  7-C ,  9-C ) :  -0.3405 B(  7-C , 11-C ) :  -0.2836
B(  7-C , 12-C ) :   0.9096 B(  7-C , 17-H ) :   0.1170 B(  8-C ,  9-C ) :   1.5993
B(  8-C , 10-C ) :   0.3307 B(  8-C , 12-C ) :   0.1782 B(  8-C , 16-H ) :   0.1100
B(  8-C , 17-H ) :   0.4388 B(  9-C , 10-C ) :   1.3330 B(  9-C , 16-H ) :   0.7377
B( 10-C , 11-C ) :   1.4303 B( 10-C , 12-C ) :   0.1425 B( 10-C , 15-H ) :   0.4712
B( 11-C , 12-C ) :   1.5075 B( 11-C , 14-H ) :   0.7118 B( 12-C , 13-H ) :   0.4950

Dispersion correction           -0.031527374
FINAL SINGLE POINT ENERGY      -538.568514487019

DIPOLE MOMENT
-------------

Method             : SCF
Type of density    : Electron Density
Multiplicity       :   2
Irrep              :   0
Energy             :  -538.5369871128029899 Eh
Relativity type    :
Basis              : AO
                                X                 Y                 Z
Electronic contribution:      0.002927529       2.220791162      -0.001971415
Nuclear contribution   :     -0.000108344      -2.732966405       0.002344110
                        -----------------------------------------
Total Dipole Moment    :      0.002819185      -0.512175243       0.000372695
                        -----------------------------------------
Magnitude (a.u.)       :      0.512183137
Magnitude (Debye)      :      1.301866074

Rotational constants in cm-1:             0.081925             0.014794             0.013284
Rotational constants in MHz :          2456.038974           443.518498           398.253506

                             ****ORCA TERMINATED NORMALLY****
TOTAL RUN TIME: 0 days 1 hours 19 minutes 59 seconds 388 msec
