                         Program Version 6.0.0  -   RELEASE  -
|  1> !TPSSh opt aug-cc-pVTZ d3 TightSCF SlowConv RIJCOSX defgrid2
|  2>
|  3> %pal
|  4> nprocs 8
|  5> end
|  6>
|  7> %scf
|  8> MaxIter 1500
|  9> end
| 10>
| 11> %maxcore 3500
| 12>
| 13> !CPCM
| 14> %cpcm smd true
| 15> SMDsolvent "MeCN"
| 16> surfacetype gepol_ses
| 17> rsolv 2.19
| 18> end
| 19>
| 20> * xyz 1 2
| 21> C           2.44830417164420     -0.69527642473796      0.00000945881878
| 22> C           2.44832214826430      0.69521603339414      0.00001009734484
| 23> C           1.23352505326865      1.40025135317577      0.00000577718412
| 24> C           0.00001141556131      0.71453178803145      0.00000268426234
| 25> C          -1.23348320904465      1.40028329659239      0.00000107782236
| 26> C          -2.44830108548662      0.69527938835391      0.00000695148737
| 27> C          -2.44832067103510     -0.69521530453956      0.00000530486429
| 28> C          -1.23352061718470     -1.40025032772324     -0.00000393184308
| 29> C          -0.00000717114678     -0.71452684352053     -0.00000494703196
| 30> C           1.23348727294566     -1.40028215170085     -0.00000132918117
| 31> H           1.23935708532449     -2.49454817867840      0.00000050523970
| 32> H          -1.23942268133971     -2.49451730914708     -0.00000545360366
| 33> H          -3.39340211959580     -1.24489598698530      0.00000832828244
| 34> H          -3.39336678788360      1.24498332942293      0.00000859404642
| 35> H          -1.23935478912557      2.49455128204595      0.00000167009943
| 36> H           1.23942795953164      2.49451607920762      0.00000299068588
| 37> H           3.39340268697296      1.24489500413589      0.00001313139295
| 38> H           3.39337233832933     -1.24497302732713      0.00001569012894
| 39> *
| 40>
| 41>                          ****END OF INPUT****
 Total Charge           Charge          ....    1
 Multiplicity           Mult            ....    2
 Number of Electrons    NEL             ....   67
Dispersion correction           -0.024676401
FINAL SINGLE POINT ENERGY      -385.877524330645
Dispersion correction             ... done (  0.1 sec)
Dispersion correction           -0.024749588
FINAL SINGLE POINT ENERGY      -385.878318592357
Dispersion correction             ... done (  0.1 sec)
                    ***********************HURRAY********************

CARTESIAN COORDINATES (ANGSTROEM)
---------------------------------
  C      2.439490   -0.693545   -0.000098
  C      2.439508    0.693488   -0.000232
  C      1.229085    1.397790   -0.000238
  C      0.000011    0.712672    0.000006
  C     -1.229045    1.397820    0.000246
  C     -2.439484    0.693549    0.000250
  C     -2.439506   -0.693483    0.000118
  C     -1.229085   -1.397790    0.000123
  C     -0.000008   -0.712677   -0.000001
  C      1.229052   -1.397821   -0.000128
  H      1.233620   -2.480498   -0.000069
  H     -1.233680   -2.480468    0.000043
  H     -3.374005   -1.237914   -0.000348
  H     -3.373962    1.238011   -0.000128
  H     -1.233606    2.480498    0.000241
  H      1.233671    2.480471   -0.000247
  H      3.374003    1.237924    0.000148
  H      3.373972   -1.238002    0.000390

 Multiplicity           Mult            ....    2
 Number of Electrons    NEL             ....   67
 Basis Dimension        Dim             ....  644

ORBITAL ENERGIES
----------------
                 SPIN UP ORBITALS
  NO   OCC          E(Eh)            E(eV)
   0   1.0000     -10.172114      -276.7973
   1   1.0000     -10.172101      -276.7969
   2   1.0000     -10.172093      -276.7967
   3   1.0000     -10.172084      -276.7965
   4   1.0000     -10.160040      -276.4687
   5   1.0000     -10.159652      -276.4582
   6   1.0000     -10.157276      -276.3935
   7   1.0000     -10.157275      -276.3935
   8   1.0000     -10.156754      -276.3793
   9   1.0000     -10.156746      -276.3791
  10   1.0000      -0.898665       -24.4539
  11   1.0000      -0.844613       -22.9831
  12   1.0000      -0.798860       -21.7381
  13   1.0000      -0.762704       -20.7542
  14   1.0000      -0.740542       -20.1512
  15   1.0000      -0.650235       -17.6938
  16   1.0000      -0.628956       -17.1148
  17   1.0000      -0.616327       -16.7711
  18   1.0000      -0.531780       -14.4705
  19   1.0000      -0.527334       -14.3495
  20   1.0000      -0.510819       -13.9001
  21   1.0000      -0.464204       -12.6316
  22   1.0000      -0.459108       -12.4930
  23   1.0000      -0.435382       -11.8474
  24   1.0000      -0.434495       -11.8232
  25   1.0000      -0.423196       -11.5157
  26   1.0000      -0.410458       -11.1691
  27   1.0000      -0.388986       -10.5848
  28   1.0000      -0.361302        -9.8315
  29   1.0000      -0.354145        -9.6368
  30   1.0000      -0.349315        -9.5053
  31   1.0000      -0.325122        -8.8470
  32   1.0000      -0.277613        -7.5542
  33   1.0000      -0.257588        -7.0093
  34   0.0000      -0.109691        -2.9848
  35   0.0000      -0.060180        -1.6376
  36   0.0000      -0.038361        -1.0439
  37   0.0000      -0.006368        -0.1733
  38   0.0000       0.005510         0.1499

                 SPIN DOWN ORBITALS
  NO   OCC          E(Eh)            E(eV)
   0   1.0000     -10.168198      -276.6907
   1   1.0000     -10.168182      -276.6903
   2   1.0000     -10.168177      -276.6902
   3   1.0000     -10.168164      -276.6898
   4   1.0000     -10.161094      -276.4974
   5   1.0000     -10.160708      -276.4869
   6   1.0000     -10.156636      -276.3761
   7   1.0000     -10.156636      -276.3761
   8   1.0000     -10.156110      -276.3618
   9   1.0000     -10.156102      -276.3616
  10   1.0000      -0.894547       -24.3419
  11   1.0000      -0.838613       -22.8198
  12   1.0000      -0.790921       -21.5220
  13   1.0000      -0.762148       -20.7391
  14   1.0000      -0.729465       -19.8498
  15   1.0000      -0.645619       -17.5682
  16   1.0000      -0.625982       -17.0338
  17   1.0000      -0.612105       -16.6562
  18   1.0000      -0.529289       -14.4027
  19   1.0000      -0.523422       -14.2430
  20   1.0000      -0.509053       -13.8520
  21   1.0000      -0.462445       -12.5838
  22   1.0000      -0.458309       -12.4712
  23   1.0000      -0.433520       -11.7967
  24   1.0000      -0.432129       -11.7588
  25   1.0000      -0.410810       -11.1787
  26   1.0000      -0.408046       -11.1035
  27   1.0000      -0.388155       -10.5622
  28   1.0000      -0.352068        -9.5803
  29   1.0000      -0.348713        -9.4890
  30   1.0000      -0.343453        -9.3458
  31   1.0000      -0.299579        -8.1520
  32   1.0000      -0.275951        -7.5090
  33   0.0000      -0.207406        -5.6438
  34   0.0000      -0.084623        -2.3027
  35   0.0000      -0.053003        -1.4423
  36   0.0000      -0.021236        -0.5778
  37   0.0000      -0.005451        -0.1483

MULLIKEN ATOMIC CHARGES AND SPIN POPULATIONS
--------------------------------------------
   0 C :   -0.266344    0.027861
   1 C :   -0.264622    0.027842
   2 C :   -0.770840    0.267904
   3 C :    1.303773   -0.095502
   4 C :   -0.771431    0.267912
   5 C :   -0.265960    0.027851
   6 C :   -0.263855    0.027847
   7 C :   -0.770925    0.267901
   8 C :    1.304490   -0.095545
   9 C :   -0.771886    0.267913
  10 H :    0.021608    0.003595
  11 H :    0.018623    0.003620
  12 H :    0.614198   -0.001607
  13 H :    0.612520   -0.001595
  14 H :    0.024683    0.003601
  15 H :    0.017394    0.003607
  16 H :    0.617396   -0.001605
  17 H :    0.611178   -0.001600
Sum of atomic charges         :    1.0000000

LOEWDIN ATOMIC CHARGES AND SPIN POPULATIONS
-------------------------------------------
   0 C :    0.282582    0.072187
   1 C :    0.282585    0.072186
   2 C :    0.303240    0.130401
   3 C :   -0.088197    0.030655
   4 C :    0.303241    0.130400
   5 C :    0.282581    0.072187
   6 C :    0.282584    0.072187
   7 C :    0.303243    0.130401
   8 C :   -0.088190    0.030655
   9 C :    0.303244    0.130401
  10 H :   -0.139168    0.025122
  11 H :   -0.139168    0.025122
  12 H :   -0.152559    0.006963
  13 H :   -0.152563    0.006963
  14 H :   -0.139165    0.025121
  15 H :   -0.139166    0.025121
  16 H :   -0.152561    0.006963
  17 H :   -0.152561    0.006963

  Mayer bond orders larger than 0.100000
B(  0-C ,  1-C ) :   1.4083 B(  0-C ,  3-C ) :  -0.2109 B(  0-C ,  9-C ) :   1.3709
B(  0-C , 16-H ) :   0.1682 B(  0-C , 17-H ) :   0.2777 B(  1-C ,  2-C ) :   1.3682
B(  1-C ,  8-C ) :  -0.2167 B(  1-C , 16-H ) :   0.2669 B(  1-C , 17-H ) :   0.1708
B(  2-C ,  3-C ) :   0.3414 B(  2-C ,  4-C ) :   0.3055 B(  2-C ,  8-C ) :  -0.2563
B(  2-C ,  9-C ) :   0.1092 B(  2-C , 15-H ) :   1.1732 B(  2-C , 16-H ) :  -0.1178
B(  3-C ,  4-C ) :   0.3395 B(  3-C ,  6-C ) :  -0.2153 B(  3-C ,  7-C ) :  -0.2569
B(  3-C ,  8-C ) :   1.2052 B(  3-C ,  9-C ) :  -0.2535 B(  4-C ,  5-C ) :   1.3709
B(  4-C ,  7-C ) :   0.1081 B(  4-C ,  8-C ) :  -0.2541 B(  4-C , 13-H ) :  -0.1175
B(  4-C , 14-H ) :   1.1629 B(  5-C ,  6-C ) :   1.4067 B(  5-C ,  8-C ) :  -0.2131
B(  5-C , 12-H ) :   0.1690 B(  5-C , 13-H ) :   0.2746 B(  6-C ,  7-C ) :   1.3688
B(  6-C , 12-H ) :   0.2727 B(  6-C , 13-H ) :   0.1695 B(  7-C ,  8-C ) :   0.3425
B(  7-C ,  9-C ) :   0.3042 B(  7-C , 11-H ) :   1.1726 B(  7-C , 12-H ) :  -0.1186
B(  8-C ,  9-C ) :   0.3416 B(  9-C , 10-H ) :   1.1661 B(  9-C , 17-H ) :  -0.1171
B( 12-H , 13-H ) :   0.1210 B( 16-H , 17-H ) :   0.1219

Dispersion correction           -0.024756929
FINAL SINGLE POINT ENERGY      -385.878318542656

DIPOLE MOMENT
-------------

Method             : SCF
Type of density    : Electron Density
Multiplicity       :   2
Irrep              :   0
Energy             :  -385.8535616131808865 Eh
Relativity type    :
Basis              : AO
                                X                 Y                 Z
Electronic contribution:      0.000015502      -0.000032414       0.000003248
Nuclear contribution   :     -0.000001278       0.000016934      -0.000005473
                        -----------------------------------------
Total Dipole Moment    :      0.000014224      -0.000015480      -0.000002225
                        -----------------------------------------
Magnitude (a.u.)       :      0.000021140
Magnitude (Debye)      :      0.000053733

Rotational constants in cm-1:             0.105250             0.041063             0.029539
Rotational constants in MHz :          3155.329996          1231.047607           885.551090

                             ****ORCA TERMINATED NORMALLY****
TOTAL RUN TIME: 0 days 0 hours 16 minutes 28 seconds 648 msec
