                         Program Version 6.0.0  -   RELEASE  -
|  1> !r2SCAN opt aug-cc-pVTZ d3 TightSCF SlowConv RIJCOSX defgrid2
|  2>
|  3> %pal
|  4> nprocs 8
|  5> end
|  6>
|  7> %scf
|  8> MaxIter 1500
|  9> end
| 10>
| 11> %maxcore 3500
| 12>
| 13> !CPCM
| 14> %cpcm smd true
| 15> SMDsolvent "MeCN"
| 16> surfacetype gepol_ses
| 17> rsolv 2.19
| 18> end
| 19>
| 20> * xyz 0 1
| 21> C          -0.22997754219743     -1.20609091856311     -0.00046087004095
| 22> C           1.16128384069195     -1.20031253591911      0.00041394587123
| 23> C           1.87254503831811     -0.00003037040882      0.00072012391754
| 24> C           1.16131377140118      1.20026930808148      0.00041360790641
| 25> C          -0.22994707632405      1.20608173416170     -0.00046177829750
| 26> C          -0.95218511536342      0.00000427823419     -0.00003761551285
| 27> N          -2.33340895991450      0.00002157595282      0.04653779431621
| 28> H          -2.79855452143895      0.84821355690402     -0.25483389378867
| 29> H          -2.79857532928795     -0.84816111010491     -0.25482834496791
| 30> H          -0.77344381556999      2.15676174884881      0.00298430668171
| 31> H           1.69817818740019      2.15419904894576     -0.00079679497611
| 32> H           2.96571339060225     -0.00004426352233      0.00028554339021
| 33> H           1.69812535441562     -2.15425546581862     -0.00079688995407
| 34> H          -0.77349762273302     -2.15675758679187      0.00298456545474
| 35> *
| 36>
| 37>                          ****END OF INPUT****
 Total Charge           Charge          ....    0
 Multiplicity           Mult            ....    1
 Number of Electrons    NEL             ....   50
Dispersion correction           -0.003784103
FINAL SINGLE POINT ENERGY      -287.561045479680
Dispersion correction             ... done (  0.1 sec)
Dispersion correction           -0.003790058
FINAL SINGLE POINT ENERGY      -287.561454871063
Dispersion correction             ... done (  0.1 sec)
Dispersion correction           -0.003790664
FINAL SINGLE POINT ENERGY      -287.561470755197
Dispersion correction             ... done (  0.1 sec)
Dispersion correction           -0.003791714
FINAL SINGLE POINT ENERGY      -287.561488757913
Dispersion correction             ... done (  0.1 sec)
Dispersion correction           -0.003791538
FINAL SINGLE POINT ENERGY      -287.561490655205
Dispersion correction             ... done (  0.0 sec)
                    ***********************HURRAY********************

CARTESIAN COORDINATES (ANGSTROEM)
---------------------------------
  C     -0.230308   -1.206240    0.002587
  C      1.158113   -1.199439    0.000658
  C      1.867074   -0.000030    0.000806
  C      1.158142    1.199396    0.000657
  C     -0.230278    1.206230    0.002585
  C     -0.946797    0.000004    0.004636
  N     -2.330679    0.000021    0.069148
  H     -2.781561    0.837830   -0.266465
  H     -2.781582   -0.837775   -0.266468
  H     -0.773279    2.145704    0.001830
  H      1.690934    2.144021   -0.003693
  H      2.950239   -0.000044   -0.002298
  H      1.690882   -2.144078   -0.003692
  H     -0.773331   -2.145701    0.001832

 Multiplicity           Mult            ....    1
 Number of Electrons    NEL             ....   50
 Basis Dimension        Dim             ....  483

ORBITAL ENERGIES
----------------

  NO   OCC          E(Eh)            E(eV)
   0   2.0000     -14.163034      -385.3957
   1   2.0000     -10.077415      -274.2204
   2   2.0000     -10.035432      -273.0780
   3   2.0000     -10.035416      -273.0776
   4   2.0000     -10.029245      -272.9096
   5   2.0000     -10.029238      -272.9094
   6   2.0000     -10.025425      -272.8057
   7   2.0000      -0.883896       -24.0520
   8   2.0000      -0.802597       -21.8398
   9   2.0000      -0.710781       -19.3413
  10   2.0000      -0.690666       -18.7940
  11   2.0000      -0.576841       -15.6966
  12   2.0000      -0.563189       -15.3252
  13   2.0000      -0.489357       -13.3161
  14   2.0000      -0.469054       -12.7636
  15   2.0000      -0.441788       -12.0217
  16   2.0000      -0.395999       -10.7757
  17   2.0000      -0.390770       -10.6334
  18   2.0000      -0.381173       -10.3723
  19   2.0000      -0.361059        -9.8249
  20   2.0000      -0.322344        -8.7714
  21   2.0000      -0.303085        -8.2474
  22   2.0000      -0.290063        -7.8930
  23   2.0000      -0.236828        -6.4444
  24   2.0000      -0.188775        -5.1368
  25   0.0000      -0.034061        -0.9268
  26   0.0000      -0.017643        -0.4801
  27   0.0000       0.007790         0.2120
  28   0.0000       0.021708         0.5907
  29   0.0000       0.027041         0.7358

MULLIKEN ATOMIC CHARGES
-----------------------
   0 C :   -0.962139
   1 C :   -0.277435
   2 C :   -0.536242
   3 C :   -0.277452
   4 C :   -0.962118
   5 C :    1.337963
   6 N :   -0.578612
   7 H :    0.043650
   8 H :    0.043650
   9 H :    0.495582
  10 H :    0.328622
  11 H :    0.520327
  12 H :    0.328625
  13 H :    0.495577
Sum of atomic charges:    0.0000000

LOEWDIN ATOMIC CHARGES
----------------------
   0 C :    0.203552
   1 C :    0.165517
   2 C :    0.167402
   3 C :    0.165517
   4 C :    0.203552
   5 C :   -0.269355
   6 N :    0.862802
   7 H :   -0.291609
   8 H :   -0.291609
   9 H :   -0.178344
  10 H :   -0.183059
  11 H :   -0.192965
  12 H :   -0.183059
  13 H :   -0.178344

  Mayer bond orders larger than 0.100000
B(  0-C ,  1-C ) :   1.1082 B(  0-C ,  2-C ) :   0.3487 B(  0-C ,  3-C ) :  -0.1780
B(  0-C ,  4-C ) :   0.5851 B(  0-C ,  5-C ) :   0.5430 B(  0-C , 13-H ) :   0.2797
B(  1-C ,  2-C ) :   1.0216 B(  1-C ,  3-C ) :  -0.1400 B(  1-C ,  4-C ) :  -0.1780
B(  1-C ,  5-C ) :  -0.2343 B(  1-C , 12-H ) :   0.8562 B(  2-C ,  3-C ) :   1.0216
B(  2-C ,  4-C ) :   0.3487 B(  2-C ,  5-C ) :  -0.1280 B(  2-C , 11-H ) :   0.4797
B(  3-C ,  4-C ) :   1.1082 B(  3-C ,  5-C ) :  -0.2343 B(  3-C , 10-H ) :   0.8562
B(  4-C ,  5-C ) :   0.5430 B(  4-C ,  9-H ) :   0.2797 B(  5-C ,  6-N ) :   0.4578
B(  5-C ,  9-H ) :   0.1531 B(  5-C , 13-H ) :   0.1531 B(  6-N ,  7-H ) :   1.0830
B(  6-N ,  8-H ) :   1.0830

Dispersion correction           -0.003791368
FINAL SINGLE POINT ENERGY      -287.561490809918

DIPOLE MOMENT
-------------

Method             : SCF
Type of density    : Electron Density
Multiplicity       :   1
Irrep              :   0
Energy             :  -287.5576994421800805 Eh
Relativity type    :
Basis              : AO
                                X                 Y                 Z
Electronic contribution:     -0.097412524       0.000000151       0.053118550
Nuclear contribution   :     -0.736251162       0.000010471      -0.545380760
                        -----------------------------------------
Total Dipole Moment    :     -0.833663686       0.000010622      -0.492262210
                        -----------------------------------------
Magnitude (a.u.)       :      0.968151447
Magnitude (Debye)      :      2.460845412

Rotational constants in cm-1:             0.187979             0.087000             0.059560
Rotational constants in MHz :          5635.483463          2608.196962          1785.562427

                             ****ORCA TERMINATED NORMALLY****
TOTAL RUN TIME: 0 days 0 hours 7 minutes 54 seconds 743 msec
