                         Program Version 6.0.0  -   RELEASE  -
|  1> !B3LYP aug-cc-pVTZ d3 TightSCF SlowConv RIJCOSX defgrid2
|  2>
|  3> %pal
|  4> nprocs 4
|  5> end
|  6>
|  7> %scf
|  8> MaxIter 1500
|  9> end
| 10>
| 11> %maxcore 3000
| 12>
| 13> !CPCM
| 14> %cpcm smd true
| 15> SMDsolvent "MeCN"
| 16> surfacetype gepol_ses
| 17> rsolv 2.19
| 18> end
| 19>
| 20> * xyz 1 2
| 21> C          -0.34387230731091     -1.07485258731093      0.00001401455947
| 22> C           1.01873873128556     -0.69031657008063      0.00000558569428
| 23> C           1.01870490582575      0.69036389318440     -0.00000682964124
| 24> C          -0.34392442171075      1.07483366235896      0.00001800846145
| 25> O          -1.13547856663301     -0.00002908301850      0.00002620600599
| 26> H          -0.83940000391177      2.04941022022650      0.00001956675718
| 27> H           1.87273127254573      1.37048388860066     -0.00002227053780
| 28> H           1.87279848731196     -1.37039565302222     -0.00000085844917
| 29> H          -0.83930199740254     -2.04945297093823      0.00002127714986
| 30> *
| 31>
| 32>                          ****END OF INPUT****

CARTESIAN COORDINATES (ANGSTROEM)
---------------------------------
  C     -0.343872   -1.074853    0.000014
  C      1.018739   -0.690317    0.000006
  C      1.018705    0.690364   -0.000007
  C     -0.343924    1.074834    0.000018
  O     -1.135479   -0.000029    0.000026
  H     -0.839400    2.049410    0.000020
  H      1.872731    1.370484   -0.000022
  H      1.872798   -1.370396   -0.000001
  H     -0.839302   -2.049453    0.000021

 Total Charge           Charge          ....    1
 Multiplicity           Mult            ....    2
 Number of Electrons    NEL             ....   35
 Basis Dimension        Dim             ....  322

ORBITAL ENERGIES
----------------
                 SPIN UP ORBITALS
  NO   OCC          E(Eh)            E(eV)
   0   1.0000     -19.273077      -524.4471
   1   1.0000     -10.329161      -281.0708
   2   1.0000     -10.329127      -281.0698
   3   1.0000     -10.247771      -278.8560
   4   1.0000     -10.247103      -278.8379
   5   1.0000      -1.208216       -32.8772
   6   1.0000      -0.875084       -23.8123
   7   1.0000      -0.826378       -22.4869
   8   1.0000      -0.665836       -18.1183
   9   1.0000      -0.634277       -17.2595
  10   1.0000      -0.602401       -16.3922
  11   1.0000      -0.541309       -14.7298
  12   1.0000      -0.505895       -13.7661
  13   1.0000      -0.467350       -12.7172
  14   1.0000      -0.456484       -12.4216
  15   1.0000      -0.439674       -11.9641
  16   1.0000      -0.353018        -9.6061
  17   1.0000      -0.317890        -8.6502
  18   0.0000      -0.082326        -2.2402
  19   0.0000      -0.007472        -0.2033
  20   0.0000      -0.004711        -0.1282
  21   0.0000       0.013870         0.3774
  22   0.0000       0.015789         0.4296

                 SPIN DOWN ORBITALS
  NO   OCC          E(Eh)            E(eV)
   0   1.0000     -19.274602      -524.4886
   1   1.0000     -10.321155      -280.8529
   2   1.0000     -10.321133      -280.8523
   3   1.0000     -10.247032      -278.8359
   4   1.0000     -10.246350      -278.8174
   5   1.0000      -1.205228       -32.7959
   6   1.0000      -0.869056       -23.6482
   7   1.0000      -0.806372       -21.9425
   8   1.0000      -0.659411       -17.9435
   9   1.0000      -0.622617       -16.9423
  10   1.0000      -0.599809       -16.3216
  11   1.0000      -0.521412       -14.1883
  12   1.0000      -0.501171       -13.6375
  13   1.0000      -0.467496       -12.7212
  14   1.0000      -0.451327       -12.2812
  15   1.0000      -0.436947       -11.8899
  16   1.0000      -0.343293        -9.3415
  17   0.0000      -0.207793        -5.6543
  18   0.0000      -0.040761        -1.1092
  19   0.0000      -0.004342        -0.1182
  20   0.0000       0.014143         0.3848
  21   0.0000       0.015674         0.4265

MULLIKEN ATOMIC CHARGES AND SPIN POPULATIONS
--------------------------------------------
   0 C :   -0.160835    0.469383
   1 C :   -0.290602    0.064682
   2 C :   -0.292296    0.064064
   3 C :   -0.161545    0.469222
   4 O :   -0.206529   -0.052097
   5 H :    0.638210   -0.002441
   6 H :    0.417579   -0.005166
   7 H :    0.417934   -0.005176
   8 H :    0.638083   -0.002471
Sum of atomic charges         :    1.0000000

LOEWDIN ATOMIC CHARGES AND SPIN POPULATIONS
-------------------------------------------
   0 C :    0.116240    0.288663
   1 C :    0.295147    0.116433
   2 C :    0.295033    0.116202
   3 C :    0.116056    0.288517
   4 O :    0.641303    0.065297
   5 H :   -0.107966    0.053446
   6 H :   -0.123973    0.008961
   7 H :   -0.123913    0.009023
   8 H :   -0.107927    0.053458

  Mayer bond orders larger than 0.100000
B(  0-C ,  1-C ) :   1.0140 B(  0-C ,  4-O ) :   1.0407 B(  0-C ,  8-H ) :   0.5213
B(  1-C ,  2-C ) :   1.3354 B(  1-C ,  7-H ) :   0.8577 B(  2-C ,  3-C ) :   1.0144
B(  2-C ,  6-H ) :   0.8579 B(  3-C ,  4-O ) :   1.0406 B(  3-C ,  5-H ) :   0.5208

Dispersion correction           -0.010959371
FINAL SINGLE POINT ENERGY      -229.772503384116

DIPOLE MOMENT
-------------

Method             : SCF
Type of density    : Electron Density
Multiplicity       :   2
Irrep              :   0
Energy             :  -229.7615440134493099 Eh
Relativity type    :
Basis              : AO
                                X                 Y                 Z
Electronic contribution:     -1.372244089      -0.001129440      -0.000395960
Nuclear contribution   :      1.915202636       0.000046579      -0.000027644
                        -----------------------------------------
Total Dipole Moment    :      0.542958548      -0.001082860      -0.000423604
                        -----------------------------------------
Magnitude (a.u.)       :      0.542959793
Magnitude (Debye)      :      1.380094115

Rotational constants in cm-1:             0.327624             0.296324             0.155594
Rotational constants in MHz :          9821.913267          8883.568671          4664.602670

                             ****ORCA TERMINATED NORMALLY****
TOTAL RUN TIME: 0 days 0 hours 1 minutes 18 seconds 616 msec
