                         Program Version 6.0.0  -   RELEASE  -
|  1> !r2SCANh aug-cc-pVTZ d3 TightSCF SlowConv RIJCOSX defgrid2
|  2>
|  3> %pal
|  4> nprocs 4
|  5> end
|  6>
|  7> %scf
|  8> MaxIter 1500
|  9> end
| 10>
| 11> %maxcore 3000
| 12>
| 13> !CPCM
| 14> %cpcm smd true
| 15> SMDsolvent "MeCN"
| 16> surfacetype gepol_ses
| 17> rsolv 2.19
| 18> end
| 19>
| 20> * xyz -1 2
| 21> C           0.48430727092939     -1.21516905318477      0.00018212657990
| 22> C           1.86893489645764     -1.23471525883061      0.00003208773951
| 23> C           2.62346115159641     -0.04459960429403     -0.00011347347240
| 24> C           1.91719196899144      1.18166812135145     -0.00009858652004
| 25> C           0.53848704808454      1.21700668050313      0.00004693720302
| 26> C          -0.25134605739008      0.01820867284039      0.00018913172850
| 27> C          -1.68142459571573      0.11401828572460      0.00025810009938
| 28> O          -2.30904371905977      1.20375222206345     -0.00021388182496
| 29> C          -2.48201195396780     -1.18785928153366     -0.00008271887877
| 30> H          -3.55195535151616     -0.92055571828390     -0.00040503473791
| 31> H          -2.27639676371142     -1.81970454990542      0.88827366491426
| 32> H          -2.27584482297506     -1.81958543160251     -0.88839650427297
| 33> H          -0.00899519579743      2.16434489361400      0.00006122664782
| 34> H           2.47845175619435      2.12626372992034     -0.00020253099996
| 35> H           3.71827539321824     -0.06872896483531     -0.00023193512716
| 36> H           2.38810382970115     -2.20294221124226      0.00002680569261
| 37> H          -0.05769635503973     -2.16717953230489      0.00028068522919
| 38> *
| 39>
| 40>                          ****END OF INPUT****

CARTESIAN COORDINATES (ANGSTROEM)
---------------------------------
  C      0.484307   -1.215169    0.000182
  C      1.868935   -1.234715    0.000032
  C      2.623461   -0.044600   -0.000113
  C      1.917192    1.181668   -0.000099
  C      0.538487    1.217007    0.000047
  C     -0.251346    0.018209    0.000189
  C     -1.681425    0.114018    0.000258
  O     -2.309044    1.203752   -0.000214
  C     -2.482012   -1.187859   -0.000083
  H     -3.551955   -0.920556   -0.000405
  H     -2.276397   -1.819705    0.888274
  H     -2.275845   -1.819585   -0.888397
  H     -0.008995    2.164345    0.000061
  H      2.478452    2.126264   -0.000203
  H      3.718275   -0.068729   -0.000232
  H      2.388104   -2.202942    0.000027
  H     -0.057696   -2.167180    0.000281

 Total Charge           Charge          ....   -1
 Multiplicity           Mult            ....    2
 Number of Electrons    NEL             ....   65
 Basis Dimension        Dim             ....  598

ORBITAL ENERGIES
----------------
                 SPIN UP ORBITALS
  NO   OCC          E(Eh)            E(eV)
   0   1.0000     -19.036373      -518.0060
   1   1.0000     -10.171330      -276.7760
   2   1.0000     -10.137601      -275.8581
   3   1.0000     -10.137560      -275.8570
   4   1.0000     -10.134380      -275.7705
   5   1.0000     -10.130213      -275.6571
   6   1.0000     -10.129236      -275.6305
   7   1.0000     -10.125265      -275.5225
   8   1.0000     -10.124807      -275.5100
   9   1.0000      -0.967645       -26.3310
  10   1.0000      -0.825083       -22.4516
  11   1.0000      -0.735266       -20.0076
  12   1.0000      -0.720023       -19.5928
  13   1.0000      -0.685651       -18.6575
  14   1.0000      -0.598841       -16.2953
  15   1.0000      -0.564729       -15.3671
  16   1.0000      -0.511535       -13.9196
  17   1.0000      -0.467929       -12.7330
  18   1.0000      -0.419198       -11.4069
  19   1.0000      -0.412529       -11.2255
  20   1.0000      -0.399449       -10.8696
  21   1.0000      -0.397117       -10.8061
  22   1.0000      -0.381945       -10.3933
  23   1.0000      -0.354489        -9.6461
  24   1.0000      -0.345320        -9.3966
  25   1.0000      -0.343033        -9.3344
  26   1.0000      -0.316665        -8.6169
  27   1.0000      -0.308867        -8.4047
  28   1.0000      -0.290974        -7.9178
  29   1.0000      -0.239051        -6.5049
  30   1.0000      -0.231887        -6.3100
  31   1.0000      -0.195375        -5.3164
  32   1.0000      -0.090837        -2.4718
  33   0.0000      -0.003163        -0.0861
  34   0.0000       0.008670         0.2359
  35   0.0000       0.023249         0.6326
  36   0.0000       0.026470         0.7203
  37   0.0000       0.035037         0.9534

                 SPIN DOWN ORBITALS
  NO   OCC          E(Eh)            E(eV)
   0   1.0000     -19.029670      -517.8237
   1   1.0000     -10.166545      -276.6457
   2   1.0000     -10.139290      -275.9041
   3   1.0000     -10.139156      -275.9005
   4   1.0000     -10.131495      -275.6920
   5   1.0000     -10.126218      -275.5484
   6   1.0000     -10.125252      -275.5221
   7   1.0000     -10.124989      -275.5150
   8   1.0000     -10.123979      -275.4875
   9   1.0000      -0.956264       -26.0213
  10   1.0000      -0.820710       -22.3326
  11   1.0000      -0.727442       -19.7947
  12   1.0000      -0.716288       -19.4912
  13   1.0000      -0.682532       -18.5726
  14   1.0000      -0.587659       -15.9910
  15   1.0000      -0.563639       -15.3374
  16   1.0000      -0.507200       -13.8016
  17   1.0000      -0.462725       -12.5914
  18   1.0000      -0.417038       -11.3482
  19   1.0000      -0.408737       -11.1223
  20   1.0000      -0.398567       -10.8456
  21   1.0000      -0.384608       -10.4657
  22   1.0000      -0.381224       -10.3736
  23   1.0000      -0.350547        -9.5389
  24   1.0000      -0.341754        -9.2996
  25   1.0000      -0.334866        -9.1122
  26   1.0000      -0.314151        -8.5485
  27   1.0000      -0.289827        -7.8866
  28   1.0000      -0.283994        -7.7279
  29   1.0000      -0.229361        -6.2412
  30   1.0000      -0.207997        -5.6599
  31   1.0000      -0.190151        -5.1743
  32   0.0000      -0.029083        -0.7914
  33   0.0000       0.000924         0.0251
  34   0.0000       0.011156         0.3036
  35   0.0000       0.025440         0.6923
  36   0.0000       0.028475         0.7748

MULLIKEN ATOMIC CHARGES AND SPIN POPULATIONS
--------------------------------------------
   0 C :   -0.763617    0.276390
   1 C :   -0.704402   -0.172019
   2 C :   -0.363051    0.370632
   3 C :   -0.570302   -0.166445
   4 C :   -1.208567    0.269028
   5 C :    1.937479    0.043676
   6 C :    0.632074    0.245845
   7 O :   -1.075528    0.226028
   8 C :   -0.601152   -0.054365
   9 H :    0.141574   -0.006879
  10 H :    0.221801    0.020939
  11 H :    0.222710    0.020958
  12 H :   -0.062896   -0.016502
  13 H :    0.446762   -0.008957
  14 H :    0.476082   -0.022988
  15 H :    0.468825   -0.012207
  16 H :   -0.197791   -0.013135
Sum of atomic charges         :   -1.0000000

LOEWDIN ATOMIC CHARGES AND SPIN POPULATIONS
-------------------------------------------
   0 C :    0.142083    0.093741
   1 C :    0.120943    0.025922
   2 C :    0.132248    0.139692
   3 C :    0.119297    0.024366
   4 C :    0.128125    0.093363
   5 C :   -0.216176    0.123416
   6 C :   -0.677285    0.185016
   7 O :    0.332401    0.197257
   8 C :    0.496419    0.034333
   9 H :   -0.204766   -0.000970
  10 H :   -0.179227    0.008872
  11 H :   -0.179259    0.008878
  12 H :   -0.217989    0.020846
  13 H :   -0.191990   -0.006629
  14 H :   -0.207210    0.037558
  15 H :   -0.190480   -0.006097
  16 H :   -0.207134    0.020436

  Mayer bond orders larger than 0.100000
B(  0-C ,  1-C ) :   0.9417 B(  0-C ,  2-C ) :  -0.1501 B(  0-C ,  4-C ) :  -0.4237
B(  0-C ,  6-C ) :   0.3063 B(  0-C , 12-H ) :   0.1896 B(  0-C , 15-H ) :  -0.1458
B(  0-C , 16-H ) :   1.9188 B(  1-C ,  2-C ) :   0.9603 B(  1-C ,  3-C ) :   0.1306
B(  1-C ,  5-C ) :   0.2638 B(  1-C , 12-H ) :  -0.1196 B(  1-C , 15-H ) :   0.6158
B(  1-C , 16-H ) :  -0.1747 B(  2-C ,  3-C ) :   0.8984 B(  2-C ,  6-C ) :   0.1839
B(  2-C , 14-H ) :   0.6435 B(  3-C ,  4-C ) :   1.2819 B(  3-C ,  5-C ) :   0.1167
B(  3-C , 12-H ) :  -0.1241 B(  3-C , 13-H ) :   0.6680 B(  3-C , 16-H ) :  -0.1084
B(  4-C ,  5-C ) :  -0.1988 B(  4-C ,  6-C ) :   0.3462 B(  4-C , 12-H ) :   1.4655
B(  4-C , 13-H ) :  -0.1655 B(  4-C , 14-H ) :   0.1658 B(  4-C , 16-H ) :   0.1854
B(  5-C ,  6-C ) :   0.4209 B(  5-C ,  7-O ) :   0.1427 B(  5-C , 12-H ) :  -0.2201
B(  5-C , 16-H ) :  -0.3582 B(  6-C ,  7-O ) :   0.5691 B(  6-C ,  8-C ) :   0.8565
B(  6-C , 12-H ) :  -0.1238 B(  6-C , 13-H ) :   0.1813 B(  6-C , 15-H ) :   0.1363
B(  6-C , 16-H ) :  -0.1866 B(  7-O , 12-H ) :   0.1567 B(  8-C ,  9-H ) :   0.9825
B(  8-C , 10-H ) :   0.9769 B(  8-C , 11-H ) :   0.9763 B( 12-H , 16-H ) :   0.1458

Dispersion correction           -0.005337290
FINAL SINGLE POINT ENERGY      -384.896352453895

DIPOLE MOMENT
-------------

Method             : SCF
Type of density    : Electron Density
Multiplicity       :   2
Irrep              :   0
Energy             :  -384.8910151638672801 Eh
Relativity type    :
Basis              : AO
                                X                 Y                 Z
Electronic contribution:      1.032267502       2.985382956       0.000796974
Nuclear contribution   :      0.371773726      -4.441970232      -0.000619392
                        -----------------------------------------
Total Dipole Moment    :      1.404041229      -1.456587276       0.000177582
                        -----------------------------------------
Magnitude (a.u.)       :      2.023111044
Magnitude (Debye)      :      5.142339605

Rotational constants in cm-1:             0.121326             0.040165             0.030348
Rotational constants in MHz :          3637.264281          1204.105692           909.812230

                             ****ORCA TERMINATED NORMALLY****
TOTAL RUN TIME: 0 days 0 hours 7 minutes 42 seconds 860 msec
