                         Program Version 6.0.0  -   RELEASE  -
|  1> !r2SCAN aug-cc-pVTZ d3 TightSCF SlowConv RIJCOSX defgrid2
|  2>
|  3> %pal
|  4> nprocs 4
|  5> end
|  6>
|  7> %scf
|  8> MaxIter 1500
|  9> end
| 10>
| 11> %maxcore 3000
| 12>
| 13> !CPCM
| 14> %cpcm smd true
| 15> SMDsolvent "MeCN"
| 16> surfacetype gepol_ses
| 17> rsolv 2.19
| 18> end
| 19>
| 20> * xyz 1 2
| 21> C           0.42766922826058      1.09250554753671     -0.00002934984792
| 22> C          -0.91803929338371      1.32112616186701     -0.00007862922355
| 23> C          -1.83359468145124      0.22604701172772     -0.00005052019445
| 24> C          -1.34403470586700     -1.10812997260672      0.00004176990950
| 25> C           0.01076802795708     -1.32157729093281      0.00010017037764
| 26> C           0.94695487201857     -0.24147431186404      0.00005526206874
| 27> C           2.33481183567959     -0.54917553496955      0.00008494824583
| 28> C           3.37151795017655      0.35638842083076      0.00003100754924
| 29> C           4.79867889425726     -0.01212296739284      0.00003041343018
| 30> H           5.30495592523331      0.43227355340951      0.87968521925492
| 31> H           5.30486849674351      0.43200595766830     -0.87981167059255
| 32> H           4.96193499106042     -1.10070955791719      0.00017599972354
| 33> H           3.14539862986225      1.43012139140852     -0.00004517175902
| 34> H           2.59593124142522     -1.61436223702820      0.00015424626296
| 35> H           0.39241616474177     -2.34656611487460      0.00017208140391
| 36> H          -2.03091333615712     -1.95604876858454      0.00007442711173
| 37> O          -3.09670762656711      0.54742056766508     -0.00013047431290
| 38> C          -4.12777516023530     -0.43476601526242     -0.00013255885468
| 39> H          -4.06321175276157     -1.05773088391001      0.90732683477409
| 40> H          -4.06307084433532     -1.05786982004323     -0.90748503150178
| 41> H          -5.07065366505136      0.12679713547228     -0.00024982874602
| 42> H          -1.33253890672666      2.33189179701734     -0.00014213674034
| 43> H           1.10842431512030      1.94641593078294     -0.00005240833907
| 44> *
| 45>
| 46>                          ****END OF INPUT****

CARTESIAN COORDINATES (ANGSTROEM)
---------------------------------
  C      0.427669    1.092506   -0.000029
  C     -0.918039    1.321126   -0.000079
  C     -1.833595    0.226047   -0.000051
  C     -1.344035   -1.108130    0.000042
  C      0.010768   -1.321577    0.000100
  C      0.946955   -0.241474    0.000055
  C      2.334812   -0.549176    0.000085
  C      3.371518    0.356388    0.000031
  C      4.798679   -0.012123    0.000030
  H      5.304956    0.432274    0.879685
  H      5.304868    0.432006   -0.879812
  H      4.961935   -1.100710    0.000176
  H      3.145399    1.430121   -0.000045
  H      2.595931   -1.614362    0.000154
  H      0.392416   -2.346566    0.000172
  H     -2.030913   -1.956049    0.000074
  O     -3.096708    0.547421   -0.000130
  C     -4.127775   -0.434766   -0.000133
  H     -4.063212   -1.057731    0.907327
  H     -4.063071   -1.057870   -0.907485
  H     -5.070654    0.126797   -0.000250
  H     -1.332539    2.331892   -0.000142
  H      1.108424    1.946416   -0.000052

 Total Charge           Charge          ....    1
 Multiplicity           Mult            ....    2
 Number of Electrons    NEL             ....   79
 Basis Dimension        Dim             ....  782

ORBITAL ENERGIES
----------------
                 SPIN UP ORBITALS
  NO   OCC          E(Eh)            E(eV)
   0   1.0000     -19.048678      -518.3409
   1   1.0000     -10.157075      -276.3881
   2   1.0000     -10.099992      -274.8348
   3   1.0000     -10.099566      -274.8232
   4   1.0000     -10.095797      -274.7206
   5   1.0000     -10.081899      -274.3424
   6   1.0000     -10.079587      -274.2795
   7   1.0000     -10.079448      -274.2757
   8   1.0000     -10.075222      -274.1607
   9   1.0000     -10.074433      -274.1393
  10   1.0000     -10.045807      -273.3603
  11   1.0000      -1.098682       -29.8967
  12   1.0000      -0.864994       -23.5377
  13   1.0000      -0.807241       -21.9662
  14   1.0000      -0.763649       -20.7800
  15   1.0000      -0.752768       -20.4839
  16   1.0000      -0.710709       -19.3394
  17   1.0000      -0.659947       -17.9581
  18   1.0000      -0.614510       -16.7217
  19   1.0000      -0.595281       -16.1984
  20   1.0000      -0.548964       -14.9381
  21   1.0000      -0.533190       -14.5088
  22   1.0000      -0.493154       -13.4194
  23   1.0000      -0.486651       -13.2424
  24   1.0000      -0.476185       -12.9576
  25   1.0000      -0.439987       -11.9727
  26   1.0000      -0.423456       -11.5228
  27   1.0000      -0.421352       -11.4656
  28   1.0000      -0.405704       -11.0398
  29   1.0000      -0.403426       -10.9778
  30   1.0000      -0.394035       -10.7222
  31   1.0000      -0.389912       -10.6100
  32   1.0000      -0.358869        -9.7653
  33   1.0000      -0.357294        -9.7225
  34   1.0000      -0.351587        -9.5672
  35   1.0000      -0.340451        -9.2642
  36   1.0000      -0.319612        -8.6971
  37   1.0000      -0.291081        -7.9207
  38   1.0000      -0.277895        -7.5619
  39   1.0000      -0.228579        -6.2200
  40   0.0000      -0.103424        -2.8143
  41   0.0000      -0.068989        -1.8773
  42   0.0000      -0.014485        -0.3942
  43   0.0000       0.004232         0.1151
  44   0.0000       0.015684         0.4268

                 SPIN DOWN ORBITALS
  NO   OCC          E(Eh)            E(eV)
   0   1.0000     -19.044173      -518.2183
   1   1.0000     -10.154505      -276.3181
   2   1.0000     -10.100138      -274.8387
   3   1.0000     -10.095957      -274.7250
   4   1.0000     -10.088886      -274.5325
   5   1.0000     -10.081217      -274.3239
   6   1.0000     -10.079935      -274.2890
   7   1.0000     -10.079216      -274.2694
   8   1.0000     -10.074496      -274.1410
   9   1.0000     -10.073706      -274.1195
  10   1.0000     -10.046012      -273.3659
  11   1.0000      -1.092030       -29.7157
  12   1.0000      -0.858853       -23.3706
  13   1.0000      -0.798038       -21.7157
  14   1.0000      -0.758550       -20.6412
  15   1.0000      -0.747432       -20.3387
  16   1.0000      -0.709506       -19.3066
  17   1.0000      -0.655389       -17.8341
  18   1.0000      -0.611550       -16.6411
  19   1.0000      -0.589446       -16.0396
  20   1.0000      -0.544183       -14.8080
  21   1.0000      -0.531368       -14.4592
  22   1.0000      -0.491339       -13.3700
  23   1.0000      -0.484366       -13.1803
  24   1.0000      -0.464343       -12.6354
  25   1.0000      -0.437626       -11.9084
  26   1.0000      -0.421857       -11.4793
  27   1.0000      -0.420824       -11.4512
  28   1.0000      -0.401691       -10.9306
  29   1.0000      -0.392824       -10.6893
  30   1.0000      -0.392371       -10.6770
  31   1.0000      -0.379735       -10.3331
  32   1.0000      -0.357572        -9.7300
  33   1.0000      -0.355742        -9.6802
  34   1.0000      -0.338681        -9.2160
  35   1.0000      -0.338663        -9.2155
  36   1.0000      -0.317279        -8.6336
  37   1.0000      -0.276027        -7.5111
  38   1.0000      -0.271650        -7.3920
  39   0.0000      -0.195120        -5.3095
  40   0.0000      -0.076280        -2.0757
  41   0.0000      -0.058634        -1.5955
  42   0.0000       0.005182         0.1410
  43   0.0000       0.006854         0.1865

MULLIKEN ATOMIC CHARGES AND SPIN POPULATIONS
--------------------------------------------
   0 C :   -0.431302   -0.025667
   1 C :   -1.020465    0.031155
   2 C :    1.284457    0.143364
   3 C :   -0.337287    0.039403
   4 C :   -0.658633    0.005354
   5 C :    1.999186    0.276496
   6 C :   -0.058131   -0.042429
   7 C :   -0.102111    0.352429
   8 C :   -0.792541   -0.044943
   9 H :    0.176264    0.036879
  10 H :    0.176154    0.036883
  11 H :    0.250202   -0.008055
  12 H :    0.209557    0.027418
  13 H :    0.022863    0.004918
  14 H :   -0.067147    0.013004
  15 H :    0.450543    0.019726
  16 O :   -0.697451    0.136729
  17 C :   -0.638691   -0.013231
  18 H :    0.289131    0.006787
  19 H :    0.289362    0.006778
  20 H :    0.229511   -0.000677
  21 H :    0.570720    0.005986
  22 H :   -0.144191   -0.008308
Sum of atomic charges         :    1.0000000

LOEWDIN ATOMIC CHARGES AND SPIN POPULATIONS
-------------------------------------------
   0 C :    0.256218    0.039881
   1 C :    0.265443    0.046442
   2 C :   -0.351049    0.107086
   3 C :    0.270627    0.055636
   4 C :    0.260221    0.056603
   5 C :   -0.088951    0.116762
   6 C :    0.270978    0.083723
   7 C :    0.283851    0.206145
   8 C :    0.604306    0.066894
   9 H :   -0.143370    0.015049
  10 H :   -0.143318    0.015055
  11 H :   -0.158028    0.001220
  12 H :   -0.155504    0.036580
  13 H :   -0.157411    0.000825
  14 H :   -0.142905    0.004474
  15 H :   -0.163286    0.005699
  16 O :    0.641117    0.117394
  17 C :    0.417402    0.012830
  18 H :   -0.148188    0.003745
  19 H :   -0.148234    0.003745
  20 H :   -0.158523   -0.000308
  21 H :   -0.149240    0.004111
  22 H :   -0.162157    0.000409

  Mayer bond orders larger than 0.100000
B(  0-C ,  1-C ) :   0.9825 B(  0-C ,  2-C ) :  -0.3013 B(  0-C ,  3-C ) :  -0.4731
B(  0-C ,  4-C ) :  -0.7348 B(  0-C ,  5-C ) :   0.2071 B(  0-C ,  6-C ) :   0.2376
B(  0-C , 12-H ) :  -0.1013 B(  0-C , 14-H ) :   0.1038 B(  0-C , 15-H ) :   0.1481
B(  0-C , 21-H ) :   0.1419 B(  0-C , 22-H ) :   1.6560 B(  1-C ,  2-C ) :   0.6504
B(  1-C ,  3-C ) :   0.3230 B(  1-C ,  5-C ) :   0.2551 B(  1-C ,  6-C ) :   0.1268
B(  1-C ,  7-C ) :  -0.1430 B(  1-C , 14-H ) :  -0.1219 B(  1-C , 16-O ) :   0.3662
B(  1-C , 21-H ) :   0.1699 B(  1-C , 22-H ) :  -0.1932 B(  2-C ,  3-C ) :   0.9377
B(  2-C ,  4-C ) :  -0.3749 B(  2-C , 15-H ) :   0.1664 B(  2-C , 16-O ) :   0.2219
B(  2-C , 21-H ) :   0.1399 B(  3-C ,  4-C ) :   0.8676 B(  3-C ,  5-C ) :   0.2393
B(  3-C , 14-H ) :  -0.1599 B(  3-C , 15-H ) :   0.2960 B(  3-C , 16-O ) :  -0.1402
B(  3-C , 17-C ) :  -0.1298 B(  3-C , 22-H ) :  -0.1511 B(  4-C ,  5-C ) :  -0.1047
B(  4-C ,  7-C ) :   0.1631 B(  4-C , 13-H ) :  -0.1030 B(  4-C , 14-H ) :   1.6857
B(  4-C , 21-H ) :   0.1094 B(  5-C ,  6-C ) :   0.1729 B(  5-C ,  7-C ) :  -0.2037
B(  5-C ,  8-C ) :   0.1050 B(  5-C , 12-H ) :  -0.1832 B(  5-C , 14-H ) :  -0.2632
B(  5-C , 22-H ) :  -0.2630 B(  6-C ,  7-C ) :   0.7595 B(  6-C , 13-H ) :   1.2041
B(  6-C , 14-H ) :  -0.1132 B(  7-C ,  8-C ) :   0.5924 B(  7-C , 12-H ) :   1.2793
B(  7-C , 13-H ) :  -0.1747 B(  8-C ,  9-H ) :   1.0412 B(  8-C , 10-H ) :   1.0408
B(  8-C , 11-H ) :   0.9380 B(  8-C , 12-H ) :  -0.1957 B( 14-H , 22-H ) :   0.2437
B( 15-H , 17-C ) :  -0.1191 B( 16-O , 17-C ) :   1.0127 B( 17-C , 18-H ) :   0.8902
B( 17-C , 19-H ) :   0.8899 B( 17-C , 20-H ) :   0.9780 B( 21-H , 22-H ) :  -0.1014

Dispersion correction           -0.006978319
FINAL SINGLE POINT ENERGY      -463.212966017544

DIPOLE MOMENT
-------------

Method             : SCF
Type of density    : Electron Density
Multiplicity       :   2
Irrep              :   0
Energy             :  -463.2059876985676965 Eh
Relativity type    :
Basis              : AO
                                X                 Y                 Z
Electronic contribution:     -5.345304109       1.640879291      -0.000370689
Nuclear contribution   :      5.760035760      -2.141608365      -0.000061222
                        -----------------------------------------
Total Dipole Moment    :      0.414731650      -0.500729074      -0.000431911
                        -----------------------------------------
Magnitude (a.u.)       :      0.650178540
Magnitude (Debye)      :      1.652622512

Rotational constants in cm-1:             0.146577             0.015467             0.014066
Rotational constants in MHz :          4394.279814           463.685769           421.681577

                             ****ORCA TERMINATED NORMALLY****
TOTAL RUN TIME: 0 days 0 hours 5 minutes 34 seconds 849 msec
