                         Program Version 6.0.0  -   RELEASE  -
|  1> !r2SCANh aug-cc-pVTZ d3 TightSCF SlowConv RIJCOSX defgrid2
|  2>
|  3> %pal
|  4> nprocs 15
|  5> end
|  6>
|  7> %scf
|  8> MaxIter 1500
|  9> end
| 10>
| 11> %maxcore 3500
| 12>
| 13> !CPCM
| 14> %cpcm smd true
| 15> SMDsolvent "WATER"
| 16> surfacetype gepol_ses
| 17> rsolv 1.40
| 18> end
| 19>
| 20> * xyz 0 2
| 21> O           1.91470638718140      3.68438074947034      1.42427791228666
| 22> N           2.68096308945993      2.69375168448893      1.26769968685529
| 23> C           3.77391580515862      2.86611617790763      0.27680202232567
| 24> C           4.43155802114185      1.51994211991304     -0.03530115296342
| 25> C           4.73340248947632      0.69829774992947      1.21810391563609
| 26> C           3.42519309826840      0.42580302914814      1.94119980726915
| 27> C           2.70579217610673      1.70523956651208      2.37690104523736
| 28> C           4.79322172800676      3.87508980195447      0.82020172066500
| 29> C           3.14425995359759      3.42149633811360     -0.99940045320580
| 30> C           3.37488386456858      2.34129799708755      3.60196963848657
| 31> C           1.25335355183061      1.37175446215543      2.71392471745753
| 32> H           5.35765292922926      1.70556085241930     -0.60472877121535
| 33> H           3.75876551381861      0.92933792835036     -0.68368429967338
| 34> H           5.42888308378114      1.26691647113913      1.85777249757383
| 35> H           3.58597216229996     -0.20127854132091      2.83446428065128
| 36> H           2.76741452667512     -0.15000338556619      1.26812064668017
| 37> H           4.26369527400293      4.78489567317599      1.14666574670165
| 38> H           5.36148593564960      3.47818359531948      1.67676804635832
| 39> H           5.51454614342091      4.14822445029490      0.03143381287120
| 40> H           2.68677781882656      4.40345192403324     -0.80882149057439
| 41> H           2.35856298596588      2.74147992136098     -1.37017141185833
| 42> H           3.91629839859089      3.52710620200660     -1.78046613000472
| 43> H           2.90751365674073      3.31881435496866      3.80391606383020
| 44> H           4.45686105296294      2.49742578329982      3.46040550353472
| 45> H           3.23836167981079      1.69582567705536      4.48654381685627
| 46> H           0.71883159023383      2.26983495660360      3.05695397631866
| 47> H           0.73234928593055      0.97814208936524      1.82472152714422
| 48> H           1.22257422130559      0.60584599485455      3.50731645957130
| 49> C           5.50980399137963     -0.53351097116185      0.81636396333535
| 50> O           6.67868338961729     -0.53392563796249      0.53412674849617
| 51> O           4.75697757690545     -1.64256703152170      0.76161649704885
| 52> H           5.34368613905548     -2.36501696039479      0.46736191230387
| 53> *
| 54>
| 55>                          ****END OF INPUT****

CARTESIAN COORDINATES (ANGSTROEM)
---------------------------------
  O      1.914706    3.684381    1.424278
  N      2.680963    2.693752    1.267700
  C      3.773916    2.866116    0.276802
  C      4.431558    1.519942   -0.035301
  C      4.733402    0.698298    1.218104
  C      3.425193    0.425803    1.941200
  C      2.705792    1.705240    2.376901
  C      4.793222    3.875090    0.820202
  C      3.144260    3.421496   -0.999400
  C      3.374884    2.341298    3.601970
  C      1.253354    1.371754    2.713925
  H      5.357653    1.705561   -0.604729
  H      3.758766    0.929338   -0.683684
  H      5.428883    1.266916    1.857772
  H      3.585972   -0.201279    2.834464
  H      2.767415   -0.150003    1.268121
  H      4.263695    4.784896    1.146666
  H      5.361486    3.478184    1.676768
  H      5.514546    4.148224    0.031434
  H      2.686778    4.403452   -0.808821
  H      2.358563    2.741480   -1.370171
  H      3.916298    3.527106   -1.780466
  H      2.907514    3.318814    3.803916
  H      4.456861    2.497426    3.460406
  H      3.238362    1.695826    4.486544
  H      0.718832    2.269835    3.056954
  H      0.732349    0.978142    1.824722
  H      1.222574    0.605846    3.507316
  C      5.509804   -0.533511    0.816364
  O      6.678683   -0.533926    0.534127
  O      4.756978   -1.642567    0.761616
  H      5.343686   -2.365017    0.467362

 Total Charge           Charge          ....    0
 Multiplicity           Mult            ....    2
 Number of Electrons    NEL             ....  109
 Basis Dimension        Dim             .... 1058

ORBITAL ENERGIES
----------------
                 SPIN UP ORBITALS
  NO   OCC          E(Eh)            E(eV)
   0   1.0000     -19.169751      -521.6354
   1   1.0000     -19.122804      -520.3580
   2   1.0000     -19.116794      -520.1944
   3   1.0000     -14.405096      -391.9826
   4   1.0000     -10.296944      -280.1941
   5   1.0000     -10.209622      -277.8179
   6   1.0000     -10.208489      -277.7871
   7   1.0000     -10.178228      -276.9637
   8   1.0000     -10.164314      -276.5850
   9   1.0000     -10.158895      -276.4376
  10   1.0000     -10.145843      -276.0824
  11   1.0000     -10.145418      -276.0709
  12   1.0000     -10.142880      -276.0018
  13   1.0000     -10.142254      -275.9847
  14   1.0000      -1.123024       -30.5590
  15   1.0000      -1.119621       -30.4664
  16   1.0000      -1.033094       -28.1119
  17   1.0000      -0.880533       -23.9605
  18   1.0000      -0.824308       -22.4306
  19   1.0000      -0.796482       -21.6734
  20   1.0000      -0.720889       -19.6164
  21   1.0000      -0.691051       -18.8045
  22   1.0000      -0.683446       -18.5975
  23   1.0000      -0.680481       -18.5168
  24   1.0000      -0.657183       -17.8828
  25   1.0000      -0.596654       -16.2358
  26   1.0000      -0.587267       -15.9803
  27   1.0000      -0.521691       -14.1959
  28   1.0000      -0.501006       -13.6331
  29   1.0000      -0.493680       -13.4337
  30   1.0000      -0.487070       -13.2538
  31   1.0000      -0.477862       -13.0033
  32   1.0000      -0.471470       -12.8293
  33   1.0000      -0.450791       -12.2666
  34   1.0000      -0.443189       -12.0598
  35   1.0000      -0.426756       -11.6126
  36   1.0000      -0.418310       -11.3828
  37   1.0000      -0.409099       -11.1321
  38   1.0000      -0.398798       -10.8519
  39   1.0000      -0.393866       -10.7176
  40   1.0000      -0.378609       -10.3025
  41   1.0000      -0.376582       -10.2473
  42   1.0000      -0.362056        -9.8521
  43   1.0000      -0.360069        -9.7980
  44   1.0000      -0.354394        -9.6436
  45   1.0000      -0.346742        -9.4353
  46   1.0000      -0.344002        -9.3608
  47   1.0000      -0.331680        -9.0255
  48   1.0000      -0.328912        -8.9502
  49   1.0000      -0.323937        -8.8148
  50   1.0000      -0.319286        -8.6882
  51   1.0000      -0.311826        -8.4852
  52   1.0000      -0.276978        -7.5370
  53   1.0000      -0.256154        -6.9703
  54   1.0000      -0.194989        -5.3059
  55   0.0000      -0.016936        -0.4609
  56   0.0000       0.008100         0.2204
  57   0.0000       0.018346         0.4992
  58   0.0000       0.023112         0.6289
  59   0.0000       0.023192         0.6311

                 SPIN DOWN ORBITALS
  NO   OCC          E(Eh)            E(eV)
   0   1.0000     -19.169752      -521.6355
   1   1.0000     -19.116795      -520.1944
   2   1.0000     -19.107793      -519.9495
   3   1.0000     -14.390054      -391.5733
   4   1.0000     -10.296935      -280.1938
   5   1.0000     -10.210149      -277.8323
   6   1.0000     -10.209016      -277.8014
   7   1.0000     -10.178255      -276.9644
   8   1.0000     -10.164261      -276.5836
   9   1.0000     -10.158843      -276.4362
  10   1.0000     -10.145061      -276.0611
  11   1.0000     -10.144637      -276.0496
  12   1.0000     -10.142597      -275.9941
  13   1.0000     -10.141970      -275.9770
  14   1.0000      -1.123008       -30.5586
  15   1.0000      -1.096141       -29.8275
  16   1.0000      -1.033094       -28.1119
  17   1.0000      -0.872121       -23.7316
  18   1.0000      -0.823424       -22.4065
  19   1.0000      -0.790175       -21.5017
  20   1.0000      -0.706260       -19.2183
  21   1.0000      -0.688489       -18.7347
  22   1.0000      -0.682977       -18.5848
  23   1.0000      -0.679169       -18.4811
  24   1.0000      -0.654950       -17.8221
  25   1.0000      -0.593715       -16.1558
  26   1.0000      -0.586496       -15.9594
  27   1.0000      -0.515425       -14.0254
  28   1.0000      -0.499175       -13.5832
  29   1.0000      -0.492302       -13.3962
  30   1.0000      -0.481852       -13.1119
  31   1.0000      -0.468946       -12.7607
  32   1.0000      -0.454277       -12.3615
  33   1.0000      -0.443222       -12.0607
  34   1.0000      -0.436414       -11.8754
  35   1.0000      -0.426315       -11.6006
  36   1.0000      -0.417754       -11.3677
  37   1.0000      -0.405954       -11.0466
  38   1.0000      -0.392670       -10.6851
  39   1.0000      -0.391189       -10.6448
  40   1.0000      -0.375746       -10.2246
  41   1.0000      -0.374680       -10.1955
  42   1.0000      -0.357999        -9.7416
  43   1.0000      -0.354080        -9.6350
  44   1.0000      -0.352628        -9.5955
  45   1.0000      -0.343743        -9.3537
  46   1.0000      -0.336155        -9.1472
  47   1.0000      -0.330823        -9.0021
  48   1.0000      -0.322854        -8.7853
  49   1.0000      -0.322359        -8.7718
  50   1.0000      -0.315775        -8.5927
  51   1.0000      -0.300797        -8.1851
  52   1.0000      -0.276822        -7.5327
  53   1.0000      -0.245297        -6.6749
  54   0.0000      -0.073493        -1.9998
  55   0.0000      -0.016883        -0.4594
  56   0.0000       0.008661         0.2357
  57   0.0000       0.019388         0.5276
  58   0.0000       0.023468         0.6386

MULLIKEN ATOMIC CHARGES AND SPIN POPULATIONS
--------------------------------------------
   0 O :   -1.095461    0.501793
   1 N :    0.346301    0.509228
   2 C :    2.803360   -0.031710
   3 C :   -1.134939   -0.023031
   4 C :    1.106443   -0.000755
   5 C :   -0.656319   -0.025263
   6 C :    2.616824   -0.042296
   7 C :   -1.427800    0.044115
   8 C :   -1.609077    0.004932
   9 C :   -1.409969    0.045074
  10 C :   -1.613353    0.006240
  11 H :    0.336580   -0.001671
  12 H :    0.145900   -0.002150
  13 H :    0.047014    0.007992
  14 H :    0.480903   -0.001743
  15 H :    0.037472    0.000148
  16 H :    0.166941   -0.003489
  17 H :    0.221896    0.001033
  18 H :    0.044129    0.004946
  19 H :    0.158774   -0.004356
  20 H :    0.191027    0.007999
  21 H :    0.163126   -0.000762
  22 H :    0.158827   -0.002657
  23 H :    0.243524   -0.000805
  24 H :    0.045734    0.005013
  25 H :    0.163986   -0.004497
  26 H :    0.194005    0.008175
  27 H :    0.155984   -0.000559
  28 C :    0.377831   -0.000889
  29 O :   -1.034225    0.000084
  30 O :   -0.446217   -0.000152
  31 H :    0.220778    0.000014
Sum of atomic charges         :   -0.0000000

LOEWDIN ATOMIC CHARGES AND SPIN POPULATIONS
-------------------------------------------
   0 O :    0.389183    0.432948
   1 N :   -0.105198    0.411301
   2 C :   -0.433929    0.039802
   3 C :    0.304053    0.001802
   4 C :   -0.031598    0.000142
   5 C :    0.292315    0.001756
   6 C :   -0.433991    0.039720
   7 C :    0.602188    0.020398
   8 C :    0.574879    0.004408
   9 C :    0.601440    0.020384
  10 C :    0.573910    0.004423
  11 H :   -0.112699   -0.000342
  12 H :   -0.113773    0.000864
  13 H :   -0.144801    0.000042
  14 H :   -0.108894   -0.000345
  15 H :   -0.134756    0.000846
  16 H :   -0.153072    0.001831
  17 H :   -0.167559    0.001924
  18 H :   -0.135692    0.005795
  19 H :   -0.174239   -0.000285
  20 H :   -0.144104    0.001068
  21 H :   -0.139291    0.000542
  22 H :   -0.154216    0.001828
  23 H :   -0.166419    0.001921
  24 H :   -0.136312    0.005790
  25 H :   -0.174595   -0.000281
  26 H :   -0.144481    0.001076
  27 H :   -0.139999    0.000543
  28 C :   -0.793979    0.000098
  29 O :    0.456701    0.000008
  30 O :    0.877144   -0.000002
  31 H :   -0.428218   -0.000003

  Mayer bond orders larger than 0.100000
B(  0-O ,  1-N ) :   0.4942 B(  1-N ,  2-C ) :   0.5350 B(  1-N ,  3-C ) :   0.2420
B(  1-N ,  4-C ) :  -0.1337 B(  1-N ,  5-C ) :   0.2540 B(  1-N ,  6-C ) :   0.4564
B(  1-N ,  8-C ) :   0.1961 B(  1-N , 10-C ) :   0.2134 B(  2-C ,  3-C ) :  -0.1859
B(  2-C ,  7-C ) :  -0.3148 B(  2-C ,  8-C ) :  -0.6532 B(  2-C , 16-H ) :  -0.1266
B(  2-C , 18-H ) :  -0.1470 B(  2-C , 19-H ) :  -0.1056 B(  2-C , 20-H ) :  -0.1858
B(  3-C ,  4-C ) :   0.7817 B(  3-C ,  5-C ) :   0.2130 B(  3-C , 11-H ) :   0.5502
B(  3-C , 12-H ) :   1.1268 B(  3-C , 28-C ) :   0.2124 B(  3-C , 29-O ) :   0.1526
B(  3-C , 30-O ) :   0.1192 B(  4-C ,  5-C ) :   1.1681 B(  4-C ,  7-C ) :  -0.1042
B(  4-C , 13-H ) :   0.8608 B(  4-C , 28-C ) :  -0.3413 B(  4-C , 29-O ) :  -0.1793
B(  5-C ,  6-C ) :  -0.1595 B(  5-C , 14-H ) :   0.5322 B(  5-C , 15-H ) :   1.1432
B(  5-C , 28-C ) :  -0.2556 B(  5-C , 30-O ) :  -0.1656 B(  6-C ,  9-C ) :  -0.2910
B(  6-C , 10-C ) :  -0.6409 B(  6-C , 22-H ) :  -0.1371 B(  6-C , 24-H ) :  -0.1533
B(  6-C , 25-H ) :  -0.1066 B(  6-C , 26-H ) :  -0.1856 B(  7-C ,  8-C ) :   0.2868
B(  7-C , 16-H ) :   1.0956 B(  7-C , 17-H ) :   1.0506 B(  7-C , 18-H ) :   1.2572
B(  8-C , 19-H ) :   1.1028 B(  8-C , 20-H ) :   1.1372 B(  8-C , 21-H ) :   1.0928
B(  9-C , 10-C ) :   0.2786 B(  9-C , 22-H ) :   1.1051 B(  9-C , 23-H ) :   1.0361
B(  9-C , 24-H ) :   1.2471 B( 10-C , 25-H ) :   1.0957 B( 10-C , 26-H ) :   1.1334
B( 10-C , 27-H ) :   1.1008 B( 11-H , 29-O ) :   0.1158 B( 13-H , 28-C ) :  -0.1521
B( 28-C , 29-O ) :   0.8848 B( 28-C , 30-O ) :   0.9391 B( 29-O , 30-O ) :   0.1009
B( 30-O , 31-H ) :   0.9349

Dispersion correction           -0.012648447
FINAL SINGLE POINT ENERGY      -672.171634663172

DIPOLE MOMENT
-------------

Method             : SCF
Type of density    : Electron Density
Multiplicity       :   2
Irrep              :   0
Energy             :  -672.1589862165727709 Eh
Relativity type    :
Basis              : AO
                                X                 Y                 Z
Electronic contribution:      4.807264648      -8.552551342      -2.451285552
Nuclear contribution   :     -4.499370341       7.227471368       2.551456631
                        -----------------------------------------
Total Dipole Moment    :      0.307894307      -1.325079973       0.100171079
                        -----------------------------------------
Magnitude (a.u.)       :      1.364063812
Magnitude (Debye)      :      3.467174670

Rotational constants in cm-1:             0.032861             0.018000             0.014315
Rotational constants in MHz :           985.137825           539.637510           429.167318

                             ****ORCA TERMINATED NORMALLY****
TOTAL RUN TIME: 0 days 0 hours 10 minutes 25 seconds 35 msec
