                         Program Version 6.0.0  -   RELEASE  -
|  1> !PBE0 freq def2-SV(p) d3 TightSCF SlowConv RIJCOSX defgrid2
|  2>
|  3> %pal
|  4> nprocs 12
|  5> end
|  6>
|  7> %scf
|  8> MaxIter 1500
|  9> end
| 10>
| 11> %maxcore 5000
| 12>
| 13> !CPCM
| 14> %cpcm smd true
| 15> SMDsolvent "MeCN"
| 16> surfacetype gepol_ses
| 17> rsolv 2.19
| 18> end
| 19>
| 20> * xyz 1 2
| 21> C          -0.22544184243838     -1.24122078695785     -0.03906602292929
| 22> C           1.14795297310473     -1.22625612217444      0.00236307778752
| 23> C           1.84413208449834     -0.00004024910161      0.02337754735381
| 24> C           1.14799491332436      1.22620211580580      0.00235707110286
| 25> C          -0.22539988457966      1.24121617375901     -0.03906459238100
| 26> C          -0.94026577773748      0.00001034363566     -0.05994773937060
| 27> N          -2.26308652072723      0.00003206621723     -0.09847449424570
| 28> H          -2.79389038995968      0.87220901628953     -0.11530871876120
| 29> H          -2.79391918572800     -0.87212862504440     -0.11530677852147
| 30> H          -0.78738370428222      2.17843494626835     -0.05631062595365
| 31> H           1.70384176880807      2.16679901009387      0.01896516694542
| 32> H           2.93672352628231     -0.00006389371056      0.05586955336911
| 33> H           1.70376684187017     -2.16687397703959      0.01897742653085
| 34> H          -0.78745650243534     -2.17842001804095     -0.05630607092666
| 35> *
| 36>
| 37>                          ****END OF INPUT****

CARTESIAN COORDINATES (ANGSTROEM)
---------------------------------
  C     -0.225442   -1.241221   -0.039066
  C      1.147953   -1.226256    0.002363
  C      1.844132   -0.000040    0.023378
  C      1.147995    1.226202    0.002357
  C     -0.225400    1.241216   -0.039065
  C     -0.940266    0.000010   -0.059948
  N     -2.263087    0.000032   -0.098474
  H     -2.793890    0.872209   -0.115309
  H     -2.793919   -0.872129   -0.115307
  H     -0.787384    2.178435   -0.056311
  H      1.703842    2.166799    0.018965
  H      2.936724   -0.000064    0.055870
  H      1.703767   -2.166874    0.018977
  H     -0.787457   -2.178420   -0.056306

 Total Charge           Charge          ....    1
 Multiplicity           Mult            ....    2
 Number of Electrons    NEL             ....   49
 Basis Dimension        Dim             ....  112

ORBITAL ENERGIES
----------------
                 SPIN UP ORBITALS
  NO   OCC          E(Eh)            E(eV)
   0   1.0000     -14.485901      -394.1814
   1   1.0000     -10.343395      -281.4581
   2   1.0000     -10.285900      -279.8936
   3   1.0000     -10.282582      -279.8033
   4   1.0000     -10.282574      -279.8031
   5   1.0000     -10.269880      -279.4576
   6   1.0000     -10.269872      -279.4574
   7   1.0000      -1.024681       -27.8830
   8   1.0000      -0.906183       -24.6585
   9   1.0000      -0.808732       -22.0067
  10   1.0000      -0.789127       -21.4732
  11   1.0000      -0.674831       -18.3631
  12   1.0000      -0.670536       -18.2462
  13   1.0000      -0.592515       -16.1232
  14   1.0000      -0.584736       -15.9115
  15   1.0000      -0.537864       -14.6360
  16   1.0000      -0.491233       -13.3671
  17   1.0000      -0.478504       -13.0207
  18   1.0000      -0.475582       -12.9412
  19   1.0000      -0.472704       -12.8629
  20   1.0000      -0.410505       -11.1704
  21   1.0000      -0.394405       -10.7323
  22   1.0000      -0.389369       -10.5953
  23   1.0000      -0.314718        -8.5639
  24   1.0000      -0.278336        -7.5739
  25   0.0000      -0.039124        -1.0646
  26   0.0000      -0.037736        -1.0268
  27   0.0000       0.063957         1.7403
  28   0.0000       0.076756         2.0886
  29   0.0000       0.091054         2.4777

                 SPIN DOWN ORBITALS
  NO   OCC          E(Eh)            E(eV)
   0   1.0000     -14.476469      -393.9248
   1   1.0000     -10.343361      -281.4572
   2   1.0000     -10.279397      -279.7166
   3   1.0000     -10.278645      -279.6962
   4   1.0000     -10.278632      -279.6958
   5   1.0000     -10.272058      -279.5169
   6   1.0000     -10.272054      -279.5168
   7   1.0000      -1.009202       -27.4618
   8   1.0000      -0.897298       -24.4167
   9   1.0000      -0.804894       -21.9023
  10   1.0000      -0.774315       -21.0702
  11   1.0000      -0.671348       -18.2683
  12   1.0000      -0.663355       -18.0508
  13   1.0000      -0.589688       -16.0462
  14   1.0000      -0.579031       -15.7562
  15   1.0000      -0.532730       -14.4963
  16   1.0000      -0.487538       -13.2666
  17   1.0000      -0.476005       -12.9528
  18   1.0000      -0.471840       -12.8394
  19   1.0000      -0.443008       -12.0549
  20   1.0000      -0.408093       -11.1048
  21   1.0000      -0.387639       -10.5482
  22   1.0000      -0.356984        -9.7140
  23   1.0000      -0.304665        -8.2903
  24   0.0000      -0.172102        -4.6831
  25   0.0000      -0.025391        -0.6909
  26   0.0000      -0.007749        -0.2109
  27   0.0000       0.066940         1.8215
  28   0.0000       0.079185         2.1547

MULLIKEN ATOMIC CHARGES AND SPIN POPULATIONS
--------------------------------------------
   0 C :   -0.065695    0.271598
   1 C :   -0.107118   -0.177753
   2 C :   -0.028249    0.457622
   3 C :   -0.107117   -0.177753
   4 C :   -0.065684    0.271596
   5 C :    0.112667    0.009233
   6 N :   -0.258818    0.417152
   7 H :    0.349920   -0.017333
   8 H :    0.349923   -0.017333
   9 H :    0.162074   -0.013484
  10 H :    0.163293    0.006270
  11 H :    0.169435   -0.022602
  12 H :    0.163294    0.006270
  13 H :    0.162075   -0.013484
Sum of atomic charges         :    1.0000000

LOEWDIN ATOMIC CHARGES AND SPIN POPULATIONS
-------------------------------------------
   0 C :   -0.081391    0.218612
   1 C :   -0.098725   -0.097184
   2 C :   -0.033072    0.358192
   3 C :   -0.098722   -0.097184
   4 C :   -0.081389    0.218611
   5 C :    0.051672    0.047650
   6 N :   -0.098073    0.392521
   7 H :    0.300381   -0.010966
   8 H :    0.300383   -0.010966
   9 H :    0.171148   -0.007127
  10 H :    0.165224    0.003040
  11 H :    0.166191   -0.011112
  12 H :    0.165225    0.003040
  13 H :    0.171149   -0.007127

  Mayer bond orders larger than 0.100000
B(  0-C ,  1-C ) :   1.4964 B(  0-C ,  5-C ) :   1.1622 B(  0-C , 13-H ) :   0.9529
B(  1-C ,  2-C ) :   1.2721 B(  1-C , 12-H ) :   0.9547 B(  2-C ,  3-C ) :   1.2721
B(  2-C , 11-H ) :   0.9530 B(  3-C ,  4-C ) :   1.4964 B(  3-C , 10-H ) :   0.9547
B(  4-C ,  5-C ) :   1.1622 B(  4-C ,  9-H ) :   0.9529 B(  5-C ,  6-N ) :   1.5201
B(  6-N ,  7-H ) :   0.8245 B(  6-N ,  8-H ) :   0.8245

Dispersion correction           -0.011440201
FINAL SINGLE POINT ENERGY      -286.872447391590

DIPOLE MOMENT
-------------

Method             : SCF
Type of density    : Electron Density
Multiplicity       :   2
Irrep              :   0
Energy             :  -286.8610071900903904 Eh
Relativity type    :
Basis              : AO
                                X                 Y                 Z
Electronic contribution:     -0.987477438       0.000023067      -0.029081721
Nuclear contribution   :     -0.815052640       0.000005768      -0.026219108
                        -----------------------------------------
Total Dipole Moment    :     -1.802530078       0.000028835      -0.055300829
                        -----------------------------------------
Magnitude (a.u.)       :      1.803378182
Magnitude (Debye)      :      4.583823055

VIBRATIONAL FREQUENCIES
-----------------------

Scaling factor for frequencies =  1.000000000  (already applied!)

     0:       0.00 cm**-1
     1:       0.00 cm**-1
     2:       0.00 cm**-1
     3:       0.00 cm**-1
     4:       0.00 cm**-1
     5:       0.00 cm**-1
     6:     175.88 cm**-1
     7:     361.65 cm**-1
     8:     381.20 cm**-1
     9:     459.68 cm**-1
    10:     529.93 cm**-1
    11:     533.60 cm**-1
    12:     591.51 cm**-1
    13:     596.88 cm**-1
    14:     641.27 cm**-1
    15:     802.14 cm**-1
    16:     805.40 cm**-1
    17:     841.30 cm**-1
    18:     933.63 cm**-1
    19:     994.20 cm**-1
    20:    1004.00 cm**-1
    21:    1023.02 cm**-1
    22:    1023.99 cm**-1
    23:    1026.17 cm**-1
    24:    1119.19 cm**-1
    25:    1144.97 cm**-1
    26:    1171.65 cm**-1
    27:    1343.65 cm**-1
    28:    1408.00 cm**-1
    29:    1427.26 cm**-1
    30:    1494.55 cm**-1
    31:    1531.39 cm**-1
    32:    1582.77 cm**-1
    33:    1636.94 cm**-1
    34:    1664.79 cm**-1
    35:    3223.32 cm**-1
    36:    3224.75 cm**-1
    37:    3232.74 cm**-1
    38:    3239.62 cm**-1
    39:    3246.15 cm**-1
    40:    3480.70 cm**-1
    41:    3581.29 cm**-1

IR SPECTRUM
-----------

 Mode   freq       eps      Int      T**2         TX        TY        TZ
       cm**-1   L/(mol*cm) km/mol    a.u.
----------------------------------------------------------------------------
  6:    175.88   0.003070   15.52  0.005448  (-0.003181 -0.000001  0.073741)
  7:    361.65   0.000001    0.00  0.000001  ( 0.000002 -0.000814 -0.000006)
  8:    381.20   0.001867    9.44  0.001529  ( 0.000000  0.039096 -0.000001)
  9:    459.68   0.008318   42.03  0.005647  ( 0.002031 -0.000001 -0.075116)
 10:    529.93   0.000465    2.35  0.000274  ( 0.016538  0.000000  0.000345)
 11:    533.60   0.000000    0.00  0.000000  (-0.000001  0.000119 -0.000028)
 12:    591.51   0.049711  251.22  0.026226  ( 0.005332 -0.000002 -0.161857)
 13:    596.88   0.000057    0.29  0.000030  ( 0.000001  0.005465 -0.000046)
 14:    641.27   0.006474   32.72  0.003151  (-0.001922 -0.000000  0.056097)
 15:    802.14   0.012442   62.87  0.004840  ( 0.002107  0.000002 -0.069540)
 16:    805.40   0.000000    0.00  0.000000  ( 0.000001  0.000119 -0.000063)
 17:    841.30   0.000319    1.61  0.000118  (-0.010871 -0.000000 -0.000240)
 18:    933.63   0.001892    9.56  0.000632  (-0.000394  0.000003  0.025146)
 19:    994.20   0.000002    0.01  0.000001  (-0.000712 -0.000001  0.000026)
 20:   1004.00   0.000000    0.00  0.000000  (-0.000001 -0.000247  0.000003)
 21:   1023.02   0.000112    0.57  0.000034  (-0.000003  0.005849 -0.000012)
 22:   1023.99   0.000135    0.68  0.000041  (-0.000329  0.000014  0.006396)
 23:   1026.17   0.000151    0.76  0.000046  (-0.006752 -0.000002 -0.000504)
 24:   1119.19   0.005832   29.47  0.001626  (-0.000002 -0.040327 -0.000000)
 25:   1144.97   0.000137    0.69  0.000037  ( 0.000002  0.006103 -0.000000)
 26:   1171.65   0.000569    2.88  0.000152  ( 0.012306 -0.000001  0.000325)
 27:   1343.65   0.000027    0.14  0.000006  ( 0.000000 -0.002523 -0.000001)
 28:   1408.00   0.007848   39.66  0.001739  ( 0.041689 -0.000004  0.001209)
 29:   1427.26   0.006039   30.52  0.001320  (-0.000003 -0.036337  0.000001)
 30:   1494.55   0.003094   15.64  0.000646  ( 0.000001  0.025418 -0.000001)
 31:   1531.39   0.004481   22.64  0.000913  ( 0.030205  0.000002  0.000854)
 32:   1582.77   0.001949    9.85  0.000384  (-0.000004 -0.019603 -0.000000)
 33:   1636.94   0.062661  316.66  0.011945  ( 0.109247 -0.000002  0.003252)
 34:   1664.79   0.000105    0.53  0.000020  ( 0.004439 -0.000000  0.000088)
 35:   3223.32   0.000094    0.47  0.000009  ( 0.003009  0.000034  0.000056)
 36:   3224.75   0.000329    1.66  0.000032  ( 0.000014 -0.005639  0.000000)
 37:   3232.74   0.000354    1.79  0.000034  (-0.005842  0.000007 -0.000192)
 38:   3239.62   0.000004    0.02  0.000000  (-0.000000 -0.000624  0.000000)
 39:   3246.15   0.000184    0.93  0.000018  ( 0.004209  0.000000  0.000133)
 40:   3480.70   0.100281  506.78  0.008991  ( 0.094775  0.000003  0.002896)
 41:   3581.29   0.039346  198.84  0.003429  ( 0.000004 -0.058553  0.000000)

--------------------------
THERMOCHEMISTRY AT 298.15K
--------------------------

Temperature         ...   298.15 K
Pressure            ...     1.00 atm
Total Mass          ...    93.13 AMU
Quasi RRHO          ...     True
Cut-Off Frequency   ...     1.00 cm^-1

Throughout the following assumptions are being made:
  (1) The electronic state is orbitally nondegenerate
      but the spin degeneracy is treated
  (2) There are no thermally accessible electronically excited states
  (3) Hindered rotations indicated by low frequency modes are not
      treated as such but are treated as vibrations and this may
      cause some error
  (4) All equations used are the standard statistical mechanics
      equations for an ideal gas
  (5) All vibrations are strictly harmonic

freq.     175.88  E(vib)   ...       0.38
freq.     361.65  E(vib)   ...       0.22
freq.     381.20  E(vib)   ...       0.21
freq.     459.68  E(vib)   ...       0.16
freq.     529.93  E(vib)   ...       0.13
freq.     533.60  E(vib)   ...       0.13
freq.     591.51  E(vib)   ...       0.10
freq.     596.88  E(vib)   ...       0.10
freq.     641.27  E(vib)   ...       0.09
freq.     802.14  E(vib)   ...       0.05
freq.     805.40  E(vib)   ...       0.05
freq.     841.30  E(vib)   ...       0.04
freq.     933.63  E(vib)   ...       0.03
freq.     994.20  E(vib)   ...       0.02
freq.    1004.00  E(vib)   ...       0.02
freq.    1023.02  E(vib)   ...       0.02
freq.    1023.99  E(vib)   ...       0.02
freq.    1026.17  E(vib)   ...       0.02
freq.    1119.19  E(vib)   ...       0.01
freq.    1144.97  E(vib)   ...       0.01
freq.    1171.65  E(vib)   ...       0.01
freq.    1343.65  E(vib)   ...       0.01
freq.    1408.00  E(vib)   ...       0.00
freq.    1427.26  E(vib)   ...       0.00
freq.    1494.55  E(vib)   ...       0.00
freq.    1531.39  E(vib)   ...       0.00
freq.    1582.77  E(vib)   ...       0.00
freq.    1636.94  E(vib)   ...       0.00
freq.    1664.79  E(vib)   ...       0.00
freq.    3223.32  E(vib)   ...       0.00
freq.    3224.75  E(vib)   ...       0.00
freq.    3232.74  E(vib)   ...       0.00
freq.    3239.62  E(vib)   ...       0.00
freq.    3246.15  E(vib)   ...       0.00
freq.    3480.70  E(vib)   ...       0.00
freq.    3581.29  E(vib)   ...       0.00

------------
INNER ENERGY
------------

The inner energy is: U= E(el) + E(ZPE) + E(vib) + E(rot) + E(trans)
    E(el)   - is the total energy from the electronic structure calculation
              = E(kin-el) + E(nuc-el) + E(el-el) + E(nuc-nuc)
    E(ZPE)  - the the zero temperature vibrational energy from the frequency calculation
    E(vib)  - the the finite temperature correction to E(ZPE) due to population
              of excited vibrational states
    E(rot)  - is the rotational thermal energy
    E(trans)- is the translational thermal energy

Summary of contributions to the inner energy U:
Electronic energy                ...   -286.87244739 Eh
Zero point energy                ...      0.11727824 Eh      73.59 kcal/mol
Thermal vibrational correction   ...      0.00294840 Eh       1.85 kcal/mol
Thermal rotational correction    ...      0.00141627 Eh       0.89 kcal/mol
Thermal translational correction ...      0.00141627 Eh       0.89 kcal/mol
-----------------------------------------------------------------------
Total thermal energy                   -286.74938820 Eh

Summary of corrections to the electronic energy:
(perhaps to be used in another calculation)
Total thermal correction                  0.00578094 Eh       3.63 kcal/mol
Non-thermal (ZPE) correction              0.11727824 Eh      73.59 kcal/mol
-----------------------------------------------------------------------
Total correction                          0.12305919 Eh      77.22 kcal/mol

--------
ENTHALPY
--------

The enthalpy is H = U + kB*T
                kB is Boltzmann's constant
Total thermal energy              ...   -286.74938820 Eh
Thermal Enthalpy correction       ...      0.00094421 Eh       0.59 kcal/mol
-----------------------------------------------------------------------
Total Enthalpy                    ...   -286.74844399 Eh

Note: Rotational entropy computed according to Herzberg
Infrared and Raman Spectra, Chapter V,1, Van Nostrand Reinhold, 1945
Point Group:  Cs, Symmetry Number:   1
Rotational constants in cm-1:     0.179920     0.089775     0.059891

Vibrational entropy computed according to the QRRHO of S. Grimme
Chem.Eur.J. 2012 18 9955 using a reference frequency of 100.0 cm-1

-------
ENTROPY
-------

The entropy contributions are T*S = T*(S(el)+S(vib)+S(rot)+S(trans))
     S(el)   - electronic entropy
     S(vib)  - vibrational entropy
     S(rot)  - rotational entropy
     S(trans)- translational entropy
The entropies will be listed as multiplied by the temperature to get
units of energy

Electronic entropy                ...      0.00065446 Eh      0.41 kcal/mol
Vibrational entropy               ...      0.00435469 Eh      2.73 kcal/mol
Rotational entropy                ...      0.01278756 Eh      8.02 kcal/mol
Translational entropy             ...      0.01877043 Eh     11.78 kcal/mol
-----------------------------------------------------------------------
Final entropy term                ...      0.03656713 Eh     22.95 kcal/mol

In case the symmetry of your molecule has not been determined correctly
or in case you have a reason to use a different symmetry number we print
out the resulting rotational entropy values for sn=1,12:

 non-linear molecules -----------------------------------
|  sn= 1 | S(rot)=       0.01278756 Eh      8.02 kcal/mol|
|  sn= 2 | S(rot)=       0.01213310 Eh      7.61 kcal/mol|
|  sn= 3 | S(rot)=       0.01175027 Eh      7.37 kcal/mol|
|  sn= 4 | S(rot)=       0.01147864 Eh      7.20 kcal/mol|
|  sn= 5 | S(rot)=       0.01126796 Eh      7.07 kcal/mol|
|  sn= 6 | S(rot)=       0.01109581 Eh      6.96 kcal/mol|
|  sn= 7 | S(rot)=       0.01095026 Eh      6.87 kcal/mol|
|  sn= 8 | S(rot)=       0.01082419 Eh      6.79 kcal/mol|
|  sn= 9 | S(rot)=       0.01071298 Eh      6.72 kcal/mol|
|  sn=10 | S(rot)=       0.01061350 Eh      6.66 kcal/mol|
|  sn=11 | S(rot)=       0.01052351 Eh      6.60 kcal/mol|
|  sn=12 | S(rot)=       0.01044135 Eh      6.55 kcal/mol|
 linear molecules ---------------------------------------
|  Dinfh | S(rot)=       0.00798389 Eh      5.01 kcal/mol|
|  Cinfv | S(rot)=       0.00863835 Eh      5.42 kcal/mol|
 --------------------------------------------------------

-------------------
GIBBS FREE ENERGY
-------------------

The Gibbs free energy is G = H - T*S

Total enthalpy                    ...   -286.74844399 Eh
Total entropy correction          ...     -0.03656713 Eh    -22.95 kcal/mol
-----------------------------------------------------------------------
Final Gibbs free energy         ...   -286.78501112 Eh

                             ****ORCA TERMINATED NORMALLY****
TOTAL RUN TIME: 0 days 0 hours 8 minutes 13 seconds 598 msec
