                         Program Version 6.0.0  -   RELEASE  -
|  1> !PBE0 aug-cc-pVTZ d3 TightSCF SlowConv RIJCOSX defgrid2
|  2>
|  3> %pal
|  4> nprocs 15
|  5> end
|  6>
|  7> %scf
|  8> MaxIter 1500
|  9> end
| 10>
| 11> %maxcore 3500
| 12>
| 13> !CPCM
| 14> %cpcm smd true
| 15> SMDsolvent "WATER"
| 16> surfacetype gepol_ses
| 17> rsolv 1.40
| 18> end
| 19>
| 20> * xyz -1 2
| 21> C           0.05676834437269     -0.04126375525375     -0.07379470178985
| 22> C           0.04676127079215      1.38639972567344      0.09948592866889
| 23> C           0.00732325322699      2.02650392411858      1.32436257991460
| 24> C          -0.02811199415728      1.28756028332669      2.56763955505213
| 25> C          -0.01950367462772     -0.17671526637425      2.44249972135594
| 26> C           0.02128903830978     -0.81737610319329      1.17794298580176
| 27> C           0.02766320595178     -2.22274936131322      1.12035686382715
| 28> C          -0.00525760141292     -2.98509780735118      2.27563842056320
| 29> C          -0.04596579054487     -2.34934581671190      3.53299210043314
| 30> C          -0.05269695553496     -0.96718770864542      3.60727949422398
| 31> H           0.07307998987984      1.97354439848574     -0.82691927210829
| 32> H          -0.08387968905241     -0.43627556568955      4.56348338899376
| 33> H          -0.07227523191341     -2.95060132238905      4.44937134345183
| 34> H           0.00009741014830     -4.07969694965667      2.21544872655867
| 35> H           0.05965826160228     -2.67423134322413      0.12415494788135
| 36> C          -0.00135605546558      3.52012474646347      1.44205228332186
| 37> H          -0.89947922034870      3.86767983350127      1.98595203666262
| 38> H           0.86028970160146      3.87394551637077      2.03844092282286
| 39> H           0.02673872207916      4.00491399489856      0.45047397160307
| 40> O          -0.06383664808370      1.85761287334880      3.68239612384268
| 41> O           0.09269366317713     -0.59678036638491     -1.19351016008137
| 42> *
| 43>
| 44>                          ****END OF INPUT****

CARTESIAN COORDINATES (ANGSTROEM)
---------------------------------
  C      0.056768   -0.041264   -0.073795
  C      0.046761    1.386400    0.099486
  C      0.007323    2.026504    1.324363
  C     -0.028112    1.287560    2.567640
  C     -0.019504   -0.176715    2.442500
  C      0.021289   -0.817376    1.177943
  C      0.027663   -2.222749    1.120357
  C     -0.005258   -2.985098    2.275638
  C     -0.045966   -2.349346    3.532992
  C     -0.052697   -0.967188    3.607279
  H      0.073080    1.973544   -0.826919
  H     -0.083880   -0.436276    4.563483
  H     -0.072275   -2.950601    4.449371
  H      0.000097   -4.079697    2.215449
  H      0.059658   -2.674231    0.124155
  C     -0.001356    3.520125    1.442052
  H     -0.899479    3.867680    1.985952
  H      0.860290    3.873946    2.038441
  H      0.026739    4.004914    0.450474
  O     -0.063837    1.857613    3.682396
  O      0.092694   -0.596780   -1.193510

 Total Charge           Charge          ....   -1
 Multiplicity           Mult            ....    2
 Number of Electrons    NEL             ....   91
 Basis Dimension        Dim             ....  782

ORBITAL ENERGIES
----------------
                 SPIN UP ORBITALS
  NO   OCC          E(Eh)            E(eV)
   0   1.0000     -19.170623      -521.6592
   1   1.0000     -19.170547      -521.6571
   2   1.0000     -10.280709      -279.7523
   3   1.0000     -10.277933      -279.6768
   4   1.0000     -10.231653      -278.4174
   5   1.0000     -10.230736      -278.3925
   6   1.0000     -10.230028      -278.3732
   7   1.0000     -10.229664      -278.3633
   8   1.0000     -10.229065      -278.3470
   9   1.0000     -10.226827      -278.2861
  10   1.0000     -10.226653      -278.2814
  11   1.0000     -10.216143      -277.9954
  12   1.0000     -10.210924      -277.8534
  13   1.0000      -1.041302       -28.3353
  14   1.0000      -1.038935       -28.2709
  15   1.0000      -0.884466       -24.0675
  16   1.0000      -0.836033       -22.7496
  17   1.0000      -0.776155       -21.1203
  18   1.0000      -0.772900       -21.0317
  19   1.0000      -0.721427       -19.6310
  20   1.0000      -0.680444       -18.5158
  21   1.0000      -0.632817       -17.2198
  22   1.0000      -0.610336       -16.6081
  23   1.0000      -0.573577       -15.6078
  24   1.0000      -0.525440       -14.2980
  25   1.0000      -0.511153       -13.9092
  26   1.0000      -0.484432       -13.1821
  27   1.0000      -0.460270       -12.5246
  28   1.0000      -0.447617       -12.1803
  29   1.0000      -0.442143       -12.0313
  30   1.0000      -0.434939       -11.8353
  31   1.0000      -0.432969       -11.7817
  32   1.0000      -0.413977       -11.2649
  33   1.0000      -0.402358       -10.9487
  34   1.0000      -0.393995       -10.7211
  35   1.0000      -0.392724       -10.6866
  36   1.0000      -0.380026       -10.3410
  37   1.0000      -0.366680        -9.9779
  38   1.0000      -0.357579        -9.7302
  39   1.0000      -0.346112        -9.4182
  40   1.0000      -0.291557        -7.9337
  41   1.0000      -0.270258        -7.3541
  42   1.0000      -0.267582        -7.2813
  43   1.0000      -0.258444        -7.0326
  44   1.0000      -0.255524        -6.9532
  45   1.0000      -0.166487        -4.5303
  46   0.0000      -0.031797        -0.8652
  47   0.0000      -0.012935        -0.3520
  48   0.0000       0.002750         0.0748
  49   0.0000       0.013185         0.3588
  50   0.0000       0.017932         0.4880

                 SPIN DOWN ORBITALS
  NO   OCC          E(Eh)            E(eV)
   0   1.0000     -19.164806      -521.5009
   1   1.0000     -19.164473      -521.4918
   2   1.0000     -10.278838      -279.7014
   3   1.0000     -10.275753      -279.6175
   4   1.0000     -10.230371      -278.3825
   5   1.0000     -10.229807      -278.3672
   6   1.0000     -10.229518      -278.3593
   7   1.0000     -10.229363      -278.3551
   8   1.0000     -10.228685      -278.3367
   9   1.0000     -10.226796      -278.2853
  10   1.0000     -10.226467      -278.2763
  11   1.0000     -10.214962      -277.9632
  12   1.0000     -10.211063      -277.8572
  13   1.0000      -1.030575       -28.0434
  14   1.0000      -1.027788       -27.9675
  15   1.0000      -0.882234       -24.0068
  16   1.0000      -0.830556       -22.6006
  17   1.0000      -0.773904       -21.0590
  18   1.0000      -0.770864       -20.9763
  19   1.0000      -0.716447       -19.4955
  20   1.0000      -0.672914       -18.3109
  21   1.0000      -0.630568       -17.1586
  22   1.0000      -0.607446       -16.5294
  23   1.0000      -0.570444       -15.5226
  24   1.0000      -0.523089       -14.2340
  25   1.0000      -0.507980       -13.8228
  26   1.0000      -0.481390       -13.0993
  27   1.0000      -0.459181       -12.4949
  28   1.0000      -0.437037       -11.8924
  29   1.0000      -0.432865       -11.7789
  30   1.0000      -0.432439       -11.7673
  31   1.0000      -0.431871       -11.7518
  32   1.0000      -0.402671       -10.9572
  33   1.0000      -0.400267       -10.8918
  34   1.0000      -0.391147       -10.6436
  35   1.0000      -0.378921       -10.3110
  36   1.0000      -0.371937       -10.1209
  37   1.0000      -0.355992        -9.6870
  38   1.0000      -0.353644        -9.6232
  39   1.0000      -0.345092        -9.3904
  40   1.0000      -0.264190        -7.1890
  41   1.0000      -0.262770        -7.1503
  42   1.0000      -0.262369        -7.1394
  43   1.0000      -0.251277        -6.8376
  44   1.0000      -0.250394        -6.8136
  45   0.0000      -0.085700        -2.3320
  46   0.0000      -0.022492        -0.6120
  47   0.0000       0.000411         0.0112
  48   0.0000       0.003612         0.0983
  49   0.0000       0.013645         0.3713

MULLIKEN ATOMIC CHARGES AND SPIN POPULATIONS
--------------------------------------------
   0 C :    1.094719    0.106897
   1 C :   -0.727697    0.105806
   2 C :    0.183416    0.100920
   3 C :    0.745487    0.123746
   4 C :    1.219063    0.013211
   5 C :    0.899100    0.047164
   6 C :   -1.244052    0.009429
   7 C :   -0.536111    0.029031
   8 C :   -0.498040    0.018492
   9 C :   -1.471256    0.022495
  10 H :    0.322172   -0.000504
  11 H :    0.171223   -0.004233
  12 H :    0.710839   -0.000937
  13 H :    0.655083   -0.001604
  14 H :    0.120986   -0.003524
  15 C :   -0.795563   -0.013120
  16 H :    0.243389    0.007088
  17 H :    0.239617    0.007074
  18 H :    0.236471   -0.000893
  19 O :   -1.283022    0.224929
  20 O :   -1.285825    0.208534
Sum of atomic charges         :   -1.0000000

LOEWDIN ATOMIC CHARGES AND SPIN POPULATIONS
-------------------------------------------
   0 C :   -0.657746    0.119672
   1 C :    0.178212    0.084353
   2 C :   -0.168959    0.099321
   3 C :   -0.626534    0.132873
   4 C :   -0.149580    0.043695
   5 C :   -0.154854    0.043966
   6 C :    0.178846    0.011664
   7 C :    0.186909    0.018950
   8 C :    0.186784    0.015915
   9 C :    0.180739    0.013932
  10 H :   -0.187540    0.009159
  11 H :   -0.192905    0.001527
  12 H :   -0.169942    0.002444
  13 H :   -0.170326    0.003682
  14 H :   -0.192646    0.000452
  15 C :    0.530207    0.013342
  16 H :   -0.164236    0.003418
  17 H :   -0.164185    0.003420
  18 H :   -0.167601   -0.000270
  19 O :    0.379616    0.194902
  20 O :    0.345741    0.183583

  Mayer bond orders larger than 0.100000
B(  0-C ,  1-C ) :   0.8913 B(  0-C ,  3-C ) :   0.1467 B(  0-C ,  5-C ) :   0.4549
B(  0-C ,  6-C ) :   0.5264 B(  0-C ,  8-C ) :   0.1138 B(  0-C ,  9-C ) :  -0.1296
B(  0-C , 10-H ) :  -0.1910 B(  0-C , 20-O ) :  -0.3330 B(  1-C ,  2-C ) :   1.2127
B(  1-C ,  3-C ) :  -0.2486 B(  1-C ,  4-C ) :  -0.1266 B(  1-C ,  5-C ) :   0.3222
B(  1-C ,  6-C ) :   0.1228 B(  1-C , 10-H ) :   0.6344 B(  1-C , 15-C ) :  -0.2068
B(  1-C , 20-O ) :   0.2772 B(  2-C ,  3-C ) :   0.8306 B(  2-C ,  4-C ) :   0.5384
B(  2-C ,  5-C ) :  -0.1241 B(  2-C , 15-C ) :   0.5746 B(  2-C , 19-O ) :   0.1876
B(  2-C , 20-O ) :   0.1270 B(  3-C ,  4-C ) :   0.5798 B(  3-C ,  6-C ) :  -0.1550
B(  3-C ,  9-C ) :   0.5585 B(  3-C , 15-C ) :   0.2830 B(  4-C ,  5-C ) :   0.9437
B(  4-C ,  6-C ) :  -0.5253 B(  4-C ,  7-C ) :  -0.1951 B(  4-C ,  8-C ) :  -0.1131
B(  4-C ,  9-C ) :  -0.1390 B(  4-C , 19-O ) :   0.1241 B(  5-C ,  6-C ) :   0.2320
B(  5-C ,  8-C ) :  -0.1084 B(  5-C ,  9-C ) :  -0.2120 B(  5-C , 10-H ) :   0.1370
B(  5-C , 20-O ) :   0.2210 B(  6-C ,  7-C ) :   1.3192 B(  6-C ,  9-C ) :   0.1103
B(  6-C , 13-H ) :  -0.1565 B(  6-C , 14-H ) :   1.0882 B(  7-C ,  8-C ) :   1.2745
B(  7-C , 13-H ) :   0.2911 B(  8-C ,  9-C ) :   1.3574 B(  8-C , 12-H ) :   0.2063
B(  9-C , 11-H ) :   0.9614 B(  9-C , 12-H ) :  -0.1616 B( 10-H , 20-O ) :   0.1559
B( 11-H , 19-O ) :   0.2950 B( 14-H , 20-O ) :   0.2859 B( 15-C , 16-H ) :   0.9475
B( 15-C , 17-H ) :   0.9515 B( 15-C , 18-H ) :   0.9583

Dispersion correction           -0.022824572
FINAL SINGLE POINT ENERGY      -574.147793170118

DIPOLE MOMENT
-------------

Method             : SCF
Type of density    : Electron Density
Multiplicity       :   2
Irrep              :   0
Energy             :  -574.1249685985020506 Eh
Relativity type    :
Basis              : AO
                                X                 Y                 Z
Electronic contribution:      0.028116797      -3.922925976      -0.479370606
Nuclear contribution   :     -0.055391570       3.039875839       1.447342045
                        -----------------------------------------
Total Dipole Moment    :     -0.027274774      -0.883050137       0.967971439
                        -----------------------------------------
Magnitude (a.u.)       :      1.310530490
Magnitude (Debye)      :      3.331103778

Rotational constants in cm-1:             0.041924             0.026162             0.016157
Rotational constants in MHz :          1256.843177           784.307239           484.385236

                             ****ORCA TERMINATED NORMALLY****
TOTAL RUN TIME: 0 days 0 hours 6 minutes 11 seconds 770 msec
