                         Program Version 6.0.0  -   RELEASE  -
|  1> !r2SCAN aug-cc-pVTZ d3 TightSCF SlowConv RIJCOSX defgrid2
|  2>
|  3> %pal
|  4> nprocs 10
|  5> end
|  6>
|  7> %scf
|  8> MaxIter 1500
|  9> end
| 10>
| 11> %maxcore 3500
| 12>
| 13> !CPCM
| 14> %cpcm smd true
| 15> SMDsolvent "WATER"
| 16> surfacetype gepol_ses
| 17> rsolv 1.40
| 18> end
| 19>
| 20> * xyz 1 1
| 21>   C          -0.12783464168902      0.03134307060273     -1.09515140317282
| 22>   C          -0.07771588779790     -0.92971218052811     -0.16710947357547
| 23>   C          -0.12919605245006     -0.42683937130453      1.23585814524276
| 24>   N          -0.22178468713299      1.04844033562478      0.98180183190431
| 25>   C          -0.22815278386695      1.40845079820397     -0.48344802154556
| 26>   H          -0.00562746786650     -1.99097881364679     -0.41742121227399
| 27>   O          -0.28283959618216      1.84841054848959      1.83590548918913
| 28>   C          -0.08518619128336     -0.35879109937522     -2.55276447601453
| 29>   O          -0.01182556277165     -1.53029284400420     -2.84168103743639
| 30>   C          -1.55459876437257      2.13631852567497     -0.74219631083336
| 31>   H          -1.61559639608661      2.40210019987432     -1.80874507031995
| 32>   H          -2.41672834703621      1.49039588964646     -0.50990257113543
| 33>   H          -1.60867043617204      3.06315133921376     -0.14807750091220
| 34>   C           0.99197987220583      2.31175839591414     -0.70863005539040
| 35>   H           0.90571734984683      3.23356560719802     -0.11031871750380
| 36>   H           1.92856903642825      1.78807470587538     -0.45768655458116
| 37>   H           1.04150556124239      2.59281936172848     -1.77181047702734
| 38>   C           1.15110865335917     -0.68043554170839      2.04328624127400
| 39>   H           1.23899297088630     -1.76802501138656      2.19811060240581
| 40>   H           2.04596289628099     -0.33699333930403      1.49967780306167
| 41>   H           1.09453254399261     -0.18569022918863      3.02671243361448
| 42>   C          -1.38670020602967     -0.84436366873233      2.01059021085389
| 43>   H          -2.30386467942418     -0.61864219459089      1.44313189602476
| 44>   H          -1.33732117512029     -1.93426317158842      2.16621895625276
| 45>   H          -1.41858650993659     -0.34674593001915      2.99356252765365
| 46>   N          -0.13386543071122      0.63534107507626     -3.47284130418435
| 47>   H          -0.18439275173440      1.61992840290075     -3.25301637873183
| 48>   H          -0.10209108757800      0.36432528735361     -4.45187443683860
| 49> *
| 50>
| 51>                          ****END OF INPUT****

CARTESIAN COORDINATES (ANGSTROEM)
---------------------------------
  C     -0.127835    0.031343   -1.095151
  C     -0.077716   -0.929712   -0.167109
  C     -0.129196   -0.426839    1.235858
  N     -0.221785    1.048440    0.981802
  C     -0.228153    1.408451   -0.483448
  H     -0.005627   -1.990979   -0.417421
  O     -0.282840    1.848411    1.835905
  C     -0.085186   -0.358791   -2.552764
  O     -0.011826   -1.530293   -2.841681
  C     -1.554599    2.136319   -0.742196
  H     -1.615596    2.402100   -1.808745
  H     -2.416728    1.490396   -0.509903
  H     -1.608670    3.063151   -0.148078
  C      0.991980    2.311758   -0.708630
  H      0.905717    3.233566   -0.110319
  H      1.928569    1.788075   -0.457687
  H      1.041506    2.592819   -1.771810
  C      1.151109   -0.680436    2.043286
  H      1.238993   -1.768025    2.198111
  H      2.045963   -0.336993    1.499678
  H      1.094533   -0.185690    3.026712
  C     -1.386700   -0.844364    2.010590
  H     -2.303865   -0.618642    1.443132
  H     -1.337321   -1.934263    2.166219
  H     -1.418587   -0.346746    2.993563
  N     -0.133865    0.635341   -3.472841
  H     -0.184393    1.619928   -3.253016
  H     -0.102091    0.364325   -4.451874

 Total Charge           Charge          ....    1
 Multiplicity           Mult            ....    1
 Number of Electrons    NEL             ....   98
 Basis Dimension        Dim             ....  943

ORBITAL ENERGIES
----------------

  NO   OCC          E(Eh)            E(eV)
   0   2.0000     -19.100806      -519.7594
   1   2.0000     -18.943649      -515.4829
   2   2.0000     -14.407645      -392.0520
   3   2.0000     -14.198151      -386.3513
   4   2.0000     -10.164528      -276.5909
   5   2.0000     -10.147101      -276.1167
   6   2.0000     -10.142957      -276.0039
   7   2.0000     -10.083722      -274.3920
   8   2.0000     -10.078478      -274.2493
   9   2.0000     -10.060321      -273.7553
  10   2.0000     -10.060270      -273.7539
  11   2.0000     -10.058749      -273.7125
  12   2.0000     -10.058700      -273.7111
  13   2.0000      -1.245563       -33.8935
  14   2.0000      -1.032783       -28.1035
  15   2.0000      -0.930217       -25.3125
  16   2.0000      -0.886413       -24.1205
  17   2.0000      -0.828469       -22.5438
  18   2.0000      -0.762302       -20.7433
  19   2.0000      -0.728559       -19.8251
  20   2.0000      -0.694693       -18.9035
  21   2.0000      -0.683166       -18.5899
  22   2.0000      -0.640261       -17.4224
  23   2.0000      -0.627088       -17.0639
  24   2.0000      -0.587816       -15.9953
  25   2.0000      -0.566337       -15.4108
  26   2.0000      -0.539814       -14.6891
  27   2.0000      -0.520115       -14.1531
  28   2.0000      -0.517002       -14.0683
  29   2.0000      -0.476719       -12.9722
  30   2.0000      -0.462803       -12.5935
  31   2.0000      -0.436941       -11.8898
  32   2.0000      -0.432892       -11.7796
  33   2.0000      -0.428008       -11.6467
  34   2.0000      -0.412378       -11.2214
  35   2.0000      -0.412177       -11.2159
  36   2.0000      -0.403880       -10.9901
  37   2.0000      -0.393895       -10.7184
  38   2.0000      -0.388717       -10.5775
  39   2.0000      -0.378883       -10.3099
  40   2.0000      -0.373552       -10.1649
  41   2.0000      -0.354340        -9.6421
  42   2.0000      -0.353946        -9.6314
  43   2.0000      -0.347945        -9.4681
  44   2.0000      -0.342501        -9.3199
  45   2.0000      -0.309663        -8.4263
  46   2.0000      -0.271513        -7.3882
  47   2.0000      -0.266287        -7.2461
  48   2.0000      -0.258226        -7.0267
  49   0.0000      -0.205255        -5.5853
  50   0.0000      -0.088886        -2.4187
  51   0.0000       0.000718         0.0195
  52   0.0000       0.013101         0.3565
  53   0.0000       0.018264         0.4970

MULLIKEN ATOMIC CHARGES
-----------------------
   0 C :    1.446451
   1 C :   -1.126382
   2 C :    1.111420
   3 N :    1.296734
   4 C :    1.085169
   5 H :    0.341432
   6 O :   -0.993998
   7 C :    0.573990
   8 O :   -1.056560
   9 C :   -0.953132
  10 H :    0.255751
  11 H :    0.219773
  12 H :    0.126571
  13 C :   -0.950763
  14 H :    0.127966
  15 H :    0.217875
  16 H :    0.255574
  17 C :   -1.066325
  18 H :    0.170746
  19 H :    0.242035
  20 H :    0.168203
  21 C :   -1.067322
  22 H :    0.243073
  23 H :    0.171086
  24 H :    0.170562
  25 N :   -0.218917
  26 H :    0.105158
  27 H :    0.103830
Sum of atomic charges:    1.0000000

LOEWDIN ATOMIC CHARGES
----------------------
   0 C :   -0.063561
   1 C :    0.268579
   2 C :   -0.395861
   3 N :   -0.047630
   4 C :   -0.385616
   5 H :   -0.129311
   6 O :    0.651683
   7 C :   -0.680962
   8 O :    0.442794
   9 C :    0.644979
  10 H :   -0.139938
  11 H :   -0.126771
  12 H :   -0.134117
  13 C :    0.644962
  14 H :   -0.134312
  15 H :   -0.126367
  16 H :   -0.140544
  17 C :    0.644888
  18 H :   -0.124082
  19 H :   -0.131174
  20 H :   -0.136345
  21 C :    0.645122
  22 H :   -0.131289
  23 H :   -0.124016
  24 H :   -0.136435
  25 N :    0.890526
  26 H :   -0.302400
  27 H :   -0.242800

  Mayer bond orders larger than 0.100000
B(  0-C ,  1-C ) :   0.2121 B(  0-C ,  2-C ) :   0.1218 B(  0-C ,  3-N ) :  -0.3704
B(  0-C ,  4-C ) :   0.6528 B(  0-C ,  5-H ) :  -0.1452 B(  0-C ,  7-C ) :  -0.5989
B(  0-C ,  8-O ) :   0.6924 B(  0-C , 25-N ) :  -0.3114 B(  1-C ,  2-C ) :   1.0197
B(  1-C ,  3-N ) :  -0.3360 B(  1-C ,  5-H ) :   0.8606 B(  1-C ,  7-C ) :   0.7418
B(  1-C ,  8-O ) :  -0.1230 B(  2-C ,  3-N ) :   1.1895 B(  2-C ,  6-O ) :  -0.2023
B(  2-C ,  7-C ) :  -0.2262 B(  2-C , 17-C ) :   0.3540 B(  2-C , 21-C ) :   0.3578
B(  3-N ,  4-C ) :   1.4246 B(  3-N ,  6-O ) :   0.3706 B(  4-C ,  7-C ) :   0.4075
B(  4-C ,  9-C ) :   0.4652 B(  4-C , 13-C ) :   0.4626 B(  5-H ,  8-O ) :   0.1043
B(  6-O , 13-C ) :   0.1006 B(  7-C ,  8-O ) :   0.3873 B(  7-C , 25-N ) :   1.1308
B(  9-C , 10-H ) :   0.9039 B(  9-C , 11-H ) :   0.9707 B(  9-C , 12-H ) :   1.0825
B(  9-C , 13-C ) :   0.1228 B( 13-C , 14-H ) :   1.0806 B( 13-C , 15-H ) :   0.9729
B( 13-C , 16-H ) :   0.9017 B( 17-C , 18-H ) :   1.0479 B( 17-C , 19-H ) :   0.9499
B( 17-C , 20-H ) :   1.0495 B( 17-C , 21-C ) :   0.2288 B( 21-C , 22-H ) :   0.9498
B( 21-C , 23-H ) :   1.0482 B( 21-C , 24-H ) :   1.0464 B( 25-N , 26-H ) :   1.0203
B( 25-N , 27-H ) :   0.9796

Dispersion correction           -0.010436957
FINAL SINGLE POINT ENERGY      -611.615034584061

DIPOLE MOMENT
-------------

Method             : SCF
Type of density    : Electron Density
Multiplicity       :   1
Irrep              :   0
Energy             :  -611.6045976267936339 Eh
Relativity type    :
Basis              : AO
                                X                 Y                 Z
Electronic contribution:      0.141196840      -1.329004922      -3.238762111
Nuclear contribution   :     -0.277270832       3.421665314       4.666505617
                        -----------------------------------------
Total Dipole Moment    :     -0.136073992       2.092660391       1.427743505
                        -----------------------------------------
Magnitude (a.u.)       :      2.536965739
Magnitude (Debye)      :      6.448454442

Rotational constants in cm-1:             0.040160             0.022299             0.017655
Rotational constants in MHz :          1203.956703           668.492574           529.280087

                             ****ORCA TERMINATED NORMALLY****
TOTAL RUN TIME: 0 days 0 hours 5 minutes 46 seconds 405 msec
