                         Program Version 6.0.0  -   RELEASE  -
|  1> !PBE0 def2-SV(p) Opt Freq d3 TightSCF SlowConv RIJCOSX defgrid2
|  2>
|  3> %pal
|  4> nprocs 4
|  5> end
|  6>
|  7> %scf
|  8> MaxIter 1500
|  9> end
| 10>
| 11> %maxcore 3000
| 12>
| 13>
| 14>
| 15> * xyz 0 1
| 16> C     1.8493361   -0.0000839    0.0049887
| 17> C     1.1525174   -1.1969131    0.0017345
| 18> C    -0.2316090   -1.1949886   -0.0051570
| 19> C    -0.9414768    0.0000951   -0.0090955
| 20> C    -2.4408978    0.0000449    0.0061831
| 21> H    -2.8336320    0.8877738   -0.4841667
| 22> H    -2.8335584   -0.8842384   -0.4904387
| 23> H    -2.8004716   -0.0037103    1.0357828
| 24> C    -0.2314635    1.1950656   -0.0051712
| 25> C     1.1526828    1.1968225    0.0017052
| 26> H     1.6893911    2.1348754    0.0026936
| 27> H    -0.7693454    2.1328900   -0.0090366
| 28> H    -0.7696316   -2.1327273   -0.0089991
| 29> H     1.6891199   -2.1350248    0.0027793
| 30> H     2.9297121   -0.0001812    0.0084198
| 31> *
| 32>
| 33>                          ****END OF INPUT****
 Total Charge           Charge          ....    0
 Multiplicity           Mult            ....    1
 Number of Electrons    NEL             ....   50
Dispersion correction           -0.012241114
FINAL SINGLE POINT ENERGY      -271.034491985928
Dispersion correction             ... done (  0.1 sec)
Dispersion correction           -0.012174119
FINAL SINGLE POINT ENERGY      -271.036234607098
Dispersion correction             ... done (  0.1 sec)
Dispersion correction           -0.012167201
FINAL SINGLE POINT ENERGY      -271.036269155971
Dispersion correction             ... done (  0.0 sec)
Dispersion correction           -0.012164538
FINAL SINGLE POINT ENERGY      -271.036279894773
Dispersion correction             ... done (  0.1 sec)
                    ***********************HURRAY********************

CARTESIAN COORDINATES (ANGSTROEM)
---------------------------------
  C      1.868477   -0.000082    0.009341
  C      1.164916   -1.203997    0.002315
  C     -0.228963   -1.200720   -0.009297
  C     -0.949000    0.000064   -0.011940
  C     -2.451824    0.000044    0.011396
  H     -2.864008    0.894489   -0.484982
  H     -2.864068   -0.891397   -0.490342
  H     -2.831533   -0.003109    1.050295
  C     -0.228853    1.200748   -0.009156
  C      1.165052    1.203885    0.002459
  H      1.706201    2.155118    0.002300
  H     -0.772009    2.151779   -0.018879
  H     -0.772215   -2.151697   -0.019135
  H      1.705981   -2.155279    0.002041
  H      2.962520   -0.000145    0.015806

 Multiplicity           Mult            ....    1
 Number of Electrons    NEL             ....   50
 Basis Dimension        Dim             ....  114

ORBITAL ENERGIES
----------------

  NO   OCC          E(Eh)            E(eV)
   0   2.0000     -10.243826      -278.7487
   1   2.0000     -10.233674      -278.4724
   2   2.0000     -10.233616      -278.4708
   3   2.0000     -10.231793      -278.4212
   4   2.0000     -10.231286      -278.4074
   5   2.0000     -10.231282      -278.4074
   6   2.0000     -10.226598      -278.2799
   7   2.0000      -0.874163       -23.7872
   8   2.0000      -0.787152       -21.4195
   9   2.0000      -0.757734       -20.6190
  10   2.0000      -0.697340       -18.9756
  11   2.0000      -0.617032       -16.7903
  12   2.0000      -0.595625       -16.2078
  13   2.0000      -0.524894       -14.2831
  14   2.0000      -0.475579       -12.9412
  15   2.0000      -0.462952       -12.5976
  16   2.0000      -0.433338       -11.7917
  17   2.0000      -0.431123       -11.7314
  18   2.0000      -0.421728       -11.4758
  19   2.0000      -0.396349       -10.7852
  20   2.0000      -0.369394       -10.0517
  21   2.0000      -0.354139        -9.6366
  22   2.0000      -0.349257        -9.5038
  23   2.0000      -0.263654        -7.1744
  24   2.0000      -0.254310        -6.9201
  25   0.0000      -0.000577        -0.0157
  26   0.0000       0.000421         0.0115
  27   0.0000       0.072698         1.9782
  28   0.0000       0.091888         2.5004
  29   0.0000       0.107140         2.9154

MULLIKEN ATOMIC CHARGES
-----------------------
   0 C :   -0.097551
   1 C :   -0.092270
   2 C :   -0.134035
   3 C :   -0.010461
   4 C :   -0.295930
   5 H :    0.131904
   6 H :    0.131983
   7 H :    0.145870
   8 C :   -0.134105
   9 C :   -0.092252
  10 H :    0.094306
  11 H :    0.081546
  12 H :    0.081540
  13 H :    0.094315
  14 H :    0.095140
Sum of atomic charges:   -0.0000000

LOEWDIN ATOMIC CHARGES
----------------------
   0 C :   -0.136137
   1 C :   -0.126362
   2 C :   -0.129345
   3 C :   -0.052330
   4 C :   -0.328158
   5 H :    0.128711
   6 H :    0.128762
   7 H :    0.136113
   8 C :   -0.129372
   9 C :   -0.126365
  10 H :    0.128051
  11 H :    0.125290
  12 H :    0.125290
  13 H :    0.128050
  14 H :    0.127803

  Mayer bond orders larger than 0.100000
B(  0-C ,  1-C ) :   1.3952 B(  0-C ,  9-C ) :   1.3953 B(  0-C , 14-H ) :   0.9639
B(  1-C ,  2-C ) :   1.4006 B(  1-C , 13-H ) :   0.9627 B(  2-C ,  3-C ) :   1.4072
B(  2-C , 12-H ) :   0.9621 B(  3-C ,  4-C ) :   1.0735 B(  3-C ,  8-C ) :   1.4075
B(  4-C ,  5-H ) :   0.9476 B(  4-C ,  6-H ) :   0.9475 B(  4-C ,  7-H ) :   0.9351
B(  8-C ,  9-C ) :   1.4004 B(  8-C , 11-H ) :   0.9620 B(  9-C , 10-H ) :   0.9627

Dispersion correction           -0.012164838
FINAL SINGLE POINT ENERGY      -271.036280701455

DIPOLE MOMENT
-------------

Method             : SCF
Type of density    : Electron Density
Multiplicity       :   1
Irrep              :   0
Energy             :  -271.0241158632630913 Eh
Relativity type    :
Basis              : AO
                                X                 Y                 Z
Electronic contribution:      3.378202278      -0.000059938      -0.032716409
Nuclear contribution   :     -3.524846021      -0.000150115       0.053662303
                        -----------------------------------------
Total Dipole Moment    :     -0.146643744      -0.000210053       0.020945894
                        -----------------------------------------
Magnitude (a.u.)       :      0.148132246
Magnitude (Debye)      :      0.376522246

VIBRATIONAL FREQUENCIES
-----------------------

Scaling factor for frequencies =  1.000000000  (already applied!)

     0:       0.00 cm**-1
     1:       0.00 cm**-1
     2:       0.00 cm**-1
     3:       0.00 cm**-1
     4:       0.00 cm**-1
     5:       0.00 cm**-1
     6:      37.58 cm**-1
     7:     211.19 cm**-1
     8:     346.37 cm**-1
     9:     418.86 cm**-1
    10:     481.39 cm**-1
    11:     529.78 cm**-1
    12:     633.89 cm**-1
    13:     723.56 cm**-1
    14:     752.41 cm**-1
    15:     811.93 cm**-1
    16:     865.07 cm**-1
    17:     922.60 cm**-1
    18:     996.12 cm**-1
    19:    1004.87 cm**-1
    20:    1018.80 cm**-1
    21:    1019.93 cm**-1
    22:    1065.27 cm**-1
    23:    1065.77 cm**-1
    24:    1115.82 cm**-1
    25:    1171.76 cm**-1
    26:    1197.09 cm**-1
    27:    1255.60 cm**-1
    28:    1344.49 cm**-1
    29:    1397.60 cm**-1
    30:    1410.35 cm**-1
    31:    1465.97 cm**-1
    32:    1473.15 cm**-1
    33:    1506.63 cm**-1
    34:    1550.37 cm**-1
    35:    1673.87 cm**-1
    36:    1699.62 cm**-1
    37:    3033.76 cm**-1
    38:    3115.71 cm**-1
    39:    3143.46 cm**-1
    40:    3183.35 cm**-1
    41:    3185.60 cm**-1
    42:    3198.20 cm**-1
    43:    3206.76 cm**-1
    44:    3218.48 cm**-1

IR SPECTRUM
-----------

 Mode   freq       eps      Int      T**2         TX        TY        TZ
       cm**-1   L/(mol*cm) km/mol    a.u.
----------------------------------------------------------------------------
  6:     37.58   0.000088    0.44  0.000727  ( 0.000011 -0.026970 -0.000199)
  7:    211.19   0.000457    2.31  0.000676  ( 0.000983 -0.000016  0.025976)
  8:    346.37   0.000070    0.35  0.000063  (-0.000016 -0.007955  0.000001)
  9:    418.86   0.000002    0.01  0.000001  (-0.000000 -0.001131  0.000012)
 10:    481.39   0.001620    8.19  0.001050  ( 0.000382  0.000003 -0.032404)
 11:    529.78   0.000125    0.63  0.000074  ( 0.007107 -0.000007 -0.004796)
 12:    633.89   0.000025    0.12  0.000012  (-0.000001  0.003475  0.000000)
 13:    723.56   0.006344   32.06  0.002736  (-0.000846 -0.000002  0.052303)
 14:    752.41   0.005578   28.19  0.002313  (-0.001771  0.000000 -0.048066)
 15:    811.93   0.000162    0.82  0.000062  ( 0.006071  0.000012 -0.005037)
 16:    865.07   0.000001    0.01  0.000000  ( 0.000001  0.000687 -0.000005)
 17:    922.60   0.000056    0.28  0.000019  ( 0.003654 -0.000000  0.002378)
 18:    996.12   0.000001    0.01  0.000000  (-0.000006 -0.000655 -0.000000)
 19:   1004.87   0.000004    0.02  0.000001  ( 0.000096  0.001053 -0.000007)
 20:   1018.80   0.000015    0.08  0.000005  ( 0.000134  0.000000 -0.002142)
 21:   1019.93   0.000047    0.24  0.000014  ( 0.003792 -0.000002  0.000148)
 22:   1065.27   0.001300    6.57  0.000381  (-0.018716  0.000000  0.005516)
 23:   1065.77   0.001320    6.67  0.000387  ( 0.010117  0.000006 -0.016860)
 24:   1115.82   0.001432    7.24  0.000401  ( 0.000033  0.020014  0.000000)
 25:   1171.76   0.000005    0.02  0.000001  ( 0.000007 -0.001129  0.000001)
 26:   1197.09   0.000046    0.23  0.000012  (-0.003463 -0.000001 -0.000012)
 27:   1255.60   0.000072    0.36  0.000018  ( 0.003500  0.000011 -0.002387)
 28:   1344.49   0.000000    0.00  0.000000  (-0.000030  0.000137 -0.000001)
 29:   1397.60   0.000000    0.00  0.000000  ( 0.000034 -0.000064 -0.000003)
 30:   1410.35   0.000194    0.98  0.000043  (-0.005931 -0.000025  0.002772)
 31:   1465.97   0.000726    3.67  0.000155  (-0.000001 -0.012434 -0.000084)
 32:   1473.15   0.001810    9.15  0.000383  (-0.001024  0.000039 -0.019553)
 33:   1506.63   0.002428   12.27  0.000503  (-0.000013  0.022423 -0.000005)
 34:   1550.37   0.003295   16.65  0.000663  ( 0.025747 -0.000003 -0.000541)
 35:   1673.87   0.000089    0.45  0.000017  (-0.000012 -0.004079  0.000000)
 36:   1699.62   0.001458    7.37  0.000268  ( 0.016357  0.000000 -0.000483)
 37:   3033.76   0.004250   21.48  0.000437  (-0.020726 -0.000003  0.002748)
 38:   3115.71   0.001943    9.82  0.000195  ( 0.005809  0.000002  0.012684)
 39:   3143.46   0.001706    8.62  0.000169  ( 0.000032 -0.013015 -0.000005)
 40:   3183.35   0.001310    6.62  0.000128  (-0.011328 -0.000058 -0.000202)
 41:   3185.60   0.000874    4.42  0.000086  (-0.000067  0.009253 -0.000001)
 42:   3198.20   0.000933    4.72  0.000091  ( 0.009539  0.000007  0.000249)
 43:   3206.76   0.004914   24.83  0.000478  ( 0.000013 -0.021867 -0.000001)
 44:   3218.48   0.002013   10.17  0.000195  (-0.013969 -0.000007 -0.000048)

--------------------------
THERMOCHEMISTRY AT 298.15K
--------------------------

Temperature         ...   298.15 K
Pressure            ...     1.00 atm
Total Mass          ...    92.14 AMU
Quasi RRHO          ...     True
Cut-Off Frequency   ...     1.00 cm^-1

Throughout the following assumptions are being made:
  (1) The electronic state is orbitally nondegenerate
  (2) There are no thermally accessible electronically excited states
  (3) Hindered rotations indicated by low frequency modes are not
      treated as such but are treated as vibrations and this may
      cause some error
  (4) All equations used are the standard statistical mechanics
      equations for an ideal gas
  (5) All vibrations are strictly harmonic

freq.      37.58  E(vib)   ...       0.54
freq.     211.19  E(vib)   ...       0.34
freq.     346.37  E(vib)   ...       0.23
freq.     418.86  E(vib)   ...       0.18
freq.     481.39  E(vib)   ...       0.15
freq.     529.78  E(vib)   ...       0.13
freq.     633.89  E(vib)   ...       0.09
freq.     723.56  E(vib)   ...       0.06
freq.     752.41  E(vib)   ...       0.06
freq.     811.93  E(vib)   ...       0.05
freq.     865.07  E(vib)   ...       0.04
freq.     922.60  E(vib)   ...       0.03
freq.     996.12  E(vib)   ...       0.02
freq.    1004.87  E(vib)   ...       0.02
freq.    1018.80  E(vib)   ...       0.02
freq.    1019.93  E(vib)   ...       0.02
freq.    1065.27  E(vib)   ...       0.02
freq.    1065.77  E(vib)   ...       0.02
freq.    1115.82  E(vib)   ...       0.01
freq.    1171.76  E(vib)   ...       0.01
freq.    1197.09  E(vib)   ...       0.01
freq.    1255.60  E(vib)   ...       0.01
freq.    1344.49  E(vib)   ...       0.01
freq.    1397.60  E(vib)   ...       0.00
freq.    1410.35  E(vib)   ...       0.00
freq.    1465.97  E(vib)   ...       0.00
freq.    1473.15  E(vib)   ...       0.00
freq.    1506.63  E(vib)   ...       0.00
freq.    1550.37  E(vib)   ...       0.00
freq.    1673.87  E(vib)   ...       0.00
freq.    1699.62  E(vib)   ...       0.00
freq.    3033.76  E(vib)   ...       0.00
freq.    3115.71  E(vib)   ...       0.00
freq.    3143.46  E(vib)   ...       0.00
freq.    3183.35  E(vib)   ...       0.00
freq.    3185.60  E(vib)   ...       0.00
freq.    3198.20  E(vib)   ...       0.00
freq.    3206.76  E(vib)   ...       0.00
freq.    3218.48  E(vib)   ...       0.00

------------
INNER ENERGY
------------

The inner energy is: U= E(el) + E(ZPE) + E(vib) + E(rot) + E(trans)
    E(el)   - is the total energy from the electronic structure calculation
              = E(kin-el) + E(nuc-el) + E(el-el) + E(nuc-nuc)
    E(ZPE)  - the the zero temperature vibrational energy from the frequency calculation
    E(vib)  - the the finite temperature correction to E(ZPE) due to population
              of excited vibrational states
    E(rot)  - is the rotational thermal energy
    E(trans)- is the translational thermal energy

Summary of contributions to the inner energy U:
Electronic energy                ...   -271.03628070 Eh
Zero point energy                ...      0.12860942 Eh      80.70 kcal/mol
Thermal vibrational correction   ...      0.00334799 Eh       2.10 kcal/mol
Thermal rotational correction    ...      0.00141627 Eh       0.89 kcal/mol
Thermal translational correction ...      0.00141627 Eh       0.89 kcal/mol
-----------------------------------------------------------------------
Total thermal energy                   -270.90149075 Eh

Summary of corrections to the electronic energy:
(perhaps to be used in another calculation)
Total thermal correction                  0.00618053 Eh       3.88 kcal/mol
Non-thermal (ZPE) correction              0.12860942 Eh      80.70 kcal/mol
-----------------------------------------------------------------------
Total correction                          0.13478995 Eh      84.58 kcal/mol

--------
ENTHALPY
--------

The enthalpy is H = U + kB*T
                kB is Boltzmann's constant
Total thermal energy              ...   -270.90149075 Eh
Thermal Enthalpy correction       ...      0.00094421 Eh       0.59 kcal/mol
-----------------------------------------------------------------------
Total Enthalpy                    ...   -270.90054654 Eh

Note: Only C1 symmetry has been detected, increase convergence thresholds
      if your molecule has a higher symmetry. Symmetry factor of 1.0 is
      used for the rotational entropy correction.

Note: Rotational entropy computed according to Herzberg
Infrared and Raman Spectra, Chapter V,1, Van Nostrand Reinhold, 1945
Point Group:  C1, Symmetry Number:   1
Rotational constants in cm-1:     0.184524     0.083891     0.058309

Vibrational entropy computed according to the QRRHO of S. Grimme
Chem.Eur.J. 2012 18 9955 using a reference frequency of 100.0 cm-1

-------
ENTROPY
-------

The entropy contributions are T*S = T*(S(el)+S(vib)+S(rot)+S(trans))
     S(el)   - electronic entropy
     S(vib)  - vibrational entropy
     S(rot)  - rotational entropy
     S(trans)- translational entropy
The entropies will be listed as multiplied by the temperature to get
units of energy

Electronic entropy                ...      0.00000000 Eh      0.00 kcal/mol
Vibrational entropy               ...      0.00545594 Eh      3.42 kcal/mol
Rotational entropy                ...      0.01282026 Eh      8.04 kcal/mol
Translational entropy             ...      0.01875532 Eh     11.77 kcal/mol
-----------------------------------------------------------------------
Final entropy term                ...      0.03703152 Eh     23.24 kcal/mol

In case the symmetry of your molecule has not been determined correctly
or in case you have a reason to use a different symmetry number we print
out the resulting rotational entropy values for sn=1,12:

 non-linear molecules -----------------------------------
|  sn= 1 | S(rot)=       0.01282026 Eh      8.04 kcal/mol|
|  sn= 2 | S(rot)=       0.01216581 Eh      7.63 kcal/mol|
|  sn= 3 | S(rot)=       0.01178297 Eh      7.39 kcal/mol|
|  sn= 4 | S(rot)=       0.01151135 Eh      7.22 kcal/mol|
|  sn= 5 | S(rot)=       0.01130066 Eh      7.09 kcal/mol|
|  sn= 6 | S(rot)=       0.01112852 Eh      6.98 kcal/mol|
|  sn= 7 | S(rot)=       0.01098297 Eh      6.89 kcal/mol|
|  sn= 8 | S(rot)=       0.01085689 Eh      6.81 kcal/mol|
|  sn= 9 | S(rot)=       0.01074569 Eh      6.74 kcal/mol|
|  sn=10 | S(rot)=       0.01064621 Eh      6.68 kcal/mol|
|  sn=11 | S(rot)=       0.01055622 Eh      6.62 kcal/mol|
|  sn=12 | S(rot)=       0.01047406 Eh      6.57 kcal/mol|
 linear molecules ---------------------------------------
|  Dinfh | S(rot)=       0.00800916 Eh      5.03 kcal/mol|
|  Cinfv | S(rot)=       0.00866362 Eh      5.44 kcal/mol|
 --------------------------------------------------------

-------------------
GIBBS FREE ENERGY
-------------------

                             ****ORCA TERMINATED NORMALLY****
TOTAL RUN TIME: 0 days 0 hours 4 minutes 50 seconds 643 msec
