                         Program Version 6.0.0  -   RELEASE  -
|  1> !TPSSh opt aug-cc-pVTZ d3 TightSCF SlowConv RIJCOSX defgrid2
|  2>
|  3> %pal
|  4> nprocs 8
|  5> end
|  6>
|  7> %scf
|  8> MaxIter 1500
|  9> end
| 10>
| 11> %maxcore 3500
| 12>
| 13> !CPCM
| 14> %cpcm smd true
| 15> SMDsolvent "MeCN"
| 16> surfacetype gepol_ses
| 17> rsolv 2.19
| 18> end
| 19>
| 20> * xyz 1 2
| 21> C           0.86770061929664     -1.42689432299132      0.00000897101558
| 22> C           2.10468085183811     -0.72689058389273     -0.00000825447661
| 23> C           2.18067581844409      0.67999913600521     -0.00001076122154
| 24> C           1.03283927538202      1.45145343690800      0.00000700381243
| 25> C          -0.22537653673213      0.77678989280940      0.00001343275561
| 26> C          -0.25105693451531     -0.64408759720608      0.00001506224490
| 27> O          -1.55281870061497     -1.07751154880539      0.00002630462179
| 28> C          -2.31401480280601     -0.00668804123383      0.00001929043081
| 29> C          -1.56234358562406      1.18487206630760      0.00001231970991
| 30> H          -1.97074260676972      2.19593761753153      0.00001018835187
| 31> H          -3.39348512015147     -0.17364143845796      0.00002005021122
| 32> H           1.07805269996545      2.54351477894486     -0.00000377489980
| 33> H           3.16218666325774      1.15998906195145     -0.00002790877216
| 34> H           3.03083245792013     -1.30967197800346     -0.00002115939682
| 35> H           0.82193140110952     -2.51820987986727      0.00000983561282
| 36> *
| 37>
| 38>                          ****END OF INPUT****
 Total Charge           Charge          ....    1
 Multiplicity           Mult            ....    2
 Number of Electrons    NEL             ....   61
Dispersion correction           -0.018308022
FINAL SINGLE POINT ENERGY      -383.647796132175
Dispersion correction             ... done (  0.0 sec)
Dispersion correction           -0.018360155
FINAL SINGLE POINT ENERGY      -383.648830766085
Dispersion correction             ... done (  0.1 sec)
Dispersion correction           -0.018371449
FINAL SINGLE POINT ENERGY      -383.648931563523
Dispersion correction             ... done (  0.1 sec)
Dispersion correction           -0.018372236
FINAL SINGLE POINT ENERGY      -383.648952187149
Dispersion correction             ... done (  0.1 sec)
                    ***********************HURRAY********************

CARTESIAN COORDINATES (ANGSTROEM)
---------------------------------
  C      0.871416   -1.426320   -0.000747
  C      2.101768   -0.723668    0.000591
  C      2.173194    0.679306   -0.000168
  C      1.028428    1.447441   -0.001114
  C     -0.221841    0.770892   -0.001429
  C     -0.240246   -0.644434   -0.002224
  O     -1.557731   -1.089851   -0.002402
  C     -2.315055    0.003459   -0.000096
  C     -1.554739    1.181163    0.000287
  H     -1.956522    2.181428    0.002872
  H     -3.383281   -0.148678    0.002288
  H      1.066364    2.528031   -0.001667
  H      3.144265    1.154363    0.000588
  H      3.018839   -1.297966    0.003093
  H      0.834201   -2.506204    0.000198

 Multiplicity           Mult            ....    2
 Number of Electrons    NEL             ....   61
 Basis Dimension        Dim             ....  552

ORBITAL ENERGIES
----------------
                 SPIN UP ORBITALS
  NO   OCC          E(Eh)            E(eV)
   0   1.0000     -19.177804      -521.8546
   1   1.0000     -10.248598      -278.8785
   2   1.0000     -10.221108      -278.1305
   3   1.0000     -10.181715      -277.0585
   4   1.0000     -10.177578      -276.9460
   5   1.0000     -10.176913      -276.9279
   6   1.0000     -10.171448      -276.7792
   7   1.0000     -10.167247      -276.6649
   8   1.0000     -10.148015      -276.1415
   9   1.0000      -1.149542       -31.2806
  10   1.0000      -0.888866       -24.1873
  11   1.0000      -0.834993       -22.7213
  12   1.0000      -0.781151       -21.2562
  13   1.0000      -0.757555       -20.6141
  14   1.0000      -0.663295       -18.0492
  15   1.0000      -0.628191       -17.0940
  16   1.0000      -0.614397       -16.7186
  17   1.0000      -0.546634       -14.8747
  18   1.0000      -0.524143       -14.2627
  19   1.0000      -0.501563       -13.6482
  20   1.0000      -0.500500       -13.6193
  21   1.0000      -0.463951       -12.6247
  22   1.0000      -0.448910       -12.2155
  23   1.0000      -0.437640       -11.9088
  24   1.0000      -0.411520       -11.1980
  25   1.0000      -0.392506       -10.6806
  26   1.0000      -0.385417       -10.4877
  27   1.0000      -0.367030        -9.9874
  28   1.0000      -0.340156        -9.2561
  29   1.0000      -0.283928        -7.7261
  30   1.0000      -0.266719        -7.2578
  31   0.0000      -0.097042        -2.6406
  32   0.0000      -0.049562        -1.3486
  33   0.0000      -0.022748        -0.6190
  34   0.0000      -0.005468        -0.1488
  35   0.0000       0.005957         0.1621

                 SPIN DOWN ORBITALS
  NO   OCC          E(Eh)            E(eV)
   0   1.0000     -19.177010      -521.8330
   1   1.0000     -10.243157      -278.7305
   2   1.0000     -10.219753      -278.0936
   3   1.0000     -10.179075      -276.9867
   4   1.0000     -10.177163      -276.9347
   5   1.0000     -10.172211      -276.7999
   6   1.0000     -10.167976      -276.6847
   7   1.0000     -10.167259      -276.6652
   8   1.0000     -10.149698      -276.1873
   9   1.0000      -1.146400       -31.1951
  10   1.0000      -0.884176       -24.0596
  11   1.0000      -0.827247       -22.5105
  12   1.0000      -0.778503       -21.1841
  13   1.0000      -0.745761       -20.2932
  14   1.0000      -0.659069       -17.9342
  15   1.0000      -0.623355       -16.9623
  16   1.0000      -0.610012       -16.5993
  17   1.0000      -0.544243       -14.8096
  18   1.0000      -0.520255       -14.1569
  19   1.0000      -0.499646       -13.5961
  20   1.0000      -0.485964       -13.2238
  21   1.0000      -0.462675       -12.5900
  22   1.0000      -0.446416       -12.1476
  23   1.0000      -0.436044       -11.8654
  24   1.0000      -0.409319       -11.1381
  25   1.0000      -0.383898       -10.4464
  26   1.0000      -0.377276       -10.2662
  27   1.0000      -0.365852        -9.9553
  28   1.0000      -0.316723        -8.6185
  29   1.0000      -0.277598        -7.5538
  30   0.0000      -0.211194        -5.7469
  31   0.0000      -0.068380        -1.8607
  32   0.0000      -0.038637        -1.0514
  33   0.0000      -0.004417        -0.1202
  34   0.0000      -0.000982        -0.0267

MULLIKEN ATOMIC CHARGES AND SPIN POPULATIONS
--------------------------------------------
   0 C :   -0.649704    0.025131
   1 C :   -0.018732    0.285427
   2 C :   -0.439046   -0.111322
   3 C :   -0.392543    0.211568
   4 C :    0.924715    0.026634
   5 C :    0.321301    0.056432
   6 O :   -0.545430    0.008042
   7 C :   -0.129457    0.296417
   8 C :   -0.383672    0.216478
   9 H :    0.332644   -0.012343
  10 H :    0.478008    0.000684
  11 H :    0.041297   -0.001337
  12 H :    0.626418   -0.007916
  13 H :    0.319467    0.004073
  14 H :    0.514735    0.002031
Sum of atomic charges         :    1.0000000

LOEWDIN ATOMIC CHARGES AND SPIN POPULATIONS
-------------------------------------------
   0 C :    0.306574    0.057042
   1 C :    0.283514    0.149056
   2 C :    0.261119    0.026477
   3 C :    0.303908    0.108354
   4 C :   -0.103754    0.079355
   5 C :   -0.319643    0.053347
   6 O :    0.671417    0.058589
   7 C :    0.106069    0.211903
   8 C :    0.344009    0.149635
   9 H :   -0.130954    0.020668
  10 H :   -0.130594    0.035891
  11 H :   -0.140826    0.021894
  12 H :   -0.162063   -0.008434
  13 H :   -0.146038    0.033605
  14 H :   -0.142738    0.002620

  Mayer bond orders larger than 0.100000
B(  0-C ,  1-C ) :   1.3182 B(  0-C ,  2-C ) :   0.2365 B(  0-C ,  4-C ) :   0.1452
B(  0-C ,  5-C ) :   1.3811 B(  0-C ,  6-O ) :   0.1026 B(  0-C , 13-H ) :   0.1520
B(  0-C , 14-H ) :   0.2704 B(  1-C ,  2-C ) :   1.2933 B(  1-C ,  3-C ) :  -0.2117
B(  1-C ,  4-C ) :  -0.1035 B(  1-C ,  5-C ) :  -0.4319 B(  1-C ,  8-C ) :   0.1515
B(  1-C , 12-H ) :   0.1897 B(  1-C , 13-H ) :   0.7002 B(  1-C , 14-H ) :   0.1392
B(  2-C ,  3-C ) :   1.4883 B(  2-C ,  5-C ) :   0.1941 B(  2-C ,  8-C ) :   0.1612
B(  2-C , 12-H ) :   0.2287 B(  3-C ,  4-C ) :   0.8124 B(  3-C ,  5-C ) :  -0.5295
B(  3-C , 11-H ) :   1.3022 B(  4-C ,  5-C ) :   1.1011 B(  4-C ,  7-C ) :  -0.2813
B(  4-C ,  8-C ) :   0.8287 B(  4-C , 13-H ) :  -0.1141 B(  4-C , 14-H ) :   0.1522
B(  5-C ,  6-O ) :   0.3568 B(  5-C ,  8-C ) :   0.3040 B(  5-C , 13-H ) :   0.1342
B(  6-O ,  7-C ) :   1.3371 B(  7-C ,  8-C ) :   1.1331 B(  7-C , 10-H ) :   0.7236
B(  8-C ,  9-H ) :   0.8147 B(  8-C , 11-H ) :  -0.1036

Dispersion correction           -0.018371035
FINAL SINGLE POINT ENERGY      -383.648955230872

DIPOLE MOMENT
-------------

Method             : SCF
Type of density    : Electron Density
Multiplicity       :   2
Irrep              :   0
Energy             :  -383.6305841955268079 Eh
Relativity type    :
Basis              : AO
                                X                 Y                 Z
Electronic contribution:     -2.955837524      -1.147754236      -0.007464835
Nuclear contribution   :      2.534392529       1.778722507       0.011173341
                        -----------------------------------------
Total Dipole Moment    :     -0.421444996       0.630968271       0.003708506
                        -----------------------------------------
Magnitude (a.u.)       :      0.758782312
Magnitude (Debye)      :      1.928671363

Rotational constants in cm-1:             0.129804             0.055894             0.039070
Rotational constants in MHz :          3891.423322          1675.673153          1171.303202

                             ****ORCA TERMINATED NORMALLY****
TOTAL RUN TIME: 0 days 0 hours 22 minutes 40 seconds 907 msec
