                         Program Version 6.0.0  -   RELEASE  -
|  1> !TPSSh aug-cc-pVTZ d3 TightSCF SlowConv RIJCOSX defgrid2
|  2>
|  3> %pal
|  4> nprocs 4
|  5> end
|  6>
|  7> %scf
|  8> MaxIter 1500
|  9> end
| 10>
| 11> %maxcore 3000
| 12>
| 13> !CPCM
| 14> %cpcm smd true
| 15> SMDsolvent "MeCN"
| 16> surfacetype gepol_ses
| 17> rsolv 2.19
| 18> end
| 19>
| 20> * xyz 1 2
| 21> C           0.86770061929664     -1.42689432299132      0.00000897101558
| 22> C           2.10468085183811     -0.72689058389273     -0.00000825447661
| 23> C           2.18067581844409      0.67999913600521     -0.00001076122154
| 24> C           1.03283927538202      1.45145343690800      0.00000700381243
| 25> C          -0.22537653673213      0.77678989280940      0.00001343275561
| 26> C          -0.25105693451531     -0.64408759720608      0.00001506224490
| 27> O          -1.55281870061497     -1.07751154880539      0.00002630462179
| 28> C          -2.31401480280601     -0.00668804123383      0.00001929043081
| 29> C          -1.56234358562406      1.18487206630760      0.00001231970991
| 30> H          -1.97074260676972      2.19593761753153      0.00001018835187
| 31> H          -3.39348512015147     -0.17364143845796      0.00002005021122
| 32> H           1.07805269996545      2.54351477894486     -0.00000377489980
| 33> H           3.16218666325774      1.15998906195145     -0.00002790877216
| 34> H           3.03083245792013     -1.30967197800346     -0.00002115939682
| 35> H           0.82193140110952     -2.51820987986727      0.00000983561282
| 36> *
| 37>
| 38>                          ****END OF INPUT****

CARTESIAN COORDINATES (ANGSTROEM)
---------------------------------
  C      0.867701   -1.426894    0.000009
  C      2.104681   -0.726891   -0.000008
  C      2.180676    0.679999   -0.000011
  C      1.032839    1.451453    0.000007
  C     -0.225377    0.776790    0.000013
  C     -0.251057   -0.644088    0.000015
  O     -1.552819   -1.077512    0.000026
  C     -2.314015   -0.006688    0.000019
  C     -1.562344    1.184872    0.000012
  H     -1.970743    2.195938    0.000010
  H     -3.393485   -0.173641    0.000020
  H      1.078053    2.543515   -0.000004
  H      3.162187    1.159989   -0.000028
  H      3.030832   -1.309672   -0.000021
  H      0.821931   -2.518210    0.000010

 Total Charge           Charge          ....    1
 Multiplicity           Mult            ....    2
 Number of Electrons    NEL             ....   61
 Basis Dimension        Dim             ....  552

ORBITAL ENERGIES
----------------
                 SPIN UP ORBITALS
  NO   OCC          E(Eh)            E(eV)
   0   1.0000     -19.180600      -521.9307
   1   1.0000     -10.249711      -278.9088
   2   1.0000     -10.221594      -278.1437
   3   1.0000     -10.183274      -277.1010
   4   1.0000     -10.178802      -276.9793
   5   1.0000     -10.178207      -276.9631
   6   1.0000     -10.173810      -276.8434
   7   1.0000     -10.169714      -276.7320
   8   1.0000     -10.150158      -276.1998
   9   1.0000      -1.161256       -31.5994
  10   1.0000      -0.886181       -24.1142
  11   1.0000      -0.833489       -22.6804
  12   1.0000      -0.781949       -21.2779
  13   1.0000      -0.756015       -20.5722
  14   1.0000      -0.664697       -18.0873
  15   1.0000      -0.627622       -17.0785
  16   1.0000      -0.611496       -16.6397
  17   1.0000      -0.545892       -14.8545
  18   1.0000      -0.524671       -14.2770
  19   1.0000      -0.506449       -13.7812
  20   1.0000      -0.499064       -13.5802
  21   1.0000      -0.461255       -12.5514
  22   1.0000      -0.447512       -12.1774
  23   1.0000      -0.436423       -11.8757
  24   1.0000      -0.410544       -11.1715
  25   1.0000      -0.391594       -10.6558
  26   1.0000      -0.384382       -10.4596
  27   1.0000      -0.364809        -9.9270
  28   1.0000      -0.339210        -9.2304
  29   1.0000      -0.283226        -7.7070
  30   1.0000      -0.265787        -7.2324
  31   0.0000      -0.096903        -2.6369
  32   0.0000      -0.049327        -1.3422
  33   0.0000      -0.023440        -0.6378
  34   0.0000      -0.005618        -0.1529
  35   0.0000       0.005758         0.1567

                 SPIN DOWN ORBITALS
  NO   OCC          E(Eh)            E(eV)
   0   1.0000     -19.179840      -521.9100
   1   1.0000     -10.244344      -278.7628
   2   1.0000     -10.220246      -278.1070
   3   1.0000     -10.180539      -277.0266
   4   1.0000     -10.177893      -276.9545
   5   1.0000     -10.174096      -276.8512
   6   1.0000     -10.170209      -276.7454
   7   1.0000     -10.169694      -276.7314
   8   1.0000     -10.151898      -276.2472
   9   1.0000      -1.158186       -31.5158
  10   1.0000      -0.881536       -23.9878
  11   1.0000      -0.825695       -22.4683
  12   1.0000      -0.779022       -21.1983
  13   1.0000      -0.744621       -20.2622
  14   1.0000      -0.660770       -17.9805
  15   1.0000      -0.622489       -16.9388
  16   1.0000      -0.607114       -16.5204
  17   1.0000      -0.543436       -14.7876
  18   1.0000      -0.520712       -14.1693
  19   1.0000      -0.497173       -13.5288
  20   1.0000      -0.492285       -13.3958
  21   1.0000      -0.459971       -12.5165
  22   1.0000      -0.445117       -12.1122
  23   1.0000      -0.434766       -11.8306
  24   1.0000      -0.408318       -11.1109
  25   1.0000      -0.382859       -10.4181
  26   1.0000      -0.376466       -10.2442
  27   1.0000      -0.363673        -9.8960
  28   1.0000      -0.315537        -8.5862
  29   1.0000      -0.276861        -7.5338
  30   0.0000      -0.210275        -5.7219
  31   0.0000      -0.068459        -1.8629
  32   0.0000      -0.038345        -1.0434
  33   0.0000      -0.004587        -0.1248
  34   0.0000      -0.001516        -0.0413

MULLIKEN ATOMIC CHARGES AND SPIN POPULATIONS
--------------------------------------------
   0 C :   -0.643053    0.027063
   1 C :   -0.017001    0.287851
   2 C :   -0.426832   -0.117332
   3 C :   -0.383089    0.222438
   4 C :    0.892725    0.018962
   5 C :    0.337169    0.054534
   6 O :   -0.527635    0.006747
   7 C :   -0.121709    0.294694
   8 C :   -0.390893    0.222987
   9 H :    0.333110   -0.012704
  10 H :    0.463198   -0.000875
  11 H :    0.047842   -0.001966
  12 H :    0.604043   -0.007786
  13 H :    0.321448    0.004388
  14 H :    0.510676    0.000998
Sum of atomic charges         :    1.0000000

LOEWDIN ATOMIC CHARGES AND SPIN POPULATIONS
-------------------------------------------
   0 C :    0.303347    0.057738
   1 C :    0.275989    0.149881
   2 C :    0.252556    0.025381
   3 C :    0.298036    0.112101
   4 C :   -0.103605    0.077763
   5 C :   -0.330508    0.052583
   6 O :    0.668935    0.059024
   7 C :    0.094162    0.210415
   8 C :    0.342440    0.151098
   9 H :   -0.122192    0.020553
  10 H :   -0.118049    0.034345
  11 H :   -0.133556    0.022219
  12 H :   -0.154252   -0.008684
  13 H :   -0.138404    0.032875
  14 H :   -0.134898    0.002707

  Mayer bond orders larger than 0.100000
B(  0-C ,  1-C ) :   1.3163 B(  0-C ,  2-C ) :   0.2379 B(  0-C ,  4-C ) :   0.1502
B(  0-C ,  5-C ) :   1.3982 B(  0-C ,  6-O ) :   0.1044 B(  0-C , 13-H ) :   0.1422
B(  0-C , 14-H ) :   0.2776 B(  1-C ,  2-C ) :   1.2898 B(  1-C ,  3-C ) :  -0.2116
B(  1-C ,  4-C ) :  -0.1119 B(  1-C ,  5-C ) :  -0.4067 B(  1-C ,  8-C ) :   0.1491
B(  1-C , 12-H ) :   0.1867 B(  1-C , 13-H ) :   0.6894 B(  1-C , 14-H ) :   0.1438
B(  2-C ,  3-C ) :   1.4905 B(  2-C ,  5-C ) :   0.1987 B(  2-C ,  8-C ) :   0.1515
B(  2-C , 12-H ) :   0.2504 B(  3-C ,  4-C ) :   0.8153 B(  3-C ,  5-C ) :  -0.5182
B(  3-C , 11-H ) :   1.2752 B(  4-C ,  5-C ) :   1.1038 B(  4-C ,  7-C ) :  -0.2657
B(  4-C ,  8-C ) :   0.8492 B(  4-C , 14-H ) :   0.1443 B(  5-C ,  6-O ) :   0.3436
B(  5-C ,  8-C ) :   0.3106 B(  5-C , 13-H ) :   0.1266 B(  6-O ,  7-C ) :   1.3696
B(  7-C ,  8-C ) :   1.1124 B(  7-C , 10-H ) :   0.7387 B(  8-C ,  9-H ) :   0.8132

Dispersion correction           -0.018308022
FINAL SINGLE POINT ENERGY      -383.647796132444

DIPOLE MOMENT
-------------

Method             : SCF
Type of density    : Electron Density
Multiplicity       :   2
Irrep              :   0
Energy             :  -383.6294881104873866 Eh
Relativity type    :
Basis              : AO
                                X                 Y                 Z
Electronic contribution:     -2.999962788      -1.169866025      -0.000424199
Nuclear contribution   :      2.540715655       1.757441244      -0.000063826
                        -----------------------------------------
Total Dipole Moment    :     -0.459247133       0.587575219      -0.000488025
                        -----------------------------------------
Magnitude (a.u.)       :      0.745756532
Magnitude (Debye)      :      1.895562461

Rotational constants in cm-1:             0.129539             0.055719             0.038960
Rotational constants in MHz :          3883.478039          1670.401185          1168.006371

                             ****ORCA TERMINATED NORMALLY****
TOTAL RUN TIME: 0 days 0 hours 6 minutes 47 seconds 515 msec
