                         Program Version 6.0.0  -   RELEASE  -
|  1> !PBE0 def2-SV(p) Opt Freq d3 TightSCF SlowConv RIJCOSX defgrid2
|  2>
|  3> %pal
|  4> nprocs 4
|  5> end
|  6>
|  7> %scf
|  8> MaxIter 1500
|  9> end
| 10>
| 11> %maxcore 3000
| 12>
| 13>
| 14>
| 15> * xyz -1 2
| 16> C     0.4741469   -1.2072735    0.0000508
| 17> C     1.8441411   -1.2286475    0.0000411
| 18> C     2.5913476   -0.0492844   -0.0000228
| 19> C     1.9083982    1.1721213   -0.0000609
| 20> C     0.5422609    1.2114634   -0.0000428
| 21> C    -0.2502053    0.0230719    0.0000008
| 22> C    -1.6631822    0.1054442   -0.0000158
| 23> O    -2.3115760    1.2109335   -0.0000077
| 24> C    -2.4647292   -1.1991750   -0.0000663
| 25> H    -3.5270056   -0.9600958   -0.0001574
| 26> H    -2.2371035   -1.7933677    0.8857317
| 27> H    -2.2369522   -1.7933824   -0.8858153
| 28> H     0.0130220    2.1580449   -0.0000735
| 29> H     2.4734396    2.0988966   -0.0001077
| 30> H     3.6722489   -0.0781277   -0.0000389
| 31> H     2.3620321   -2.1826698    0.0000835
| 32> H    -0.0677848   -2.1437290    0.0001073
| 33> *
| 34>
| 35>                          ****END OF INPUT****
 Total Charge           Charge          ....   -1
 Multiplicity           Mult            ....    2
 Number of Electrons    NEL             ....   65
Dispersion correction           -0.015193814
FINAL SINGLE POINT ENERGY      -384.160975905470
Dispersion correction             ... done (  0.1 sec)
Dispersion correction           -0.015107333
FINAL SINGLE POINT ENERGY      -384.163842004647
Dispersion correction             ... done (  0.1 sec)
Dispersion correction           -0.015091002
FINAL SINGLE POINT ENERGY      -384.164073296402
Dispersion correction             ... done (  0.0 sec)
Dispersion correction           -0.015090046
FINAL SINGLE POINT ENERGY      -384.164106089044
Dispersion correction             ... done (  0.1 sec)
Dispersion correction           -0.015091355
FINAL SINGLE POINT ENERGY      -384.164110305735
Dispersion correction             ... done (  0.1 sec)
                    ***********************HURRAY********************

CARTESIAN COORDINATES (ANGSTROEM)
---------------------------------
  C      0.484307   -1.215169    0.000182
  C      1.868935   -1.234715    0.000032
  C      2.623461   -0.044600   -0.000113
  C      1.917192    1.181668   -0.000099
  C      0.538487    1.217007    0.000047
  C     -0.251346    0.018209    0.000189
  C     -1.681425    0.114018    0.000258
  O     -2.309044    1.203752   -0.000214
  C     -2.482012   -1.187859   -0.000083
  H     -3.551955   -0.920556   -0.000405
  H     -2.276397   -1.819705    0.888274
  H     -2.275845   -1.819585   -0.888397
  H     -0.008995    2.164345    0.000061
  H      2.478452    2.126264   -0.000203
  H      3.718275   -0.068729   -0.000232
  H      2.388104   -2.202942    0.000027
  H     -0.057696   -2.167180    0.000281

 Multiplicity           Mult            ....    2
 Number of Electrons    NEL             ....   65
 Basis Dimension        Dim             ....  142

ORBITAL ENERGIES
----------------
                 SPIN UP ORBITALS
  NO   OCC          E(Eh)            E(eV)
   0   1.0000     -18.968147      -516.1495
   1   1.0000     -10.090962      -274.5890
   2   1.0000     -10.067144      -273.9409
   3   1.0000     -10.063876      -273.8520
   4   1.0000     -10.062845      -273.8239
   5   1.0000     -10.058354      -273.7017
   6   1.0000     -10.056137      -273.6414
   7   1.0000     -10.050036      -273.4754
   8   1.0000     -10.043999      -273.3111
   9   1.0000      -0.819126       -22.2895
  10   1.0000      -0.689589       -18.7647
  11   1.0000      -0.602362       -16.3911
  12   1.0000      -0.585177       -15.9235
  13   1.0000      -0.560629       -15.2555
  14   1.0000      -0.467891       -12.7320
  15   1.0000      -0.435618       -11.8538
  16   1.0000      -0.385582       -10.4922
  17   1.0000      -0.343425        -9.3451
  18   1.0000      -0.296574        -8.0702
  19   1.0000      -0.287225        -7.8158
  20   1.0000      -0.280118        -7.6224
  21   1.0000      -0.277544        -7.5523
  22   1.0000      -0.260090        -7.0774
  23   1.0000      -0.229564        -6.2468
  24   1.0000      -0.221778        -6.0349
  25   1.0000      -0.214184        -5.8283
  26   1.0000      -0.194109        -5.2820
  27   1.0000      -0.176935        -4.8146
  28   1.0000      -0.168131        -4.5751
  29   1.0000      -0.101614        -2.7651
  30   1.0000      -0.092056        -2.5050
  31   1.0000      -0.058917        -1.6032
  32   1.0000       0.056910         1.5486
  33   0.0000       0.171930         4.6785
  34   0.0000       0.211374         5.7518
  35   0.0000       0.211719         5.7612
  36   0.0000       0.229465         6.2441
  37   0.0000       0.253801         6.9063

                 SPIN DOWN ORBITALS
  NO   OCC          E(Eh)            E(eV)
   0   1.0000     -18.960746      -515.9481
   1   1.0000     -10.087747      -274.5016
   2   1.0000     -10.068508      -273.9780
   3   1.0000     -10.065018      -273.8831
   4   1.0000     -10.063216      -273.8340
   5   1.0000     -10.055888      -273.6346
   6   1.0000     -10.051303      -273.5099
   7   1.0000     -10.047747      -273.4131
   8   1.0000     -10.042284      -273.2645
   9   1.0000      -0.805912       -21.9300
  10   1.0000      -0.685054       -18.6413
  11   1.0000      -0.595182       -16.1957
  12   1.0000      -0.581294       -15.8178
  13   1.0000      -0.557615       -15.1735
  14   1.0000      -0.457360       -12.4454
  15   1.0000      -0.434154       -11.8139
  16   1.0000      -0.382178       -10.3996
  17   1.0000      -0.338543        -9.2122
  18   1.0000      -0.293715        -7.9924
  19   1.0000      -0.283986        -7.7276
  20   1.0000      -0.278745        -7.5850
  21   1.0000      -0.270279        -7.3547
  22   1.0000      -0.259355        -7.0574
  23   1.0000      -0.227885        -6.2011
  24   1.0000      -0.216419        -5.8891
  25   1.0000      -0.200905        -5.4669
  26   1.0000      -0.190991        -5.1971
  27   1.0000      -0.166440        -4.5291
  28   1.0000      -0.146171        -3.9775
  29   1.0000      -0.090829        -2.4716
  30   1.0000      -0.062956        -1.7131
  31   1.0000      -0.052314        -1.4235
  32   0.0000       0.145844         3.9686
  33   0.0000       0.176654         4.8070
  34   0.0000       0.212647         5.7864
  35   0.0000       0.230480         6.2717
  36   0.0000       0.239842         6.5264

MULLIKEN ATOMIC CHARGES AND SPIN POPULATIONS
--------------------------------------------
   0 C :   -0.181252    0.180152
   1 C :   -0.094212   -0.111126
   2 C :   -0.163793    0.351870
   3 C :   -0.096811   -0.096818
   4 C :   -0.156499    0.171311
   5 C :    0.007752    0.107632
   6 C :   -0.004821    0.187995
   7 O :   -0.391436    0.249760
   8 C :   -0.327001   -0.026443
   9 H :    0.081590   -0.000664
  10 H :    0.089867    0.011373
  11 H :    0.089899    0.011396
  12 H :    0.048176   -0.010964
  13 H :    0.027404    0.003105
  14 H :    0.019185   -0.021598
  15 H :    0.023525    0.004010
  16 H :    0.028427   -0.010990
Sum of atomic charges         :   -1.0000000

LOEWDIN ATOMIC CHARGES AND SPIN POPULATIONS
-------------------------------------------
   0 C :   -0.181435    0.141313
   1 C :   -0.164034   -0.053001
   2 C :   -0.248335    0.274497
   3 C :   -0.165232   -0.041803
   4 C :   -0.151945    0.136863
   5 C :   -0.133307    0.116338
   6 C :   -0.053348    0.184276
   7 O :   -0.336928    0.247183
   8 C :   -0.371234   -0.008338
   9 H :    0.106102   -0.000258
  10 H :    0.104294    0.009684
  11 H :    0.104304    0.009696
  12 H :    0.111858   -0.005098
  13 H :    0.094195    0.001418
  14 H :    0.091644   -0.009602
  15 H :    0.093542    0.001790
  16 H :    0.099860   -0.004960

  Mayer bond orders larger than 0.100000
B(  0-C ,  1-C ) :   1.4966 B(  0-C ,  5-C ) :   1.2189 B(  0-C , 16-H ) :   0.9423
B(  1-C ,  2-C ) :   1.3075 B(  1-C , 15-H ) :   0.9574 B(  2-C ,  3-C ) :   1.2662
B(  2-C , 14-H ) :   0.9651 B(  3-C ,  4-C ) :   1.4935 B(  3-C , 13-H ) :   0.9629
B(  4-C ,  5-C ) :   1.2374 B(  4-C , 12-H ) :   0.9527 B(  5-C ,  6-C ) :   1.2277
B(  6-C ,  7-O ) :   1.8926 B(  6-C ,  8-C ) :   1.0598 B(  8-C ,  9-H ) :   0.9500
B(  8-C , 10-H ) :   0.9337 B(  8-C , 11-H ) :   0.9337

Dispersion correction           -0.015091707
FINAL SINGLE POINT ENERGY      -384.164110719112

DIPOLE MOMENT
-------------

Method             : SCF
Type of density    : Electron Density
Multiplicity       :   2
Irrep              :   0
Energy             :  -384.1490190123201955 Eh
Relativity type    :
Basis              : AO
                                X                 Y                 Z
Electronic contribution:      0.419094590       3.560897638       0.000719015
Nuclear contribution   :      0.371773726      -4.441970232      -0.000619392
                        -----------------------------------------
Total Dipole Moment    :      0.790868316      -0.881072594       0.000099623
                        -----------------------------------------
Magnitude (a.u.)       :      1.183960143
Magnitude (Debye)      :      3.009387523

VIBRATIONAL FREQUENCIES
-----------------------

Scaling factor for frequencies =  1.000000000  (already applied!)

     0:       0.00 cm**-1
     1:       0.00 cm**-1
     2:       0.00 cm**-1
     3:       0.00 cm**-1
     4:       0.00 cm**-1
     5:       0.00 cm**-1
     6:     108.06 cm**-1
     7:     145.57 cm**-1
     8:     147.05 cm**-1
     9:     209.49 cm**-1
    10:     361.12 cm**-1
    11:     365.29 cm**-1
    12:     447.55 cm**-1
    13:     473.32 cm**-1
    14:     554.69 cm**-1
    15:     576.15 cm**-1
    16:     625.81 cm**-1
    17:     651.28 cm**-1
    18:     707.62 cm**-1
    19:     739.37 cm**-1
    20:     781.22 cm**-1
    21:     815.34 cm**-1
    22:     941.08 cm**-1
    23:     949.33 cm**-1
    24:     970.99 cm**-1
    25:     993.65 cm**-1
    26:    1002.84 cm**-1
    27:    1021.29 cm**-1
    28:    1068.72 cm**-1
    29:    1086.99 cm**-1
    30:    1134.11 cm**-1
    31:    1175.36 cm**-1
    32:    1301.24 cm**-1
    33:    1340.83 cm**-1
    34:    1353.92 cm**-1
    35:    1403.21 cm**-1
    36:    1454.04 cm**-1
    37:    1459.64 cm**-1
    38:    1473.24 cm**-1
    39:    1509.24 cm**-1
    40:    1545.23 cm**-1
    41:    1630.70 cm**-1
    42:    1699.74 cm**-1
    43:    2974.86 cm**-1
    44:    3040.55 cm**-1
    45:    3123.70 cm**-1
    46:    3130.64 cm**-1
    47:    3135.22 cm**-1
    48:    3174.93 cm**-1
    49:    3183.36 cm**-1
    50:    3202.40 cm**-1

IR SPECTRUM
-----------

 Mode   freq       eps      Int      T**2         TX        TY        TZ
       cm**-1   L/(mol*cm) km/mol    a.u.
----------------------------------------------------------------------------
  6:    108.06   0.000253    1.28  0.000731  (-0.000006  0.000004  0.027039)
  7:    145.57   0.000324    1.64  0.000694  (-0.000013 -0.000004  0.026348)
  8:    147.05   0.000010    0.05  0.000021  ( 0.000034  0.000015 -0.004592)
  9:    209.49   0.000702    3.55  0.001046  ( 0.032311  0.001246  0.000009)
 10:    361.12   0.000171    0.86  0.000148  (-0.008322 -0.008849 -0.000172)
 11:    365.29   0.000803    4.06  0.000686  ( 0.000106  0.000068 -0.026186)
 12:    447.55   0.000009    0.04  0.000006  (-0.000003  0.000002  0.002441)
 13:    473.32   0.000963    4.87  0.000635  ( 0.024682 -0.005068 -0.000005)
 14:    554.69   0.003343   16.90  0.001881  (-0.000102 -0.000012 -0.043370)
 15:    576.15   0.001551    7.84  0.000840  (-0.023862 -0.016451 -0.000006)
 16:    625.81   0.000041    0.21  0.000020  ( 0.002341  0.003852  0.000004)
 17:    651.28   0.008063   40.75  0.003863  ( 0.000002 -0.000004 -0.062156)
 18:    707.62   0.000566    2.86  0.000249  ( 0.000027 -0.000002  0.015793)
 19:    739.37   0.000130    0.65  0.000055  ( 0.006644 -0.003244 -0.000007)
 20:    781.22   0.001425    7.20  0.000569  ( 0.000020 -0.000004 -0.023858)
 21:    815.34   0.001638    8.28  0.000627  (-0.000016 -0.000004  0.025038)
 22:    941.08   0.000002    0.01  0.000000  (-0.000028  0.000002  0.000705)
 23:    949.33   0.018961   95.82  0.006233  ( 0.078446  0.008887  0.000007)
 24:    970.99   0.000069    0.35  0.000022  ( 0.000016  0.000001  0.004721)
 25:    993.65   0.000173    0.87  0.000054  ( 0.000542  0.007342 -0.000016)
 26:   1002.84   0.000318    1.61  0.000099  ( 0.000095  0.000015  0.009953)
 27:   1021.29   0.010304   52.07  0.003149  ( 0.056112  0.000012 -0.000010)
 28:   1068.72   0.000327    1.65  0.000096  ( 0.003701  0.009046 -0.000000)
 29:   1086.99   0.002255   11.40  0.000647  ( 0.020433 -0.015161  0.000003)
 30:   1134.11   0.001473    7.45  0.000405  ( 0.008101 -0.018433  0.000000)
 31:   1175.36   0.000931    4.71  0.000247  ( 0.015594 -0.002031 -0.000004)
 32:   1301.24   0.002005   10.13  0.000481  (-0.020782  0.006993  0.000002)
 33:   1340.83   0.000995    5.03  0.000232  (-0.007945 -0.012984  0.000002)
 34:   1353.92   0.004418   22.33  0.001018  ( 0.007536 -0.031009 -0.000004)
 35:   1403.21   0.006971   35.23  0.001550  (-0.023152 -0.031847 -0.000002)
 36:   1454.04   0.009233   46.66  0.001982  ( 0.043712 -0.008418  0.000032)
 37:   1459.64   0.000541    2.74  0.000116  ( 0.000144 -0.000031 -0.010757)
 38:   1473.24   0.005476   27.67  0.001160  (-0.016499  0.029793 -0.000005)
 39:   1509.24   0.000934    4.72  0.000193  (-0.005143 -0.012908 -0.000002)
 40:   1545.23   0.001768    8.93  0.000357  ( 0.017170 -0.007889  0.000000)
 41:   1630.70   0.087362  441.49  0.016718  (-0.123489  0.038324  0.000002)
 42:   1699.74   0.007954   40.20  0.001460  (-0.016769  0.034339 -0.000002)
 43:   2974.86   0.022442  113.41  0.002354  ( 0.037216  0.031131 -0.000016)
 44:   3040.55   0.009909   50.08  0.001017  ( 0.000024  0.000013  0.031891)
 45:   3123.70   0.004717   23.84  0.000471  (-0.019526  0.009487 -0.000002)
 46:   3130.64   0.003753   18.96  0.000374  ( 0.019341  0.000026 -0.000001)
 47:   3135.22   0.013358   67.50  0.001330  ( 0.001924  0.036412 -0.000002)
 48:   3174.93   0.010394   52.53  0.001022  (-0.022882 -0.022316  0.000004)
 49:   3183.36   0.009024   45.60  0.000885  (-0.022682  0.019239  0.000001)
 50:   3202.40   0.003063   15.48  0.000298  ( 0.007393  0.015615  0.000000)

--------------------------
THERMOCHEMISTRY AT 298.15K
--------------------------

Temperature         ...   298.15 K
Pressure            ...     1.00 atm
Total Mass          ...   120.15 AMU
Quasi RRHO          ...     True
Cut-Off Frequency   ...     1.00 cm^-1

Throughout the following assumptions are being made:
  (1) The electronic state is orbitally nondegenerate
      but the spin degeneracy is treated
  (2) There are no thermally accessible electronically excited states
  (3) Hindered rotations indicated by low frequency modes are not
      treated as such but are treated as vibrations and this may
      cause some error
  (4) All equations used are the standard statistical mechanics
      equations for an ideal gas
  (5) All vibrations are strictly harmonic

freq.     108.06  E(vib)   ...       0.45
freq.     145.57  E(vib)   ...       0.41
freq.     147.05  E(vib)   ...       0.41
freq.     209.49  E(vib)   ...       0.34
freq.     361.12  E(vib)   ...       0.22
freq.     365.29  E(vib)   ...       0.22
freq.     447.55  E(vib)   ...       0.17
freq.     473.32  E(vib)   ...       0.15
freq.     554.69  E(vib)   ...       0.12
freq.     576.15  E(vib)   ...       0.11
freq.     625.81  E(vib)   ...       0.09
freq.     651.28  E(vib)   ...       0.08
freq.     707.62  E(vib)   ...       0.07
freq.     739.37  E(vib)   ...       0.06
freq.     781.22  E(vib)   ...       0.05
freq.     815.34  E(vib)   ...       0.05
freq.     941.08  E(vib)   ...       0.03
freq.     949.33  E(vib)   ...       0.03
freq.     970.99  E(vib)   ...       0.03
freq.     993.65  E(vib)   ...       0.02
freq.    1002.84  E(vib)   ...       0.02
freq.    1021.29  E(vib)   ...       0.02
freq.    1068.72  E(vib)   ...       0.02
freq.    1086.99  E(vib)   ...       0.02
freq.    1134.11  E(vib)   ...       0.01
freq.    1175.36  E(vib)   ...       0.01
freq.    1301.24  E(vib)   ...       0.01
freq.    1340.83  E(vib)   ...       0.01
freq.    1353.92  E(vib)   ...       0.01
freq.    1403.21  E(vib)   ...       0.00
freq.    1454.04  E(vib)   ...       0.00
freq.    1459.64  E(vib)   ...       0.00
freq.    1473.24  E(vib)   ...       0.00
freq.    1509.24  E(vib)   ...       0.00
freq.    1545.23  E(vib)   ...       0.00
freq.    1630.70  E(vib)   ...       0.00
freq.    1699.74  E(vib)   ...       0.00
freq.    2974.86  E(vib)   ...       0.00
freq.    3040.55  E(vib)   ...       0.00
freq.    3123.70  E(vib)   ...       0.00
freq.    3130.64  E(vib)   ...       0.00
freq.    3135.22  E(vib)   ...       0.00
freq.    3174.93  E(vib)   ...       0.00
freq.    3183.36  E(vib)   ...       0.00
freq.    3202.40  E(vib)   ...       0.00

------------
INNER ENERGY
------------

The inner energy is: U= E(el) + E(ZPE) + E(vib) + E(rot) + E(trans)
    E(el)   - is the total energy from the electronic structure calculation
              = E(kin-el) + E(nuc-el) + E(el-el) + E(nuc-nuc)
    E(ZPE)  - the the zero temperature vibrational energy from the frequency calculation
    E(vib)  - the the finite temperature correction to E(ZPE) due to population
              of excited vibrational states
    E(rot)  - is the rotational thermal energy
    E(trans)- is the translational thermal energy

Summary of contributions to the inner energy U:
Electronic energy                ...   -384.16411072 Eh
Zero point energy                ...      0.13484469 Eh      84.62 kcal/mol
Thermal vibrational correction   ...      0.00517841 Eh       3.25 kcal/mol
Thermal rotational correction    ...      0.00141627 Eh       0.89 kcal/mol
Thermal translational correction ...      0.00141627 Eh       0.89 kcal/mol
-----------------------------------------------------------------------
Total thermal energy                   -384.02125508 Eh

Summary of corrections to the electronic energy:
(perhaps to be used in another calculation)
Total thermal correction                  0.00801095 Eh       5.03 kcal/mol
Non-thermal (ZPE) correction              0.13484469 Eh      84.62 kcal/mol
-----------------------------------------------------------------------
Total correction                          0.14285564 Eh      89.64 kcal/mol

--------
ENTHALPY
--------

The enthalpy is H = U + kB*T
                kB is Boltzmann's constant
Total thermal energy              ...   -384.02125508 Eh
Thermal Enthalpy correction       ...      0.00094421 Eh       0.59 kcal/mol
-----------------------------------------------------------------------
Total Enthalpy                    ...   -384.02031087 Eh

Note: Only C1 symmetry has been detected, increase convergence thresholds
      if your molecule has a higher symmetry. Symmetry factor of 1.0 is
      used for the rotational entropy correction.

Note: Rotational entropy computed according to Herzberg
Infrared and Raman Spectra, Chapter V,1, Van Nostrand Reinhold, 1945
Point Group:  C1, Symmetry Number:   1
Rotational constants in cm-1:     0.121326     0.040165     0.030348

Vibrational entropy computed according to the QRRHO of S. Grimme
Chem.Eur.J. 2012 18 9955 using a reference frequency of 100.0 cm-1

-------
ENTROPY
-------

The entropy contributions are T*S = T*(S(el)+S(vib)+S(rot)+S(trans))
     S(el)   - electronic entropy
     S(vib)  - vibrational entropy
     S(rot)  - rotational entropy
     S(trans)- translational entropy
The entropies will be listed as multiplied by the temperature to get
units of energy

Electronic entropy                ...      0.00065446 Eh      0.41 kcal/mol
Vibrational entropy               ...      0.00857142 Eh      5.38 kcal/mol
Rotational entropy                ...      0.01367421 Eh      8.58 kcal/mol
Translational entropy             ...      0.01913124 Eh     12.01 kcal/mol
-----------------------------------------------------------------------
Final entropy term                ...      0.04203132 Eh     26.37 kcal/mol

In case the symmetry of your molecule has not been determined correctly
or in case you have a reason to use a different symmetry number we print
out the resulting rotational entropy values for sn=1,12:

 non-linear molecules -----------------------------------
|  sn= 1 | S(rot)=       0.01367421 Eh      8.58 kcal/mol|
|  sn= 2 | S(rot)=       0.01301975 Eh      8.17 kcal/mol|
|  sn= 3 | S(rot)=       0.01263692 Eh      7.93 kcal/mol|
|  sn= 4 | S(rot)=       0.01236529 Eh      7.76 kcal/mol|
|  sn= 5 | S(rot)=       0.01215461 Eh      7.63 kcal/mol|
|  sn= 6 | S(rot)=       0.01198246 Eh      7.52 kcal/mol|
|  sn= 7 | S(rot)=       0.01183692 Eh      7.43 kcal/mol|
|  sn= 8 | S(rot)=       0.01171084 Eh      7.35 kcal/mol|
|  sn= 9 | S(rot)=       0.01159963 Eh      7.28 kcal/mol|
|  sn=10 | S(rot)=       0.01150015 Eh      7.22 kcal/mol|
|  sn=11 | S(rot)=       0.01141016 Eh      7.16 kcal/mol|
|  sn=12 | S(rot)=       0.01132800 Eh      7.11 kcal/mol|
 linear molecules ---------------------------------------
|  Dinfh | S(rot)=       0.00862574 Eh      5.41 kcal/mol|

                             ****ORCA TERMINATED NORMALLY****
TOTAL RUN TIME: 0 days 0 hours 9 minutes 22 seconds 826 msec
