                         Program Version 6.0.0  -   RELEASE  -
|  1> !B3LYP aug-cc-pVTZ d3 TightSCF SlowConv RIJCOSX defgrid2
|  2>
|  3> %pal
|  4> nprocs 4
|  5> end
|  6>
|  7> %scf
|  8> MaxIter 1500
|  9> end
| 10>
| 11> %maxcore 3000
| 12>
| 13> !CPCM
| 14> %cpcm smd true
| 15> SMDsolvent "MeCN"
| 16> surfacetype gepol_ses
| 17> rsolv 2.19
| 18> end
| 19>
| 20> * xyz 0 1
| 21> C           0.49470507986689     -1.28935631990851      0.00010874258042
| 22> C           1.40908641826733     -0.22147183581534      0.00012909194558
| 23> C           0.87652773876151      1.07792685723328      0.00000492945569
| 24> C          -0.49469394553322      1.28942538906843     -0.00011206028261
| 25> C          -1.40907528767924      0.22153956382169     -0.00008845068658
| 26> C          -0.87651553070888     -1.07785825260461     -0.00000990536767
| 27> H          -1.54545333719204     -1.94291362486448     -0.00009686185205
| 28> C          -2.84456825365451      0.51115677736565     -0.00016134460175
| 29> C          -3.85777664336290     -0.37016514253978      0.00069395658741
| 30> C          -5.30325422186199     -0.00132827117349      0.00054902064982
| 31> H          -5.82268564165386     -0.41483693779544     -0.88475753685959
| 32> H          -5.44363484922644      1.09278775657122     -0.00048184652449
| 33> H          -5.82242918676140     -0.41313393815800      0.88680059997485
| 34> H          -3.63558487599837     -1.44572430894995      0.00161496983067
| 35> H          -3.09792946711740      1.58024959925667     -0.00095926539794
| 36> H          -0.87860533471525      2.31485410603895     -0.00020323655719
| 37> H           1.54546492447861      1.94298328215137     -0.00000160713393
| 38> C           2.84457766493005     -0.51109546895278      0.00024640262469
| 39> C           3.85779145901576      0.37021961014473      0.00027505555542
| 40> C           5.30326751721893      0.00137504492038      0.00037195486634
| 41> H           5.82255778844256      0.41418506123902      0.88608667850665
| 42> H           5.82258564966444      0.41388438927124     -0.88546931241510
| 43> H           5.44364800850219     -1.09274127411065      0.00055173822611
| 44> H           3.63560517323574      1.44578042657169      0.00020897424361
| 45> H           3.09793184852103     -1.58018954757629      0.00031964622318
| 46> H           0.87861580456047     -2.31478514120501      0.00015816640849
| 47> *
| 48>
| 49>                          ****END OF INPUT****

CARTESIAN COORDINATES (ANGSTROEM)
---------------------------------
  C      0.494705   -1.289356    0.000109
  C      1.409086   -0.221472    0.000129
  C      0.876528    1.077927    0.000005
  C     -0.494694    1.289425   -0.000112
  C     -1.409075    0.221540   -0.000088
  C     -0.876516   -1.077858   -0.000010
  H     -1.545453   -1.942914   -0.000097
  C     -2.844568    0.511157   -0.000161
  C     -3.857777   -0.370165    0.000694
  C     -5.303254   -0.001328    0.000549
  H     -5.822686   -0.414837   -0.884758
  H     -5.443635    1.092788   -0.000482
  H     -5.822429   -0.413134    0.886801
  H     -3.635585   -1.445724    0.001615
  H     -3.097929    1.580250   -0.000959
  H     -0.878605    2.314854   -0.000203
  H      1.545465    1.942983   -0.000002
  C      2.844578   -0.511095    0.000246
  C      3.857791    0.370220    0.000275
  C      5.303268    0.001375    0.000372
  H      5.822558    0.414185    0.886087
  H      5.822586    0.413884   -0.885469
  H      5.443648   -1.092741    0.000552
  H      3.635605    1.445780    0.000209
  H      3.097932   -1.580190    0.000320
  H      0.878616   -2.314785    0.000158

 Total Charge           Charge          ....    0
 Multiplicity           Mult            ....    1
 Number of Electrons    NEL             ....   86
 Basis Dimension        Dim             ....  874

ORBITAL ENERGIES
----------------

  NO   OCC          E(Eh)            E(eV)
   0   2.0000     -10.184530      -277.1352
   1   2.0000     -10.184496      -277.1342
   2   2.0000     -10.174670      -276.8668
   3   2.0000     -10.174663      -276.8667
   4   2.0000     -10.174263      -276.8558
   5   2.0000     -10.174220      -276.8546
   6   2.0000     -10.173500      -276.8350
   7   2.0000     -10.173463      -276.8340
   8   2.0000     -10.170114      -276.7429
   9   2.0000     -10.170107      -276.7427
  10   2.0000     -10.162994      -276.5491
  11   2.0000     -10.162992      -276.5491
  12   2.0000      -0.862900       -23.4807
  13   2.0000      -0.809853       -22.0372
  14   2.0000      -0.784309       -21.3421
  15   2.0000      -0.749343       -20.3907
  16   2.0000      -0.743139       -20.2218
  17   2.0000      -0.694571       -18.9003
  18   2.0000      -0.657623       -17.8948
  19   2.0000      -0.616312       -16.7707
  20   2.0000      -0.590899       -16.0792
  21   2.0000      -0.553706       -15.0671
  22   2.0000      -0.539362       -14.6768
  23   2.0000      -0.504501       -13.7282
  24   2.0000      -0.471032       -12.8174
  25   2.0000      -0.461704       -12.5636
  26   2.0000      -0.437003       -11.8914
  27   2.0000      -0.415293       -11.3007
  28   2.0000      -0.414030       -11.2663
  29   2.0000      -0.405905       -11.0452
  30   2.0000      -0.404593       -11.0095
  31   2.0000      -0.401417       -10.9231
  32   2.0000      -0.392958       -10.6929
  33   2.0000      -0.381462       -10.3801
  34   2.0000      -0.367714       -10.0060
  35   2.0000      -0.356083        -9.6895
  36   2.0000      -0.341438        -9.2910
  37   2.0000      -0.340167        -9.2564
  38   2.0000      -0.327070        -8.9000
  39   2.0000      -0.317261        -8.6331
  40   2.0000      -0.259560        -7.0630
  41   2.0000      -0.257756        -7.0139
  42   2.0000      -0.205355        -5.5880
  43   0.0000      -0.052395        -1.4257
  44   0.0000      -0.012922        -0.3516
  45   0.0000      -0.001870        -0.0509
  46   0.0000       0.003734         0.1016
  47   0.0000       0.009757         0.2655

MULLIKEN ATOMIC CHARGES
-----------------------
   0 C :   -1.277339
   1 C :    2.127573
   2 C :   -0.693031
   3 C :   -1.278194
   4 C :    2.141861
   5 C :   -0.696863
   6 H :   -0.048691
   7 C :    0.089677
   8 C :   -0.284919
   9 C :   -0.882594
  10 H :    0.185240
  11 H :    0.259409
  12 H :    0.184154
  13 H :    0.245323
  14 H :    0.048386
  15 H :    0.038299
  16 H :   -0.050752
  17 C :    0.079453
  18 C :   -0.278196
  19 C :   -0.876614
  20 H :    0.181808
  21 H :    0.181381
  22 H :    0.257762
  23 H :    0.256411
  24 H :    0.054390
  25 H :    0.036067
Sum of atomic charges:    0.0000000

LOEWDIN ATOMIC CHARGES
----------------------
   0 C :    0.205535
   1 C :   -0.148342
   2 C :    0.209557
   3 C :    0.205532
   4 C :   -0.148329
   5 C :    0.209555
   6 H :   -0.177288
   7 C :    0.196251
   8 C :    0.196613
   9 C :    0.540898
  10 H :   -0.162606
  11 H :   -0.172134
  12 H :   -0.162574
  13 H :   -0.180792
  14 H :   -0.181242
  15 H :   -0.163884
  16 H :   -0.177285
  17 C :    0.196237
  18 C :    0.196615
  19 C :    0.540908
  20 H :   -0.162611
  21 H :   -0.162574
  22 H :   -0.172137
  23 H :   -0.180790
  24 H :   -0.181233
  25 H :   -0.163883

  Mayer bond orders larger than 0.100000
B(  0-C ,  2-C ) :  -0.6196 B(  0-C ,  3-C ) :   0.4417 B(  0-C ,  5-C ) :   0.9710
B(  0-C ,  8-C ) :  -0.1241 B(  0-C , 25-H ) :   1.5101 B(  1-C ,  2-C ) :   0.3030
B(  1-C ,  4-C ) :  -0.1231 B(  1-C ,  6-H ) :  -0.1153 B(  1-C ,  7-C ) :   0.3318
B(  1-C , 16-H ) :  -0.3227 B(  1-C , 17-C ) :   0.1659 B(  1-C , 18-C ) :  -0.1568
B(  1-C , 25-H ) :  -0.3184 B(  2-C ,  3-C ) :   0.9685 B(  2-C ,  5-C ) :  -0.2741
B(  2-C ,  6-H ) :  -0.2134 B(  2-C ,  7-C ) :  -0.1881 B(  2-C , 15-H ) :  -0.2340
B(  2-C , 16-H ) :   1.7325 B(  2-C , 17-C ) :   0.3329 B(  2-C , 18-C ) :   0.1702
B(  2-C , 25-H ) :   0.1040 B(  3-C ,  5-C ) :  -0.6141 B(  3-C , 15-H ) :   1.5203
B(  3-C , 18-C ) :  -0.1215 B(  4-C ,  5-C ) :   0.2950 B(  4-C ,  6-H ) :  -0.3231
B(  4-C ,  7-C ) :   0.1480 B(  4-C ,  8-C ) :  -0.1591 B(  4-C , 13-H ) :  -0.1032
B(  4-C , 15-H ) :  -0.3166 B(  4-C , 16-H ) :  -0.1233 B(  4-C , 17-C ) :   0.3253
B(  5-C ,  6-H ) :   1.7288 B(  5-C ,  7-C ) :   0.3365 B(  5-C ,  8-C ) :   0.1687
B(  5-C , 15-H ) :   0.1093 B(  5-C , 16-H ) :  -0.2194 B(  5-C , 17-C ) :  -0.1790
B(  5-C , 25-H ) :  -0.2324 B(  6-H , 15-H ) :   0.1529 B(  6-H , 25-H ) :   0.1031
B(  7-C ,  8-C ) :   0.8776 B(  7-C , 14-H ) :   1.2147 B(  8-C ,  9-C ) :   0.6129
B(  8-C , 13-H ) :   1.1940 B(  8-C , 14-H ) :  -0.1343 B(  8-C , 18-C ) :   0.1321
B(  8-C , 25-H ) :  -0.1001 B(  9-C , 10-H ) :   1.0486 B(  9-C , 11-H ) :   0.9389
B(  9-C , 12-H ) :   1.0515 B(  9-C , 13-H ) :  -0.1643 B( 15-H , 16-H ) :   0.1007
B( 16-H , 25-H ) :   0.1524 B( 17-C , 18-C ) :   0.8773 B( 17-C , 24-H ) :   1.2105
B( 18-C , 19-C ) :   0.6306 B( 18-C , 23-H ) :   1.1689 B( 18-C , 24-H ) :  -0.1338
B( 19-C , 20-H ) :   1.0572 B( 19-C , 21-H ) :   1.0532 B( 19-C , 22-H ) :   0.9353
B( 19-C , 23-H ) :  -0.1734

Dispersion correction           -0.045146919
FINAL SINGLE POINT ENERGY      -465.599977056269

DIPOLE MOMENT
-------------

Method             : SCF
Type of density    : Electron Density
Multiplicity       :   1
Irrep              :   0
Energy             :  -465.5548301369225896 Eh
Relativity type    :
Basis              : AO
                                X                 Y                 Z
Electronic contribution:     -0.000039066       0.000037723      -0.001127034
Nuclear contribution   :      0.000002145      -0.000025147       0.001221223
                        -----------------------------------------
Total Dipole Moment    :     -0.000036921       0.000012576       0.000094188
                        -----------------------------------------
Magnitude (a.u.)       :      0.000101945
Magnitude (Debye)      :      0.000259124

Rotational constants in cm-1:             0.149823             0.010865             0.010169
Rotational constants in MHz :          4491.593991           325.738832           304.872217

                             ****ORCA TERMINATED NORMALLY****
TOTAL RUN TIME: 0 days 0 hours 10 minutes 16 seconds 13 msec
