                         Program Version 6.0.0  -   RELEASE  -
|  1> !r2SCANh opt aug-cc-pVTZ d3 TightSCF SlowConv RIJCOSX defgrid2
|  2>
|  3> %pal
|  4> nprocs 8
|  5> end
|  6>
|  7> %scf
|  8> MaxIter 1500
|  9> end
| 10>
| 11> %maxcore 3500
| 12>
| 13> !CPCM
| 14> %cpcm smd true
| 15> SMDsolvent "MeCN"
| 16> surfacetype gepol_ses
| 17> rsolv 2.19
| 18> end
| 19>
| 20> * xyz 0 1
| 21> C          -0.01157783641881      1.20352898199244      0.00001890353025
| 22> C           1.37990540430455      1.22191450811359      0.00011854591947
| 23> C           2.06592899516975      0.01252414866139      0.00007181753194
| 24> C           1.39794249050432     -1.20933071970230     -0.00006681343243
| 25> C           0.01016197626576     -1.21076373795935     -0.00015906863819
| 26> C          -0.71228022521915     -0.00932565619212     -0.00012281102354
| 27> C          -2.20544538942687     -0.09111368239076     -0.00023883939795
| 28> O          -2.76237956084169     -1.16697560386648     -0.00031741607190
| 29> C          -2.99637020201978      1.19627311334720     -0.00027997588088
| 30> H          -2.76201741553525      1.80607989056811      0.88981335524989
| 31> H          -2.76168147330890      1.80627685436038     -0.89014621124470
| 32> H          -4.06823478710533      0.95066483560844     -0.00049545748797
| 33> H          -0.55378818786793     -2.14712022161097     -0.00026564570615
| 34> H           1.97664868381534     -2.13630478054762     -0.00010007290271
| 35> F           3.39392859180167      0.02324511926514      0.00015796253828
| 36> H           1.94353444532030      2.15785345098842      0.00023004641097
| 37> H          -0.54990740943796      2.15466559936447      0.00005528060562
| 38> *
| 39>
| 40>                          ****END OF INPUT****
 Total Charge           Charge          ....    0
 Multiplicity           Mult            ....    1
 Number of Electrons    NEL             ....   72
Dispersion correction           -0.005419747
FINAL SINGLE POINT ENERGY      -484.049548810461
Dispersion correction             ... done (  0.1 sec)
Dispersion correction           -0.005437677
FINAL SINGLE POINT ENERGY      -484.050935430066
Dispersion correction             ... done (  0.1 sec)
Dispersion correction           -0.005441834
FINAL SINGLE POINT ENERGY      -484.051065773278
Dispersion correction             ... done (  0.1 sec)
FINAL SINGLE POINT ENERGY      -484.051098195159
Dispersion correction             ... done (  0.1 sec)
Dispersion correction           -0.005440961
FINAL SINGLE POINT ENERGY      -484.051100125790
Dispersion correction             ... done (  0.0 sec)
Dispersion correction           -0.005440393
FINAL SINGLE POINT ENERGY      -484.051102323656
Dispersion correction             ... done (  0.1 sec)
                    ***********************HURRAY********************

CARTESIAN COORDINATES (ANGSTROEM)
---------------------------------
  C     -0.027575    1.192876   -0.000161
  C      1.357402    1.222468    0.000048
  C      2.033053    0.018922    0.000104
  C      1.392126   -1.206468    0.000401
  C      0.010579   -1.215408   -0.000076
  C     -0.715163   -0.021825   -0.000462
  C     -2.200736   -0.086624   -0.001082
  O     -2.772988   -1.163243   -0.002182
  C     -2.972049    1.198699   -0.000103
  H     -2.721135    1.796929    0.876641
  H     -2.723257    1.797129   -0.877420
  H     -4.035790    0.981679    0.001185
  H     -0.526557   -2.153020    0.000096
  H      1.969094   -2.120053    0.000842
  F      3.378240    0.037886   -0.000047
  H      1.905695    2.153334    0.000052
  H     -0.566572    2.128808    0.000440

 Multiplicity           Mult            ....    1
 Number of Electrons    NEL             ....   72
 Basis Dimension        Dim             ....  621

ORBITAL ENERGIES
----------------

  NO   OCC          E(Eh)            E(eV)
   0   2.0000     -24.697070      -672.0414
   1   2.0000     -19.103715      -519.8385
   2   2.0000     -10.255499      -279.0663
   3   2.0000     -10.246962      -278.8340
   4   2.0000     -10.177151      -276.9344
   5   2.0000     -10.174210      -276.8543
   6   2.0000     -10.172509      -276.8080
   7   2.0000     -10.170458      -276.7522
   8   2.0000     -10.170434      -276.7516
   9   2.0000     -10.145583      -276.0753
  10   2.0000      -1.246450       -33.9176
  11   2.0000      -1.045707       -28.4551
  12   2.0000      -0.878672       -23.9099
  13   2.0000      -0.780021       -21.2255
  14   2.0000      -0.767477       -20.8841
  15   2.0000      -0.729363       -19.8470
  16   2.0000      -0.635754       -17.2997
  17   2.0000      -0.626911       -17.0591
  18   2.0000      -0.553953       -15.0738
  19   2.0000      -0.546711       -14.8768
  20   2.0000      -0.495433       -13.4814
  21   2.0000      -0.475561       -12.9407
  22   2.0000      -0.472192       -12.8490
  23   2.0000      -0.446739       -12.1564
  24   2.0000      -0.434645       -11.8273
  25   2.0000      -0.428197       -11.6518
  26   2.0000      -0.424137       -11.5414
  27   2.0000      -0.399925       -10.8825
  28   2.0000      -0.391683       -10.6582
  29   2.0000      -0.372474       -10.1355
  30   2.0000      -0.366918        -9.9843
  31   2.0000      -0.347003        -9.4424
  32   2.0000      -0.338376        -9.2077
  33   2.0000      -0.269401        -7.3308
  34   2.0000      -0.255234        -6.9453
  35   2.0000      -0.245023        -6.6674
  36   0.0000      -0.073242        -1.9930
  37   0.0000      -0.036995        -1.0067
  38   0.0000       0.009415         0.2562
  39   0.0000       0.022417         0.6100
  40   0.0000       0.022878         0.6225

MULLIKEN ATOMIC CHARGES
-----------------------
   0 C :   -0.295365
   1 C :   -0.928705
   2 C :    0.684268
   3 C :   -0.735323
   4 C :   -0.780307
   5 C :    1.460730
   6 C :    0.765250
   7 O :   -0.968243
   8 C :   -0.579886
   9 H :    0.255217
  10 H :    0.256243
  11 H :    0.170535
  12 H :    0.183619
  13 H :    0.468046
  14 F :   -0.524348
  15 H :    0.438138
  16 H :    0.130132
Sum of atomic charges:    0.0000000

LOEWDIN ATOMIC CHARGES
----------------------
   0 C :    0.208286
   1 C :    0.215742
   2 C :   -0.529576
   3 C :    0.211337
   4 C :    0.195986
   5 C :   -0.132627
   6 C :   -0.546347
   7 O :    0.478603
   8 C :    0.580698
   9 H :   -0.163926
  10 H :   -0.163718
  11 H :   -0.181199
  12 H :   -0.187219
  13 H :   -0.171616
  14 F :    0.536759
  15 H :   -0.170761
  16 H :   -0.180420

  Mayer bond orders larger than 0.100000
B(  0-C ,  1-C ) :   0.8044 B(  0-C ,  2-C ) :  -0.2614 B(  0-C ,  3-C ) :  -0.1679
B(  0-C ,  4-C ) :  -0.3337 B(  0-C ,  5-C ) :   0.4368 B(  0-C , 16-H ) :   1.2525
B(  1-C ,  2-C ) :   1.3681 B(  1-C ,  3-C ) :   0.2941 B(  1-C , 14-F ) :   0.1834
B(  1-C , 15-H ) :   0.5176 B(  2-C ,  3-C ) :   1.3613 B(  2-C ,  4-C ) :  -0.3479
B(  2-C , 14-F ) :   0.3104 B(  3-C ,  4-C ) :   1.2793 B(  3-C , 13-H ) :   0.4736
B(  3-C , 14-F ) :   0.1759 B(  4-C ,  5-C ) :   0.2246 B(  4-C ,  6-C ) :   0.2317
B(  4-C , 12-H ) :   1.0065 B(  4-C , 16-H ) :   0.1138 B(  5-C ,  6-C ) :   0.3357
B(  5-C ,  7-O ) :   0.1269 B(  5-C ,  8-C ) :   0.1163 B(  5-C , 16-H ) :  -0.1590
B(  6-C ,  7-O ) :   0.8461 B(  6-C ,  8-C ) :   0.9108 B(  7-O , 12-H ) :   0.1280
B(  8-C ,  9-H ) :   0.9624 B(  8-C , 10-H ) :   0.9615 B(  8-C , 11-H ) :   0.9620
B( 12-H , 16-H ) :   0.1241 B( 13-H , 14-F ) :   0.1119 B( 14-F , 15-H ) :   0.1030

Dispersion correction           -0.005440706
FINAL SINGLE POINT ENERGY      -484.051103056592

DIPOLE MOMENT
-------------

Method             : SCF
Type of density    : Electron Density
Multiplicity       :   1
Irrep              :   0
Energy             :  -484.0456623509005567 Eh
Relativity type    :
Basis              : AO
                                X                 Y                 Z
Electronic contribution:      9.787828670      -2.887612856      -0.001607849
Nuclear contribution   :     -9.438344206       4.250102474       0.003778136
                        -----------------------------------------
Total Dipole Moment    :      0.349484463       1.362489618       0.002170287
                        -----------------------------------------
Magnitude (a.u.)       :      1.406599466
Magnitude (Debye)      :      3.575291710

Rotational constants in cm-1:             0.123248             0.026080             0.021610
Rotational constants in MHz :          3694.895447           781.847727           647.866339

                             ****ORCA TERMINATED NORMALLY****
TOTAL RUN TIME: 0 days 0 hours 26 minutes 7 seconds 441 msec
