                         Program Version 6.0.0  -   RELEASE  -
|  1> !PBE0 opt aug-cc-pVTZ d3 TightSCF SlowConv RIJCOSX defgrid2
|  2>
|  3> %pal
|  4> nprocs 8
|  5> end
|  6>
|  7> %scf
|  8> MaxIter 1500
|  9> end
| 10>
| 11> %maxcore 3500
| 12>
| 13> !CPCM
| 14> %cpcm smd true
| 15> SMDsolvent "MeCN"
| 16> surfacetype gepol_ses
| 17> rsolv 2.19
| 18> end
| 19>
| 20> * xyz 0 1
| 21> C          -0.01157783641881      1.20352898199244      0.00001890353025
| 22> C           1.37990540430455      1.22191450811359      0.00011854591947
| 23> C           2.06592899516975      0.01252414866139      0.00007181753194
| 24> C           1.39794249050432     -1.20933071970230     -0.00006681343243
| 25> C           0.01016197626576     -1.21076373795935     -0.00015906863819
| 26> C          -0.71228022521915     -0.00932565619212     -0.00012281102354
| 27> C          -2.20544538942687     -0.09111368239076     -0.00023883939795
| 28> O          -2.76237956084169     -1.16697560386648     -0.00031741607190
| 29> C          -2.99637020201978      1.19627311334720     -0.00027997588088
| 30> H          -2.76201741553525      1.80607989056811      0.88981335524989
| 31> H          -2.76168147330890      1.80627685436038     -0.89014621124470
| 32> H          -4.06823478710533      0.95066483560844     -0.00049545748797
| 33> H          -0.55378818786793     -2.14712022161097     -0.00026564570615
| 34> H           1.97664868381534     -2.13630478054762     -0.00010007290271
| 35> F           3.39392859180167      0.02324511926514      0.00015796253828
| 36> H           1.94353444532030      2.15785345098842      0.00023004641097
| 37> H          -0.54990740943796      2.15466559936447      0.00005528060562
| 38> *
| 39>
| 40>                          ****END OF INPUT****
 Total Charge           Charge          ....    0
 Multiplicity           Mult            ....    1
 Number of Electrons    NEL             ....   72
Dispersion correction           -0.015319375
FINAL SINGLE POINT ENERGY      -483.792025648853
Dispersion correction             ... done (  0.1 sec)
Dispersion correction           -0.015387746
FINAL SINGLE POINT ENERGY      -483.793216811371
Dispersion correction             ... done (  0.1 sec)
Dispersion correction           -0.015402935
FINAL SINGLE POINT ENERGY      -483.793320389665
Dispersion correction             ... done (  0.1 sec)
FINAL SINGLE POINT ENERGY      -483.793347021988
Dispersion correction             ... done (  0.1 sec)
Dispersion correction           -0.015399602
FINAL SINGLE POINT ENERGY      -483.793349254377
Dispersion correction             ... done (  0.0 sec)
Dispersion correction           -0.015397395
FINAL SINGLE POINT ENERGY      -483.793351823643
Dispersion correction             ... done (  0.0 sec)
                    ***********************HURRAY********************

CARTESIAN COORDINATES (ANGSTROEM)
---------------------------------
  C     -0.028237    1.190633   -0.000141
  C      1.356254    1.221043    0.000030
  C      2.034920    0.019293    0.000094
  C      1.391990   -1.204970    0.000429
  C      0.010776   -1.214608   -0.000028
  C     -0.714655   -0.022764   -0.000428
  C     -2.200712   -0.086550   -0.001103
  O     -2.772389   -1.161603   -0.002266
  C     -2.970168    1.198679   -0.000103
  H     -2.718966    1.796873    0.878910
  H     -2.720917    1.797213   -0.879536
  H     -4.036314    0.982959    0.001082
  H     -0.526235   -2.154205    0.000151
  H      1.968140   -2.121075    0.000860
  F      3.377050    0.038690   -0.000104
  H      1.902818    2.154912   -0.000038
  H     -0.568987    2.127572    0.000465

 Multiplicity           Mult            ....    1
 Number of Electrons    NEL             ....   72
 Basis Dimension        Dim             ....  621

ORBITAL ENERGIES
----------------

  NO   OCC          E(Eh)            E(eV)
   0   2.0000     -24.798882      -674.8119
   1   2.0000     -19.197898      -522.4014
   2   2.0000     -10.324282      -280.9380
   3   2.0000     -10.316768      -280.7335
   4   2.0000     -10.246900      -278.8323
   5   2.0000     -10.243937      -278.7517
   6   2.0000     -10.242301      -278.7072
   7   2.0000     -10.240115      -278.6477
   8   2.0000     -10.240097      -278.6472
   9   2.0000     -10.215467      -277.9770
  10   2.0000      -1.275185       -34.6996
  11   2.0000      -1.074144       -29.2290
  12   2.0000      -0.904798       -24.6208
  13   2.0000      -0.805191       -21.9104
  14   2.0000      -0.791524       -21.5385
  15   2.0000      -0.753888       -20.5143
  16   2.0000      -0.661305       -17.9950
  17   2.0000      -0.651395       -17.7254
  18   2.0000      -0.578142       -15.7321
  19   2.0000      -0.573313       -15.6006
  20   2.0000      -0.523145       -14.2355
  21   2.0000      -0.502147       -13.6641
  22   2.0000      -0.501799       -13.6546
  23   2.0000      -0.469229       -12.7684
  24   2.0000      -0.457911       -12.4604
  25   2.0000      -0.451504       -12.2861
  26   2.0000      -0.450801       -12.2669
  27   2.0000      -0.423356       -11.5201
  28   2.0000      -0.419084       -11.4039
  29   2.0000      -0.394110       -10.7243
  30   2.0000      -0.390161       -10.6168
  31   2.0000      -0.369351       -10.0505
  32   2.0000      -0.361972        -9.8498
  33   2.0000      -0.285188        -7.7604
  34   2.0000      -0.271650        -7.3920
  35   2.0000      -0.271413        -7.3855
  36   0.0000      -0.057514        -1.5650
  37   0.0000      -0.021932        -0.5968
  38   0.0000       0.001949         0.0530
  39   0.0000       0.014616         0.3977
  40   0.0000       0.018601         0.5062

MULLIKEN ATOMIC CHARGES
-----------------------
   0 C :   -0.478720
   1 C :   -0.914517
   2 C :    0.553115
   3 C :   -0.755801
   4 C :   -0.837077
   5 C :    1.122814
   6 C :    0.688296
   7 O :   -0.904591
   8 C :   -0.641349
   9 H :    0.299584
  10 H :    0.300049
  11 H :    0.197687
  12 H :    0.378534
  13 H :    0.572692
  14 F :   -0.490150
  15 H :    0.539620
  16 H :    0.369815
Sum of atomic charges:    0.0000000

LOEWDIN ATOMIC CHARGES
----------------------
   0 C :    0.203611
   1 C :    0.211344
   2 C :   -0.538761
   3 C :    0.206725
   4 C :    0.191624
   5 C :   -0.135500
   6 C :   -0.552611
   7 O :    0.486438
   8 C :    0.572388
   9 H :   -0.160173
  10 H :   -0.159983
  11 H :   -0.177120
  12 H :   -0.182474
  13 H :   -0.167045
  14 F :    0.543643
  15 H :   -0.166092
  16 H :   -0.176013

  Mayer bond orders larger than 0.100000
B(  0-C ,  1-C ) :   1.0709 B(  0-C ,  2-C ) :  -0.2156 B(  0-C ,  4-C ) :  -0.2585
B(  0-C ,  5-C ) :   0.6634 B(  0-C , 16-H ) :   0.8341 B(  1-C ,  2-C ) :   1.4849
B(  1-C ,  3-C ) :   0.2923 B(  1-C , 14-F ) :   0.2120 B(  1-C , 15-H ) :   0.3759
B(  2-C ,  3-C ) :   1.4759 B(  2-C ,  4-C ) :  -0.2954 B(  2-C , 14-F ) :   0.2863
B(  3-C ,  4-C ) :   1.4253 B(  3-C , 13-H ) :   0.3279 B(  3-C , 14-F ) :   0.2125
B(  4-C ,  5-C ) :   0.5578 B(  4-C ,  6-C ) :   0.1565 B(  4-C , 12-H ) :   0.7197
B(  5-C ,  6-C ) :   0.4423 B(  5-C ,  7-O ) :   0.1173 B(  6-C ,  7-O ) :   0.9089
B(  6-C ,  8-C ) :   0.9566 B(  7-O , 12-H ) :   0.1368 B(  8-C ,  9-H ) :   0.9062
B(  8-C , 10-H ) :   0.9059 B(  8-C , 11-H ) :   0.9559 B( 12-H , 16-H ) :   0.1177
B( 13-H , 14-F ) :   0.1332 B( 14-F , 15-H ) :   0.1216

Dispersion correction           -0.015398733
FINAL SINGLE POINT ENERGY      -483.793352870777

DIPOLE MOMENT
-------------

Method             : SCF
Type of density    : Electron Density
Multiplicity       :   1
Irrep              :   0
Energy             :  -483.7779541379224497 Eh
Relativity type    :
Basis              : AO
                                X                 Y                 Z
Electronic contribution:      9.753056179      -2.889850907      -0.001751724
Nuclear contribution   :     -9.439682927       4.248110090       0.003941775
                        -----------------------------------------
Total Dipole Moment    :      0.313373252       1.358259182       0.002190051
                        -----------------------------------------
Magnitude (a.u.)       :      1.393942466
Magnitude (Debye)      :      3.543120171

Rotational constants in cm-1:             0.123439             0.026093             0.021626
Rotational constants in MHz :          3700.610069           782.241506           648.325233

                             ****ORCA TERMINATED NORMALLY****
TOTAL RUN TIME: 0 days 0 hours 27 minutes 29 seconds 323 msec
