                         Program Version 6.0.0  -   RELEASE  -
|  1> !PBE0 aug-cc-pVTZ d3 TightSCF SlowConv RIJCOSX defgrid2
|  2>
|  3> %pal
|  4> nprocs 4
|  5> end
|  6>
|  7> %scf
|  8> MaxIter 1500
|  9> end
| 10>
| 11> %maxcore 3000
| 12>
| 13> !CPCM
| 14> %cpcm smd true
| 15> SMDsolvent "MeCN"
| 16> surfacetype gepol_ses
| 17> rsolv 2.19
| 18> end
| 19>
| 20> * xyz 0 1
| 21> C           0.69340039581910     -1.21642473703122     -0.00210106158208
| 22> C          -0.69454855654644     -1.22021347444475     -0.00107333204799
| 23> C          -1.36154262322334      0.00187791219067      0.00026242389151
| 24> C          -0.68604253118331      1.21670210566519      0.00055618520570
| 25> C           0.70509440805818      1.20392227540601     -0.00053641990430
| 26> C           1.40455093160228     -0.00927557523456     -0.00186311158295
| 27> C           2.90624055769532     -0.08463588452950     -0.00286199019476
| 28> O           3.45693707307488     -1.16143789750676     -0.00328851772908
| 29> C           3.69101592073766      1.20331719293128     -0.00349620755262
| 30> H           3.45502261169039      1.81064521986950      0.88792921534318
| 31> H           4.76399312425029      0.96314274578425     -0.00608195367514
| 32> H           3.45097324706094      1.81300927441323     -0.89217068832087
| 33> H           1.24208602358160      2.15534045576678     -0.00026184416090
| 34> H          -1.25661571978578      2.14643950150070      0.00165091333299
| 35> N          -2.83358313105393      0.00969549364775      0.00154754521515
| 36> O          -3.38285340798047      1.08799719381857      0.00256173004398
| 37> O          -3.39352955523644     -1.06261620732784      0.00148372469125
| 38> H          -1.27233938255821     -2.14567385267397     -0.00122499566180
| 39> H           1.26268251399728     -2.14919824224534     -0.00306631531128
| 40> *
| 41>
| 42>                          ****END OF INPUT****

CARTESIAN COORDINATES (ANGSTROEM)
---------------------------------
  C      0.693400   -1.216425   -0.002101
  C     -0.694549   -1.220213   -0.001073
  C     -1.361543    0.001878    0.000262
  C     -0.686043    1.216702    0.000556
  C      0.705094    1.203922   -0.000536
  C      1.404551   -0.009276   -0.001863
  C      2.906241   -0.084636   -0.002862
  O      3.456937   -1.161438   -0.003289
  C      3.691016    1.203317   -0.003496
  H      3.455023    1.810645    0.887929
  H      4.763993    0.963143   -0.006082
  H      3.450973    1.813009   -0.892171
  H      1.242086    2.155340   -0.000262
  H     -1.256616    2.146440    0.001651
  N     -2.833583    0.009695    0.001548
  O     -3.382853    1.087997    0.002562
  O     -3.393530   -1.062616    0.001484
  H     -1.272339   -2.145674   -0.001225
  H      1.262683   -2.149198   -0.003066

 Total Charge           Charge          ....    0
 Multiplicity           Mult            ....    1
 Number of Electrons    NEL             ....   86
 Basis Dimension        Dim             ....  713

ORBITAL ENERGIES
----------------

  NO   OCC          E(Eh)            E(eV)
   0   2.0000     -19.255563      -523.9705
   1   2.0000     -19.255403      -523.9662
   2   2.0000     -19.208333      -522.6853
   3   2.0000     -14.638557      -398.3354
   4   2.0000     -10.326274      -280.9922
   5   2.0000     -10.298963      -280.2490
   6   2.0000     -10.261073      -279.2180
   7   2.0000     -10.258936      -279.1599
   8   2.0000     -10.258349      -279.1439
   9   2.0000     -10.256305      -279.0882
  10   2.0000     -10.252520      -278.9853
  11   2.0000     -10.223147      -278.1860
  12   2.0000      -1.288939       -35.0738
  13   2.0000      -1.110351       -30.2142
  14   2.0000      -1.087292       -29.5867
  15   2.0000      -0.921710       -25.0810
  16   2.0000      -0.844055       -22.9679
  17   2.0000      -0.797031       -21.6883
  18   2.0000      -0.771470       -20.9928
  19   2.0000      -0.728734       -19.8299
  20   2.0000      -0.651329       -17.7236
  21   2.0000      -0.634322       -17.2608
  22   2.0000      -0.591704       -16.1011
  23   2.0000      -0.579681       -15.7739
  24   2.0000      -0.574604       -15.6358
  25   2.0000      -0.552162       -15.0251
  26   2.0000      -0.510782       -13.8991
  27   2.0000      -0.498783       -13.5726
  28   2.0000      -0.475021       -12.9260
  29   2.0000      -0.462402       -12.5826
  30   2.0000      -0.455935       -12.4066
  31   2.0000      -0.446136       -12.1400
  32   2.0000      -0.431800       -11.7499
  33   2.0000      -0.408308       -11.1106
  34   2.0000      -0.393048       -10.6954
  35   2.0000      -0.379784       -10.3345
  36   2.0000      -0.373592       -10.1660
  37   2.0000      -0.347302        -9.4506
  38   2.0000      -0.340792        -9.2734
  39   2.0000      -0.327927        -8.9233
  40   2.0000      -0.296879        -8.0785
  41   2.0000      -0.290500        -7.9049
  42   2.0000      -0.279231        -7.5983
  43   0.0000      -0.104560        -2.8452
  44   0.0000      -0.043969        -1.1965
  45   0.0000      -0.029223        -0.7952
  46   0.0000       0.000215         0.0059
  47   0.0000       0.013328         0.3627

MULLIKEN ATOMIC CHARGES
-----------------------
   0 C :   -0.917207
   1 C :   -0.480446
   2 C :    0.364337
   3 C :   -0.712262
   4 C :   -0.508154
   5 C :    0.955815
   6 C :    0.694664
   7 O :   -0.895856
   8 C :   -0.636756
   9 H :    0.301733
  10 H :    0.193475
  11 H :    0.301575
  12 H :    0.321636
  13 H :    0.604290
  14 N :    0.812199
  15 O :   -0.682208
  16 O :   -0.681449
  17 H :    0.664302
  18 H :    0.300313
Sum of atomic charges:   -0.0000000

LOEWDIN ATOMIC CHARGES
----------------------
   0 C :    0.215614
   1 C :    0.220058
   2 C :   -0.229177
   3 C :    0.223200
   4 C :    0.230992
   5 C :   -0.112335
   6 C :   -0.538371
   7 O :    0.500818
   8 C :    0.571951
   9 H :   -0.152321
  10 H :   -0.171564
  11 H :   -0.152433
  12 H :   -0.163271
  13 H :   -0.180104
  14 N :   -0.749612
  15 O :    0.422004
  16 O :    0.422228
  17 H :   -0.180997
  18 H :   -0.176680

  Mayer bond orders larger than 0.100000
B(  0-C ,  1-C ) :   1.4270 B(  0-C ,  2-C ) :  -0.3390 B(  0-C ,  4-C ) :  -0.2797
B(  0-C ,  5-C ) :   0.6364 B(  0-C ,  6-C ) :   0.1861 B(  0-C , 18-H ) :   0.8490
B(  1-C ,  2-C ) :   1.1237 B(  1-C ,  5-C ) :   0.1214 B(  1-C , 14-N ) :  -0.1236
B(  1-C , 17-H ) :   0.2493 B(  2-C ,  3-C ) :   0.9968 B(  2-C ,  4-C ) :  -0.2597
B(  2-C , 14-N ) :   1.1766 B(  2-C , 15-O ) :   0.4039 B(  2-C , 16-O ) :   0.4020
B(  3-C ,  4-C ) :   1.1614 B(  3-C ,  5-C ) :   0.1725 B(  3-C , 13-H ) :   0.3263
B(  3-C , 14-N ) :  -0.1978 B(  4-C ,  5-C ) :   0.7396 B(  4-C , 12-H ) :   0.9030
B(  5-C ,  6-C ) :   0.4222 B(  5-C ,  7-O ) :   0.1584 B(  6-C ,  7-O ) :   0.9243
B(  6-C ,  8-C ) :   0.9751 B(  7-O , 18-H ) :   0.1621 B(  8-C ,  9-H ) :   0.9008
B(  8-C , 10-H ) :   0.9534 B(  8-C , 11-H ) :   0.9014 B( 14-N , 15-O ) :   0.8860
B( 14-N , 16-O ) :   0.8932 B( 15-O , 16-O ) :   0.1726

Dispersion correction           -0.018321295
FINAL SINGLE POINT ENERGY      -588.985361163099

DIPOLE MOMENT
-------------

Method             : SCF
Type of density    : Electron Density
Multiplicity       :   1
Irrep              :   0
Energy             :  -588.9670398680704011 Eh
Relativity type    :
Basis              : AO
                                X                 Y                 Z
Electronic contribution:     -9.517687231      -2.970924324       0.006426031
Nuclear contribution   :     10.904698351       4.303144091      -0.007859468
                        -----------------------------------------
Total Dipole Moment    :      1.387011120       1.332219768      -0.001433437
                        -----------------------------------------
Magnitude (a.u.)       :      1.923177426
Magnitude (Debye)      :      4.888328535

Rotational constants in cm-1:             0.096505             0.015902             0.013688
Rotational constants in MHz :          2893.160990           476.718240           410.340998

                             ****ORCA TERMINATED NORMALLY****
TOTAL RUN TIME: 0 days 0 hours 7 minutes 1 seconds 288 msec
