                         Program Version 6.0.0  -   RELEASE  -
|  1> !TPSSh aug-cc-pVTZ d3 TightSCF SlowConv RIJCOSX defgrid2
|  2>
|  3> %pal
|  4> nprocs 4
|  5> end
|  6>
|  7> %scf
|  8> MaxIter 1500
|  9> end
| 10>
| 11> %maxcore 3000
| 12>
| 13> !CPCM
| 14> %cpcm smd true
| 15> SMDsolvent "MeCN"
| 16> surfacetype gepol_ses
| 17> rsolv 2.19
| 18> end
| 19>
| 20> * xyz 0 1
| 21> C          -0.70040560978015      1.38862025457992      0.01444069210645
| 22> C          -1.91245524702018      0.69567306005554      0.01462586157947
| 23> C          -1.91249387248428     -0.69558156366748     -0.01462751179559
| 24> C          -0.70048149668899     -1.38859471559027     -0.01444474347923
| 25> C           0.51701567119323     -0.70749863359451      0.00344351300980
| 26> N           1.75688785576029     -1.35032496518044     -0.01869709041630
| 27> H           2.43013802514878     -0.92879340551386      0.62128772624243
| 28> H           1.70402046370050     -2.35551735549936      0.11662272713410
| 29> C           0.51705531626238      0.70745871640913     -0.00345498008622
| 30> N           1.75696057869555      1.35021757408851      0.01868096018628
| 31> H           2.43019999443086      0.92862198390732     -0.62127304374208
| 32> H           1.70415275870095      2.35540776572739     -0.11667373624575
| 33> H          -0.69435322474112     -2.48383255240663     -0.01483473135793
| 34> H          -2.85473613557899     -1.25061144525607     -0.02611079663032
| 35> H          -2.85466720705613      1.25075497082180      0.02610952373100
| 36> H          -0.69421807054270      2.48385751111900      0.01483302976389
| 37> *
| 38>
| 39>                          ****END OF INPUT****

CARTESIAN COORDINATES (ANGSTROEM)
---------------------------------
  C     -0.700406    1.388620    0.014441
  C     -1.912455    0.695673    0.014626
  C     -1.912494   -0.695582   -0.014628
  C     -0.700481   -1.388595   -0.014445
  C      0.517016   -0.707499    0.003444
  N      1.756888   -1.350325   -0.018697
  H      2.430138   -0.928793    0.621288
  H      1.704020   -2.355517    0.116623
  C      0.517055    0.707459   -0.003455
  N      1.756961    1.350218    0.018681
  H      2.430200    0.928622   -0.621273
  H      1.704153    2.355408   -0.116674
  H     -0.694353   -2.483833   -0.014835
  H     -2.854736   -1.250611   -0.026111
  H     -2.854667    1.250755    0.026110
  H     -0.694218    2.483858    0.014833

 Total Charge           Charge          ....    0
 Multiplicity           Mult            ....    1
 Number of Electrons    NEL             ....   58
 Basis Dimension        Dim             ....  552

ORBITAL ENERGIES
----------------

  NO   OCC          E(Eh)            E(eV)
   0   2.0000     -14.249201      -387.7405
   1   2.0000     -14.249189      -387.7401
   2   2.0000     -10.144539      -276.0469
   3   2.0000     -10.144120      -276.0355
   4   2.0000     -10.106859      -275.0216
   5   2.0000     -10.106846      -275.0213
   6   2.0000     -10.104886      -274.9679
   7   2.0000     -10.104385      -274.9543
   8   2.0000      -0.911477       -24.8025
   9   2.0000      -0.864613       -23.5273
  10   2.0000      -0.805703       -21.9243
  11   2.0000      -0.709535       -19.3074
  12   2.0000      -0.692799       -18.8520
  13   2.0000      -0.592910       -16.1339
  14   2.0000      -0.569434       -15.4951
  15   2.0000      -0.500977       -13.6323
  16   2.0000      -0.494731       -13.4623
  17   2.0000      -0.466680       -12.6990
  18   2.0000      -0.451913       -12.2972
  19   2.0000      -0.417445       -11.3592
  20   2.0000      -0.400157       -10.8888
  21   2.0000      -0.396073       -10.7777
  22   2.0000      -0.377586       -10.2746
  23   2.0000      -0.337677        -9.1887
  24   2.0000      -0.322671        -8.7803
  25   2.0000      -0.299632        -8.1534
  26   2.0000      -0.293111        -7.9759
  27   2.0000      -0.218897        -5.9565
  28   2.0000      -0.184396        -5.0177
  29   0.0000      -0.014265        -0.3882
  30   0.0000      -0.006049        -0.1646
  31   0.0000      -0.000441        -0.0120
  32   0.0000       0.006986         0.1901
  33   0.0000       0.010902         0.2966

MULLIKEN ATOMIC CHARGES
-----------------------
   0 C :   -0.742297
   1 C :   -0.451317
   2 C :   -0.452893
   3 C :   -0.741955
   4 C :    1.099574
   5 N :   -0.606356
   6 H :    0.037816
   7 H :   -0.044199
   8 C :    1.099958
   9 N :   -0.606598
  10 H :    0.037581
  11 H :   -0.044267
  12 H :    0.280969
  13 H :    0.425813
  14 H :    0.426579
  15 H :    0.281590
Sum of atomic charges:    0.0000000

LOEWDIN ATOMIC CHARGES
----------------------
   0 C :    0.191918
   1 C :    0.150844
   2 C :    0.150847
   3 C :    0.191925
   4 C :   -0.248008
   5 N :    0.849095
   6 H :   -0.301110
   7 H :   -0.286714
   8 C :   -0.248020
   9 N :    0.849070
  10 H :   -0.301149
  11 H :   -0.286707
  12 H :   -0.171745
  13 H :   -0.184248
  14 H :   -0.184249
  15 H :   -0.171749

  Mayer bond orders larger than 0.100000
B(  0-C ,  1-C ) :   1.5704 B(  0-C ,  8-C ) :   0.9456 B(  0-C , 15-H ) :   0.5849
B(  1-C ,  2-C ) :   1.4829 B(  1-C ,  8-C ) :  -0.2059 B(  1-C , 14-H ) :   0.5321
B(  2-C ,  3-C ) :   1.5711 B(  2-C ,  4-C ) :  -0.2052 B(  2-C , 13-H ) :   0.5336
B(  3-C ,  4-C ) :   0.9446 B(  3-C , 12-H ) :   0.5855 B(  4-C ,  8-C ) :   0.7947
B(  4-C ,  9-N ) :   0.1765 B(  4-C , 12-H ) :   0.1587 B(  5-N ,  6-H ) :   1.0915
B(  5-N ,  7-H ) :   1.1029 B(  5-N ,  8-C ) :   0.1762 B(  8-C , 15-H ) :   0.1583
B(  9-N , 10-H ) :   1.0913 B(  9-N , 11-H ) :   1.1036

Dispersion correction           -0.018522577
FINAL SINGLE POINT ENERGY      -343.141582755801

DIPOLE MOMENT
-------------

Method             : SCF
Type of density    : Electron Density
Multiplicity       :   1
Irrep              :   0
Energy             :  -343.1230601787759724 Eh
Relativity type    :
Basis              : AO
                                X                 Y                 Z
Electronic contribution:     -0.239897014      -0.000076166      -0.000065523
Nuclear contribution   :      1.113968872      -0.000058108      -0.000004171
                        -----------------------------------------
Total Dipole Moment    :      0.874071858      -0.000134273      -0.000069694
                        -----------------------------------------
Magnitude (a.u.)       :      0.874071871
Magnitude (Debye)      :      2.221714135

Rotational constants in cm-1:             0.112095             0.073765             0.044684
Rotational constants in MHz :          3360.536612          2211.428639          1339.595991

                             ****ORCA TERMINATED NORMALLY****
TOTAL RUN TIME: 0 days 0 hours 3 minutes 33 seconds 391 msec
