                         Program Version 6.0.0  -   RELEASE  -
|  1> !PBE0 freq aug-cc-pVTZ d3 TightSCF SlowConv RIJCOSX defgrid2
|  2>
|  3> %pal
|  4> nprocs 12
|  5> end
|  6>
|  7> %scf
|  8> MaxIter 1500
|  9> end
| 10>
| 11> %maxcore 5000
| 12>
| 13> !CPCM
| 14> %cpcm smd true
| 15> SMDsolvent "MeCN"
| 16> surfacetype gepol_ses
| 17> rsolv 2.19
| 18> end
| 19>
| 20> * xyz 1 2
| 21>   C           0.87545771336742     -1.20751654705105     -0.00075517781144
| 22>   C           1.22492936456963      0.17470827809809     -0.00091084355044
| 23>   C           0.19137933876971      1.14006873930089     -0.00122616012703
| 24>   C          -1.12988008232129      0.78466290670066     -0.00076961356991
| 25>   C          -1.46130219684826     -0.60670240541344     -0.00047021608996
| 26>   C          -0.43587641409150     -1.57320151151145     -0.00067385729798
| 27>   H          -0.70768729399396     -2.62087177658617     -0.00015384763783
| 28>   C          -2.87366058445541     -1.03101028182445      0.00047843914489
| 29>   H          -2.97193938669140     -2.11400400773871     -0.00288027596266
| 30>   H          -3.39585538509587     -0.61999275926443     -0.86998311667809
| 31>   H          -3.39176544896455     -0.62645725863643      0.87654744084644
| 32>   C          -2.20494066194462      1.81235142770691     -0.00035673039250
| 33>   H          -2.84649306612061      1.70692428823565      0.87847179552503
| 34>   H          -2.84849362994726      1.70532827642959     -0.87749887143014
| 35>   H          -1.78299615332464      2.81580379906358     -0.00181447475472
| 36>   H           0.46839355966417      2.18746298048303     -0.00189341322515
| 37>   C           2.56860996347020      0.62306560634609      0.00008014291777
| 38>   C           3.66322457000193     -0.18616793345559      0.00124481850936
| 39>   H           3.59413857159906     -1.26625468212892      0.00071632880028
| 40>   H           4.65532905142771      0.24623396240396      0.00279849632252
| 41>   H           2.72021300873509      1.69705306381738     -0.00023405441416
| 42>   H           1.64645196219448     -1.96491296497518     -0.00118330912431
| 43> *
| 44>
| 45>                          ****END OF INPUT****

CARTESIAN COORDINATES (ANGSTROEM)
---------------------------------
  C      0.875458   -1.207517   -0.000755
  C      1.224929    0.174708   -0.000911
  C      0.191379    1.140069   -0.001226
  C     -1.129880    0.784663   -0.000770
  C     -1.461302   -0.606702   -0.000470
  C     -0.435876   -1.573202   -0.000674
  H     -0.707687   -2.620872   -0.000154
  C     -2.873661   -1.031010    0.000478
  H     -2.971939   -2.114004   -0.002880
  H     -3.395855   -0.619993   -0.869983
  H     -3.391765   -0.626457    0.876547
  C     -2.204941    1.812351   -0.000357
  H     -2.846493    1.706924    0.878472
  H     -2.848494    1.705328   -0.877499
  H     -1.782996    2.815804   -0.001814
  H      0.468394    2.187463   -0.001893
  C      2.568610    0.623066    0.000080
  C      3.663225   -0.186168    0.001245
  H      3.594139   -1.266255    0.000716
  H      4.655329    0.246234    0.002798
  H      2.720213    1.697053   -0.000234
  H      1.646452   -1.964913   -0.001183

 Total Charge           Charge          ....    1
 Multiplicity           Mult            ....    2
 Number of Electrons    NEL             ....   71
 Basis Dimension        Dim             ....  736

ORBITAL ENERGIES
----------------
                 SPIN UP ORBITALS
  NO   OCC          E(Eh)            E(eV)
   0   1.0000     -10.300295      -280.2853
   1   1.0000     -10.295609      -280.1578
   2   1.0000     -10.280909      -279.7578
   3   1.0000     -10.276295      -279.6322
   4   1.0000     -10.275982      -279.6237
   5   1.0000     -10.273509      -279.5564
   6   1.0000     -10.261767      -279.2369
   7   1.0000     -10.258076      -279.1364
   8   1.0000     -10.232470      -278.4397
   9   1.0000     -10.227029      -278.2916
  10   1.0000      -0.939527       -25.5658
  11   1.0000      -0.876982       -23.8639
  12   1.0000      -0.828959       -22.5571
  13   1.0000      -0.813508       -22.1367
  14   1.0000      -0.752949       -20.4888
  15   1.0000      -0.722406       -19.6577
  16   1.0000      -0.662655       -18.0317
  17   1.0000      -0.651789       -17.7361
  18   1.0000      -0.594410       -16.1747
  19   1.0000      -0.552939       -15.0462
  20   1.0000      -0.534765       -14.5517
  21   1.0000      -0.498271       -13.5586
  22   1.0000      -0.477426       -12.9914
  23   1.0000      -0.474458       -12.9107
  24   1.0000      -0.462878       -12.5955
  25   1.0000      -0.455682       -12.3997
  26   1.0000      -0.427137       -11.6230
  27   1.0000      -0.421235       -11.4624
  28   1.0000      -0.420121       -11.4321
  29   1.0000      -0.415095       -11.2953
  30   1.0000      -0.405069       -11.0225
  31   1.0000      -0.382606       -10.4112
  32   1.0000      -0.372922       -10.1477
  33   1.0000      -0.352377        -9.5887
  34   1.0000      -0.299226        -8.1423
  35   1.0000      -0.280269        -7.6265
  36   0.0000      -0.092722        -2.5231
  37   0.0000      -0.034794        -0.9468
  38   0.0000      -0.001297        -0.0353
  39   0.0000       0.008141         0.2215
  40   0.0000       0.008187         0.2228

                 SPIN DOWN ORBITALS
  NO   OCC          E(Eh)            E(eV)
   0   1.0000     -10.295373      -280.1513
   1   1.0000     -10.292225      -280.0657
   2   1.0000     -10.277133      -279.6550
   3   1.0000     -10.275938      -279.6225
   4   1.0000     -10.274062      -279.5714
   5   1.0000     -10.271508      -279.5020
   6   1.0000     -10.261771      -279.2370
   7   1.0000     -10.258911      -279.1592
   8   1.0000     -10.232601      -278.4432
   9   1.0000     -10.227040      -278.2919
  10   1.0000      -0.932442       -25.3730
  11   1.0000      -0.868467       -23.6322
  12   1.0000      -0.827543       -22.5186
  13   1.0000      -0.802893       -21.8478
  14   1.0000      -0.748526       -20.3684
  15   1.0000      -0.716428       -19.4950
  16   1.0000      -0.658028       -17.9059
  17   1.0000      -0.647466       -17.6184
  18   1.0000      -0.589905       -16.0521
  19   1.0000      -0.550967       -14.9926
  20   1.0000      -0.531881       -14.4732
  21   1.0000      -0.495190       -13.4748
  22   1.0000      -0.471788       -12.8380
  23   1.0000      -0.466044       -12.6817
  24   1.0000      -0.460324       -12.5260
  25   1.0000      -0.454678       -12.3724
  26   1.0000      -0.422172       -11.4879
  27   1.0000      -0.417927       -11.3724
  28   1.0000      -0.414688       -11.2842
  29   1.0000      -0.404478       -11.0064
  30   1.0000      -0.403310       -10.9746
  31   1.0000      -0.381670       -10.3858
  32   1.0000      -0.370682       -10.0868
  33   1.0000      -0.325116        -8.8468
  34   1.0000      -0.294346        -8.0096
  35   0.0000      -0.189979        -5.1696
  36   0.0000      -0.062118        -1.6903
  37   0.0000      -0.024393        -0.6638
  38   0.0000      -0.000607        -0.0165
  39   0.0000       0.009319         0.2536

MULLIKEN ATOMIC CHARGES AND SPIN POPULATIONS
--------------------------------------------
   0 C :   -0.385044    0.113317
   1 C :    1.651508    0.215369
   2 C :   -0.911543   -0.004873
   3 C :    0.336560    0.013381
   4 C :    0.564444    0.346459
   5 C :   -1.195240   -0.071136
   6 H :    0.337416    0.006664
   7 C :   -0.704165   -0.025863
   8 H :    0.150026   -0.008087
   9 H :    0.284947    0.023647
  10 H :    0.285592    0.023913
  11 C :   -0.724360   -0.003983
  12 H :    0.284929    0.002687
  13 H :    0.284844    0.002669
  14 H :    0.141202   -0.000030
  15 H :   -0.025932    0.005540
  16 C :   -0.018146    0.006156
  17 C :   -0.906154    0.367843
  18 H :    0.382546    0.001142
  19 H :    0.291315   -0.013791
  20 H :    0.351598    0.014951
  21 H :    0.523657   -0.015974
Sum of atomic charges         :    1.0000000

LOEWDIN ATOMIC CHARGES AND SPIN POPULATIONS
-------------------------------------------
   0 C :    0.282291    0.086310
   1 C :   -0.080766    0.123070
   2 C :    0.283409    0.036344
   3 C :   -0.050840    0.055653
   4 C :   -0.033921    0.158634
   5 C :    0.288956    0.041047
   6 H :   -0.148078   -0.003385
   7 C :    0.627654    0.052577
   8 H :   -0.151772    0.001471
   9 H :   -0.136907    0.012216
  10 H :   -0.136349    0.012334
  11 C :    0.612003    0.005439
  12 H :   -0.145523    0.001740
  13 H :   -0.145795    0.001737
  14 H :   -0.156042   -0.000011
  15 H :   -0.145321    0.001384
  16 C :    0.258035    0.078922
  17 C :    0.651197    0.225519
  18 H :   -0.186213    0.046356
  19 H :   -0.165992    0.051827
  20 H :   -0.157245   -0.001649
  21 H :   -0.162783    0.012466

  Mayer bond orders larger than 0.100000
B(  0-C ,  1-C ) :   0.4642 B(  0-C ,  2-C ) :  -0.7680 B(  0-C ,  3-C ) :  -0.1998
B(  0-C ,  5-C ) :   1.1755 B(  0-C , 11-C ) :   0.1008 B(  0-C , 15-H ) :   0.1085
B(  0-C , 16-C ) :   0.2185 B(  0-C , 21-H ) :   0.9287 B(  1-C ,  2-C ) :  -0.1449
B(  1-C ,  3-C ) :   0.2773 B(  1-C ,  4-C ) :  -0.4860 B(  1-C ,  7-C ) :   0.1166
B(  1-C , 15-H ) :  -0.1587 B(  1-C , 16-C ) :   0.3448 B(  1-C , 17-C ) :  -0.2107
B(  1-C , 21-H ) :   0.1609 B(  2-C ,  3-C ) :   0.9284 B(  2-C ,  4-C ) :  -0.2789
B(  2-C ,  5-C ) :   0.1989 B(  2-C ,  6-H ) :   0.1124 B(  2-C , 11-C ) :  -0.3380
B(  2-C , 15-H ) :   1.8560 B(  2-C , 20-H ) :  -0.1406 B(  3-C ,  4-C ) :   1.3694
B(  3-C ,  5-C ) :   0.2336 B(  3-C ,  7-C ) :   0.1614 B(  3-C , 11-C ) :   0.2735
B(  3-C , 16-C ) :   0.1101 B(  3-C , 20-H ) :   0.1660 B(  3-C , 21-H ) :  -0.2075
B(  4-C ,  5-C ) :   0.8035 B(  4-C ,  6-H ) :   0.2052 B(  4-C ,  7-C ) :   0.5222
B(  4-C , 11-C ) :   0.3713 B(  4-C , 16-C ) :   0.2031 B(  5-C ,  6-H ) :   0.7047
B(  5-C ,  7-C ) :  -0.2444 B(  5-C , 21-H ) :  -0.1756 B(  7-C ,  8-H ) :   1.0253
B(  7-C ,  9-H ) :   0.9213 B(  7-C , 10-H ) :   0.9198 B( 11-C , 12-H ) :   0.9307
B( 11-C , 13-H ) :   0.9307 B( 11-C , 14-H ) :   1.0234 B( 15-H , 16-C ) :  -0.2045
B( 15-H , 21-H ) :   0.1060 B( 16-C , 17-C ) :   1.0271 B( 16-C , 20-H ) :   0.7916
B( 17-C , 18-H ) :   0.9182 B( 17-C , 19-H ) :   0.8932 B( 17-C , 20-H ) :  -0.1792

Dispersion correction           -0.020412825
FINAL SINGLE POINT ENERGY      -387.755951352419

DIPOLE MOMENT
-------------

Method             : SCF
Type of density    : Electron Density
Multiplicity       :   2
Irrep              :   0
Energy             :  -387.7355385276711104 Eh
Relativity type    :
Basis              : AO
                                X                 Y                 Z
Electronic contribution:      5.422145754      -1.215966776      -0.004564586
Nuclear contribution   :     -4.570442277       1.048379883       0.005901372
                        -----------------------------------------
Total Dipole Moment    :      0.851703477      -0.167586893       0.001336786
                        -----------------------------------------
Magnitude (a.u.)       :      0.868035694
Magnitude (Debye)      :      2.206371392

VIBRATIONAL FREQUENCIES
-----------------------

Scaling factor for frequencies =  1.000000000  (already applied!)

     0:       0.00 cm**-1
     1:       0.00 cm**-1
     2:       0.00 cm**-1
     3:       0.00 cm**-1
     4:       0.00 cm**-1
     5:       0.00 cm**-1
     6:      -6.40 cm**-1 ***imaginary mode***
     7:      50.47 cm**-1
     8:     101.23 cm**-1
     9:     144.95 cm**-1
    10:     187.75 cm**-1
    11:     202.30 cm**-1
    12:     267.51 cm**-1
    13:     303.15 cm**-1
    14:     371.53 cm**-1
    15:     411.57 cm**-1
    16:     415.55 cm**-1
    17:     456.46 cm**-1
    18:     512.66 cm**-1
    19:     542.39 cm**-1
    20:     602.45 cm**-1
    21:     711.14 cm**-1
    22:     712.52 cm**-1
    23:     750.66 cm**-1
    24:     819.39 cm**-1
    25:     899.20 cm**-1
    26:     929.68 cm**-1
    27:     960.72 cm**-1
    28:     992.06 cm**-1
    29:     993.18 cm**-1
    30:    1010.24 cm**-1
    31:    1010.49 cm**-1
    32:    1017.45 cm**-1
    33:    1049.67 cm**-1
    34:    1051.29 cm**-1
    35:    1136.15 cm**-1
    36:    1194.70 cm**-1
    37:    1237.77 cm**-1
    38:    1259.23 cm**-1
    39:    1293.38 cm**-1
    40:    1318.86 cm**-1
    41:    1347.65 cm**-1
    42:    1378.70 cm**-1
    43:    1385.49 cm**-1
    44:    1424.68 cm**-1
    45:    1425.70 cm**-1
    46:    1441.96 cm**-1
    47:    1445.59 cm**-1
    48:    1459.58 cm**-1
    49:    1470.29 cm**-1
    50:    1497.12 cm**-1
    51:    1525.54 cm**-1
    52:    1578.31 cm**-1
    53:    1677.09 cm**-1
    54:    3032.74 cm**-1
    55:    3046.52 cm**-1
    56:    3083.21 cm**-1
    57:    3105.37 cm**-1
    58:    3151.20 cm**-1
    59:    3162.15 cm**-1
    60:    3169.32 cm**-1
    61:    3189.11 cm**-1
    62:    3198.99 cm**-1
    63:    3208.76 cm**-1
    64:    3226.05 cm**-1
    65:    3271.56 cm**-1

IR SPECTRUM
-----------

 Mode   freq       eps      Int      T**2         TX        TY        TZ
       cm**-1   L/(mol*cm) km/mol    a.u.
----------------------------------------------------------------------------
  7:     50.47   0.000281    1.42  0.001736  (-0.001565 -0.000440 -0.041632)
  8:    101.23   0.000000    0.00  0.000000  ( 0.000137 -0.000136  0.000008)
  9:    144.95   0.000625    3.16  0.001346  ( 0.000325 -0.000577 -0.036679)
 10:    187.75   0.000190    0.96  0.000316  ( 0.002276  0.017627  0.000625)
 11:    202.30   0.000360    1.82  0.000555  ( 0.000177 -0.000885  0.023548)
 12:    267.51   0.000148    0.75  0.000173  (-0.000406  0.000184  0.013144)
 13:    303.15   0.000059    0.30  0.000061  (-0.006033  0.004966  0.000026)
 14:    371.53   0.000440    2.23  0.000370  ( 0.017063 -0.008876 -0.000059)
 15:    411.57   0.002891   14.61  0.002192  (-0.000134 -0.000552  0.046813)
 16:    415.55   0.000092    0.47  0.000069  ( 0.007219 -0.004070 -0.000766)
 17:    456.46   0.000702    3.55  0.000480  ( 0.000660  0.000017  0.021899)
 18:    512.66   0.000578    2.92  0.000352  ( 0.017302  0.007243  0.000029)
 19:    542.39   0.001314    6.64  0.000756  (-0.026611 -0.006910 -0.000031)
 20:    602.45   0.000256    1.30  0.000133  ( 0.000958  0.000123 -0.011486)
 21:    711.14   0.002744   13.87  0.001204  ( 0.003250  0.000444  0.034548)
 22:    712.52   0.009915   50.11  0.004343  ( 0.064908  0.011277 -0.001576)
 23:    750.66   0.001376    6.95  0.000572  (-0.023415 -0.004855 -0.000104)
 24:    819.39   0.003825   19.33  0.001457  (-0.000498 -0.000121 -0.038162)
 25:    899.20   0.000754    3.81  0.000262  (-0.000313 -0.000040 -0.016170)
 26:    929.68   0.002009   10.15  0.000674  (-0.023724 -0.010553  0.000403)
 27:    960.72   0.014215   71.84  0.004617  (-0.000374 -0.000087  0.067951)
 28:    992.06   0.007168   36.22  0.002255  (-0.030193 -0.003035  0.036523)
 29:    993.18   0.007712   38.98  0.002423  ( 0.043400  0.004534  0.022785)
 30:   1010.24   0.020991  106.08  0.006484  ( 0.080418  0.001627  0.003800)
 31:   1010.49   0.006671   33.71  0.002060  (-0.044846 -0.000434  0.006994)
 32:   1017.45   0.004981   25.17  0.001528  ( 0.001157 -0.000226  0.039067)
 33:   1049.67   0.000676    3.42  0.000201  (-0.012985  0.005681 -0.000227)
 34:   1051.29   0.000724    3.66  0.000215  (-0.000697 -0.000064  0.014640)
 35:   1136.15   0.004056   20.50  0.001114  (-0.021863  0.025218  0.000180)
 36:   1194.70   0.028582  144.44  0.007466  (-0.085953 -0.008826 -0.000029)
 37:   1237.77   0.014108   71.30  0.003557  ( 0.059216  0.007106 -0.000071)
 38:   1259.23   0.037990  191.98  0.009415  (-0.096992  0.002686 -0.000061)
 39:   1293.38   0.059900  302.71  0.014453  (-0.120215  0.000956 -0.000000)
 40:   1318.86   0.008356   42.23  0.001977  ( 0.042557  0.012891  0.000018)
 41:   1347.65   0.018699   94.50  0.004330  ( 0.064375 -0.013626 -0.000352)
 42:   1378.70   0.003446   17.42  0.000780  (-0.015045  0.023527 -0.000342)
 43:   1385.49   0.001088    5.50  0.000245  ( 0.013769 -0.007450  0.000190)
 44:   1424.68   0.002328   11.76  0.000510  (-0.005622 -0.003464  0.021593)
 45:   1425.70   0.007202   36.40  0.001576  ( 0.034778  0.018956  0.002754)
 46:   1441.96   0.005071   25.63  0.001097  (-0.016779 -0.028557 -0.000632)
 47:   1445.59   0.005873   29.68  0.001268  ( 0.000053 -0.000133 -0.035606)
 48:   1459.58   0.010003   50.55  0.002139  (-0.043585  0.015453 -0.000559)
 49:   1470.29   0.086212  435.68  0.018298  (-0.134825 -0.010978  0.000111)
 50:   1497.12   0.104361  527.40  0.021753  ( 0.147446  0.003612  0.000080)
 51:   1525.54   0.104069  525.92  0.021288  ( 0.144787 -0.018033  0.000102)
 52:   1578.31   0.056826  287.17  0.011236  ( 0.091885  0.052846  0.000048)
 53:   1677.09   0.010548   53.30  0.001963  ( 0.036762  0.024723 -0.000034)
 54:   3032.74   0.005036   25.45  0.000518  ( 0.022384  0.004129 -0.000222)
 55:   3046.52   0.000478    2.42  0.000049  ( 0.005156 -0.004734 -0.000110)
 56:   3083.21   0.000059    0.30  0.000006  (-0.000548 -0.000111 -0.002372)
 57:   3105.37   0.001145    5.78  0.000115  (-0.000023  0.000037 -0.010725)
 58:   3151.20   0.003016   15.24  0.000299  (-0.002445  0.017108  0.000046)
 59:   3162.15   0.007742   39.13  0.000764  (-0.022829 -0.015585  0.000018)
 60:   3169.32   0.002830   14.30  0.000279  ( 0.016693  0.000224  0.000017)
 61:   3189.11   0.001648    8.33  0.000161  (-0.012291 -0.003191 -0.000072)
 62:   3198.99   0.000482    2.44  0.000047  (-0.000620 -0.006828 -0.000109)
 63:   3208.76   0.001418    7.17  0.000138  (-0.010522 -0.005212 -0.000072)
 64:   3226.05   0.000049    0.25  0.000005  (-0.001207 -0.001800 -0.000020)
 65:   3271.56   0.000056    0.28  0.000005  (-0.001848 -0.001376 -0.000039)

--------------------------
THERMOCHEMISTRY AT 298.15K
--------------------------

Temperature         ...   298.15 K
Pressure            ...     1.00 atm
Total Mass          ...   132.21 AMU
Quasi RRHO          ...     True
Cut-Off Frequency   ...     1.00 cm^-1

Throughout the following assumptions are being made:
  (1) The electronic state is orbitally nondegenerate
      but the spin degeneracy is treated
  (2) There are no thermally accessible electronically excited states
  (3) Hindered rotations indicated by low frequency modes are not
      treated as such but are treated as vibrations and this may
      cause some error
  (4) All equations used are the standard statistical mechanics
      equations for an ideal gas
  (5) All vibrations are strictly harmonic

freq.      50.47  E(vib)   ...       0.52
freq.     101.23  E(vib)   ...       0.46
freq.     144.95  E(vib)   ...       0.41
freq.     187.75  E(vib)   ...       0.36
freq.     202.30  E(vib)   ...       0.35
freq.     267.51  E(vib)   ...       0.29
freq.     303.15  E(vib)   ...       0.26
freq.     371.53  E(vib)   ...       0.21
freq.     411.57  E(vib)   ...       0.19
freq.     415.55  E(vib)   ...       0.18
freq.     456.46  E(vib)   ...       0.16
freq.     512.66  E(vib)   ...       0.13
freq.     542.39  E(vib)   ...       0.12
freq.     602.45  E(vib)   ...       0.10
freq.     711.14  E(vib)   ...       0.07
freq.     712.52  E(vib)   ...       0.07
freq.     750.66  E(vib)   ...       0.06
freq.     819.39  E(vib)   ...       0.05
freq.     899.20  E(vib)   ...       0.03
freq.     929.68  E(vib)   ...       0.03
freq.     960.72  E(vib)   ...       0.03
freq.     992.06  E(vib)   ...       0.02
freq.     993.18  E(vib)   ...       0.02
freq.    1010.24  E(vib)   ...       0.02
freq.    1010.49  E(vib)   ...       0.02
freq.    1017.45  E(vib)   ...       0.02
freq.    1049.67  E(vib)   ...       0.02
freq.    1051.29  E(vib)   ...       0.02
freq.    1136.15  E(vib)   ...       0.01
freq.    1194.70  E(vib)   ...       0.01
freq.    1237.77  E(vib)   ...       0.01
freq.    1259.23  E(vib)   ...       0.01
freq.    1293.38  E(vib)   ...       0.01
freq.    1318.86  E(vib)   ...       0.01
freq.    1347.65  E(vib)   ...       0.01
freq.    1378.70  E(vib)   ...       0.01
freq.    1385.49  E(vib)   ...       0.00
freq.    1424.68  E(vib)   ...       0.00
freq.    1425.70  E(vib)   ...       0.00
freq.    1441.96  E(vib)   ...       0.00
freq.    1445.59  E(vib)   ...       0.00
freq.    1459.58  E(vib)   ...       0.00
freq.    1470.29  E(vib)   ...       0.00
freq.    1497.12  E(vib)   ...       0.00
freq.    1525.54  E(vib)   ...       0.00
freq.    1578.31  E(vib)   ...       0.00
freq.    1677.09  E(vib)   ...       0.00
freq.    3032.74  E(vib)   ...       0.00
freq.    3046.52  E(vib)   ...       0.00
freq.    3083.21  E(vib)   ...       0.00
freq.    3105.37  E(vib)   ...       0.00
freq.    3151.20  E(vib)   ...       0.00
freq.    3162.15  E(vib)   ...       0.00
freq.    3169.32  E(vib)   ...       0.00
freq.    3189.11  E(vib)   ...       0.00
freq.    3198.99  E(vib)   ...       0.00
freq.    3208.76  E(vib)   ...       0.00
freq.    3226.05  E(vib)   ...       0.00
freq.    3271.56  E(vib)   ...       0.00

------------
INNER ENERGY
------------

The inner energy is: U= E(el) + E(ZPE) + E(vib) + E(rot) + E(trans)
    E(el)   - is the total energy from the electronic structure calculation
              = E(kin-el) + E(nuc-el) + E(el-el) + E(nuc-nuc)
    E(ZPE)  - the the zero temperature vibrational energy from the frequency calculation
    E(vib)  - the the finite temperature correction to E(ZPE) due to population
              of excited vibrational states
    E(rot)  - is the rotational thermal energy
    E(trans)- is the translational thermal energy

Summary of contributions to the inner energy U:
Electronic energy                ...   -387.75595135 Eh
Zero point energy                ...      0.18640060 Eh     116.97 kcal/mol
Thermal vibrational correction   ...      0.00692760 Eh       4.35 kcal/mol
Thermal rotational correction    ...      0.00141627 Eh       0.89 kcal/mol
Thermal translational correction ...      0.00141627 Eh       0.89 kcal/mol
-----------------------------------------------------------------------
Total thermal energy                   -387.55979061 Eh

Summary of corrections to the electronic energy:
(perhaps to be used in another calculation)
Total thermal correction                  0.00976014 Eh       6.12 kcal/mol
Non-thermal (ZPE) correction              0.18640060 Eh     116.97 kcal/mol
-----------------------------------------------------------------------
Total correction                          0.19616075 Eh     123.09 kcal/mol

--------
ENTHALPY
--------

The enthalpy is H = U + kB*T
                kB is Boltzmann's constant
Total thermal energy              ...   -387.55979061 Eh
Thermal Enthalpy correction       ...      0.00094421 Eh       0.59 kcal/mol
-----------------------------------------------------------------------
Total Enthalpy                    ...   -387.55884640 Eh

Note: Only C1 symmetry has been detected, increase convergence thresholds
      if your molecule has a higher symmetry. Symmetry factor of 1.0 is
      used for the rotational entropy correction.

Note: Rotational entropy computed according to Herzberg
Infrared and Raman Spectra, Chapter V,1, Van Nostrand Reinhold, 1945
Point Group:  C1, Symmetry Number:   1
Rotational constants in cm-1:     0.096468     0.029599     0.022839

Vibrational entropy computed according to the QRRHO of S. Grimme
Chem.Eur.J. 2012 18 9955 using a reference frequency of 100.0 cm-1

-------
ENTROPY
-------

The entropy contributions are T*S = T*(S(el)+S(vib)+S(rot)+S(trans))
     S(el)   - electronic entropy
     S(vib)  - vibrational entropy
     S(rot)  - rotational entropy
     S(trans)- translational entropy
The entropies will be listed as multiplied by the temperature to get
units of energy

Electronic entropy                ...      0.00065446 Eh      0.41 kcal/mol
Vibrational entropy               ...      0.01167414 Eh      7.33 kcal/mol
Rotational entropy                ...      0.01406073 Eh      8.82 kcal/mol
Translational entropy             ...      0.01926665 Eh     12.09 kcal/mol
-----------------------------------------------------------------------
Final entropy term                ...      0.04565598 Eh     28.65 kcal/mol

In case the symmetry of your molecule has not been determined correctly
or in case you have a reason to use a different symmetry number we print
out the resulting rotational entropy values for sn=1,12:

 non-linear molecules -----------------------------------

                             ****ORCA TERMINATED NORMALLY****
TOTAL RUN TIME: 0 days 1 hours 10 minutes 7 seconds 940 msec
