                         Program Version 6.0.0  -   RELEASE  -
|  1> !r2SCAN aug-cc-pVTZ d3 TightSCF SlowConv RIJCOSX defgrid2
|  2>
|  3> %pal
|  4> nprocs 6
|  5> end
|  6>
|  7> %scf
|  8> MaxIter 1500
|  9> end
| 10>
| 11> %maxcore 3000
| 12>
| 13> !CPCM
| 14> %cpcm smd true
| 15> SMDsolvent "MeCN"
| 16> surfacetype gepol_ses
| 17> rsolv 2.19
| 18> end
| 19>
| 20> * xyz 0 1
| 21>   C          -3.63585826706225      2.04954257401693      0.47443381810844
| 22>   C          -4.87241983115698      1.42440470473132      0.35830383536464
| 23>   C          -2.46535713813143      1.38616628453744      0.08266169164053
| 24>   C          -2.55776657547918      0.09897886985960     -0.46306142975693
| 25>   C          -3.79978924952600     -0.51916986182258     -0.59803099874730
| 26>   C          -4.95599832971811      0.13746555345514     -0.17809343648610
| 27>   C          -1.17321606171113      2.13343259763450      0.18535792234855
| 28>   C           0.10741425373326      1.38186400208811      0.36860268391772
| 29>   C           1.28701662685068      1.98211173251186     -0.09199289471826
| 30>   C           2.51435831281490      1.35446088401070      0.08950879777202
| 31>   C           2.57960999330580      0.13076888041485      0.75971104026335
| 32>   C           1.41455681703054     -0.45984247248896      1.24776587112461
| 33>   C           0.18154991647772      0.15903136862244      1.04843910770257
| 34>   O          -1.16409607817297      3.34634804651925      0.11965758705371
| 35>   H          -3.86490029176021     -1.51883268544354     -1.03758855311185
| 36>   H          -5.92944194329363     -0.35260028721037     -0.27615452017651
| 37>   H          -3.54961418329670      3.06533225879298      0.86902811355696
| 38>   H          -5.77986414959084      1.94364611495317      0.68059448976304
| 39>   H          -1.65609565460764     -0.41312956350598     -0.80981363751728
| 40>   H          -0.72685535311036     -0.29990211983977      1.44815127666628
| 41>   H           3.54578493689968     -0.36081337126485      0.90876593254533
| 42>   H           1.46572642491924     -1.40813704309686      1.79081220626573
| 43>   H           1.21423966773037      2.95126688882692     -0.59239016424858
| 44>   H           3.42886668785525      1.82280543469765     -0.28640901233067
| 45> *
| 46>
| 47>                          ****END OF INPUT****

CARTESIAN COORDINATES (ANGSTROEM)
---------------------------------
  C     -3.635858    2.049543    0.474434
  C     -4.872420    1.424405    0.358304
  C     -2.465357    1.386166    0.082662
  C     -2.557767    0.098979   -0.463061
  C     -3.799789   -0.519170   -0.598031
  C     -4.955998    0.137466   -0.178093
  C     -1.173216    2.133433    0.185358
  C      0.107414    1.381864    0.368603
  C      1.287017    1.982112   -0.091993
  C      2.514358    1.354461    0.089509
  C      2.579610    0.130769    0.759711
  C      1.414557   -0.459842    1.247766
  C      0.181550    0.159031    1.048439
  O     -1.164096    3.346348    0.119658
  H     -3.864900   -1.518833   -1.037589
  H     -5.929442   -0.352600   -0.276155
  H     -3.549614    3.065332    0.869028
  H     -5.779864    1.943646    0.680594
  H     -1.656096   -0.413130   -0.809814
  H     -0.726855   -0.299902    1.448151
  H      3.545785   -0.360813    0.908766
  H      1.465726   -1.408137    1.790812
  H      1.214240    2.951267   -0.592390
  H      3.428867    1.822805   -0.286409

 Total Charge           Charge          ....    0
 Multiplicity           Mult            ....    1
 Number of Electrons    NEL             ....   96
 Basis Dimension        Dim             ....  874

ORBITAL ENERGIES
----------------

  NO   OCC          E(Eh)            E(eV)
   0   2.0000     -18.946505      -515.5606
   1   2.0000     -10.128115      -275.6000
   2   2.0000     -10.055176      -273.6152
   3   2.0000     -10.055158      -273.6148
   4   2.0000     -10.051452      -273.5139
   5   2.0000     -10.051406      -273.5127
   6   2.0000     -10.049362      -273.4570
   7   2.0000     -10.049335      -273.4563
   8   2.0000     -10.048532      -273.4344
   9   2.0000     -10.048523      -273.4342
  10   2.0000     -10.046574      -273.3812
  11   2.0000     -10.046547      -273.3805
  12   2.0000     -10.046377      -273.3758
  13   2.0000     -10.046344      -273.3749
  14   2.0000      -1.013210       -27.5709
  15   2.0000      -0.834181       -22.6992
  16   2.0000      -0.828543       -22.5458
  17   2.0000      -0.745405       -20.2835
  18   2.0000      -0.723518       -19.6879
  19   2.0000      -0.720665       -19.6103
  20   2.0000      -0.717001       -19.5106
  21   2.0000      -0.622920       -16.9505
  22   2.0000      -0.584551       -15.9064
  23   2.0000      -0.580119       -15.7859
  24   2.0000      -0.569582       -15.4991
  25   2.0000      -0.525959       -14.3121
  26   2.0000      -0.496485       -13.5100
  27   2.0000      -0.470528       -12.8037
  28   2.0000      -0.439481       -11.9589
  29   2.0000      -0.433112       -11.7856
  30   2.0000      -0.424751       -11.5581
  31   2.0000      -0.413647       -11.2559
  32   2.0000      -0.404379       -11.0037
  33   2.0000      -0.394676       -10.7397
  34   2.0000      -0.392628       -10.6839
  35   2.0000      -0.392309       -10.6753
  36   2.0000      -0.374287       -10.1849
  37   2.0000      -0.354561        -9.6481
  38   2.0000      -0.339361        -9.2345
  39   2.0000      -0.331896        -9.0313
  40   2.0000      -0.325460        -8.8562
  41   2.0000      -0.312496        -8.5034
  42   2.0000      -0.311107        -8.4656
  43   2.0000      -0.249379        -6.7860
  44   2.0000      -0.248664        -6.7665
  45   2.0000      -0.247216        -6.7271
  46   2.0000      -0.244908        -6.6643
  47   2.0000      -0.225243        -6.1292
  48   0.0000      -0.097925        -2.6647
  49   0.0000      -0.050133        -1.3642
  50   0.0000      -0.044842        -1.2202
  51   0.0000      -0.037848        -1.0299
  52   0.0000       0.004107         0.1118

MULLIKEN ATOMIC CHARGES
-----------------------
   0 C :   -1.267331
   1 C :   -0.473326
   2 C :    2.112171
   3 C :   -0.584527
   4 C :   -1.018675
   5 C :   -0.124990
   6 C :    0.760886
   7 C :    2.112784
   8 C :   -1.266213
   9 C :   -0.473661
  10 C :   -0.124665
  11 C :   -1.016970
  12 C :   -0.586267
  13 O :   -1.030474
  14 H :    0.436821
  15 H :    0.486218
  16 H :   -0.125759
  17 H :    0.516840
  18 H :    0.177335
  19 H :    0.175767
  20 H :    0.486868
  21 H :    0.437037
  22 H :   -0.125538
  23 H :    0.515667
Sum of atomic charges:    0.0000000

LOEWDIN ATOMIC CHARGES
----------------------
   0 C :    0.196519
   1 C :    0.204769
   2 C :   -0.141381
   3 C :    0.197282
   4 C :    0.209570
   5 C :    0.199289
   6 C :   -0.540616
   7 C :   -0.141382
   8 C :    0.196511
   9 C :    0.204776
  10 C :    0.199211
  11 C :    0.209557
  12 C :    0.197308
  13 O :    0.503220
  14 H :   -0.165983
  15 H :   -0.165521
  16 H :   -0.178286
  17 H :   -0.167578
  18 H :   -0.169945
  19 H :   -0.169798
  20 H :   -0.165539
  21 H :   -0.165970
  22 H :   -0.178456
  23 H :   -0.167559

  Mayer bond orders larger than 0.100000
B(  0-C ,  1-C ) :   1.1064 B(  0-C ,  2-C ) :  -0.3520 B(  0-C ,  3-C ) :  -0.5275
B(  0-C ,  4-C ) :   0.1301 B(  0-C ,  5-C ) :  -0.1899 B(  0-C ,  6-C ) :   0.3514
B(  0-C , 15-H ) :   0.1050 B(  0-C , 16-H ) :   1.5200 B(  0-C , 17-H ) :  -0.1382
B(  1-C ,  3-C ) :  -0.1155 B(  1-C ,  4-C ) :   0.2053 B(  1-C ,  5-C ) :   1.0280
B(  1-C , 17-H ) :   0.5064 B(  1-C , 18-H ) :  -0.1343 B(  2-C ,  3-C ) :   0.4713
B(  2-C ,  4-C ) :  -0.1745 B(  2-C ,  6-C ) :   0.2719 B(  2-C ,  7-C ) :  -0.1362
B(  2-C , 16-H ) :  -0.2627 B(  3-C ,  4-C ) :   1.1486 B(  3-C ,  5-C ) :  -0.1051
B(  3-C ,  6-C ) :   0.2334 B(  3-C , 18-H ) :   1.2976 B(  3-C , 19-H ) :  -0.1096
B(  4-C ,  5-C ) :   1.2606 B(  4-C , 14-H ) :   0.5631 B(  5-C ,  6-C ) :   0.1496
B(  5-C , 15-H ) :   0.5845 B(  6-C ,  7-C ) :   0.2728 B(  6-C ,  8-C ) :   0.3513
B(  6-C , 10-C ) :   0.1497 B(  6-C , 12-C ) :   0.2332 B(  6-C , 13-O ) :   0.3146
B(  6-C , 16-H ) :  -0.1953 B(  6-C , 22-H ) :  -0.1959 B(  7-C ,  8-C ) :  -0.3481
B(  7-C , 11-C ) :  -0.1735 B(  7-C , 12-C ) :   0.4678 B(  7-C , 22-H ) :  -0.2632
B(  8-C ,  9-C ) :   1.1049 B(  8-C , 10-C ) :  -0.1895 B(  8-C , 11-C ) :   0.1295
B(  8-C , 12-C ) :  -0.5272 B(  8-C , 20-H ) :   0.1046 B(  8-C , 22-H ) :   1.5188
B(  8-C , 23-H ) :  -0.1379 B(  9-C , 10-C ) :   1.0282 B(  9-C , 11-C ) :   0.2048
B(  9-C , 12-C ) :  -0.1144 B(  9-C , 19-H ) :  -0.1342 B(  9-C , 23-H ) :   0.5087
B( 10-C , 11-C ) :   1.2602 B( 10-C , 12-C ) :  -0.1055 B( 10-C , 20-H ) :   0.5837
B( 11-C , 12-C ) :   1.1486 B( 11-C , 21-H ) :   0.5632 B( 12-C , 18-H ) :  -0.1093
B( 12-C , 19-H ) :   1.3009 B( 13-O , 16-H ) :   0.3056 B( 13-O , 22-H ) :   0.3061
B( 16-H , 18-H ) :   0.1482 B( 19-H , 22-H ) :   0.1496

Dispersion correction           -0.009236254
FINAL SINGLE POINT ENERGY      -576.534939231246

DIPOLE MOMENT
-------------

Method             : SCF
Type of density    : Electron Density
Multiplicity       :   1
Irrep              :   0
Energy             :  -576.5257029774884359 Eh
Relativity type    :
Basis              : AO
                                X                 Y                 Z
Electronic contribution:      0.023475923       3.148184970      -0.165509375
Nuclear contribution   :     -0.036869412      -4.873128971       0.257597129
                        -----------------------------------------
Total Dipole Moment    :     -0.013393490      -1.724944001       0.092087753
                        -----------------------------------------
Magnitude (a.u.)       :      1.727452270
Magnitude (Debye)      :      4.390834725

Rotational constants in cm-1:             0.057049             0.013730             0.011699
Rotational constants in MHz :          1710.297566           411.601828           350.719713

                             ****ORCA TERMINATED NORMALLY****
TOTAL RUN TIME: 0 days 0 hours 3 minutes 20 seconds 138 msec
