                         Program Version 6.0.0  -   RELEASE  -
|  1> !TPSSh aug-cc-pVTZ d3 TightSCF SlowConv RIJCOSX defgrid2
|  2>
|  3> %pal
|  4> nprocs 4
|  5> end
|  6>
|  7> %scf
|  8> MaxIter 1500
|  9> end
| 10>
| 11> %maxcore 3000
| 12>
| 13> !CPCM
| 14> %cpcm smd true
| 15> SMDsolvent "MeCN"
| 16> surfacetype gepol_ses
| 17> rsolv 2.19
| 18> end
| 19>
| 20> * xyz 1 2
| 21> C           0.96002552011709     -1.32253975774944      0.00002107203161
| 22> C           2.30946577689281     -1.05292578484351     -0.00001183018851
| 23> C           2.75162476164071      0.28756052755572     -0.00002650301661
| 24> C           1.83902538005307      1.36187223575537     -0.00000118304244
| 25> C           0.48711647576379      1.10797066538425      0.00002893131122
| 26> C           0.02041417697925     -0.24724272024865      0.00003631726405
| 27> C          -1.36049677571781     -0.55035510408661      0.00004151636512
| 28> N          -2.24435922885682      0.43165315940707      0.00003462017491
| 29> O          -3.46568256477989     -0.02410885729296      0.00002059528734
| 30> H          -4.06414072403569      0.75247060999126      0.00003013023410
| 31> H          -1.71241527206750     -1.59215357045924      0.00004127844656
| 32> H          -0.24324441524782      1.92013568517355      0.00004228420146
| 33> H           2.20910910746605      2.39016696582870     -0.00001172730682
| 34> H           3.82614866589464      0.49606739820897     -0.00005739041351
| 35> H           3.03863533465800     -1.86708723654366     -0.00002808352063
| 36> H           0.59646668124012     -2.35410821608081      0.00003057217215
| 37> *
| 38>
| 39>                          ****END OF INPUT****

CARTESIAN COORDINATES (ANGSTROEM)
---------------------------------
  C      0.960026   -1.322540    0.000021
  C      2.309466   -1.052926   -0.000012
  C      2.751625    0.287561   -0.000027
  C      1.839025    1.361872   -0.000001
  C      0.487116    1.107971    0.000029
  C      0.020414   -0.247243    0.000036
  C     -1.360497   -0.550355    0.000042
  N     -2.244359    0.431653    0.000035
  O     -3.465683   -0.024109    0.000021
  H     -4.064141    0.752471    0.000030
  H     -1.712415   -1.592154    0.000041
  H     -0.243244    1.920136    0.000042
  H      2.209109    2.390167   -0.000012
  H      3.826149    0.496067   -0.000057
  H      3.038635   -1.867087   -0.000028
  H      0.596467   -2.354108    0.000031

 Total Charge           Charge          ....    1
 Multiplicity           Mult            ....    2
 Number of Electrons    NEL             ....   63
 Basis Dimension        Dim             ....  575

ORBITAL ENERGIES
----------------
                 SPIN UP ORBITALS
  NO   OCC          E(Eh)            E(eV)
   0   1.0000     -19.186782      -522.0989
   1   1.0000     -14.378989      -391.2722
   2   1.0000     -10.209627      -277.8181
   3   1.0000     -10.191811      -277.3333
   4   1.0000     -10.177562      -276.9456
   5   1.0000     -10.168322      -276.6941
   6   1.0000     -10.167092      -276.6606
   7   1.0000     -10.155415      -276.3429
   8   1.0000     -10.153178      -276.2820
   9   1.0000      -1.176629       -32.0177
  10   1.0000      -0.913565       -24.8594
  11   1.0000      -0.870737       -23.6940
  12   1.0000      -0.782048       -21.2806
  13   1.0000      -0.769692       -20.9444
  14   1.0000      -0.676634       -18.4122
  15   1.0000      -0.630175       -17.1479
  16   1.0000      -0.600555       -16.3419
  17   1.0000      -0.568740       -15.4762
  18   1.0000      -0.539242       -14.6735
  19   1.0000      -0.505594       -13.7579
  20   1.0000      -0.497714       -13.5435
  21   1.0000      -0.478207       -13.0127
  22   1.0000      -0.456199       -12.4138
  23   1.0000      -0.439511       -11.9597
  24   1.0000      -0.433941       -11.8081
  25   1.0000      -0.409700       -11.1485
  26   1.0000      -0.372188       -10.1277
  27   1.0000      -0.360984        -9.8229
  28   1.0000      -0.340191        -9.2571
  29   1.0000      -0.319884        -8.7045
  30   1.0000      -0.288022        -7.8375
  31   1.0000      -0.272532        -7.4160
  32   0.0000      -0.124412        -3.3854
  33   0.0000      -0.057384        -1.5615
  34   0.0000      -0.024807        -0.6750
  35   0.0000      -0.009846        -0.2679
  36   0.0000      -0.002147        -0.0584

                 SPIN DOWN ORBITALS
  NO   OCC          E(Eh)            E(eV)
   0   1.0000     -19.180276      -521.9218
   1   1.0000     -14.372093      -391.0845
   2   1.0000     -10.209704      -277.8202
   3   1.0000     -10.189156      -277.2610
   4   1.0000     -10.173408      -276.8325
   5   1.0000     -10.166558      -276.6461
   6   1.0000     -10.166028      -276.6317
   7   1.0000     -10.155816      -276.3538
   8   1.0000     -10.154057      -276.3059
   9   1.0000      -1.164707       -31.6933
  10   1.0000      -0.904011       -24.5994
  11   1.0000      -0.863004       -23.4835
  12   1.0000      -0.774146       -21.0656
  13   1.0000      -0.767309       -20.8795
  14   1.0000      -0.671879       -18.2828
  15   1.0000      -0.627562       -17.0768
  16   1.0000      -0.596468       -16.2307
  17   1.0000      -0.563752       -15.3405
  18   1.0000      -0.536962       -14.6115
  19   1.0000      -0.502605       -13.6766
  20   1.0000      -0.476164       -12.9571
  21   1.0000      -0.462360       -12.5814
  22   1.0000      -0.453866       -12.3503
  23   1.0000      -0.438996       -11.9457
  24   1.0000      -0.431892       -11.7524
  25   1.0000      -0.392367       -10.6768
  26   1.0000      -0.371434       -10.1072
  27   1.0000      -0.359317        -9.7775
  28   1.0000      -0.316032        -8.5997
  29   1.0000      -0.314048        -8.5457
  30   1.0000      -0.283620        -7.7177
  31   0.0000      -0.216229        -5.8839
  32   0.0000      -0.097746        -2.6598
  33   0.0000      -0.049416        -1.3447
  34   0.0000      -0.008853        -0.2409
  35   0.0000      -0.007346        -0.1999

MULLIKEN ATOMIC CHARGES AND SPIN POPULATIONS
--------------------------------------------
   0 C :   -0.581994    0.046899
   1 C :   -0.375731   -0.025460
   2 C :   -0.046007    0.264053
   3 C :   -0.544890   -0.069648
   4 C :   -0.492030    0.098870
   5 C :    1.260062    0.202242
   6 C :    0.518836   -0.004732
   7 N :   -0.441726    0.287804
   8 O :   -0.195237    0.202391
   9 H :    0.216994   -0.003509
  10 H :    0.316801    0.000376
  11 H :    0.060605    0.001338
  12 H :    0.466425   -0.002307
  13 H :    0.406033    0.004639
  14 H :    0.489684   -0.000762
  15 H :   -0.057825   -0.002195
Sum of atomic charges         :    1.0000000

LOEWDIN ATOMIC CHARGES AND SPIN POPULATIONS
-------------------------------------------
   0 C :    0.265851    0.057080
   1 C :    0.265858    0.040882
   2 C :    0.280027    0.133392
   3 C :    0.262697    0.031527
   4 C :    0.257971    0.072131
   5 C :   -0.105376    0.112875
   6 C :    0.091913    0.066831
   7 N :    0.197739    0.230899
   8 O :    0.752257    0.200453
   9 H :   -0.396585    0.014867
  10 H :   -0.139720   -0.002319
  11 H :   -0.164761    0.009324
  12 H :   -0.148072   -0.003626
  13 H :   -0.134655    0.029109
  14 H :   -0.146142   -0.000413
  15 H :   -0.139002    0.006987

  Mayer bond orders larger than 0.100000
B(  0-C ,  1-C ) :   1.5292 B(  0-C ,  4-C ) :  -0.2321 B(  0-C ,  5-C ) :   0.4663
B(  0-C , 14-H ) :  -0.1057 B(  0-C , 15-H ) :   1.4353 B(  1-C ,  2-C ) :   1.3174
B(  1-C , 14-H ) :   0.5028 B(  2-C ,  3-C ) :   1.2530 B(  2-C ,  5-C ) :  -0.1533
B(  2-C ,  6-C ) :   0.1440 B(  2-C , 12-H ) :   0.1112 B(  2-C , 13-H ) :   0.6030
B(  3-C ,  4-C ) :   1.5216 B(  3-C , 12-H ) :   0.5345 B(  4-C ,  5-C ) :   0.6277
B(  4-C ,  6-C ) :   0.1597 B(  4-C , 11-H ) :   1.0980 B(  5-C ,  6-C ) :   0.5492
B(  5-C , 12-H ) :   0.1118 B(  5-C , 14-H ) :   0.1130 B(  6-C ,  7-N ) :   0.5205
B(  6-C , 10-H ) :   0.6788 B(  6-C , 15-H ) :  -0.1389 B(  7-N ,  8-O ) :   0.7164
B(  8-O ,  9-H ) :   0.9621 B( 11-H , 15-H ) :   0.1012

Dispersion correction           -0.018527216
FINAL SINGLE POINT ENERGY      -400.852005576870

DIPOLE MOMENT
-------------

Method             : SCF
Type of density    : Electron Density
Multiplicity       :   2
Irrep              :   0
Energy             :  -400.8334783604059908 Eh
Relativity type    :
Basis              : AO
                                X                 Y                 Z
Electronic contribution:     -3.484738160       0.169084555       0.000433460
Nuclear contribution   :      3.309117951      -0.259125904      -0.000059906
                        -----------------------------------------
Total Dipole Moment    :     -0.175620209      -0.090041349       0.000373554
                        -----------------------------------------
Magnitude (a.u.)       :      0.197357650
Magnitude (Debye)      :      0.501643280

Rotational constants in cm-1:             0.166470             0.031016             0.026145
Rotational constants in MHz :          4990.645062           929.841763           783.805511

                             ****ORCA TERMINATED NORMALLY****
TOTAL RUN TIME: 0 days 0 hours 5 minutes 35 seconds 194 msec
