                         Program Version 6.0.0  -   RELEASE  -
|  1> !r2SCAN aug-cc-pVTZ d3 TightSCF SlowConv RIJCOSX defgrid2
|  2>
|  3> %pal
|  4> nprocs 4
|  5> end
|  6>
|  7> %scf
|  8> MaxIter 1500
|  9> end
| 10>
| 11> %maxcore 3000
| 12>
| 13> !CPCM
| 14> %cpcm smd true
| 15> SMDsolvent "MeCN"
| 16> surfacetype gepol_ses
| 17> rsolv 2.19
| 18> end
| 19>
| 20> * xyz 1 2
| 21> C          -1.06386344655545     -0.91329923764825      0.00354757702725
| 22> C           0.22163478430249     -1.40337223094175      0.04858043804036
| 23> C           0.53945025913243     -2.86197889510622      0.10169084984005
| 24> H          -0.37259520711996     -3.47715377611844      0.08589055463224
| 25> H           1.10475563615799     -3.10497153663765      1.01926780026075
| 26> H           1.17109714187519     -3.15621662267989     -0.75541137044371
| 27> C           1.27360747036098     -0.44465743263894      0.04352288846465
| 28> C           1.04730295949006      0.97973504194292     -0.00482697142823
| 29> C           2.21826802319715      1.89495355633420     -0.00501918248716
| 30> H           2.87852806587755      1.67773079367681     -0.86595049735279
| 31> H           1.91752465121824      2.95187818048041     -0.04884973003982
| 32> H           2.83071273968936      1.73802851771994      0.90320153771289
| 33> C          -0.25714882442837      1.42208817632644     -0.04842885905841
| 34> C          -1.33212517936375      0.50020425527138     -0.04514025959234
| 35> C          -2.73438084453214      0.95960010306211     -0.09132088440263
| 36> H          -3.24557910809032      0.52601718911780     -0.97488501067325
| 37> H          -2.82792542810869      2.05448934777564     -0.12005666171949
| 38> H          -3.29093535822372      0.56719702138835      0.78377537035428
| 39> H          -0.47441598823820      2.49274908825876     -0.08618140398361
| 40> H           2.30992878348264     -0.80041103745640      0.07738415126096
| 41> H          -1.91351563012347     -1.60314880212721      0.00441476358802
| 42> *
| 43>
| 44>                          ****END OF INPUT****

CARTESIAN COORDINATES (ANGSTROEM)
---------------------------------
  C     -1.063863   -0.913299    0.003548
  C      0.221635   -1.403372    0.048580
  C      0.539450   -2.861979    0.101691
  H     -0.372595   -3.477154    0.085891
  H      1.104756   -3.104972    1.019268
  H      1.171097   -3.156217   -0.755411
  C      1.273607   -0.444657    0.043523
  C      1.047303    0.979735   -0.004827
  C      2.218268    1.894954   -0.005019
  H      2.878528    1.677731   -0.865950
  H      1.917525    2.951878   -0.048850
  H      2.830713    1.738029    0.903202
  C     -0.257149    1.422088   -0.048429
  C     -1.332125    0.500204   -0.045140
  C     -2.734381    0.959600   -0.091321
  H     -3.245579    0.526017   -0.974885
  H     -2.827925    2.054489   -0.120057
  H     -3.290935    0.567197    0.783775
  H     -0.474416    2.492749   -0.086181
  H      2.309929   -0.800411    0.077384
  H     -1.913516   -1.603149    0.004415

 Total Charge           Charge          ....    1
 Multiplicity           Mult            ....    2
 Number of Electrons    NEL             ....   65
 Basis Dimension        Dim             ....  690

ORBITAL ENERGIES
----------------
                 SPIN UP ORBITALS
  NO   OCC          E(Eh)            E(eV)
   0   1.0000     -10.124602      -275.5044
   1   1.0000     -10.114443      -275.2280
   2   1.0000     -10.105883      -274.9951
   3   1.0000     -10.092851      -274.6404
   4   1.0000     -10.085217      -274.4327
   5   1.0000     -10.072804      -274.0949
   6   1.0000     -10.054067      -273.5851
   7   1.0000     -10.049171      -273.4518
   8   1.0000     -10.044955      -273.3371
   9   1.0000      -0.877146       -23.8684
  10   1.0000      -0.795150       -21.6371
  11   1.0000      -0.787632       -21.4326
  12   1.0000      -0.692381       -18.8406
  13   1.0000      -0.683541       -18.6001
  14   1.0000      -0.679833       -18.4992
  15   1.0000      -0.579400       -15.7663
  16   1.0000      -0.574559       -15.6345
  17   1.0000      -0.498316       -13.5599
  18   1.0000      -0.486474       -13.2376
  19   1.0000      -0.434000       -11.8098
  20   1.0000      -0.433668       -11.8007
  21   1.0000      -0.408190       -11.1074
  22   1.0000      -0.406783       -11.0691
  23   1.0000      -0.403476       -10.9791
  24   1.0000      -0.397484       -10.8161
  25   1.0000      -0.383385       -10.4324
  26   1.0000      -0.381975       -10.3941
  27   1.0000      -0.352245        -9.5851
  28   1.0000      -0.343712        -9.3529
  29   1.0000      -0.341608        -9.2956
  30   1.0000      -0.337853        -9.1935
  31   1.0000      -0.278436        -7.5766
  32   1.0000      -0.265558        -7.2262
  33   0.0000      -0.103568        -2.8182
  34   0.0000      -0.064089        -1.7440
  35   0.0000       0.003992         0.1086
  36   0.0000       0.020902         0.5688
  37   0.0000       0.021315         0.5800

                 SPIN DOWN ORBITALS
  NO   OCC          E(Eh)            E(eV)
   0   1.0000     -10.119111      -275.3550
   1   1.0000     -10.105452      -274.9833
   2   1.0000     -10.104843      -274.9668
   3   1.0000     -10.094378      -274.6820
   4   1.0000     -10.082686      -274.3638
   5   1.0000     -10.073079      -274.1024
   6   1.0000     -10.053916      -273.5810
   7   1.0000     -10.048981      -273.4467
   8   1.0000     -10.044799      -273.3329
   9   1.0000      -0.866702       -23.5842
  10   1.0000      -0.786994       -21.4152
  11   1.0000      -0.781352       -21.2617
  12   1.0000      -0.691321       -18.8118
  13   1.0000      -0.677119       -18.4253
  14   1.0000      -0.670334       -18.2407
  15   1.0000      -0.572061       -15.5666
  16   1.0000      -0.571165       -15.5422
  17   1.0000      -0.495523       -13.4839
  18   1.0000      -0.484225       -13.1764
  19   1.0000      -0.430666       -11.7190
  20   1.0000      -0.418314       -11.3829
  21   1.0000      -0.408188       -11.1074
  22   1.0000      -0.400019       -10.8851
  23   1.0000      -0.397159       -10.8072
  24   1.0000      -0.396173       -10.7804
  25   1.0000      -0.382396       -10.4055
  26   1.0000      -0.380872       -10.3640
  27   1.0000      -0.350924        -9.5491
  28   1.0000      -0.340436        -9.2637
  29   1.0000      -0.335443        -9.1279
  30   1.0000      -0.327112        -8.9012
  31   1.0000      -0.260768        -7.0959
  32   0.0000      -0.225158        -6.1269
  33   0.0000      -0.060854        -1.6559
  34   0.0000      -0.054514        -1.4834
  35   0.0000       0.005524         0.1503
  36   0.0000       0.021659         0.5894

MULLIKEN ATOMIC CHARGES AND SPIN POPULATIONS
--------------------------------------------
   0 C :   -0.915402    0.189358
   1 C :    1.258788   -0.150068
   2 C :   -0.693884    0.007717
   3 H :    0.167886   -0.000182
   4 H :    0.212094   -0.002854
   5 H :    0.207328   -0.002980
   6 C :   -1.503262    0.456927
   7 C :    1.326680    0.056326
   8 C :   -0.653163   -0.022776
   9 H :    0.217547    0.012671
  10 H :    0.155188   -0.003251
  11 H :    0.218703    0.013033
  12 C :   -0.303228   -0.009575
  13 C :    1.487085    0.338036
  14 C :   -0.576011   -0.052202
  15 H :    0.227362    0.038485
  16 H :    0.161162   -0.007185
  17 H :    0.225395    0.037387
  18 H :   -0.244453   -0.006593
  19 H :    0.093631    0.078403
  20 H :   -0.069448    0.029325
Sum of atomic charges         :    1.0000000

LOEWDIN ATOMIC CHARGES AND SPIN POPULATIONS
-------------------------------------------
   0 C :    0.304713    0.110344
   1 C :   -0.067237    0.059457
   2 C :    0.612277   -0.002176
   3 H :   -0.155405    0.000462
   4 H :   -0.141341    0.000216
   5 H :   -0.141897    0.000205
   6 C :    0.342212    0.270915
   7 C :   -0.057580    0.107633
   8 C :    0.621595    0.024833
   9 H :   -0.134415    0.007271
  10 H :   -0.150622    0.001597
  11 H :   -0.134163    0.007355
  12 C :    0.297003    0.049686
  13 C :   -0.045546    0.183895
  14 C :    0.636159    0.068378
  15 H :   -0.124104    0.018202
  16 H :   -0.146419    0.002708
  17 H :   -0.124595    0.017894
  18 H :   -0.143170   -0.000204
  19 H :   -0.114707    0.054754
  20 H :   -0.132756    0.016578

  Mayer bond orders larger than 0.100000
B(  0-C ,  1-C ) :   0.7091 B(  0-C ,  2-C ) :  -0.1361 B(  0-C ,  6-C ) :   0.1761
B(  0-C ,  7-C ) :  -0.2238 B(  0-C , 14-C ) :   0.1796 B(  0-C , 18-H ) :   0.1190
B(  0-C , 20-H ) :   1.4537 B(  1-C ,  2-C ) :   0.2096 B(  1-C ,  6-C ) :   0.4442
B(  1-C ,  7-C ) :   0.3061 B(  1-C , 13-C ) :   0.4262 B(  1-C , 20-H ) :  -0.1315
B(  2-C ,  3-H ) :   1.0170 B(  2-C ,  4-H ) :   1.0092 B(  2-C ,  5-H ) :   1.0138
B(  2-C ,  6-C ) :   0.2145 B(  6-C ,  7-C ) :   0.3042 B(  6-C ,  8-C ) :   0.2058
B(  6-C , 12-C ) :  -0.1355 B(  6-C , 13-C ) :  -0.5770 B(  6-C , 19-H ) :   1.2186
B(  6-C , 20-H ) :   0.1060 B(  7-C ,  8-C ) :   0.2164 B(  7-C , 12-C ) :   0.5066
B(  7-C , 13-C ) :   0.4835 B(  7-C , 18-H ) :  -0.2557 B(  8-C ,  9-H ) :   0.9937
B(  8-C , 10-H ) :   1.0322 B(  8-C , 11-H ) :   0.9928 B(  8-C , 12-C ) :  -0.1840
B(  8-C , 13-C ) :   0.1166 B( 12-C , 13-C ) :   0.1505 B( 12-C , 14-C ) :  -0.1001
B( 12-C , 18-H ) :   1.7151 B( 13-C , 14-C ) :   0.2390 B( 13-C , 18-H ) :  -0.2619
B( 13-C , 20-H ) :  -0.1393 B( 14-C , 15-H ) :   0.9677 B( 14-C , 16-H ) :   1.0355
B( 14-C , 17-H ) :   0.9691

Dispersion correction           -0.006257809
FINAL SINGLE POINT ENERGY      -349.899489704460

DIPOLE MOMENT
-------------

Method             : SCF
Type of density    : Electron Density
Multiplicity       :   2
Irrep              :   0
Energy             :  -349.8932318959128906 Eh
Relativity type    :
Basis              : AO
                                X                 Y                 Z
Electronic contribution:     -0.246055990       0.336726301      -0.019458506
Nuclear contribution   :      0.172059902      -0.262839703       0.016137258
                        -----------------------------------------
Total Dipole Moment    :     -0.073996088       0.073886597      -0.003321248
                        -----------------------------------------
Magnitude (a.u.)       :      0.104621609
Magnitude (Debye)      :      0.265926996

Rotational constants in cm-1:             0.058615             0.057378             0.029475
Rotational constants in MHz :          1757.241718          1720.152474           883.633658

                             ****ORCA TERMINATED NORMALLY****
TOTAL RUN TIME: 0 days 0 hours 6 minutes 8 seconds 302 msec
