                         Program Version 6.0.0  -   RELEASE  -
|  1> !PBE0 def2-SV(p) Opt Freq d3 TightSCF SlowConv RIJCOSX defgrid2
|  2>
|  3> %pal
|  4> nprocs 4
|  5> end
|  6>
|  7> %scf
|  8> MaxIter 1500
|  9> end
| 10>
| 11> %maxcore 3000
| 12>
| 13>
| 14>
| 15> * xyz 0 1
| 16> C    -1.4647708    0.0000363    0.2428003
| 17> C    -0.7246445   -1.2447692   -0.2389684
| 18> C     0.7273306   -1.1993298    0.2329732
| 19> N     1.3602635   -0.0000363   -0.2860153
| 20> H     2.3478521   -0.0000611   -0.0531922
| 21> C     0.7273914    1.1992909    0.2329696
| 22> C    -0.7245814    1.2448027   -0.2389722
| 23> H    -1.2056892    2.1483633    0.1394953
| 24> H    -0.7362531    1.2737377   -1.3293095
| 25> H     1.2734101    2.0675715   -0.1452733
| 26> H     0.7470402    1.2348181    1.3394904
| 27> H     1.2733050   -2.0676393   -0.1452676
| 28> H     0.7469779   -1.2348551    1.3394940
| 29> H    -1.2057981   -2.1483042    0.1395020
| 30> H    -0.7363178   -1.2737072   -1.3293056
| 31> H    -2.4898348    0.0000618   -0.1326105
| 32> H    -1.5046662    0.0000391    1.3355520
| 33> *
| 34>
| 35>                          ****END OF INPUT****
 Total Charge           Charge          ....    0
 Multiplicity           Mult            ....    1
 Number of Electrons    NEL             ....   48
Dispersion correction           -0.012397248
FINAL SINGLE POINT ENERGY      -251.408575291013
Dispersion correction             ... done (  0.1 sec)
Dispersion correction           -0.012326796
FINAL SINGLE POINT ENERGY      -251.409971472371
Dispersion correction             ... done (  0.1 sec)
Dispersion correction           -0.012313467
FINAL SINGLE POINT ENERGY      -251.410096578764
Dispersion correction             ... done (  0.1 sec)
Dispersion correction           -0.012308474
FINAL SINGLE POINT ENERGY      -251.410125025299
Dispersion correction             ... done (  0.1 sec)
                    ***********************HURRAY********************

CARTESIAN COORDINATES (ANGSTROEM)
---------------------------------
  C     -1.466233    0.000110    0.221384
  C     -0.721468   -1.255561   -0.224817
  C      0.732626   -1.206788    0.226954
  N      1.361889   -0.000030   -0.269136
  H      2.356497    0.000040   -0.055346
  C      0.732540    1.206759    0.227050
  C     -0.721443    1.255585   -0.225113
  H     -1.210161    2.162879    0.172402
  H     -0.742443    1.325210   -1.328238
  H      1.282411    2.080009   -0.164835
  H      0.761014    1.276202    1.342942
  H      1.282196   -2.080084   -0.165350
  H      0.761839   -1.276974    1.342798
  H     -1.210207   -2.162666    0.173041
  H     -0.742643   -1.325055   -1.327941
  H     -2.499426    0.000038   -0.168861
  H     -1.545972    0.000345    1.326429

 Multiplicity           Mult            ....    1
 Number of Electrons    NEL             ....   48
 Basis Dimension        Dim             ....  106

ORBITAL ENERGIES
----------------

  NO   OCC          E(Eh)            E(eV)
   0   2.0000     -14.365072      -390.8935
   1   2.0000     -10.244007      -278.7536
   2   2.0000     -10.244004      -278.7535
   3   2.0000     -10.220393      -278.1110
   4   2.0000     -10.217989      -278.0456
   5   2.0000     -10.217966      -278.0450
   6   2.0000      -0.928115       -25.2553
   7   2.0000      -0.798651       -21.7324
   8   2.0000      -0.762970       -20.7615
   9   2.0000      -0.643531       -17.5114
  10   2.0000      -0.627812       -17.0836
  11   2.0000      -0.557315       -15.1653
  12   2.0000      -0.526597       -14.3294
  13   2.0000      -0.461737       -12.5645
  14   2.0000      -0.460820       -12.5395
  15   2.0000      -0.432710       -11.7746
  16   2.0000      -0.420219       -11.4347
  17   2.0000      -0.413896       -11.2627
  18   2.0000      -0.392865       -10.6904
  19   2.0000      -0.351585        -9.5671
  20   2.0000      -0.333202        -9.0669
  21   2.0000      -0.321852        -8.7580
  22   2.0000      -0.320055        -8.7091
  23   2.0000      -0.227844        -6.2000
  24   0.0000       0.062760         1.7078
  25   0.0000       0.091961         2.5024
  26   0.0000       0.101779         2.7695
  27   0.0000       0.104579         2.8457
  28   0.0000       0.135453         3.6859

MULLIKEN ATOMIC CHARGES
-----------------------
   0 C :   -0.233411
   1 C :   -0.214794
   2 C :   -0.088010
   3 N :   -0.434230
   4 H :    0.224902
   5 C :   -0.087952
   6 C :   -0.214827
   7 H :    0.113946
   8 H :    0.111886
   9 H :    0.109881
  10 H :    0.078457
  11 H :    0.109868
  12 H :    0.078470
  13 H :    0.113955
  14 H :    0.111885
  15 H :    0.118476
  16 H :    0.101496
Sum of atomic charges:   -0.0000000

LOEWDIN ATOMIC CHARGES
----------------------
   0 C :   -0.234754
   1 C :   -0.237849
   2 C :   -0.164430
   3 N :   -0.289327
   4 H :    0.214697
   5 C :   -0.164398
   6 C :   -0.237866
   7 H :    0.118982
   8 H :    0.120975
   9 H :    0.113620
  10 H :    0.087226
  11 H :    0.113610
  12 H :    0.087210
  13 H :    0.118994
  14 H :    0.120991
  15 H :    0.118555
  16 H :    0.113763

  Mayer bond orders larger than 0.100000
B(  0-C ,  1-C ) :   1.0972 B(  0-C ,  6-C ) :   1.0972 B(  0-C , 15-H ) :   0.9350
B(  0-C , 16-H ) :   0.9277 B(  1-C ,  2-C ) :   1.1089 B(  1-C , 13-H ) :   0.9319
B(  1-C , 14-H ) :   0.9199 B(  2-C ,  3-N ) :   1.0470 B(  2-C , 11-H ) :   0.9359
B(  2-C , 12-H ) :   0.9137 B(  3-N ,  4-H ) :   0.8785 B(  3-N ,  5-C ) :   1.0469
B(  5-C ,  6-C ) :   1.1088 B(  5-C ,  9-H ) :   0.9359 B(  5-C , 10-H ) :   0.9136
B(  6-C ,  7-H ) :   0.9319 B(  6-C ,  8-H ) :   0.9200

Dispersion correction           -0.012308238
FINAL SINGLE POINT ENERGY      -251.410127566475

DIPOLE MOMENT
-------------

Method             : SCF
Type of density    : Electron Density
Multiplicity       :   1
Irrep              :   0
Energy             :  -251.3978193282210896 Eh
Relativity type    :
Basis              : AO
                                X                 Y                 Z
Electronic contribution:      1.578240794       0.000216323      -0.774022586
Nuclear contribution   :     -1.432111276      -0.000148884       1.063195941
                        -----------------------------------------
Total Dipole Moment    :      0.146129518       0.000067439       0.289173355
                        -----------------------------------------
Magnitude (a.u.)       :      0.323998564
Magnitude (Debye)      :      0.823538903

VIBRATIONAL FREQUENCIES
-----------------------

Scaling factor for frequencies =  1.000000000  (already applied!)

     0:       0.00 cm**-1
     1:       0.00 cm**-1
     2:       0.00 cm**-1
     3:       0.00 cm**-1
     4:       0.00 cm**-1
     5:       0.00 cm**-1
     6:     249.39 cm**-1
     7:     255.82 cm**-1
     8:     405.54 cm**-1
     9:     440.71 cm**-1
    10:     456.65 cm**-1
    11:     550.80 cm**-1
    12:     774.48 cm**-1
    13:     830.96 cm**-1
    14:     851.37 cm**-1
    15:     885.84 cm**-1
    16:     908.57 cm**-1
    17:     934.81 cm**-1
    18:     989.95 cm**-1
    19:    1069.16 cm**-1
    20:    1080.56 cm**-1
    21:    1086.50 cm**-1
    22:    1174.60 cm**-1
    23:    1175.62 cm**-1
    24:    1181.44 cm**-1
    25:    1219.58 cm**-1
    26:    1295.37 cm**-1
    27:    1300.90 cm**-1
    28:    1323.76 cm**-1
    29:    1354.30 cm**-1
    30:    1380.69 cm**-1
    31:    1393.17 cm**-1
    32:    1398.58 cm**-1
    33:    1441.48 cm**-1
    34:    1456.71 cm**-1
    35:    1465.84 cm**-1
    36:    1480.92 cm**-1
    37:    1482.51 cm**-1
    38:    1499.63 cm**-1
    39:    1513.82 cm**-1
    40:    2900.92 cm**-1
    41:    2906.28 cm**-1
    42:    3025.28 cm**-1
    43:    3045.60 cm**-1
    44:    3045.83 cm**-1
    45:    3088.57 cm**-1
    46:    3089.02 cm**-1
    47:    3091.97 cm**-1
    48:    3102.96 cm**-1
    49:    3106.06 cm**-1
    50:    3530.38 cm**-1

IR SPECTRUM
-----------

 Mode   freq       eps      Int      T**2         TX        TY        TZ
       cm**-1   L/(mol*cm) km/mol    a.u.
----------------------------------------------------------------------------
  6:    249.39   0.000263    1.33  0.000329  ( 0.018103 -0.000023  0.001015)
  7:    255.82   0.000069    0.35  0.000084  (-0.000051 -0.009150 -0.000014)
  8:    405.54   0.000346    1.75  0.000266  ( 0.005415 -0.000001  0.015399)
  9:    440.71   0.001473    7.44  0.001043  (-0.027493  0.000008  0.016945)
 10:    456.65   0.000162    0.82  0.000111  ( 0.000021  0.010537 -0.000023)
 11:    550.80   0.004744   23.98  0.002688  (-0.033343  0.000001  0.039702)
 12:    774.48   0.017421   88.04  0.007020  ( 0.050499  0.000003 -0.066854)
 13:    830.96   0.000072    0.36  0.000027  ( 0.000007  0.005196 -0.000009)
 14:    851.37   0.000090    0.45  0.000033  ( 0.001484 -0.000001  0.005536)
 15:    885.84   0.003305   16.70  0.001164  ( 0.010619  0.000003 -0.032428)
 16:    908.57   0.000051    0.26  0.000018  ( 0.000013  0.004201 -0.000008)
 17:    934.81   0.000468    2.36  0.000156  (-0.011894  0.000020  0.003823)
 18:    989.95   0.000125    0.63  0.000039  ( 0.000008 -0.006270 -0.000006)
 19:   1069.16   0.002477   12.52  0.000723  ( 0.004331 -0.000025 -0.026538)
 20:   1080.56   0.000047    0.24  0.000014  (-0.002603  0.000036 -0.002596)
 21:   1086.50   0.000459    2.32  0.000132  ( 0.000007  0.011486 -0.000024)
 22:   1174.60   0.001205    6.09  0.000320  ( 0.007542  0.000018 -0.016225)
 23:   1175.62   0.000033    0.17  0.000009  (-0.000054  0.002978  0.000092)
 24:   1181.44   0.001356    6.85  0.000358  (-0.000004  0.018927 -0.000003)
 25:   1219.58   0.003158   15.96  0.000808  ( 0.000002  0.028429 -0.000020)
 26:   1295.37   0.000729    3.69  0.000176  (-0.008146 -0.000032 -0.010458)
 27:   1300.90   0.000777    3.93  0.000186  ( 0.000014 -0.013652  0.000011)
 28:   1323.76   0.000284    1.43  0.000067  (-0.002299  0.000011  0.007847)
 29:   1354.30   0.001406    7.11  0.000324  ( 0.000001 -0.017999  0.000007)
 30:   1380.69   0.007345   37.12  0.001660  ( 0.000021 -0.040745  0.000011)
 31:   1393.17   0.000058    0.29  0.000013  (-0.000874 -0.000046  0.003482)
 32:   1398.58   0.000014    0.07  0.000003  (-0.000001 -0.001780 -0.000013)
 33:   1441.48   0.000313    1.58  0.000068  (-0.008218 -0.000036 -0.000380)
 34:   1456.71   0.001166    5.89  0.000250  ( 0.000024  0.015806  0.000101)
 35:   1465.84   0.002185   11.04  0.000465  ( 0.000637  0.000073 -0.021559)
 36:   1480.92   0.002195   11.09  0.000462  (-0.021165 -0.000089 -0.003804)
 37:   1482.51   0.000133    0.67  0.000028  ( 0.000345 -0.005271  0.000008)
 38:   1499.63   0.000724    3.66  0.000151  (-0.006817  0.000003 -0.010208)
 39:   1513.82   0.000537    2.71  0.000111  ( 0.000006  0.010522  0.000001)
 40:   2900.92   0.006665   33.68  0.000717  ( 0.000090 -0.026768  0.000681)
 41:   2906.28   0.030524  154.25  0.003278  ( 0.006595  0.000304  0.056868)
 42:   3025.28   0.005435   27.47  0.000561  (-0.014974 -0.000009  0.018341)
 43:   3045.60   0.004189   21.17  0.000429  ( 0.001076 -0.020629  0.001576)
 44:   3045.83   0.003506   17.72  0.000359  (-0.010579 -0.002041 -0.015593)
 45:   3088.57   0.010763   54.39  0.001088  ( 0.011754 -0.030590 -0.003690)
 46:   3089.02   0.008504   42.98  0.000859  (-0.024066 -0.015465  0.006384)
 47:   3091.97   0.003422   17.29  0.000345  ( 0.013760 -0.001026  0.012449)
 48:   3102.96   0.003796   19.18  0.000382  ( 0.000108 -0.019508 -0.001081)
 49:   3106.06   0.009886   49.96  0.000993  (-0.005060 -0.000678  0.031100)
 50:   3530.38   0.000103    0.52  0.000009  ( 0.002547  0.000001  0.001620)

--------------------------
THERMOCHEMISTRY AT 298.15K
--------------------------

Temperature         ...   298.15 K
Pressure            ...     1.00 atm
Total Mass          ...    85.15 AMU
Quasi RRHO          ...     True
Cut-Off Frequency   ...     1.00 cm^-1

Throughout the following assumptions are being made:
  (1) The electronic state is orbitally nondegenerate
  (2) There are no thermally accessible electronically excited states
  (3) Hindered rotations indicated by low frequency modes are not
      treated as such but are treated as vibrations and this may
      cause some error
  (4) All equations used are the standard statistical mechanics
      equations for an ideal gas
  (5) All vibrations are strictly harmonic

freq.     249.39  E(vib)   ...       0.31
freq.     255.82  E(vib)   ...       0.30
freq.     405.54  E(vib)   ...       0.19
freq.     440.71  E(vib)   ...       0.17
freq.     456.65  E(vib)   ...       0.16
freq.     550.80  E(vib)   ...       0.12
freq.     774.48  E(vib)   ...       0.05
freq.     830.96  E(vib)   ...       0.04
freq.     851.37  E(vib)   ...       0.04
freq.     885.84  E(vib)   ...       0.04
freq.     908.57  E(vib)   ...       0.03
freq.     934.81  E(vib)   ...       0.03
freq.     989.95  E(vib)   ...       0.02
freq.    1069.16  E(vib)   ...       0.02
freq.    1080.56  E(vib)   ...       0.02
freq.    1086.50  E(vib)   ...       0.02
freq.    1174.60  E(vib)   ...       0.01
freq.    1175.62  E(vib)   ...       0.01
freq.    1181.44  E(vib)   ...       0.01
freq.    1219.58  E(vib)   ...       0.01
freq.    1295.37  E(vib)   ...       0.01
freq.    1300.90  E(vib)   ...       0.01
freq.    1323.76  E(vib)   ...       0.01
freq.    1354.30  E(vib)   ...       0.01
freq.    1380.69  E(vib)   ...       0.01
freq.    1393.17  E(vib)   ...       0.00
freq.    1398.58  E(vib)   ...       0.00
freq.    1441.48  E(vib)   ...       0.00
freq.    1456.71  E(vib)   ...       0.00
freq.    1465.84  E(vib)   ...       0.00
freq.    1480.92  E(vib)   ...       0.00
freq.    1482.51  E(vib)   ...       0.00
freq.    1499.63  E(vib)   ...       0.00
freq.    1513.82  E(vib)   ...       0.00
freq.    2900.92  E(vib)   ...       0.00
freq.    2906.28  E(vib)   ...       0.00
freq.    3025.28  E(vib)   ...       0.00
freq.    3045.60  E(vib)   ...       0.00
freq.    3045.83  E(vib)   ...       0.00
freq.    3088.57  E(vib)   ...       0.00
freq.    3089.02  E(vib)   ...       0.00
freq.    3091.97  E(vib)   ...       0.00
freq.    3102.96  E(vib)   ...       0.00
freq.    3106.06  E(vib)   ...       0.00
freq.    3530.38  E(vib)   ...       0.00

------------
INNER ENERGY
------------

The inner energy is: U= E(el) + E(ZPE) + E(vib) + E(rot) + E(trans)
    E(el)   - is the total energy from the electronic structure calculation
              = E(kin-el) + E(nuc-el) + E(el-el) + E(nuc-nuc)
    E(ZPE)  - the the zero temperature vibrational energy from the frequency calculation
    E(vib)  - the the finite temperature correction to E(ZPE) due to population
              of excited vibrational states
    E(rot)  - is the rotational thermal energy
    E(trans)- is the translational thermal energy

Summary of contributions to the inner energy U:
Electronic energy                ...   -251.41012757 Eh
Zero point energy                ...      0.16002503 Eh     100.42 kcal/mol
Thermal vibrational correction   ...      0.00265957 Eh       1.67 kcal/mol
Thermal rotational correction    ...      0.00141627 Eh       0.89 kcal/mol
Thermal translational correction ...      0.00141627 Eh       0.89 kcal/mol
-----------------------------------------------------------------------
Total thermal energy                   -251.24461042 Eh

Summary of corrections to the electronic energy:
(perhaps to be used in another calculation)
Total thermal correction                  0.00549211 Eh       3.45 kcal/mol
Non-thermal (ZPE) correction              0.16002503 Eh     100.42 kcal/mol
-----------------------------------------------------------------------
Total correction                          0.16551714 Eh     103.86 kcal/mol

--------
ENTHALPY
--------

The enthalpy is H = U + kB*T
                kB is Boltzmann's constant
Total thermal energy              ...   -251.24461042 Eh
Thermal Enthalpy correction       ...      0.00094421 Eh       0.59 kcal/mol
-----------------------------------------------------------------------
Total Enthalpy                    ...   -251.24366622 Eh

Note: Only C1 symmetry has been detected, increase convergence thresholds
      if your molecule has a higher symmetry. Symmetry factor of 1.0 is
      used for the rotational entropy correction.

Note: Rotational entropy computed according to Herzberg
Infrared and Raman Spectra, Chapter V,1, Van Nostrand Reinhold, 1945
Point Group:  C1, Symmetry Number:   1
Rotational constants in cm-1:     0.151873     0.148898     0.085191

Vibrational entropy computed according to the QRRHO of S. Grimme
Chem.Eur.J. 2012 18 9955 using a reference frequency of 100.0 cm-1

-------
ENTROPY
-------

The entropy contributions are T*S = T*(S(el)+S(vib)+S(rot)+S(trans))
     S(el)   - electronic entropy
     S(vib)  - vibrational entropy
     S(rot)  - rotational entropy
     S(trans)- translational entropy
The entropies will be listed as multiplied by the temperature to get
units of energy

Electronic entropy                ...      0.00000000 Eh      0.00 kcal/mol
Vibrational entropy               ...      0.00391439 Eh      2.46 kcal/mol
Rotational entropy                ...      0.01246235 Eh      7.82 kcal/mol
Translational entropy             ...      0.01864357 Eh     11.70 kcal/mol
-----------------------------------------------------------------------
Final entropy term                ...      0.03502031 Eh     21.98 kcal/mol

In case the symmetry of your molecule has not been determined correctly
or in case you have a reason to use a different symmetry number we print
out the resulting rotational entropy values for sn=1,12:

 non-linear molecules -----------------------------------
|  sn= 1 | S(rot)=       0.01246235 Eh      7.82 kcal/mol|
|  sn= 2 | S(rot)=       0.01180789 Eh      7.41 kcal/mol|
|  sn= 3 | S(rot)=       0.01142506 Eh      7.17 kcal/mol|
|  sn= 4 | S(rot)=       0.01115344 Eh      7.00 kcal/mol|
|  sn= 5 | S(rot)=       0.01094275 Eh      6.87 kcal/mol|
|  sn= 6 | S(rot)=       0.01077060 Eh      6.76 kcal/mol|
|  sn= 7 | S(rot)=       0.01062506 Eh      6.67 kcal/mol|
|  sn= 8 | S(rot)=       0.01049898 Eh      6.59 kcal/mol|
|  sn= 9 | S(rot)=       0.01038777 Eh      6.52 kcal/mol|
|  sn=10 | S(rot)=       0.01028829 Eh      6.46 kcal/mol|
|  sn=11 | S(rot)=       0.01019830 Eh      6.40 kcal/mol|
|  sn=12 | S(rot)=       0.01011615 Eh      6.35 kcal/mol|
 linear molecules ---------------------------------------
|  Dinfh | S(rot)=       0.00765119 Eh      4.80 kcal/mol|
|  Cinfv | S(rot)=       0.00830564 Eh      5.21 kcal/mol|

                             ****ORCA TERMINATED NORMALLY****
TOTAL RUN TIME: 0 days 0 hours 5 minutes 20 seconds 493 msec
