                         Program Version 6.0.0  -   RELEASE  -
|  1> !r2SCAN aug-cc-pVTZ d3 TightSCF SlowConv RIJCOSX defgrid2
|  2>
|  3> %pal
|  4> nprocs 4
|  5> end
|  6>
|  7> %scf
|  8> MaxIter 1500
|  9> end
| 10>
| 11> %maxcore 3000
| 12>
| 13> !CPCM
| 14> %cpcm smd true
| 15> SMDsolvent "MeCN"
| 16> surfacetype gepol_ses
| 17> rsolv 2.19
| 18> end
| 19>
| 20> * xyz 1 2
| 21>   C           0.32102019331516     -1.19542386061728     -0.14148513269053
| 22>   N           1.10243703742587      0.00016587284657     -0.03493498389965
| 23>   H           2.12790837562502      0.00032492444948     -0.06391998039902
| 24>   C           0.32776853288643      1.19559735299303      0.11419545489126
| 25>   C          -1.10184122089178      0.73960306514008     -0.17705770971163
| 26>   C          -1.09090160245375     -0.73957390726683      0.22597738884058
| 27>   H          -1.24513402062308     -0.85614376606510      1.31228662008834
| 28>   H          -1.86247558532270     -1.33277654839199     -0.28577641973945
| 29>   H          -1.84489899623950      1.33262955312356      0.37546884555940
| 30>   H          -1.31417979146215      0.85631071138639     -1.25352523011859
| 31>   H           0.74060448118867      2.00031005458115     -0.52340635871813
| 32>   H           0.46483350827758      1.54453868347447      1.16584085187759
| 33>   H           0.40187216908273     -1.54535148914433     -1.19859107684141
| 34>   H           0.76758011919150     -1.99962684650920      0.47372433086124
| 35> *
| 36>
| 37>                          ****END OF INPUT****

CARTESIAN COORDINATES (ANGSTROEM)
---------------------------------
  C      0.321020   -1.195424   -0.141485
  N      1.102437    0.000166   -0.034935
  H      2.127908    0.000325   -0.063920
  C      0.327769    1.195597    0.114195
  C     -1.101841    0.739603   -0.177058
  C     -1.090902   -0.739574    0.225977
  H     -1.245134   -0.856144    1.312287
  H     -1.862476   -1.332777   -0.285776
  H     -1.844899    1.332630    0.375469
  H     -1.314180    0.856311   -1.253525
  H      0.740604    2.000310   -0.523406
  H      0.464834    1.544539    1.165841
  H      0.401872   -1.545351   -1.198591
  H      0.767580   -1.999627    0.473724

 Total Charge           Charge          ....    1
 Multiplicity           Mult            ....    2
 Number of Electrons    NEL             ....   39
 Basis Dimension        Dim             ....  437

ORBITAL ENERGIES
----------------
                 SPIN UP ORBITALS
  NO   OCC          E(Eh)            E(eV)
   0   1.0000     -14.297075      -389.0432
   1   1.0000     -10.102553      -274.9044
   2   1.0000     -10.102463      -274.9020
   3   1.0000     -10.053443      -273.5681
   4   1.0000     -10.053312      -273.5645
   5   1.0000      -0.984382       -26.7864
   6   1.0000      -0.770011       -20.9531
   7   1.0000      -0.741904       -20.1882
   8   1.0000      -0.606628       -16.5072
   9   1.0000      -0.585480       -15.9317
  10   1.0000      -0.544750       -14.8234
  11   1.0000      -0.506281       -13.7766
  12   1.0000      -0.436164       -11.8686
  13   1.0000      -0.421461       -11.4685
  14   1.0000      -0.401775       -10.9328
  15   1.0000      -0.397315       -10.8115
  16   1.0000      -0.347741        -9.4625
  17   1.0000      -0.342412        -9.3175
  18   1.0000      -0.313175        -8.5219
  19   1.0000      -0.284134        -7.7317
  20   0.0000       0.003725         0.1013
  21   0.0000       0.025820         0.7026
  22   0.0000       0.026015         0.7079
  23   0.0000       0.030507         0.8301
  24   0.0000       0.044894         1.2216

                 SPIN DOWN ORBITALS
  NO   OCC          E(Eh)            E(eV)
   0   1.0000     -14.275855      -388.4658
   1   1.0000     -10.102807      -274.9114
   2   1.0000     -10.102715      -274.9088
   3   1.0000     -10.053338      -273.5652
   4   1.0000     -10.053207      -273.5617
   5   1.0000      -0.951217       -25.8839
   6   1.0000      -0.760012       -20.6810
   7   1.0000      -0.739511       -20.1231
   8   1.0000      -0.597344       -16.2545
   9   1.0000      -0.583021       -15.8648
  10   1.0000      -0.535598       -14.5744
  11   1.0000      -0.483214       -13.1489
  12   1.0000      -0.421290       -11.4639
  13   1.0000      -0.412290       -11.2190
  14   1.0000      -0.393738       -10.7141
  15   1.0000      -0.382142       -10.3986
  16   1.0000      -0.346785        -9.4365
  17   1.0000      -0.340879        -9.2758
  18   1.0000      -0.310132        -8.4391
  19   0.0000      -0.185177        -5.0389
  20   0.0000       0.007448         0.2027
  21   0.0000       0.028265         0.7691
  22   0.0000       0.029266         0.7964
  23   0.0000       0.032416         0.8821

MULLIKEN ATOMIC CHARGES AND SPIN POPULATIONS
--------------------------------------------
   0 C :   -0.214780   -0.040584
   1 N :    0.068145    0.827732
   2 H :    0.153082   -0.023018
   3 C :   -0.218180   -0.041254
   4 C :   -0.191110    0.001830
   5 C :   -0.195226    0.001443
   6 H :    0.125453    0.003284
   7 H :    0.203000   -0.004094
   8 H :    0.203089   -0.004031
   9 H :    0.125268    0.003239
  10 H :    0.269790    0.036188
  11 H :    0.201318    0.101453
  12 H :    0.201085    0.101328
  13 H :    0.269066    0.036485
Sum of atomic charges         :    1.0000000

LOEWDIN ATOMIC CHARGES AND SPIN POPULATIONS
-------------------------------------------
   0 C :    0.296356    0.125071
   1 N :    0.711966    0.529383
   2 H :   -0.139302    0.066563
   3 C :    0.296140    0.124950
   4 C :    0.331058    0.006124
   5 C :    0.331127    0.006069
   6 H :   -0.121970    0.001450
   7 H :   -0.120222   -0.000399
   8 H :   -0.120384   -0.000391
   9 H :   -0.121741    0.001459
  10 H :   -0.090299    0.024661
  11 H :   -0.081314    0.045124
  12 H :   -0.081104    0.045143
  13 H :   -0.090310    0.024792

  Mayer bond orders larger than 0.100000
B(  0-C ,  1-N ) :   0.8815 B(  0-C ,  5-C ) :   0.8667 B(  0-C , 12-H ) :   0.9131
B(  0-C , 13-H ) :   0.8898 B(  1-N ,  2-H ) :   0.9914 B(  1-N ,  3-C ) :   0.8803
B(  3-C ,  4-C ) :   0.8661 B(  3-C , 10-H ) :   0.8906 B(  3-C , 11-H ) :   0.9134
B(  4-C ,  5-C ) :   0.8679 B(  4-C ,  8-H ) :   0.9615 B(  4-C ,  9-H ) :   1.0068
B(  5-C ,  6-H ) :   1.0062 B(  5-C ,  7-H ) :   0.9624

Dispersion correction           -0.002898209
FINAL SINGLE POINT ENERGY      -212.353115003310

DIPOLE MOMENT
-------------

Method             : SCF
Type of density    : Electron Density
Multiplicity       :   2
Irrep              :   0
Energy             :  -212.3502167943140648 Eh
Relativity type    :
Basis              : AO
                                X                 Y                 Z
Electronic contribution:      2.505505910      -0.001097928      -0.071459853
Nuclear contribution   :     -1.068975804      -0.000388057       0.028795519
                        -----------------------------------------
Total Dipole Moment    :      1.436530106      -0.001485984      -0.042664334
                        -----------------------------------------
Magnitude (a.u.)       :      1.437164291
Magnitude (Debye)      :      3.652981320

Rotational constants in cm-1:             0.231930             0.228924             0.129807
Rotational constants in MHz :          6953.078056          6862.972212          3891.510295

                             ****ORCA TERMINATED NORMALLY****
TOTAL RUN TIME: 0 days 0 hours 1 minutes 20 seconds 855 msec
