                         Program Version 6.0.0  -   RELEASE  -
|  1> !PBE0 def2-SV(p) Opt Freq d3 TightSCF SlowConv RIJCOSX defgrid2
|  2>
|  3> %pal
|  4> nprocs 4
|  5> end
|  6>
|  7> %scf
|  8> MaxIter 1500
|  9> end
| 10>
| 11> %maxcore 3000
| 12>
| 13>
| 14>
| 15> * xyz 1 2
| 16> C     0.4734088   -1.3044429   -0.0005749
| 17> C     1.3969089   -0.2291529   -0.0002746
| 18> C     0.8755310    1.0873854   -0.0003736
| 19> C    -0.4733918    1.3044623   -0.0005996
| 20> C    -1.3968913    0.2291729   -0.0006106
| 21> C    -0.8755153   -1.0873658   -0.0007140
| 22> H    -1.5453217   -1.9315993   -0.0009777
| 23> C    -2.7921927    0.5267320   -0.0004339
| 24> C    -3.8093512   -0.3733116    0.0008044
| 25> C    -5.2277099    0.0055124    0.0011428
| 26> H    -5.7254232   -0.4330447   -0.8668657
| 27> H    -5.3699895    1.0828808   -0.0002275
| 28> H    -5.7242885   -0.4306175    0.8710353
| 29> H    -3.6068411   -1.4355197    0.0017891
| 30> H    -3.0473566    1.5793765   -0.0011091
| 31> H    -0.8538701    2.3148364   -0.0006384
| 32> H     1.5453340    1.9316214   -0.0002425
| 33> C     2.7922111   -0.5266982    0.0001592
| 34> C     3.8093521    0.3733719    0.0004417
| 35> C     5.2277203   -0.0054043    0.0009625
| 36> H     5.7246657    0.4323769    0.8698058
| 37> H     5.7250354    0.4315448   -0.8680956
| 38> H     5.3700417   -1.0827676    0.0014712
| 39> H     3.6068113    1.4355737    0.0002570
| 40> H     3.0473942   -1.5793376    0.0003137
| 41> H     0.8538869   -2.3148172   -0.0006665
| 42> *
| 43>
| 44>                          ****END OF INPUT****
 Total Charge           Charge          ....    1
 Multiplicity           Mult            ....    2
 Number of Electrons    NEL             ....   85
Dispersion correction           -0.023437790
FINAL SINGLE POINT ENERGY      -464.513336285815
Dispersion correction             ... done (  0.1 sec)
Dispersion correction           -0.023319825
FINAL SINGLE POINT ENERGY      -464.516172272318
Dispersion correction             ... done (  0.0 sec)
Dispersion correction           -0.023306843
FINAL SINGLE POINT ENERGY      -464.516238719583
Dispersion correction             ... done (  0.1 sec)
Dispersion correction           -0.023304504
FINAL SINGLE POINT ENERGY      -464.516262618730
Dispersion correction             ... done (  0.1 sec)
Dispersion correction           -0.023306633
FINAL SINGLE POINT ENERGY      -464.516264984330
Dispersion correction             ... done (  0.1 sec)
                    ***********************HURRAY********************

CARTESIAN COORDINATES (ANGSTROEM)
---------------------------------
  C      0.467145   -1.315969    0.000433
  C      1.401716   -0.237708    0.000256
  C      0.884079    1.091585    0.000041
  C     -0.467128    1.316045    0.000003
  C     -1.401701    0.237783    0.000171
  C     -0.884063   -1.091511    0.000388
  H     -1.564657   -1.945517    0.000513
  C     -2.796889    0.543945    0.000104
  C     -3.824302   -0.361867    0.000286
  C     -5.255383   -0.002433    0.000294
  H     -5.759175   -0.448138   -0.879708
  H     -5.423464    1.085523   -0.000391
  H     -5.758767   -0.446884    0.881180
  H     -3.593732   -1.434786    0.000517
  H     -3.058077    1.608991   -0.000115
  H     -0.847611    2.341194   -0.000167
  H      1.564667    1.945595   -0.000104
  C      2.796897   -0.543877    0.000291
  C      3.824316    0.361921    0.000130
  C      5.255391    0.002469    0.000171
  H      5.759048    0.447836    0.880424
  H      5.758926    0.447251   -0.880455
  H      5.423459   -1.085486    0.000504
  H      3.593763    1.434840   -0.000051
  H      3.058076   -1.608918    0.000472
  H      0.847623   -2.341115    0.000592

 Multiplicity           Mult            ....    2
 Number of Electrons    NEL             ....   85
 Basis Dimension        Dim             ....  196

ORBITAL ENERGIES
----------------
                 SPIN UP ORBITALS
  NO   OCC          E(Eh)            E(eV)
   0   1.0000     -10.428888      -283.7845
   1   1.0000     -10.428847      -283.7833
   2   1.0000     -10.419995      -283.5425
   3   1.0000     -10.419983      -283.5422
   4   1.0000     -10.403830      -283.1026
   5   1.0000     -10.403784      -283.1014
   6   1.0000     -10.401635      -283.0429
   7   1.0000     -10.401582      -283.0414
   8   1.0000     -10.400708      -283.0176
   9   1.0000     -10.400679      -283.0169
  10   1.0000     -10.361160      -281.9415
  11   1.0000     -10.361157      -281.9414
  12   1.0000      -1.055010       -28.7083
  13   1.0000      -1.002979       -27.2925
  14   1.0000      -0.971534       -26.4368
  15   1.0000      -0.935034       -25.4436
  16   1.0000      -0.928952       -25.2781
  17   1.0000      -0.875213       -23.8158
  18   1.0000      -0.829934       -22.5836
  19   1.0000      -0.799998       -21.7691
  20   1.0000      -0.771788       -21.0014
  21   1.0000      -0.734854       -19.9964
  22   1.0000      -0.719383       -19.5754
  23   1.0000      -0.688063       -18.7231
  24   1.0000      -0.655674       -17.8418
  25   1.0000      -0.647234       -17.6121
  26   1.0000      -0.614633       -16.7250
  27   1.0000      -0.598305       -16.2807
  28   1.0000      -0.592437       -16.1210
  29   1.0000      -0.578100       -15.7309
  30   1.0000      -0.574762       -15.6401
  31   1.0000      -0.570689       -15.5292
  32   1.0000      -0.569053       -15.4847
  33   1.0000      -0.558161       -15.1883
  34   1.0000      -0.537257       -14.6195
  35   1.0000      -0.528525       -14.3819
  36   1.0000      -0.522299       -14.2125
  37   1.0000      -0.515922       -14.0390
  38   1.0000      -0.503002       -13.6874
  39   1.0000      -0.500300       -13.6138
  40   1.0000      -0.436222       -11.8702
  41   1.0000      -0.435438       -11.8489
  42   1.0000      -0.383817       -10.4442
  43   0.0000      -0.227551        -6.1920
  44   0.0000      -0.162068        -4.4101
  45   0.0000      -0.147105        -4.0029
  46   0.0000      -0.080550        -2.1919
  47   0.0000      -0.059952        -1.6314

                 SPIN DOWN ORBITALS
  NO   OCC          E(Eh)            E(eV)
   0   1.0000     -10.425987      -283.7055
   1   1.0000     -10.425948      -283.7045
   2   1.0000     -10.414810      -283.4014
   3   1.0000     -10.414799      -283.4011
   4   1.0000     -10.403381      -283.0904
   5   1.0000     -10.403336      -283.0892
   6   1.0000     -10.401471      -283.0384
   7   1.0000     -10.401419      -283.0370
   8   1.0000     -10.401258      -283.0326
   9   1.0000     -10.401230      -283.0319
  10   1.0000     -10.361404      -281.9481
  11   1.0000     -10.361402      -281.9481
  12   1.0000      -1.049890       -28.5690
  13   1.0000      -0.996074       -27.1046
  14   1.0000      -0.963100       -26.2073
  15   1.0000      -0.931992       -25.3608
  16   1.0000      -0.922669       -25.1071
  17   1.0000      -0.874527       -23.7971
  18   1.0000      -0.825219       -22.4554
  19   1.0000      -0.796401       -21.6712
  20   1.0000      -0.767453       -20.8834
  21   1.0000      -0.731182       -19.8965
  22   1.0000      -0.715845       -19.4791
  23   1.0000      -0.685670       -18.6580
  24   1.0000      -0.653847       -17.7921
  25   1.0000      -0.644731       -17.5440
  26   1.0000      -0.612217       -16.6593
  27   1.0000      -0.597818       -16.2675
  28   1.0000      -0.590957       -16.0807
  29   1.0000      -0.572807       -15.5869
  30   1.0000      -0.567237       -15.4353
  31   1.0000      -0.565241       -15.3810
  32   1.0000      -0.559773       -15.2322
  33   1.0000      -0.547162       -14.8890
  34   1.0000      -0.535136       -14.5618
  35   1.0000      -0.527525       -14.3547
  36   1.0000      -0.521155       -14.1814
  37   1.0000      -0.514705       -14.0058
  38   1.0000      -0.501184       -13.6379
  39   1.0000      -0.482858       -13.1392
  40   1.0000      -0.433246       -11.7892
  41   1.0000      -0.411591       -11.2000
  42   0.0000      -0.310016        -8.4360
  43   0.0000      -0.200561        -5.4575
  44   0.0000      -0.153012        -4.1637
  45   0.0000      -0.129428        -3.5219
  46   0.0000      -0.063079        -1.7165

MULLIKEN ATOMIC CHARGES AND SPIN POPULATIONS
--------------------------------------------
   0 C :   -0.096981    0.000998
   1 C :    0.108064    0.195175
   2 C :   -0.093438    0.018693
   3 C :   -0.096951    0.001002
   4 C :    0.108078    0.195174
   5 C :   -0.093410    0.018696
   6 H :    0.135849   -0.001783
   7 C :   -0.114933   -0.052878
   8 C :   -0.105469    0.344230
   9 C :   -0.331738   -0.030760
  10 H :    0.191885    0.021183
  11 H :    0.172723    0.000283
  12 H :    0.191910    0.021211
  13 H :    0.165478   -0.016713
  14 H :    0.139424    0.001510
  15 H :    0.137203   -0.001147
  16 H :    0.135851   -0.001784
  17 C :   -0.114967   -0.052883
  18 C :   -0.105471    0.344223
  19 C :   -0.331734   -0.030760
  20 H :    0.191894    0.021192
  21 H :    0.191902    0.021201
  22 H :    0.172722    0.000283
  23 H :    0.165478   -0.016713
  24 H :    0.139428    0.001510
  25 H :    0.137204   -0.001147
Sum of atomic charges         :    1.0000000

LOEWDIN ATOMIC CHARGES AND SPIN POPULATIONS
-------------------------------------------
   0 C :   -0.077637    0.018693
   1 C :    0.021210    0.152564
   2 C :   -0.076879    0.031547
   3 C :   -0.077616    0.018697
   4 C :    0.021230    0.152561
   5 C :   -0.076857    0.031552
   6 H :    0.151280   -0.001139
   7 C :   -0.106225   -0.012729
   8 C :   -0.013477    0.284790
   9 C :   -0.336015   -0.002489
  10 H :    0.168674    0.018503
  11 H :    0.147571    0.000203
  12 H :    0.168696    0.018528
  13 H :    0.146172   -0.008300
  14 H :    0.151260    0.000548
  15 H :    0.155349   -0.000714
  16 H :    0.151282   -0.001139
  17 C :   -0.106247   -0.012734
  18 C :   -0.013484    0.284782
  19 C :   -0.336015   -0.002489
  20 H :    0.168682    0.018511
  21 H :    0.168689    0.018519
  22 H :    0.147571    0.000203
  23 H :    0.146173   -0.008300
  24 H :    0.151262    0.000547
  25 H :    0.155351   -0.000714

  Mayer bond orders larger than 0.100000
B(  0-C ,  1-C ) :   1.2112 B(  0-C ,  5-C ) :   1.5438 B(  0-C , 25-H ) :   0.9561
B(  1-C ,  2-C ) :   1.2168 B(  1-C , 17-C ) :   1.2576 B(  2-C ,  3-C ) :   1.5438
B(  2-C , 16-H ) :   0.9427 B(  3-C ,  4-C ) :   1.2112 B(  3-C , 15-H ) :   0.9561
B(  4-C ,  5-C ) :   1.2168 B(  4-C ,  7-C ) :   1.2576 B(  5-C ,  6-H ) :   0.9427
B(  7-C ,  8-C ) :   1.6205 B(  7-C , 14-H ) :   0.9305 B(  8-C ,  9-C ) :   1.1229
B(  8-C , 13-H ) :   0.9045 B(  9-C , 10-H ) :   0.9060 B(  9-C , 11-H ) :   0.9454
B(  9-C , 12-H ) :   0.9059 B( 17-C , 18-C ) :   1.6205 B( 17-C , 24-H ) :   0.9305
B( 18-C , 19-C ) :   1.1229 B( 18-C , 23-H ) :   0.9045 B( 19-C , 20-H ) :   0.9059
B( 19-C , 21-H ) :   0.9059 B( 19-C , 22-H ) :   0.9454

Dispersion correction           -0.023307623
FINAL SINGLE POINT ENERGY      -464.516265154125

DIPOLE MOMENT
-------------

Method             : SCF
Type of density    : Electron Density
Multiplicity       :   2
Irrep              :   0
Energy             :  -464.4929575316231762 Eh
Relativity type    :
Basis              : AO
                                X                 Y                 Z
Electronic contribution:     -0.000211913       0.000080592      -0.000115337
Nuclear contribution   :     -0.000009580      -0.000053351       0.000182982
                        -----------------------------------------
Total Dipole Moment    :     -0.000221492       0.000027240       0.000067646
                        -----------------------------------------
Magnitude (a.u.)       :      0.000233188
Magnitude (Debye)      :      0.000592718

VIBRATIONAL FREQUENCIES
-----------------------

Scaling factor for frequencies =  1.000000000  (already applied!)

     0:       0.00 cm**-1
     1:       0.00 cm**-1
     2:       0.00 cm**-1
     3:       0.00 cm**-1
     4:       0.00 cm**-1
     5:       0.00 cm**-1
     6:      38.50 cm**-1
     7:      99.74 cm**-1
     8:     103.77 cm**-1
     9:     115.36 cm**-1
    10:     143.91 cm**-1
    11:     178.35 cm**-1
    12:     178.60 cm**-1
    13:     189.94 cm**-1
    14:     229.51 cm**-1
    15:     293.10 cm**-1
    16:     356.33 cm**-1
    17:     357.74 cm**-1
    18:     401.34 cm**-1
    19:     435.21 cm**-1
    20:     454.66 cm**-1
    21:     536.64 cm**-1
    22:     621.49 cm**-1
    23:     632.38 cm**-1
    24:     742.37 cm**-1
    25:     805.45 cm**-1
    26:     811.16 cm**-1
    27:     825.09 cm**-1
    28:     852.06 cm**-1
    29:     866.50 cm**-1
    30:     889.46 cm**-1
    31:     955.62 cm**-1
    32:     960.92 cm**-1
    33:     973.67 cm**-1
    34:     976.99 cm**-1
    35:    1010.75 cm**-1
    36:    1016.58 cm**-1
    37:    1023.09 cm**-1
    38:    1040.87 cm**-1
    39:    1041.17 cm**-1
    40:    1143.55 cm**-1
    41:    1160.02 cm**-1
    42:    1170.32 cm**-1
    43:    1207.62 cm**-1
    44:    1261.29 cm**-1
    45:    1281.22 cm**-1
    46:    1311.21 cm**-1
    47:    1318.33 cm**-1
    48:    1351.19 cm**-1
    49:    1364.65 cm**-1
    50:    1377.67 cm**-1
    51:    1385.44 cm**-1
    52:    1385.62 cm**-1
    53:    1404.66 cm**-1
    54:    1439.60 cm**-1
    55:    1439.62 cm**-1
    56:    1465.97 cm**-1
    57:    1466.67 cm**-1
    58:    1537.95 cm**-1
    59:    1550.05 cm**-1
    60:    1551.73 cm**-1
    61:    1620.33 cm**-1
    62:    1671.12 cm**-1
    63:    1706.35 cm**-1
    64:    3020.77 cm**-1
    65:    3021.13 cm**-1
    66:    3091.57 cm**-1
    67:    3091.59 cm**-1
    68:    3161.93 cm**-1
    69:    3162.14 cm**-1
    70:    3181.36 cm**-1
    71:    3181.51 cm**-1
    72:    3190.80 cm**-1
    73:    3191.00 cm**-1
    74:    3216.59 cm**-1
    75:    3218.10 cm**-1
    76:    3236.65 cm**-1
    77:    3237.62 cm**-1

IR SPECTRUM
-----------

 Mode   freq       eps      Int      T**2         TX        TY        TZ
       cm**-1   L/(mol*cm) km/mol    a.u.
----------------------------------------------------------------------------
  6:     38.50   0.000285    1.44  0.002311  ( 0.000002  0.000007  0.048077)
  7:     99.74   0.000000    0.00  0.000000  (-0.000000 -0.000002  0.000002)
  8:    103.77   0.000052    0.26  0.000155  ( 0.000250  0.012443 -0.000004)
  9:    115.36   0.000140    0.71  0.000379  ( 0.000013 -0.000013 -0.019456)
 10:    143.91   0.000000    0.00  0.000000  ( 0.000000 -0.000009  0.000004)
 11:    178.35   0.000000    0.00  0.000000  (-0.000001  0.000000  0.000401)
 12:    178.60   0.000769    3.88  0.001343  ( 0.000015 -0.000040 -0.036645)
 13:    189.94   0.000000    0.00  0.000000  ( 0.000010 -0.000017 -0.000032)
 14:    229.51   0.000006    0.03  0.000009  (-0.000008  0.000025  0.002957)
 15:    293.10   0.000000    0.00  0.000000  ( 0.000002 -0.000001 -0.000001)
 16:    356.33   0.000000    0.00  0.000000  ( 0.000003  0.000002 -0.000004)
 17:    357.74   0.000000    0.00  0.000000  (-0.000223 -0.000243  0.000002)
 18:    401.34   0.000000    0.00  0.000000  (-0.000000  0.000006 -0.000599)
 19:    435.21   0.000000    0.00  0.000000  ( 0.000005 -0.000000  0.000002)
 20:    454.66   0.000178    0.90  0.000122  (-0.010310  0.003966 -0.000001)
 21:    536.64   0.002326   11.75  0.001353  ( 0.000006  0.000015  0.036778)
 22:    621.49   0.000000    0.00  0.000000  ( 0.000001 -0.000000 -0.000001)
 23:    632.38   0.000000    0.00  0.000000  ( 0.000003  0.000000 -0.000000)
 24:    742.37   0.000000    0.00  0.000000  (-0.000021 -0.000005 -0.000009)
 25:    805.45   0.005438   27.48  0.002107  (-0.000153 -0.000031  0.045901)
 26:    811.16   0.007003   35.39  0.002694  ( 0.050633  0.011414  0.000083)
 27:    825.09   0.000000    0.00  0.000000  (-0.000006 -0.000000  0.000011)
 28:    852.06   0.000000    0.00  0.000000  (-0.000025 -0.000006  0.000027)
 29:    866.50   0.000000    0.00  0.000000  ( 0.000012  0.000000  0.000006)
 30:    889.46   0.002466   12.46  0.000865  ( 0.000049  0.000021  0.029417)
 31:    955.62   0.000000    0.00  0.000000  (-0.000058 -0.000019 -0.000023)
 32:    960.92   0.019095   96.50  0.006201  (-0.074071 -0.026734  0.000058)
 33:    973.67   0.000001    0.01  0.000000  (-0.000041 -0.000016  0.000598)
 34:    976.99   0.010604   53.59  0.003387  ( 0.000045  0.000027  0.058199)
 35:   1010.75   0.009435   47.68  0.002913  (-0.053957 -0.001244  0.000015)
 36:   1016.58   0.000397    2.00  0.000122  (-0.000052 -0.000014 -0.011034)
 37:   1023.09   0.000000    0.00  0.000000  (-0.000008 -0.000001 -0.000034)
 38:   1040.87   0.000004    0.02  0.000001  ( 0.000039  0.000002  0.001034)
 39:   1041.17   0.000845    4.27  0.000253  (-0.000080  0.000007  0.015915)
 40:   1143.55   0.000721    3.64  0.000197  (-0.000005 -0.014028  0.000005)
 41:   1160.02   0.000000    0.00  0.000000  ( 0.000001  0.000005 -0.000003)
 42:   1170.32   0.001132    5.72  0.000302  ( 0.012722 -0.011832 -0.000002)
 43:   1207.62   0.000000    0.00  0.000000  (-0.000003  0.000001 -0.000000)
 44:   1261.29   0.001052    5.32  0.000260  ( 0.015049 -0.005820  0.000002)
 45:   1281.22   0.000000    0.00  0.000000  ( 0.000026 -0.000003  0.000001)
 46:   1311.21   0.115209  582.22  0.027419  (-0.164655 -0.017550  0.000009)
 47:   1318.33   0.000001    0.00  0.000000  ( 0.000347  0.000034 -0.000001)
 48:   1351.19   0.000000    0.00  0.000000  (-0.000022  0.000005  0.000001)
 49:   1364.65   0.004119   20.81  0.000942  (-0.029544 -0.008310  0.000004)
 50:   1377.67   0.000000    0.00  0.000000  ( 0.000035  0.000005  0.000001)
 51:   1385.44   0.006423   32.46  0.001447  (-0.037694 -0.005086  0.000028)
 52:   1385.62   0.000049    0.25  0.000011  ( 0.003309  0.000446 -0.000019)
 53:   1404.66   0.039902  201.65  0.008865  ( 0.093199  0.013368 -0.000009)
 54:   1439.60   0.004332   21.89  0.000939  (-0.000006 -0.000021 -0.030642)
 55:   1439.62   0.003071   15.52  0.000666  ( 0.000011  0.000042  0.025799)
 56:   1465.97   0.034686  175.29  0.007384  (-0.077583 -0.036939  0.000037)
 57:   1466.67   0.000007    0.04  0.000002  (-0.001111 -0.000529  0.000018)
 58:   1537.95   0.002139   10.81  0.000434  ( 0.005999  0.019952 -0.000002)
 59:   1550.05   0.035794  180.89  0.007206  ( 0.083482  0.015397 -0.000003)
 60:   1551.73   0.000000    0.00  0.000000  (-0.000183 -0.000036  0.000000)
 61:   1620.33   0.444530  2246.47  0.085613  (-0.292023  0.018334 -0.000001)
 62:   1671.12   0.000000    0.00  0.000000  ( 0.000007  0.000000  0.000000)
 63:   1706.35   0.000000    0.00  0.000000  (-0.000003  0.000001 -0.000000)
 64:   3020.77   0.017240   87.12  0.001781  ( 0.042113  0.002732 -0.000011)
 65:   3021.13   0.000022    0.11  0.000002  (-0.001495 -0.000097 -0.000004)
 66:   3091.57   0.000207    1.04  0.000021  (-0.000008  0.000006  0.004566)
 67:   3091.59   0.000384    1.94  0.000039  ( 0.000002 -0.000004 -0.006226)
 68:   3161.93   0.008085   40.86  0.000798  ( 0.028091 -0.002979  0.000001)
 69:   3162.14   0.000047    0.24  0.000005  (-0.002137  0.000226  0.000000)
 70:   3181.36   0.000355    1.79  0.000035  ( 0.005893  0.000271 -0.000000)
 71:   3181.51   0.000020    0.10  0.000002  (-0.001412 -0.000072  0.000000)
 72:   3190.80   0.001748    8.84  0.000171  ( 0.011332 -0.006526  0.000001)
 73:   3191.00   0.000018    0.09  0.000002  (-0.001143  0.000651 -0.000000)
 74:   3216.59   0.000083    0.42  0.000008  ( 0.002391  0.001541 -0.000000)
 75:   3218.10   0.000000    0.00  0.000000  (-0.000028 -0.000020 -0.000000)
 76:   3236.65   0.000007    0.03  0.000001  (-0.000094  0.000803 -0.000000)
 77:   3237.62   0.000000    0.00  0.000000  (-0.000001  0.000005 -0.000000)

--------------------------
THERMOCHEMISTRY AT 298.15K
--------------------------

Temperature         ...   298.15 K
Pressure            ...     1.00 atm
Total Mass          ...   158.24 AMU
Quasi RRHO          ...     True
Cut-Off Frequency   ...     1.00 cm^-1

Throughout the following assumptions are being made:
  (1) The electronic state is orbitally nondegenerate
      but the spin degeneracy is treated
  (2) There are no thermally accessible electronically excited states
  (3) Hindered rotations indicated by low frequency modes are not
      treated as such but are treated as vibrations and this may
      cause some error
  (4) All equations used are the standard statistical mechanics
      equations for an ideal gas
  (5) All vibrations are strictly harmonic

freq.      38.50  E(vib)   ...       0.54
freq.      99.74  E(vib)   ...       0.46
freq.     103.77  E(vib)   ...       0.46
freq.     115.36  E(vib)   ...       0.44
freq.     143.91  E(vib)   ...       0.41
freq.     178.35  E(vib)   ...       0.37
freq.     178.60  E(vib)   ...       0.37
freq.     189.94  E(vib)   ...       0.36
freq.     229.51  E(vib)   ...       0.32
freq.     293.10  E(vib)   ...       0.27
freq.     356.33  E(vib)   ...       0.22
freq.     357.74  E(vib)   ...       0.22
freq.     401.34  E(vib)   ...       0.19
freq.     435.21  E(vib)   ...       0.17
freq.     454.66  E(vib)   ...       0.16
freq.     536.64  E(vib)   ...       0.12
freq.     621.49  E(vib)   ...       0.09
freq.     632.38  E(vib)   ...       0.09
freq.     742.37  E(vib)   ...       0.06
freq.     805.45  E(vib)   ...       0.05
freq.     811.16  E(vib)   ...       0.05
freq.     825.09  E(vib)   ...       0.04
freq.     852.06  E(vib)   ...       0.04
freq.     866.50  E(vib)   ...       0.04
freq.     889.46  E(vib)   ...       0.04
freq.     955.62  E(vib)   ...       0.03
freq.     960.92  E(vib)   ...       0.03
freq.     973.67  E(vib)   ...       0.03
freq.     976.99  E(vib)   ...       0.03
freq.    1010.75  E(vib)   ...       0.02
freq.    1016.58  E(vib)   ...       0.02
freq.    1023.09  E(vib)   ...       0.02
freq.    1040.87  E(vib)   ...       0.02
freq.    1041.17  E(vib)   ...       0.02
freq.    1143.55  E(vib)   ...       0.01
freq.    1160.02  E(vib)   ...       0.01
freq.    1170.32  E(vib)   ...       0.01
freq.    1207.62  E(vib)   ...       0.01
freq.    1261.29  E(vib)   ...       0.01
freq.    1281.22  E(vib)   ...       0.01
freq.    1311.21  E(vib)   ...       0.01
freq.    1318.33  E(vib)   ...       0.01
freq.    1351.19  E(vib)   ...       0.01
freq.    1364.65  E(vib)   ...       0.01
freq.    1377.67  E(vib)   ...       0.01
freq.    1385.44  E(vib)   ...       0.00
freq.    1385.62  E(vib)   ...       0.00
freq.    1404.66  E(vib)   ...       0.00
freq.    1439.60  E(vib)   ...       0.00
freq.    1439.62  E(vib)   ...       0.00
freq.    1465.97  E(vib)   ...       0.00
freq.    1466.67  E(vib)   ...       0.00
freq.    1537.95  E(vib)   ...       0.00
freq.    1550.05  E(vib)   ...       0.00
freq.    1551.73  E(vib)   ...       0.00
freq.    1620.33  E(vib)   ...       0.00
freq.    1671.12  E(vib)   ...       0.00
freq.    1706.35  E(vib)   ...       0.00
freq.    3020.77  E(vib)   ...       0.00
freq.    3021.13  E(vib)   ...       0.00
freq.    3091.57  E(vib)   ...       0.00
freq.    3091.59  E(vib)   ...       0.00
freq.    3161.93  E(vib)   ...       0.00
freq.    3162.14  E(vib)   ...       0.00
freq.    3181.36  E(vib)   ...       0.00
freq.    3181.51  E(vib)   ...       0.00
freq.    3190.80  E(vib)   ...       0.00
freq.    3191.00  E(vib)   ...       0.00
freq.    3216.59  E(vib)   ...       0.00
freq.    3218.10  E(vib)   ...       0.00
freq.    3236.65  E(vib)   ...       0.00
freq.    3237.62  E(vib)   ...       0.00

------------
INNER ENERGY
------------

The inner energy is: U= E(el) + E(ZPE) + E(vib) + E(rot) + E(trans)
    E(el)   - is the total energy from the electronic structure calculation
              = E(kin-el) + E(nuc-el) + E(el-el) + E(nuc-nuc)
    E(ZPE)  - the the zero temperature vibrational energy from the frequency calculation
    E(vib)  - the the finite temperature correction to E(ZPE) due to population
              of excited vibrational states
    E(rot)  - is the rotational thermal energy
    E(trans)- is the translational thermal energy

Summary of contributions to the inner energy U:
Electronic energy                ...   -464.51626515 Eh
Zero point energy                ...      0.22310829 Eh     140.00 kcal/mol
Thermal vibrational correction   ...      0.00948623 Eh       5.95 kcal/mol
Thermal rotational correction    ...      0.00141627 Eh       0.89 kcal/mol
Thermal translational correction ...      0.00141627 Eh       0.89 kcal/mol
-----------------------------------------------------------------------
Total thermal energy                   -464.28083810 Eh

Summary of corrections to the electronic energy:
(perhaps to be used in another calculation)
Total thermal correction                  0.01231877 Eh       7.73 kcal/mol
Non-thermal (ZPE) correction              0.22310829 Eh     140.00 kcal/mol
-----------------------------------------------------------------------
Total correction                          0.23542706 Eh     147.73 kcal/mol

--------
ENTHALPY
--------

The enthalpy is H = U + kB*T
                kB is Boltzmann's constant
Total thermal energy              ...   -464.28083810 Eh
Thermal Enthalpy correction       ...      0.00094421 Eh       0.59 kcal/mol
-----------------------------------------------------------------------
Total Enthalpy                    ...   -464.27989389 Eh

Note: Only C1 symmetry has been detected, increase convergence thresholds
      if your molecule has a higher symmetry. Symmetry factor of 1.0 is
      used for the rotational entropy correction.

Note: Rotational entropy computed according to Herzberg
Infrared and Raman Spectra, Chapter V,1, Van Nostrand Reinhold, 1945
Point Group:  C1, Symmetry Number:   1
Rotational constants in cm-1:     0.145084     0.011081     0.010334

Vibrational entropy computed according to the QRRHO of S. Grimme
Chem.Eur.J. 2012 18 9955 using a reference frequency of 100.0 cm-1

-------
ENTROPY
-------

The entropy contributions are T*S = T*(S(el)+S(vib)+S(rot)+S(trans))
     S(el)   - electronic entropy
     S(vib)  - vibrational entropy
     S(rot)  - rotational entropy
     S(trans)- translational entropy
The entropies will be listed as multiplied by the temperature to get
units of energy

                             ****ORCA TERMINATED NORMALLY****
TOTAL RUN TIME: 0 days 0 hours 12 minutes 20 seconds 431 msec
