                         Program Version 6.0.0  -   RELEASE  -
|  1> !PBE0 aug-cc-pVTZ d3 TightSCF SlowConv RIJCOSX defgrid2
|  2>
|  3> %pal
|  4> nprocs 4
|  5> end
|  6>
|  7> %scf
|  8> MaxIter 1500
|  9> end
| 10>
| 11> %maxcore 3000
| 12>
| 13> !CPCM
| 14> %cpcm smd true
| 15> SMDsolvent "MeCN"
| 16> surfacetype gepol_ses
| 17> rsolv 2.19
| 18> end
| 19>
| 20> * xyz 1 2
| 21> C           0.76309641907195     -1.16293983433003      0.23718381873604
| 22> C          -0.76304171601446     -1.16296952747842     -0.23724555362178
| 23> H          -1.27590174641137     -2.02340834769785      0.21800270990120
| 24> H          -0.77362876837767     -1.19896716686552     -1.34057732579590
| 25> O          -1.30210126379069     -0.00003866110666      0.26158364977248
| 26> C          -0.76310446688411      1.16294442598402     -0.23720418219692
| 27> C           0.76303513090937      1.16298601934474      0.23722214632434
| 28> H           1.27589626879449      2.02341629109980     -0.21804063751063
| 29> H           0.77362940968102      1.19899371952034      1.34055360051981
| 30> O           1.30210147370824      0.00004813344550     -0.26159746316919
| 31> H          -1.27602354622748      2.02334978586835      0.21803685187514
| 32> H          -0.77366667806753      1.19894468683083     -1.34053597047731
| 33> H           1.27601869897724     -2.02334025573413     -0.21806265273971
| 34> H           0.77366218463101     -1.19894196888098      1.34051380838241
| 35> *
| 36>
| 37>                          ****END OF INPUT****

CARTESIAN COORDINATES (ANGSTROEM)
---------------------------------
  C      0.763096   -1.162940    0.237184
  C     -0.763042   -1.162970   -0.237246
  H     -1.275902   -2.023408    0.218003
  H     -0.773629   -1.198967   -1.340577
  O     -1.302101   -0.000039    0.261584
  C     -0.763104    1.162944   -0.237204
  C      0.763035    1.162986    0.237222
  H      1.275896    2.023416   -0.218041
  H      0.773629    1.198994    1.340554
  O      1.302101    0.000048   -0.261597
  H     -1.276024    2.023350    0.218037
  H     -0.773667    1.198945   -1.340536
  H      1.276019   -2.023340   -0.218063
  H      0.773662   -1.198942    1.340514

 Total Charge           Charge          ....    1
 Multiplicity           Mult            ....    2
 Number of Electrons    NEL             ....   47
 Basis Dimension        Dim             ....  460

ORBITAL ENERGIES
----------------
                 SPIN UP ORBITALS
  NO   OCC          E(Eh)            E(eV)
   0   1.0000     -19.325615      -525.8767
   1   1.0000     -19.325613      -525.8767
   2   1.0000     -10.329612      -281.0830
   3   1.0000     -10.329611      -281.0830
   4   1.0000     -10.329431      -281.0781
   5   1.0000     -10.329427      -281.0780
   6   1.0000      -1.199951       -32.6523
   7   1.0000      -1.160972       -31.5916
   8   1.0000      -0.865138       -23.5416
   9   1.0000      -0.762373       -20.7452
  10   1.0000      -0.758150       -20.6303
  11   1.0000      -0.650599       -17.7037
  12   1.0000      -0.595619       -16.2076
  13   1.0000      -0.575977       -15.6731
  14   1.0000      -0.548155       -14.9161
  15   1.0000      -0.543603       -14.7922
  16   1.0000      -0.541758       -14.7420
  17   1.0000      -0.478957       -13.0331
  18   1.0000      -0.449590       -12.2340
  19   1.0000      -0.438701       -11.9377
  20   1.0000      -0.419216       -11.4074
  21   1.0000      -0.387458       -10.5433
  22   1.0000      -0.378487       -10.2992
  23   1.0000      -0.318533        -8.6677
  24   0.0000       0.001520         0.0413
  25   0.0000       0.013789         0.3752
  26   0.0000       0.016047         0.4367
  27   0.0000       0.018759         0.5104
  28   0.0000       0.032440         0.8827

                 SPIN DOWN ORBITALS
  NO   OCC          E(Eh)            E(eV)
   0   1.0000     -19.316377      -525.6253
   1   1.0000     -19.316373      -525.6252
   2   1.0000     -10.327882      -281.0360
   3   1.0000     -10.327879      -281.0359
   4   1.0000     -10.327737      -281.0320
   5   1.0000     -10.327729      -281.0318
   6   1.0000      -1.183397       -32.2019
   7   1.0000      -1.142391       -31.0860
   8   1.0000      -0.855999       -23.2929
   9   1.0000      -0.757289       -20.6069
  10   1.0000      -0.739434       -20.1210
  11   1.0000      -0.642338       -17.4789
  12   1.0000      -0.579158       -15.7597
  13   1.0000      -0.566677       -15.4201
  14   1.0000      -0.543732       -14.7957
  15   1.0000      -0.538503       -14.6534
  16   1.0000      -0.523690       -14.2503
  17   1.0000      -0.437365       -11.9013
  18   1.0000      -0.435498       -11.8505
  19   1.0000      -0.434974       -11.8362
  20   1.0000      -0.405634       -11.0379
  21   1.0000      -0.372440       -10.1346
  22   1.0000      -0.356792        -9.7088
  23   0.0000      -0.206736        -5.6256
  24   0.0000       0.003015         0.0820
  25   0.0000       0.015121         0.4115
  26   0.0000       0.016944         0.4611
  27   0.0000       0.019538         0.5317

MULLIKEN ATOMIC CHARGES AND SPIN POPULATIONS
--------------------------------------------
   0 C :   -0.155812    0.071658
   1 C :   -0.155788    0.071670
   2 H :    0.306678    0.011649
   3 H :    0.281486    0.012834
   4 O :   -0.364840    0.307698
   5 C :   -0.155771    0.071623
   6 C :   -0.155881    0.071648
   7 H :    0.306620    0.011732
   8 H :    0.281593    0.012784
   9 O :   -0.364819    0.307691
  10 H :    0.306668    0.011714
  11 H :    0.281622    0.012802
  12 H :    0.306581    0.011683
  13 H :    0.281664    0.012815
Sum of atomic charges         :    1.0000000

LOEWDIN ATOMIC CHARGES AND SPIN POPULATIONS
-------------------------------------------
   0 C :    0.135028    0.095947
   1 C :    0.135019    0.095947
   2 H :   -0.109363    0.014256
   3 H :   -0.112144    0.013473
   4 O :    0.672972    0.252648
   5 C :    0.135025    0.095947
   6 C :    0.135023    0.095947
   7 H :   -0.109364    0.014256
   8 H :   -0.112144    0.013473
   9 O :    0.672971    0.252650
  10 H :   -0.109362    0.014256
  11 H :   -0.112148    0.013472
  12 H :   -0.109362    0.014256
  13 H :   -0.112150    0.013472

  Mayer bond orders larger than 0.100000
B(  0-C ,  1-C ) :   0.8810 B(  0-C ,  6-C ) :   0.1173 B(  0-C ,  9-O ) :   0.9453
B(  0-C , 12-H ) :   0.8859 B(  0-C , 13-H ) :   0.8809 B(  1-C ,  2-H ) :   0.8858
B(  1-C ,  3-H ) :   0.8810 B(  1-C ,  4-O ) :   0.9454 B(  1-C ,  5-C ) :   0.1173
B(  4-O ,  5-C ) :   0.9454 B(  4-O ,  9-O ) :   0.1307 B(  5-C ,  6-C ) :   0.8810
B(  5-C , 10-H ) :   0.8858 B(  5-C , 11-H ) :   0.8809 B(  6-C ,  7-H ) :   0.8858
B(  6-C ,  8-H ) :   0.8810 B(  6-C ,  9-O ) :   0.9454

Dispersion correction           -0.008941869
FINAL SINGLE POINT ENERGY      -307.212545653899

DIPOLE MOMENT
-------------

Method             : SCF
Type of density    : Electron Density
Multiplicity       :   2
Irrep              :   0
Energy             :  -307.2036037853437165 Eh
Relativity type    :
Basis              : AO
                                X                 Y                 Z
Electronic contribution:     -0.000013260      -0.000004650       0.000022464
Nuclear contribution   :      0.000002668       0.000005347      -0.000029732
                        -----------------------------------------
Total Dipole Moment    :     -0.000010591       0.000000697      -0.000007268
                        -----------------------------------------
Magnitude (a.u.)       :      0.000012864
Magnitude (Debye)      :      0.000032697

Rotational constants in cm-1:             0.169249             0.162821             0.094443
Rotational constants in MHz :          5073.947219          4881.263290          2831.336454

                             ****ORCA TERMINATED NORMALLY****
TOTAL RUN TIME: 0 days 0 hours 2 minutes 48 seconds 387 msec
