                         Program Version 6.0.0  -   RELEASE  -
|  1> !PBE0 aug-cc-pVTZ d3 TightSCF SlowConv RIJCOSX defgrid2
|  2>
|  3> %pal
|  4> nprocs 15
|  5> end
|  6>
|  7> %scf
|  8> MaxIter 1500
|  9> end
| 10>
| 11> %maxcore 3500
| 12>
| 13> !CPCM
| 14> %cpcm smd true
| 15> SMDsolvent "WATER"
| 16> surfacetype gepol_ses
| 17> rsolv 1.40
| 18> end
| 19>
| 20> * xyz 1 1
| 21> O           1.67418114371668      3.37941862349945      1.15434517451953
| 22> N           2.62064316767579      2.68353532320648      1.21821077363263
| 23> C           3.73993026379150      2.91054121006730      0.20970750682041
| 24> C           4.36130392564807      1.55615394201201     -0.16493097978128
| 25> C           4.62693950470140      0.69901335740602      1.05364249756333
| 26> C           3.36304153274566      0.38280475677984      1.82347271406070
| 27> C           2.67247724345731      1.65441275633349      2.34006156392482
| 28> C           4.77144659115805      3.82229180911963      0.90254364472309
| 29> C           3.13466064770778      3.61114644043461     -0.99676243427434
| 30> C           3.47911508845757      2.30037383127262      3.48367565566839
| 31> C           1.24267102320542      1.38466686141498      2.78223585653897
| 32> H           5.30435815962353      1.74905887837014     -0.69848543170310
| 33> H           3.68229748767712      1.01484427915689     -0.84850427599189
| 34> H           3.60305334396738     -0.25238254910522      2.68961476485432
| 35> H           2.66820679637278     -0.17392576731557      1.16878669341899
| 36> H           4.29271611598733      4.70860976879227      1.34923722277333
| 37> H           5.37253037929227      3.29729158675115      1.65830335398642
| 38> H           5.45774493444870      4.16825914256566      0.11223951897270
| 39> H           2.78695679630107      4.62736503748115     -0.75666206631619
| 40> H           2.29625873974227      3.03524814826618     -1.42272318664526
| 41> H           3.92087891841351      3.68882501387840     -1.76468511803900
| 42> H           3.10731631344064      3.31044562450783      3.71967690908610
| 43> H           4.55901147845801      2.33249422618085      3.28233095765611
| 44> H           3.32267627795631      1.66477199454961      4.37074941627309
| 45> H           0.78000313618024      2.26411165418521      3.25536747289543
| 46> H           0.61113911289273      1.05517880381548      1.94035363615987
| 47> H           1.27425600304513      0.57114720607980      3.52446186259019
| 48> O           5.72044769993566      0.34198636029372      1.39209682163264
| 49> *
| 50>
| 51>                          ****END OF INPUT****

CARTESIAN COORDINATES (ANGSTROEM)
---------------------------------
  O      1.674181    3.379419    1.154345
  N      2.620643    2.683535    1.218211
  C      3.739930    2.910541    0.209708
  C      4.361304    1.556154   -0.164931
  C      4.626940    0.699013    1.053642
  C      3.363042    0.382805    1.823473
  C      2.672477    1.654413    2.340062
  C      4.771447    3.822292    0.902544
  C      3.134661    3.611146   -0.996762
  C      3.479115    2.300374    3.483676
  C      1.242671    1.384667    2.782236
  H      5.304358    1.749059   -0.698485
  H      3.682297    1.014844   -0.848504
  H      3.603053   -0.252383    2.689615
  H      2.668207   -0.173926    1.168787
  H      4.292716    4.708610    1.349237
  H      5.372530    3.297292    1.658303
  H      5.457745    4.168259    0.112240
  H      2.786957    4.627365   -0.756662
  H      2.296259    3.035248   -1.422723
  H      3.920879    3.688825   -1.764685
  H      3.107316    3.310446    3.719677
  H      4.559011    2.332494    3.282331
  H      3.322676    1.664772    4.370749
  H      0.780003    2.264112    3.255367
  H      0.611139    1.055179    1.940354
  H      1.274256    0.571147    3.524462
  O      5.720448    0.341986    1.392097

 Total Charge           Charge          ....    1
 Multiplicity           Mult            ....    1
 Number of Electrons    NEL             ....   92
 Basis Dimension        Dim             ....  920

ORBITAL ENERGIES
----------------

  NO   OCC          E(Eh)            E(eV)
   0   2.0000     -19.355950      -526.7022
   1   2.0000     -19.232930      -523.3546
   2   2.0000     -14.635805      -398.2605
   3   2.0000     -10.344577      -281.4902
   4   2.0000     -10.335734      -281.2496
   5   2.0000     -10.335710      -281.2490
   6   2.0000     -10.257885      -279.1312
   7   2.0000     -10.257875      -279.1310
   8   2.0000     -10.246447      -278.8200
   9   2.0000     -10.246382      -278.8182
  10   2.0000     -10.235961      -278.5347
  11   2.0000     -10.235926      -278.5337
  12   2.0000      -1.312205       -35.7069
  13   2.0000      -1.113444       -30.2984
  14   2.0000      -0.959187       -26.1008
  15   2.0000      -0.895458       -24.3667
  16   2.0000      -0.812262       -22.1028
  17   2.0000      -0.781875       -21.2759
  18   2.0000      -0.745715       -20.2919
  19   2.0000      -0.742801       -20.2126
  20   2.0000      -0.731911       -19.9163
  21   2.0000      -0.680842       -18.5267
  22   2.0000      -0.628823       -17.1111
  23   2.0000      -0.602949       -16.4071
  24   2.0000      -0.581389       -15.8204
  25   2.0000      -0.560549       -15.2533
  26   2.0000      -0.537120       -14.6158
  27   2.0000      -0.508904       -13.8480
  28   2.0000      -0.502960       -13.6862
  29   2.0000      -0.492727       -13.4078
  30   2.0000      -0.471744       -12.8368
  31   2.0000      -0.462249       -12.5784
  32   2.0000      -0.441314       -12.0088
  33   2.0000      -0.440839       -11.9959
  34   2.0000      -0.431350       -11.7376
  35   2.0000      -0.430470       -11.7137
  36   2.0000      -0.415617       -11.3095
  37   2.0000      -0.407859       -11.0984
  38   2.0000      -0.404294       -11.0014
  39   2.0000      -0.402330       -10.9480
  40   2.0000      -0.390726       -10.6322
  41   2.0000      -0.383185       -10.4270
  42   2.0000      -0.381146       -10.3715
  43   2.0000      -0.375895       -10.2286
  44   2.0000      -0.351025        -9.5519
  45   2.0000      -0.292344        -7.9551
  46   0.0000      -0.163518        -4.4495
  47   0.0000      -0.046879        -1.2756
  48   0.0000       0.000637         0.0173
  49   0.0000       0.013249         0.3605
  50   0.0000       0.015669         0.4264

MULLIKEN ATOMIC CHARGES
-----------------------
   0 O :   -0.857808
   1 N :    0.728694
   2 C :    1.698428
   3 C :   -0.561591
   4 C :    1.240525
   5 C :   -0.565742
   6 C :    1.645539
   7 C :   -0.994158
   8 C :   -1.264804
   9 C :   -0.982510
  10 C :   -1.272326
  11 H :    0.163222
  12 H :    0.242324
  13 H :    0.156437
  14 H :    0.251375
  15 H :    0.238766
  16 H :    0.291883
  17 H :    0.064760
  18 H :    0.224047
  19 H :    0.248444
  20 H :    0.199799
  21 H :    0.238651
  22 H :    0.288183
  23 H :    0.066830
  24 H :    0.225034
  25 H :    0.242072
  26 H :    0.204577
  27 O :   -1.160650
Sum of atomic charges:    1.0000000

LOEWDIN ATOMIC CHARGES
----------------------
   0 O :    0.665811
   1 N :    0.015804
   2 C :   -0.373597
   3 C :    0.326468
   4 C :   -0.508424
   5 C :    0.326477
   6 C :   -0.373898
   7 C :    0.630931
   8 C :    0.594254
   9 C :    0.630975
  10 C :    0.594338
  11 H :   -0.113946
  12 H :   -0.102947
  13 H :   -0.113736
  14 H :   -0.102907
  15 H :   -0.119210
  16 H :   -0.163074
  17 H :   -0.119141
  18 H :   -0.143503
  19 H :   -0.131161
  20 H :   -0.127026
  21 H :   -0.119378
  22 H :   -0.163423
  23 H :   -0.118910
  24 H :   -0.143218
  25 H :   -0.131055
  26 H :   -0.127302
  27 O :    0.510801

  Mayer bond orders larger than 0.100000
B(  0-O ,  1-N ) :   0.7248 B(  1-N ,  2-C ) :   0.7498 B(  1-N ,  3-C ) :   0.1634
B(  1-N ,  5-C ) :   0.1610 B(  1-N ,  6-C ) :   0.7735 B(  1-N ,  7-C ) :   0.1138
B(  1-N , 10-C ) :  -0.1028 B(  2-C ,  3-C ) :   0.5884 B(  2-C ,  6-C ) :   0.1219
B(  2-C ,  7-C ) :   0.3775 B(  2-C ,  8-C ) :   0.2901 B(  3-C ,  4-C ) :   0.9087
B(  3-C ,  5-C ) :   0.1320 B(  3-C , 11-H ) :   0.9087 B(  3-C , 12-H ) :   0.9427
B(  3-C , 27-O ) :   0.2271 B(  4-C ,  5-C ) :   0.9008 B(  4-C , 27-O ) :   0.1094
B(  5-C ,  6-C ) :   0.5729 B(  5-C , 13-H ) :   0.9208 B(  5-C , 14-H ) :   0.9393
B(  5-C , 27-O ) :   0.2321 B(  6-C ,  9-C ) :   0.4137 B(  6-C , 10-C ) :   0.3124
B(  7-C ,  8-C ) :   0.1197 B(  7-C , 15-H ) :   0.9392 B(  7-C , 16-H ) :   0.8862
B(  7-C , 17-H ) :   1.1572 B(  8-C , 18-H ) :   0.9846 B(  8-C , 19-H ) :   0.9919
B(  8-C , 20-H ) :   1.0358 B(  9-C , 10-C ) :   0.1083 B(  9-C , 21-H ) :   0.9380
B(  9-C , 22-H ) :   0.8951 B(  9-C , 23-H ) :   1.1492 B( 10-C , 24-H ) :   0.9821
B( 10-C , 25-H ) :   1.0048 B( 10-C , 26-H ) :   1.0286

Dispersion correction           -0.028564061
FINAL SINGLE POINT ENERGY      -557.130922870067

DIPOLE MOMENT
-------------

Method             : SCF
Type of density    : Electron Density
Multiplicity       :   1
Irrep              :   0
Energy             :  -557.1023588087451799 Eh
Relativity type    :
Basis              : AO
                                X                 Y                 Z
Electronic contribution:      0.260354904      -2.654440384      -1.426175827
Nuclear contribution   :     -1.867094982       3.503684408       1.120844434
                        -----------------------------------------
Total Dipole Moment    :     -1.606740078       0.849244023      -0.305331393
                        -----------------------------------------
Magnitude (a.u.)       :      1.842839209
Magnitude (Debye)      :      4.684125015

Rotational constants in cm-1:             0.036291             0.035500             0.023692
Rotational constants in MHz :          1087.981132          1064.262103           710.263902

                             ****ORCA TERMINATED NORMALLY****
TOTAL RUN TIME: 0 days 0 hours 5 minutes 50 seconds 802 msec
