                         Program Version 6.0.0  -   RELEASE  -
|  1> !B3LYP freq aug-cc-pVTZ d3 TightSCF SlowConv RIJCOSX defgrid2
|  2>
|  3> %pal
|  4> nprocs 12
|  5>
|  6> end
|  7>
|  8> %scf
|  9> MaxIter 1500
| 10> end
| 11>
| 12> %maxcore 5000
| 13>
| 14> !CPCM
| 15> %cpcm smd true
| 16> SMDsolvent "MeCN"
| 17> surfacetype gepol_ses
| 18> rsolv 2.19
| 19> end
| 20>
| 21> * xyz 0 1
| 22> C           1.34350916887717     -0.00321633613519     -0.22066574752113
| 23> C           0.75366377893546      1.26088475795771     -0.16815315970948
| 24> C          -0.62136582475381      1.38649754841174     -0.07338815388678
| 25> C          -1.43664672662495      0.25298421490777     -0.03358256310216
| 26> C          -0.85184256271730     -1.01068030599245     -0.08893227761483
| 27> C           0.53194187624826     -1.13076017547405     -0.17972231589544
| 28> H           0.96870155739771     -2.11999580941880     -0.21736872529795
| 29> H          -1.45324756476880     -1.90556315646537     -0.06029859075009
| 30> O          -2.77548138474734      0.47734959087699      0.05884569152882
| 31> C          -3.64261907306152     -0.65492759588482      0.10636208815990
| 32> H          -4.65101271907959     -0.25620065037269      0.17606935880672
| 33> H          -3.55338054537210     -1.25903578632229     -0.79876562247627
| 34> H          -3.43638100435538     -1.27367029899396      0.98216578043936
| 35> H          -1.07766121220310      2.36604900280828     -0.03022994166016
| 36> H           1.36573406207810      2.15170960633472     -0.20179201027744
| 37> S           3.10925142447067     -0.23258998218445     -0.35041873029890
| 38> H           3.45193444967655      1.06373117594687     -0.23471538044417
| 39> *
| 40>
| 41>                          ****END OF INPUT****

CARTESIAN COORDINATES (ANGSTROEM)
---------------------------------
  C      1.343509   -0.003216   -0.220666
  C      0.753664    1.260885   -0.168153
  C     -0.621366    1.386498   -0.073388
  C     -1.436647    0.252984   -0.033583
  C     -0.851843   -1.010680   -0.088932
  C      0.531942   -1.130760   -0.179722
  H      0.968702   -2.119996   -0.217369
  H     -1.453248   -1.905563   -0.060299
  O     -2.775481    0.477350    0.058846
  C     -3.642619   -0.654928    0.106362
  H     -4.651013   -0.256201    0.176069
  H     -3.553381   -1.259036   -0.798766
  H     -3.436381   -1.273670    0.982166
  H     -1.077661    2.366049   -0.030230
  H      1.365734    2.151710   -0.201792
  S      3.109251   -0.232590   -0.350419
  H      3.451934    1.063731   -0.234715

 Total Charge           Charge          ....    0
 Multiplicity           Mult            ....    1
 Number of Electrons    NEL             ....   74
 Basis Dimension        Dim             ....  602

ORBITAL ENERGIES
----------------

  NO   OCC          E(Eh)            E(eV)
   0   2.0000     -88.894544     -2418.9435
   1   2.0000     -19.158116      -521.3188
   2   2.0000     -10.234262      -278.4884
   3   2.0000     -10.211572      -277.8710
   4   2.0000     -10.207871      -277.7703
   5   2.0000     -10.180492      -277.0253
   6   2.0000     -10.180009      -277.0121
   7   2.0000     -10.174887      -276.8727
   8   2.0000     -10.174054      -276.8501
   9   2.0000      -7.946441      -216.2336
  10   2.0000      -5.910651      -160.8370
  11   2.0000      -5.906982      -160.7371
  12   2.0000      -5.902724      -160.6213
  13   2.0000      -1.064397       -28.9637
  14   2.0000      -0.866139       -23.5688
  15   2.0000      -0.786268       -21.3954
  16   2.0000      -0.755419       -20.5560
  17   2.0000      -0.721858       -19.6428
  18   2.0000      -0.675743       -18.3879
  19   2.0000      -0.616752       -16.7827
  20   2.0000      -0.584201       -15.8969
  21   2.0000      -0.532601       -14.4928
  22   2.0000      -0.493162       -13.4196
  23   2.0000      -0.467568       -12.7232
  24   2.0000      -0.463701       -12.6179
  25   2.0000      -0.446287       -12.1441
  26   2.0000      -0.426801       -11.6138
  27   2.0000      -0.416747       -11.3403
  28   2.0000      -0.391516       -10.6537
  29   2.0000      -0.388131       -10.5616
  30   2.0000      -0.361762        -9.8441
  31   2.0000      -0.341193        -9.2843
  32   2.0000      -0.338298        -9.2056
  33   2.0000      -0.328429        -8.9370
  34   2.0000      -0.275734        -7.5031
  35   2.0000      -0.262856        -7.1527
  36   2.0000      -0.207042        -5.6339
  37   0.0000      -0.020403        -0.5552
  38   0.0000      -0.007736        -0.2105
  39   0.0000      -0.004988        -0.1357
  40   0.0000       0.003531         0.0961
  41   0.0000       0.010049         0.2734

MULLIKEN ATOMIC CHARGES
-----------------------
   0 C :    0.762625
   1 C :   -0.710589
   2 C :   -0.868536
   3 C :    1.183580
   4 C :   -0.321433
   5 C :   -0.932216
   6 H :    0.422064
   7 H :    0.437349
   8 O :   -0.699061
   9 C :   -0.667160
  10 H :    0.254617
  11 H :    0.283989
  12 H :    0.282610
  13 H :    0.501767
  14 H :    0.350342
  15 S :   -0.397332
  16 H :    0.117382
Sum of atomic charges:   -0.0000000

LOEWDIN ATOMIC CHARGES
----------------------
   0 C :   -0.579457
   1 C :    0.112819
   2 C :    0.190969
   3 C :   -0.405560
   4 C :    0.193050
   5 C :    0.098512
   6 H :   -0.191562
   7 H :   -0.196627
   8 O :    0.592921
   9 C :    0.348342
  10 H :   -0.178477
  11 H :   -0.170263
  12 H :   -0.169665
  13 H :   -0.176574
  14 H :   -0.193547
  15 S :    1.286009
  16 H :   -0.560891

  Mayer bond orders larger than 0.100000
B(  0-C ,  1-C ) :   0.9878 B(  0-C ,  5-C ) :   1.1100 B(  0-C , 15-S ) :   0.3933
B(  1-C ,  2-C ) :   1.3173 B(  1-C ,  3-C ) :  -0.3129 B(  1-C , 14-H ) :   0.7711
B(  2-C ,  3-C ) :   0.6757 B(  2-C ,  4-C ) :   0.1751 B(  2-C ,  8-O ) :   0.2963
B(  2-C , 13-H ) :   0.4664 B(  3-C ,  4-C ) :   1.0140 B(  3-C ,  5-C ) :  -0.2458
B(  3-C ,  8-O ) :   0.3425 B(  4-C ,  5-C ) :   0.9803 B(  4-C ,  7-H ) :   0.4950
B(  5-C ,  6-H ) :   0.7053 B(  5-C , 15-S ) :   0.1493 B(  8-O ,  9-C ) :   0.9827
B(  9-C , 10-H ) :   0.9750 B(  9-C , 11-H ) :   0.9102 B(  9-C , 12-H ) :   0.9117
B( 15-S , 16-H ) :   1.0601

Dispersion correction           -0.031575068
FINAL SINGLE POINT ENERGY      -744.894748822717

DIPOLE MOMENT
-------------

Method             : SCF
Type of density    : Electron Density
Multiplicity       :   1
Irrep              :   0
Energy             :  -744.8631737542524434 Eh
Relativity type    :
Basis              : AO
                                X                 Y                 Z
Electronic contribution:      7.159901695       0.963742337      -0.550111974
Nuclear contribution   :     -7.982027728      -1.150860529       0.642932795
                        -----------------------------------------
Total Dipole Moment    :     -0.822126033      -0.187118192       0.092820822
                        -----------------------------------------
Magnitude (a.u.)       :      0.848245328
Magnitude (Debye)      :      2.156068278

VIBRATIONAL FREQUENCIES
-----------------------

Scaling factor for frequencies =  1.000000000  (already applied!)

     0:       0.00 cm**-1
     1:       0.00 cm**-1
     2:       0.00 cm**-1
     3:       0.00 cm**-1
     4:       0.00 cm**-1
     5:       0.00 cm**-1
     6:      65.57 cm**-1
     7:      78.06 cm**-1
     8:     129.94 cm**-1
     9:     194.33 cm**-1
    10:     221.92 cm**-1
    11:     298.40 cm**-1
    12:     331.09 cm**-1
    13:     358.53 cm**-1
    14:     419.82 cm**-1
    15:     498.31 cm**-1
    16:     514.58 cm**-1
    17:     627.96 cm**-1
    18:     644.72 cm**-1
    19:     724.78 cm**-1
    20:     811.82 cm**-1
    21:     816.85 cm**-1
    22:     836.47 cm**-1
    23:     913.31 cm**-1
    24:     952.48 cm**-1
    25:     972.01 cm**-1
    26:    1021.90 cm**-1
    27:    1041.60 cm**-1
    28:    1111.38 cm**-1
    29:    1133.07 cm**-1
    30:    1167.71 cm**-1
    31:    1199.15 cm**-1
    32:    1203.35 cm**-1
    33:    1267.86 cm**-1
    34:    1322.83 cm**-1
    35:    1333.60 cm**-1
    36:    1440.47 cm**-1
    37:    1470.13 cm**-1
    38:    1475.36 cm**-1
    39:    1484.66 cm**-1
    40:    1523.31 cm**-1
    41:    1607.92 cm**-1
    42:    1633.62 cm**-1
    43:    2650.50 cm**-1
    44:    3016.57 cm**-1
    45:    3076.44 cm**-1
    46:    3133.30 cm**-1
    47:    3172.29 cm**-1
    48:    3174.39 cm**-1
    49:    3189.51 cm**-1
    50:    3213.95 cm**-1

IR SPECTRUM
-----------

 Mode   freq       eps      Int      T**2         TX        TY        TZ
       cm**-1   L/(mol*cm) km/mol    a.u.
----------------------------------------------------------------------------
  6:     65.57   0.000099    0.50  0.000473  (-0.010685 -0.004381  0.018441)
  7:     78.06   0.006707   33.90  0.026812  ( 0.012225  0.011662 -0.162870)
  8:    129.94   0.000075    0.38  0.000180  (-0.005939 -0.002032 -0.011853)
  9:    194.33   0.000829    4.19  0.001331  ( 0.033493 -0.014337 -0.001812)
 10:    221.92   0.000004    0.02  0.000006  ( 0.000265 -0.001254 -0.001985)
 11:    298.40   0.000060    0.30  0.000062  ( 0.004684 -0.006362  0.000133)
 12:    331.09   0.001279    6.46  0.001206  (-0.001053  0.001440 -0.034676)
 13:    358.53   0.000219    1.11  0.000191  ( 0.000802 -0.013743 -0.001058)
 14:    419.82   0.000065    0.33  0.000048  ( 0.000742 -0.000886  0.006832)
 15:    498.31   0.000172    0.87  0.000108  ( 0.010241  0.001498  0.000905)
 16:    514.58   0.007757   39.20  0.004704  ( 0.003683 -0.000653  0.068485)
 17:    627.96   0.008576   43.34  0.004262  ( 0.062779 -0.017429 -0.004133)
 18:    644.72   0.003170   16.02  0.001534  (-0.039037  0.002872  0.001440)
 19:    724.78   0.000175    0.88  0.000075  (-0.000056  0.000260  0.008669)
 20:    811.82   0.000825    4.17  0.000317  ( 0.011152 -0.013879  0.000118)
 21:    816.85   0.001174    5.93  0.000448  (-0.001362 -0.001657 -0.021065)
 22:    836.47   0.021572  109.02  0.008048  (-0.005220 -0.000290 -0.089557)
 23:    913.31   0.001790    9.04  0.000612  ( 0.002403  0.024611 -0.000278)
 24:    952.48   0.000052    0.26  0.000017  (-0.000400  0.000062 -0.004104)
 25:    972.01   0.000021    0.10  0.000007  ( 0.000688  0.001287  0.002128)
 26:   1021.90   0.001234    6.24  0.000377  (-0.019013 -0.003512  0.001746)
 27:   1041.60   0.024489  123.76  0.007337  ( 0.066977  0.053240 -0.004062)
 28:   1111.38   0.004449   22.48  0.001249  ( 0.031835 -0.015215 -0.002039)
 29:   1133.07   0.003812   19.26  0.001050  ( 0.003318 -0.032229 -0.000284)
 30:   1167.71   0.000270    1.36  0.000072  ( 0.001533 -0.000272  0.008346)
 31:   1199.15   0.002809   14.19  0.000731  ( 0.026593  0.004610 -0.001583)
 32:   1203.35   0.009697   49.00  0.002515  ( 0.046101  0.019553 -0.002643)
 33:   1267.86   0.089724  453.43  0.022084  (-0.148048 -0.008254  0.009893)
 34:   1322.83   0.015283   77.23  0.003605  ( 0.052799  0.028471 -0.002650)
 35:   1333.60   0.001215    6.14  0.000284  (-0.011673  0.012125  0.001049)
 36:   1440.47   0.000592    2.99  0.000128  (-0.010410  0.004395  0.000741)
 37:   1470.13   0.007862   39.73  0.001669  ( 0.040058 -0.007761 -0.001977)
 38:   1475.36   0.002727   13.78  0.000577  ( 0.001298 -0.000255 -0.023981)
 39:   1484.66   0.004896   24.74  0.001029  (-0.031842  0.003733  0.001126)
 40:   1523.31   0.054616  276.01  0.011189  (-0.105519 -0.000976  0.007295)
 41:   1607.92   0.004969   25.11  0.000964  (-0.025669  0.017354  0.002073)
 42:   1633.62   0.008129   41.08  0.001553  ( 0.038914  0.005638 -0.002581)
 43:   2650.50   0.001409    7.12  0.000166  ( 0.007964  0.010096  0.000734)
 44:   3016.57   0.015060   76.11  0.001558  (-0.028267 -0.027497  0.001674)
 45:   3076.44   0.010458   52.85  0.001061  (-0.002370  0.000114 -0.032484)
 46:   3133.30   0.005623   28.42  0.000560  (-0.021234  0.010343  0.001478)
 47:   3172.29   0.001749    8.84  0.000172  ( 0.009138 -0.009390 -0.000579)
 48:   3174.39   0.001528    7.72  0.000150  (-0.011814 -0.003214  0.000568)
 49:   3189.51   0.001542    7.79  0.000151  (-0.002892  0.011934  0.000352)
 50:   3213.95   0.000957    4.84  0.000093  ( 0.007991  0.005364 -0.000530)

--------------------------
THERMOCHEMISTRY AT 298.15K
--------------------------

Temperature         ...   298.15 K
Pressure            ...     1.00 atm
Total Mass          ...   140.20 AMU
Quasi RRHO          ...     True
Cut-Off Frequency   ...     1.00 cm^-1

Throughout the following assumptions are being made:
  (1) The electronic state is orbitally nondegenerate
  (2) There are no thermally accessible electronically excited states
  (3) Hindered rotations indicated by low frequency modes are not
      treated as such but are treated as vibrations and this may
      cause some error
  (4) All equations used are the standard statistical mechanics
      equations for an ideal gas
  (5) All vibrations are strictly harmonic

freq.      65.57  E(vib)   ...       0.50
freq.      78.06  E(vib)   ...       0.49
freq.     129.94  E(vib)   ...       0.43
freq.     194.33  E(vib)   ...       0.36
freq.     221.92  E(vib)   ...       0.33
freq.     298.40  E(vib)   ...       0.26
freq.     331.09  E(vib)   ...       0.24
freq.     358.53  E(vib)   ...       0.22
freq.     419.82  E(vib)   ...       0.18
freq.     498.31  E(vib)   ...       0.14
freq.     514.58  E(vib)   ...       0.13
freq.     627.96  E(vib)   ...       0.09
freq.     644.72  E(vib)   ...       0.09
freq.     724.78  E(vib)   ...       0.06
freq.     811.82  E(vib)   ...       0.05
freq.     816.85  E(vib)   ...       0.05
freq.     836.47  E(vib)   ...       0.04
freq.     913.31  E(vib)   ...       0.03
freq.     952.48  E(vib)   ...       0.03
freq.     972.01  E(vib)   ...       0.03
freq.    1021.90  E(vib)   ...       0.02
freq.    1041.60  E(vib)   ...       0.02
freq.    1111.38  E(vib)   ...       0.01
freq.    1133.07  E(vib)   ...       0.01
freq.    1167.71  E(vib)   ...       0.01
freq.    1199.15  E(vib)   ...       0.01
freq.    1203.35  E(vib)   ...       0.01
freq.    1267.86  E(vib)   ...       0.01
freq.    1322.83  E(vib)   ...       0.01
freq.    1333.60  E(vib)   ...       0.01
freq.    1440.47  E(vib)   ...       0.00
freq.    1470.13  E(vib)   ...       0.00
freq.    1475.36  E(vib)   ...       0.00
freq.    1484.66  E(vib)   ...       0.00
freq.    1523.31  E(vib)   ...       0.00
freq.    1607.92  E(vib)   ...       0.00
freq.    1633.62  E(vib)   ...       0.00
freq.    2650.50  E(vib)   ...       0.00
freq.    3016.57  E(vib)   ...       0.00
freq.    3076.44  E(vib)   ...       0.00
freq.    3133.30  E(vib)   ...       0.00
freq.    3172.29  E(vib)   ...       0.00
freq.    3174.39  E(vib)   ...       0.00
freq.    3189.51  E(vib)   ...       0.00
freq.    3213.95  E(vib)   ...       0.00

------------
INNER ENERGY
------------

The inner energy is: U= E(el) + E(ZPE) + E(vib) + E(rot) + E(trans)
    E(el)   - is the total energy from the electronic structure calculation
              = E(kin-el) + E(nuc-el) + E(el-el) + E(nuc-nuc)
    E(ZPE)  - the the zero temperature vibrational energy from the frequency calculation
    E(vib)  - the the finite temperature correction to E(ZPE) due to population
              of excited vibrational states
    E(rot)  - is the rotational thermal energy
    E(trans)- is the translational thermal energy

Summary of contributions to the inner energy U:
Electronic energy                ...   -744.89474882 Eh
Zero point energy                ...      0.13093960 Eh      82.17 kcal/mol
Thermal vibrational correction   ...      0.00621064 Eh       3.90 kcal/mol
Thermal rotational correction    ...      0.00141627 Eh       0.89 kcal/mol
Thermal translational correction ...      0.00141627 Eh       0.89 kcal/mol
-----------------------------------------------------------------------
Total thermal energy                   -744.75476605 Eh

Summary of corrections to the electronic energy:
(perhaps to be used in another calculation)
Total thermal correction                  0.00904318 Eh       5.67 kcal/mol
Non-thermal (ZPE) correction              0.13093960 Eh      82.17 kcal/mol
-----------------------------------------------------------------------
Total correction                          0.13998278 Eh      87.84 kcal/mol

--------
ENTHALPY
--------

The enthalpy is H = U + kB*T
                kB is Boltzmann's constant
Total thermal energy              ...   -744.75476605 Eh
Thermal Enthalpy correction       ...      0.00094421 Eh       0.59 kcal/mol
-----------------------------------------------------------------------
Total Enthalpy                    ...   -744.75382184 Eh

Note: Only C1 symmetry has been detected, increase convergence thresholds
      if your molecule has a higher symmetry. Symmetry factor of 1.0 is
      used for the rotational entropy correction.

Note: Rotational entropy computed according to Herzberg
Infrared and Raman Spectra, Chapter V,1, Van Nostrand Reinhold, 1945
Point Group:  C1, Symmetry Number:   1
Rotational constants in cm-1:     0.159503     0.023026     0.020200

Vibrational entropy computed according to the QRRHO of S. Grimme
Chem.Eur.J. 2012 18 9955 using a reference frequency of 100.0 cm-1

-------
ENTROPY
-------

The entropy contributions are T*S = T*(S(el)+S(vib)+S(rot)+S(trans))
     S(el)   - electronic entropy
     S(vib)  - vibrational entropy
     S(rot)  - rotational entropy
     S(trans)- translational entropy
The entropies will be listed as multiplied by the temperature to get
units of energy

Electronic entropy                ...      0.00000000 Eh      0.00 kcal/mol
Vibrational entropy               ...      0.01059644 Eh      6.65 kcal/mol
Rotational entropy                ...      0.01399987 Eh      8.79 kcal/mol
Translational entropy             ...      0.01934980 Eh     12.14 kcal/mol
-----------------------------------------------------------------------
Final entropy term                ...      0.04394611 Eh     27.58 kcal/mol

In case the symmetry of your molecule has not been determined correctly
or in case you have a reason to use a different symmetry number we print
out the resulting rotational entropy values for sn=1,12:

 non-linear molecules -----------------------------------
|  sn= 1 | S(rot)=       0.01399987 Eh      8.79 kcal/mol|
|  sn= 2 | S(rot)=       0.01334541 Eh      8.37 kcal/mol|
|  sn= 3 | S(rot)=       0.01296258 Eh      8.13 kcal/mol|
|  sn= 4 | S(rot)=       0.01269095 Eh      7.96 kcal/mol|
|  sn= 5 | S(rot)=       0.01248027 Eh      7.83 kcal/mol|
|  sn= 6 | S(rot)=       0.01230812 Eh      7.72 kcal/mol|
|  sn= 7 | S(rot)=       0.01216258 Eh      7.63 kcal/mol|
|  sn= 8 | S(rot)=       0.01203650 Eh      7.55 kcal/mol|
|  sn= 9 | S(rot)=       0.01192529 Eh      7.48 kcal/mol|
|  sn=10 | S(rot)=       0.01182581 Eh      7.42 kcal/mol|
|  sn=11 | S(rot)=       0.01173582 Eh      7.36 kcal/mol|
|  sn=12 | S(rot)=       0.01165367 Eh      7.31 kcal/mol|
 linear molecules ---------------------------------------
|  Dinfh | S(rot)=       0.00901008 Eh      5.65 kcal/mol|
|  Cinfv | S(rot)=       0.00966454 Eh      6.06 kcal/mol|

                             ****ORCA TERMINATED NORMALLY****
TOTAL RUN TIME: 0 days 0 hours 25 minutes 32 seconds 566 msec
