                         Program Version 6.0.0  -   RELEASE  -
|  1> !r2SCAN aug-cc-pVTZ d3 TightSCF SlowConv RIJCOSX defgrid2
|  2>
|  3> %pal
|  4> nprocs 4
|  5> end
|  6>
|  7> %scf
|  8> MaxIter 1500
|  9> end
| 10>
| 11> %maxcore 3000
| 12>
| 13> !CPCM
| 14> %cpcm smd true
| 15> SMDsolvent "MeCN"
| 16> surfacetype gepol_ses
| 17> rsolv 2.19
| 18> end
| 19>
| 20> * xyz 1 2
| 21> C           2.10074069713964     -0.03623551022709      0.33749659871253
| 22> C           2.28528308407684     -1.00752299995307     -0.66845525084634
| 23> C           3.55854065372565     -1.40796132368585     -1.00587360020280
| 24> C           4.68249131779385     -0.86605497847815     -0.34228468182816
| 25> C           4.49410486888580      0.09282810810827      0.67448234828818
| 26> C           3.21443563230482      0.50407669582157      1.00485264191955
| 27> H           3.07723883642763      1.26509156223799      1.77871020660964
| 28> H           5.34504061581579      0.52911655526770      1.19977321493419
| 29> O           5.85957111079757     -1.32009234548199     -0.73263129283529
| 30> C           7.04850127917866     -0.86024283407437     -0.12168488196846
| 31> H           7.05512576176798     -1.09734211644688      0.95677335906268
| 32> H           7.17453578603241      0.22645663792845     -0.27205541020094
| 33> H           7.86948886250749     -1.39474999506796     -0.61807937295301
| 34> H           3.72936926674930     -2.16465573433241     -1.77503931686740
| 35> H           1.42319555532723     -1.45115446559524     -1.17357438144306
| 36> S           0.53310799676805      0.50835431053803      0.87944925726859
| 37> S          -0.53256657645917      0.51157250736075     -0.87298747821769
| 38> C          -2.10050433131834     -0.03456082645027     -0.33376593608310
| 39> C          -2.28614846748860     -1.00654106417423      0.67133142906854
| 40> C          -3.55972901842260     -1.40767887923690      1.00664018727382
| 41> C          -4.68294557147944     -0.86577074838656      0.34176687797768
| 42> C          -4.49345078730343      0.09376398773271     -0.67420576981618
| 43> C          -3.21349104560759      0.50568127921148     -1.00247721129044
| 44> H          -3.07548115689053      1.26718515114297     -1.77571342523042
| 45> H          -5.34379775111145      0.53000288222862     -1.20048622064007
| 46> O          -5.86039219693820     -1.32045276361291      0.73014290561810
| 47> C          -7.04863669150853     -0.86088719818355      0.11760799023957
| 48> H          -7.05349716792618     -1.09749864586999     -0.96096207362486
| 49> H          -7.87010373607049     -1.39602142441654      0.61252372140508
| 50> H          -7.17540081825230      0.22567978049243      0.26830217206131
| 51> H          -3.73137732634319     -2.16495328714636      1.77505264858787
| 52> H          -1.42462428217865     -1.45015721725065      1.17741544502090
| 53> *
| 54>
| 55>                          ****END OF INPUT****

CARTESIAN COORDINATES (ANGSTROEM)
---------------------------------
  C      2.100741   -0.036236    0.337497
  C      2.285283   -1.007523   -0.668455
  C      3.558541   -1.407961   -1.005874
  C      4.682491   -0.866055   -0.342285
  C      4.494105    0.092828    0.674482
  C      3.214436    0.504077    1.004853
  H      3.077239    1.265092    1.778710
  H      5.345041    0.529117    1.199773
  O      5.859571   -1.320092   -0.732631
  C      7.048501   -0.860243   -0.121685
  H      7.055126   -1.097342    0.956773
  H      7.174536    0.226457   -0.272055
  H      7.869489   -1.394750   -0.618079
  H      3.729369   -2.164656   -1.775039
  H      1.423196   -1.451154   -1.173574
  S      0.533108    0.508354    0.879449
  S     -0.532567    0.511573   -0.872987
  C     -2.100504   -0.034561   -0.333766
  C     -2.286148   -1.006541    0.671331
  C     -3.559729   -1.407679    1.006640
  C     -4.682946   -0.865771    0.341767
  C     -4.493451    0.093764   -0.674206
  C     -3.213491    0.505681   -1.002477
  H     -3.075481    1.267185   -1.775713
  H     -5.343798    0.530003   -1.200486
  O     -5.860392   -1.320453    0.730143
  C     -7.048637   -0.860887    0.117608
  H     -7.053497   -1.097499   -0.960962
  H     -7.870104   -1.396021    0.612524
  H     -7.175401    0.225680    0.268302
  H     -3.731377   -2.164953    1.775053
  H     -1.424624   -1.450157    1.177415

 Total Charge           Charge          ....    1
 Multiplicity           Mult            ....    2
 Number of Electrons    NEL             ....  145
 Basis Dimension        Dim             .... 1158

ORBITAL ENERGIES
----------------
                 SPIN UP ORBITALS
  NO   OCC          E(Eh)            E(eV)
   0   1.0000     -88.648276     -2412.2422
   1   1.0000     -88.648209     -2412.2404
   2   1.0000     -19.023545      -517.6570
   3   1.0000     -19.023474      -517.6550
   4   1.0000     -10.134563      -275.7755
   5   1.0000     -10.134503      -275.7738
   6   1.0000     -10.110368      -275.1171
   7   1.0000     -10.110288      -275.1149
   8   1.0000     -10.091273      -274.5975
   9   1.0000     -10.091249      -274.5968
  10   1.0000     -10.077466      -274.2218
  11   1.0000     -10.077412      -274.2203
  12   1.0000     -10.076104      -274.1847
  13   1.0000     -10.076066      -274.1837
  14   1.0000     -10.065641      -273.9000
  15   1.0000     -10.065597      -273.8988
  16   1.0000     -10.063848      -273.8512
  17   1.0000     -10.063790      -273.8496
  18   1.0000      -7.937920      -216.0018
  19   1.0000      -7.937840      -215.9996
  20   1.0000      -5.884819      -160.1341
  21   1.0000      -5.884552      -160.1268
  22   1.0000      -5.879840      -159.9986
  23   1.0000      -5.879776      -159.9968
  24   1.0000      -5.878440      -159.9605
  25   1.0000      -5.878365      -159.9584
  26   1.0000      -1.074645       -29.2426
  27   1.0000      -1.074579       -29.2408
  28   1.0000      -0.876641       -23.8546
  29   1.0000      -0.859598       -23.3908
  30   1.0000      -0.822683       -22.3863
  31   1.0000      -0.776584       -21.1319
  32   1.0000      -0.751033       -20.4367
  33   1.0000      -0.747844       -20.3499
  34   1.0000      -0.734315       -19.9817
  35   1.0000      -0.707657       -19.2563
  36   1.0000      -0.676096       -18.3975
  37   1.0000      -0.643177       -17.5017
  38   1.0000      -0.609696       -16.5907
  39   1.0000      -0.609220       -16.5777
  40   1.0000      -0.580161       -15.7870
  41   1.0000      -0.564902       -15.3718
  42   1.0000      -0.525029       -14.2868
  43   1.0000      -0.523753       -14.2521
  44   1.0000      -0.494977       -13.4690
  45   1.0000      -0.482588       -13.1319
  46   1.0000      -0.472477       -12.8567
  47   1.0000      -0.463390       -12.6095
  48   1.0000      -0.457787       -12.4570
  49   1.0000      -0.457648       -12.4532
  50   1.0000      -0.435984       -11.8637
  51   1.0000      -0.435434       -11.8488
  52   1.0000      -0.417017       -11.3476
  53   1.0000      -0.416519       -11.3340
  54   1.0000      -0.409049       -11.1308
  55   1.0000      -0.400653       -10.9023
  56   1.0000      -0.399068       -10.8592
  57   1.0000      -0.389627       -10.6023
  58   1.0000      -0.374881       -10.2010
  59   1.0000      -0.370861       -10.0917
  60   1.0000      -0.356959        -9.7134
  61   1.0000      -0.351957        -9.5772
  62   1.0000      -0.344243        -9.3673
  63   1.0000      -0.342832        -9.3289
  64   1.0000      -0.336115        -9.1462
  65   1.0000      -0.313576        -8.5328
  66   1.0000      -0.313381        -8.5275
  67   1.0000      -0.309117        -8.4115
  68   1.0000      -0.273379        -7.4390
  69   1.0000      -0.269694        -7.3387
  70   1.0000      -0.267728        -7.2853
  71   1.0000      -0.229327        -6.2403
  72   1.0000      -0.212084        -5.7711
  73   0.0000      -0.106123        -2.8878
  74   0.0000      -0.068784        -1.8717
  75   0.0000      -0.063085        -1.7166
  76   0.0000      -0.057197        -1.5564
  77   0.0000      -0.047163        -1.2834

                 SPIN DOWN ORBITALS
  NO   OCC          E(Eh)            E(eV)
   0   1.0000     -88.646422     -2412.1918
   1   1.0000     -88.646360     -2412.1901
   2   1.0000     -19.021546      -517.6026
   3   1.0000     -19.021485      -517.6009
   4   1.0000     -10.133460      -275.7455
   5   1.0000     -10.133406      -275.7440
   6   1.0000     -10.109126      -275.0833
   7   1.0000     -10.109050      -275.0812
   8   1.0000     -10.091339      -274.5993
   9   1.0000     -10.091315      -274.5986
  10   1.0000     -10.077004      -274.2092
  11   1.0000     -10.076956      -274.2079
  12   1.0000     -10.075656      -274.1725
  13   1.0000     -10.075619      -274.1715
  14   1.0000     -10.065295      -273.8906
  15   1.0000     -10.065249      -273.8894
  16   1.0000     -10.063772      -273.8492
  17   1.0000     -10.063716      -273.8476
  18   1.0000      -7.936709      -215.9688
  19   1.0000      -7.936630      -215.9667
  20   1.0000      -5.883699      -160.1036
  21   1.0000      -5.883432      -160.0963
  22   1.0000      -5.878874      -159.9723
  23   1.0000      -5.878814      -159.9707
  24   1.0000      -5.873834      -159.8351
  25   1.0000      -5.873769      -159.8334
  26   1.0000      -1.071744       -29.1636
  27   1.0000      -1.071693       -29.1622
  28   1.0000      -0.872475       -23.7412
  29   1.0000      -0.856868       -23.3166
  30   1.0000      -0.818590       -22.2750
  31   1.0000      -0.772910       -21.0320
  32   1.0000      -0.749872       -20.4051
  33   1.0000      -0.746700       -20.3187
  34   1.0000      -0.731461       -19.9041
  35   1.0000      -0.705467       -19.1967
  36   1.0000      -0.674050       -18.3418
  37   1.0000      -0.637754       -17.3542
  38   1.0000      -0.608137       -16.5483
  39   1.0000      -0.607607       -16.5338
  40   1.0000      -0.578496       -15.7417
  41   1.0000      -0.561958       -15.2916
  42   1.0000      -0.524345       -14.2681
  43   1.0000      -0.522622       -14.2213
  44   1.0000      -0.493837       -13.4380
  45   1.0000      -0.481753       -13.1092
  46   1.0000      -0.471208       -12.8222
  47   1.0000      -0.459007       -12.4902
  48   1.0000      -0.453097       -12.3294
  49   1.0000      -0.453005       -12.3269
  50   1.0000      -0.434707       -11.8290
  51   1.0000      -0.434186       -11.8148
  52   1.0000      -0.416578       -11.3357
  53   1.0000      -0.416111       -11.3229
  54   1.0000      -0.407108       -11.0780
  55   1.0000      -0.400006       -10.8847
  56   1.0000      -0.394725       -10.7410
  57   1.0000      -0.385200       -10.4818
  58   1.0000      -0.371295       -10.1034
  59   1.0000      -0.368228       -10.0200
  60   1.0000      -0.353047        -9.6069
  61   1.0000      -0.351055        -9.5527
  62   1.0000      -0.338995        -9.2245
  63   1.0000      -0.335506        -9.1296
  64   1.0000      -0.329716        -8.9720
  65   1.0000      -0.312386        -8.5005
  66   1.0000      -0.311960        -8.4889
  67   1.0000      -0.299736        -8.1562
  68   1.0000      -0.267375        -7.2756
  69   1.0000      -0.267033        -7.2663
  70   1.0000      -0.259123        -7.0511
  71   1.0000      -0.219781        -5.9805
  72   0.0000      -0.193599        -5.2681
  73   0.0000      -0.099640        -2.7113
  74   0.0000      -0.063935        -1.7398
  75   0.0000      -0.058181        -1.5832
  76   0.0000      -0.049888        -1.3575

MULLIKEN ATOMIC CHARGES AND SPIN POPULATIONS
--------------------------------------------
   0 C :    1.308159    0.014340
   1 C :   -0.460478    0.013653
   2 C :   -1.108370    0.004027
   3 C :    1.132965    0.072318
   4 C :   -0.140842    0.016454
   5 C :   -1.074423    0.020247
   6 H :    0.320575    0.006671
   7 H :    0.359113    0.004069
   8 O :   -0.627656    0.062205
   9 C :   -0.639349   -0.006399
  10 H :    0.280105    0.003849
  11 H :    0.279637    0.003147
  12 H :    0.218702   -0.000309
  13 H :    0.462360    0.000668
  14 H :    0.391631    0.002803
  15 S :   -0.203330    0.281346
  16 S :   -0.201138    0.282040
  17 C :    1.307567    0.014445
  18 C :   -0.460557    0.013415
  19 C :   -1.109515    0.004146
  20 C :    1.133129    0.072724
  21 C :   -0.140388    0.016295
  22 C :   -1.073318    0.020733
  23 H :    0.320757    0.006708
  24 H :    0.359108    0.004065
  25 O :   -0.627608    0.062519
  26 C :   -0.639262   -0.006429
  27 H :    0.280114    0.003868
  28 H :    0.218702   -0.000309
  29 H :    0.279663    0.003163
  30 H :    0.462236    0.000692
  31 H :    0.391713    0.002840
Sum of atomic charges         :    1.0000000

LOEWDIN ATOMIC CHARGES AND SPIN POPULATIONS
-------------------------------------------
   0 C :   -0.586500    0.072755
   1 C :    0.114632    0.024207
   2 C :    0.228788    0.016089
   3 C :   -0.380386    0.045189
   4 C :    0.233602    0.026217
   5 C :    0.125704    0.028189
   6 H :   -0.172445    0.004314
   7 H :   -0.172961    0.002795
   8 O :    0.618786    0.052273
   9 C :    0.378431    0.006059
  10 H :   -0.153682    0.001770
  11 H :   -0.153595    0.001795
  12 H :   -0.163505   -0.000133
  13 H :   -0.156798    0.000862
  14 H :   -0.205877    0.003651
  15 S :    0.945459    0.213149
  16 S :    0.945661    0.213608
  17 C :   -0.586341    0.072959
  18 C :    0.114696    0.024296
  19 C :    0.228864    0.016234
  20 C :   -0.380310    0.045421
  21 C :    0.233659    0.026246
  22 C :    0.125745    0.028315
  23 H :   -0.172409    0.004326
  24 H :   -0.172935    0.002783
  25 O :    0.618847    0.052539
  26 C :    0.378525    0.006089
  27 H :   -0.153661    0.001778
  28 H :   -0.163492   -0.000133
  29 H :   -0.153580    0.001805
  30 H :   -0.156765    0.000877
  31 H :   -0.206157    0.003678

  Mayer bond orders larger than 0.100000
B(  0-C ,  1-C ) :   0.5423 B(  0-C ,  2-C ) :  -0.1712 B(  0-C ,  5-C ) :   0.5100
B(  0-C , 15-S ) :   0.2923 B(  1-C ,  2-C ) :   0.9268 B(  1-C ,  3-C ) :  -0.2016
B(  1-C ,  4-C ) :  -0.1653 B(  1-C ,  8-O ) :   0.1195 B(  1-C , 14-H ) :   0.6969
B(  1-C , 16-S ) :   0.1539 B(  2-C ,  3-C ) :   0.6912 B(  2-C ,  4-C ) :   0.1221
B(  2-C ,  8-O ) :   0.2994 B(  2-C , 13-H ) :   0.4959 B(  2-C , 16-S ) :   0.1285
B(  3-C ,  4-C ) :   0.9189 B(  3-C ,  5-C ) :  -0.1285 B(  3-C ,  8-O ) :   0.2931
B(  4-C ,  5-C ) :   0.8899 B(  4-C ,  7-H ) :   0.6143 B(  4-C ,  8-O ) :  -0.2367
B(  4-C ,  9-C ) :  -0.1471 B(  5-C ,  6-H ) :   0.7097 B(  5-C , 15-S ) :   0.1478
B(  8-O ,  9-C ) :   0.9760 B(  9-C , 10-H ) :   0.8975 B(  9-C , 11-H ) :   0.8972
B(  9-C , 12-H ) :   0.9966 B( 15-S , 16-S ) :   0.9547 B( 15-S , 18-C ) :   0.1544
B( 15-S , 19-C ) :   0.1291 B( 16-S , 17-C ) :   0.2913 B( 16-S , 22-C ) :   0.1468
B( 17-C , 18-C ) :   0.5429 B( 17-C , 19-C ) :  -0.1723 B( 17-C , 22-C ) :   0.5118
B( 18-C , 19-C ) :   0.9272 B( 18-C , 20-C ) :  -0.2016 B( 18-C , 21-C ) :  -0.1657
B( 18-C , 25-O ) :   0.1198 B( 18-C , 31-H ) :   0.6964 B( 19-C , 20-C ) :   0.6909
B( 19-C , 21-C ) :   0.1215 B( 19-C , 25-O ) :   0.2996 B( 19-C , 30-H ) :   0.4962
B( 20-C , 21-C ) :   0.9188 B( 20-C , 22-C ) :  -0.1288 B( 20-C , 25-O ) :   0.2930
B( 21-C , 22-C ) :   0.8899 B( 21-C , 24-H ) :   0.6142 B( 21-C , 25-O ) :  -0.2370
B( 21-C , 26-C ) :  -0.1472 B( 22-C , 23-H ) :   0.7093 B( 25-O , 26-C ) :   0.9759
B( 26-C , 27-H ) :   0.8975 B( 26-C , 28-H ) :   0.9966 B( 26-C , 29-H ) :   0.8972

Dispersion correction           -0.012801949
FINAL SINGLE POINT ENERGY     -1488.421216340777

DIPOLE MOMENT
-------------

Method             : SCF
Type of density    : Electron Density
Multiplicity       :   2
Irrep              :   0
Energy             : -1488.4084143913892149 Eh
Relativity type    :
Basis              : AO
                                X                 Y                 Z
Electronic contribution:     -0.005798335       3.206284162       0.016065562
Nuclear contribution   :     -0.000025572      -2.851825111      -0.017728862
                        -----------------------------------------
Total Dipole Moment    :     -0.005823907       0.354459051      -0.001663299
                        -----------------------------------------
Magnitude (a.u.)       :      0.354510795
Magnitude (Debye)      :      0.901094828

Rotational constants in cm-1:             0.050702             0.003581             0.003572
Rotational constants in MHz :          1519.993315           107.353371           107.097515

                             ****ORCA TERMINATED NORMALLY****
TOTAL RUN TIME: 0 days 0 hours 11 minutes 28 seconds 385 msec
