                         Program Version 6.0.0  -   RELEASE  -
|  1> !B3LYP aug-cc-pVTZ d3 TightSCF SlowConv RIJCOSX defgrid2
|  2>
|  3> %pal
|  4> nprocs 4
|  5> end
|  6>
|  7> %scf
|  8> MaxIter 1500
|  9> end
| 10>
| 11> %maxcore 3000
| 12>
| 13> !CPCM
| 14> %cpcm smd true
| 15> SMDsolvent "MeCN"
| 16> surfacetype gepol_ses
| 17> rsolv 2.19
| 18> end
| 19>
| 20> * xyz 1 2
| 21> C          -1.44481249477950     -1.24089869043630     -0.04422599400373
| 22> C          -0.65270604847852     -0.00076368095320      0.28791614725384
| 23> C          -1.30929275863265      1.23982712865771      0.35161568821529
| 24> C          -2.74063823963677      1.43127678213719      0.02585737149656
| 25> C          -3.39505339125515      0.23037622200763     -0.64214547535322
| 26> C          -2.95552826966099     -1.04385052815768      0.05894599867098
| 27> H          -3.25015333818141     -1.00365338980094      1.12375920827710
| 28> H          -3.45411967363569     -1.92734186501785     -0.37018160543262
| 29> H          -3.10809852954095      0.19229025020268     -1.70915885064496
| 30> H          -4.49080288100221      0.33786121592847     -0.61492706244962
| 31> H          -3.25929625917231      1.67756120213297      0.97946727706286
| 32> H          -2.84476148649454      2.35439029011798     -0.57598988497406
| 33> H          -0.76469248652363      2.13141528408385      0.67016269395744
| 34> N           0.66752107988003     -0.10626256742495      0.51040491586712
| 35> C           1.56955562659101      1.00233502677147      0.81026146443154
| 36> H           1.02598182456206      1.94284494841719      0.94569175972172
| 37> C           2.60477512331413      1.13220701827643     -0.31350161995086
| 38> H           3.33201792543053      1.91420413707981     -0.04701570716605
| 39> H           2.09193033727133      1.43067631822316     -1.25179236728035
| 40> O           3.30361867772652     -0.05985085481676     -0.47723954868017
| 41> C           2.46362526797603     -1.12359131694069     -0.79016381810780
| 42> H           1.94257622699126     -0.95317296670009     -1.75539103320005
| 43> C           1.42056299159698     -1.34142967958749      0.31558716197835
| 44> H           1.93714553018002     -1.57576109367006      1.26235030582174
| 45> H           0.75880210570906     -2.17479036012822      0.05847316266350
| 46> H           3.08480888198717     -2.02759057110245     -0.88152456683608
| 47> H           2.08534474449633      0.75971289468002      1.75472159871514
| 48> H          -1.17788242047587     -1.56014085908261     -1.07070698702721
| 49> H          -1.13843616624223     -2.06145349489725      0.62645826697362
| 50> *
| 51>
| 52>                          ****END OF INPUT****

CARTESIAN COORDINATES (ANGSTROEM)
---------------------------------
  C     -1.444812   -1.240899   -0.044226
  C     -0.652706   -0.000764    0.287916
  C     -1.309293    1.239827    0.351616
  C     -2.740638    1.431277    0.025857
  C     -3.395053    0.230376   -0.642145
  C     -2.955528   -1.043851    0.058946
  H     -3.250153   -1.003653    1.123759
  H     -3.454120   -1.927342   -0.370182
  H     -3.108099    0.192290   -1.709159
  H     -4.490803    0.337861   -0.614927
  H     -3.259296    1.677561    0.979467
  H     -2.844761    2.354390   -0.575990
  H     -0.764692    2.131415    0.670163
  N      0.667521   -0.106263    0.510405
  C      1.569556    1.002335    0.810261
  H      1.025982    1.942845    0.945692
  C      2.604775    1.132207   -0.313502
  H      3.332018    1.914204   -0.047016
  H      2.091930    1.430676   -1.251792
  O      3.303619   -0.059851   -0.477240
  C      2.463625   -1.123591   -0.790164
  H      1.942576   -0.953173   -1.755391
  C      1.420563   -1.341430    0.315587
  H      1.937146   -1.575761    1.262350
  H      0.758802   -2.174790    0.058473
  H      3.084809   -2.027591   -0.881525
  H      2.085345    0.759713    1.754722
  H     -1.177882   -1.560141   -1.070707
  H     -1.138436   -2.061453    0.626458

 Total Charge           Charge          ....    1
 Multiplicity           Mult            ....    2
 Number of Electrons    NEL             ....   91
 Basis Dimension        Dim             ....  943

ORBITAL ENERGIES
----------------
                 SPIN UP ORBITALS
  NO   OCC          E(Eh)            E(eV)
   0   1.0000     -19.151687      -521.1439
   1   1.0000     -14.421502      -392.4290
   2   1.0000     -10.266571      -279.3676
   3   1.0000     -10.234449      -278.4935
   4   1.0000     -10.233921      -278.4792
   5   1.0000     -10.227703      -278.3099
   6   1.0000     -10.226808      -278.2856
   7   1.0000     -10.226190      -278.2688
   8   1.0000     -10.192412      -277.3496
   9   1.0000     -10.186933      -277.2005
  10   1.0000     -10.173913      -276.8463
  11   1.0000     -10.171295      -276.7750
  12   1.0000      -1.076454       -29.2918
  13   1.0000      -1.013407       -27.5762
  14   1.0000      -0.859943       -23.4002
  15   1.0000      -0.801048       -21.7976
  16   1.0000      -0.783842       -21.3294
  17   1.0000      -0.767794       -20.8927
  18   1.0000      -0.711845       -19.3703
  19   1.0000      -0.690773       -18.7969
  20   1.0000      -0.639500       -17.4017
  21   1.0000      -0.629754       -17.1365
  22   1.0000      -0.591374       -16.0921
  23   1.0000      -0.563595       -15.3362
  24   1.0000      -0.532453       -14.4888
  25   1.0000      -0.508033       -13.8243
  26   1.0000      -0.499704       -13.5976
  27   1.0000      -0.494744       -13.4627
  28   1.0000      -0.485608       -13.2141
  29   1.0000      -0.474422       -12.9097
  30   1.0000      -0.456186       -12.4134
  31   1.0000      -0.440513       -11.9870
  32   1.0000      -0.439018       -11.9463
  33   1.0000      -0.425781       -11.5861
  34   1.0000      -0.419340       -11.4108
  35   1.0000      -0.399321       -10.8661
  36   1.0000      -0.396232       -10.7820
  37   1.0000      -0.381969       -10.3939
  38   1.0000      -0.372186       -10.1277
  39   1.0000      -0.358818        -9.7639
  40   1.0000      -0.337711        -9.1896
  41   1.0000      -0.335451        -9.1281
  42   1.0000      -0.327573        -8.9137
  43   1.0000      -0.325153        -8.8479
  44   1.0000      -0.284320        -7.7367
  45   1.0000      -0.242415        -6.5965
  46   0.0000      -0.022365        -0.6086
  47   0.0000      -0.005955        -0.1621
  48   0.0000       0.004377         0.1191
  49   0.0000       0.005398         0.1469
  50   0.0000       0.006967         0.1896

                 SPIN DOWN ORBITALS
  NO   OCC          E(Eh)            E(eV)
   0   1.0000     -19.151296      -521.1332
   1   1.0000     -14.412942      -392.1961
   2   1.0000     -10.267622      -279.3962
   3   1.0000     -10.233902      -278.4786
   4   1.0000     -10.233509      -278.4679
   5   1.0000     -10.227027      -278.2915
   6   1.0000     -10.226416      -278.2749
   7   1.0000     -10.218997      -278.0730
   8   1.0000     -10.192378      -277.3487
   9   1.0000     -10.187225      -277.2085
  10   1.0000     -10.173919      -276.8464
  11   1.0000     -10.171253      -276.7739
  12   1.0000      -1.075054       -29.2537
  13   1.0000      -1.000749       -27.2318
  14   1.0000      -0.852481       -23.1972
  15   1.0000      -0.798965       -21.7409
  16   1.0000      -0.782424       -21.2908
  17   1.0000      -0.761562       -20.7232
  18   1.0000      -0.705054       -19.1855
  19   1.0000      -0.689335       -18.7578
  20   1.0000      -0.636920       -17.3315
  21   1.0000      -0.624102       -16.9827
  22   1.0000      -0.588487       -16.0135
  23   1.0000      -0.559382       -15.2215
  24   1.0000      -0.528495       -14.3811
  25   1.0000      -0.504689       -13.7333
  26   1.0000      -0.492990       -13.4149
  27   1.0000      -0.491440       -13.3728
  28   1.0000      -0.483805       -13.1650
  29   1.0000      -0.470223       -12.7954
  30   1.0000      -0.450027       -12.2458
  31   1.0000      -0.436359       -11.8739
  32   1.0000      -0.434828       -11.8323
  33   1.0000      -0.423599       -11.5267
  34   1.0000      -0.417374       -11.3573
  35   1.0000      -0.393774       -10.7151
  36   1.0000      -0.391085       -10.6420
  37   1.0000      -0.380185       -10.3454
  38   1.0000      -0.370414       -10.0795
  39   1.0000      -0.346899        -9.4396
  40   1.0000      -0.335681        -9.1343
  41   1.0000      -0.333014        -9.0618
  42   1.0000      -0.325647        -8.8613
  43   1.0000      -0.318291        -8.6611
  44   1.0000      -0.276292        -7.5183
  45   0.0000      -0.145697        -3.9646
  46   0.0000      -0.010475        -0.2851
  47   0.0000       0.001275         0.0347
  48   0.0000       0.005220         0.1420
  49   0.0000       0.006990         0.1902

MULLIKEN ATOMIC CHARGES AND SPIN POPULATIONS
--------------------------------------------
   0 C :    0.060304    0.021883
   1 C :    1.217328   -0.036453
   2 C :   -0.589350    0.632191
   3 C :   -0.277594   -0.068444
   4 C :   -0.330431    0.003737
   5 C :   -0.548973   -0.004226
   6 H :    0.078468   -0.001921
   7 H :    0.203406    0.000944
   8 H :    0.155602    0.000171
   9 H :    0.186004   -0.000325
  10 H :    0.165869    0.051906
  11 H :    0.187332    0.030991
  12 H :    0.252843   -0.054335
  13 N :    0.086265    0.378441
  14 C :   -0.756905   -0.033214
  15 H :    0.216154    0.003851
  16 C :   -0.002905    0.024938
  17 H :    0.259544    0.001452
  18 H :    0.221635    0.001888
  19 O :   -0.726443    0.014670
  20 C :   -0.022735    0.035057
  21 H :    0.219442    0.002926
  22 C :   -0.584796   -0.035347
  23 H :    0.182986    0.016836
  24 H :    0.251714    0.000929
  25 H :    0.251881    0.001978
  26 H :    0.165228    0.008286
  27 H :    0.198826    0.001242
  28 H :    0.279299   -0.000053
Sum of atomic charges         :    1.0000000

LOEWDIN ATOMIC CHARGES AND SPIN POPULATIONS
-------------------------------------------
   0 C :    0.314120    0.004498
   1 C :   -0.072467    0.112258
   2 C :    0.367064    0.308159
   3 C :    0.299815    0.095805
   4 C :    0.286724    0.005065
   5 C :    0.294872    0.002068
   6 H :   -0.116080    0.000430
   7 H :   -0.118216    0.000209
   8 H :   -0.118865    0.000845
   9 H :   -0.121981    0.000116
  10 H :   -0.107452    0.026623
  11 H :   -0.114712    0.014967
  12 H :   -0.157876    0.056674
  13 N :    0.342545    0.232946
  14 C :    0.265857    0.030323
  15 H :   -0.156403    0.000409
  16 C :    0.057580    0.013351
  17 H :   -0.127526    0.002382
  18 H :   -0.120820    0.001455
  19 O :    0.608424    0.012421
  20 C :    0.057904    0.016552
  21 H :   -0.121349    0.001879
  22 C :    0.263122    0.038246
  23 H :   -0.095798    0.009906
  24 H :   -0.154166    0.001686
  25 H :   -0.126937    0.003257
  26 H :   -0.098322    0.007250
  27 H :   -0.100874    0.000695
  28 H :   -0.128184   -0.000473

  Mayer bond orders larger than 0.100000
B(  0-C ,  1-C ) :   0.6238 B(  0-C ,  2-C ) :  -0.1130 B(  0-C ,  5-C ) :   0.8981
B(  0-C , 27-H ) :   0.9560 B(  0-C , 28-H ) :   0.8945 B(  1-C ,  2-C ) :   0.2910
B(  1-C ,  3-C ) :  -0.1967 B(  1-C ,  4-C ) :  -0.1227 B(  1-C , 13-N ) :   0.2669
B(  1-C , 14-C ) :  -0.1921 B(  1-C , 22-C ) :  -0.1282 B(  2-C ,  3-C ) :   0.8382
B(  2-C ,  4-C ) :   0.1362 B(  2-C , 12-H ) :   0.7609 B(  3-C ,  4-C ) :   0.9984
B(  3-C , 10-H ) :   1.0201 B(  3-C , 11-H ) :   0.9413 B(  3-C , 12-H ) :  -0.1206
B(  4-C ,  5-C ) :   0.9992 B(  4-C ,  8-H ) :   0.9994 B(  4-C ,  9-H ) :   0.9758
B(  5-C ,  6-H ) :   1.0929 B(  5-C ,  7-H ) :   0.9304 B( 13-N , 14-C ) :   1.1764
B( 13-N , 22-C ) :   0.9816 B( 14-C , 15-H ) :   0.9695 B( 14-C , 16-C ) :   0.9499
B( 14-C , 19-O ) :   0.1144 B( 14-C , 22-C ) :   0.2234 B( 14-C , 26-H ) :   1.0104
B( 16-C , 17-H ) :   0.9492 B( 16-C , 18-H ) :   0.9760 B( 16-C , 19-O ) :   0.8065
B( 19-O , 20-C ) :   0.8090 B( 19-O , 22-C ) :   0.1075 B( 20-C , 21-H ) :   0.9725
B( 20-C , 22-C ) :   0.9751 B( 20-C , 25-H ) :   0.9528 B( 22-C , 23-H ) :   0.9655
B( 22-C , 24-H ) :   0.9421

Dispersion correction           -0.051895742
FINAL SINGLE POINT ENERGY      -520.997307902865

DIPOLE MOMENT
-------------

Method             : SCF
Type of density    : Electron Density
Multiplicity       :   2
Irrep              :   0
Energy             :  -520.9454121612695872 Eh
Relativity type    :
Basis              : AO
                                X                 Y                 Z
Electronic contribution:      6.164212190       0.811393920       1.271643585
Nuclear contribution   :     -6.882345932      -0.552455491      -0.747170800
                        -----------------------------------------
Total Dipole Moment    :     -0.718133743       0.258938429       0.524472784
                        -----------------------------------------
Magnitude (a.u.)       :      0.926194841
Magnitude (Debye)      :      2.354200195

Rotational constants in cm-1:             0.071012             0.017984             0.015658
Rotational constants in MHz :          2128.893427           539.145769           469.425599

                             ****ORCA TERMINATED NORMALLY****
TOTAL RUN TIME: 0 days 0 hours 14 minutes 51 seconds 3 msec
