                         Program Version 6.0.0  -   RELEASE  -
|  1> !PBE0 def2-SV(p) Opt Freq d3 TightSCF SlowConv RIJCOSX defgrid2
|  2>
|  3> %pal
|  4> nprocs 4
|  5> end
|  6>
|  7> %scf
|  8> MaxIter 1500
|  9> end
| 10>
| 11> %maxcore 3000
| 12>
| 13>
| 14>
| 15> * xyz 1 2
| 16> C     0.8650938   -1.2079547    0.0001305
| 17> C     1.2277804    0.1712891    0.0001480
| 18> C     0.1955250    1.1293084    0.0001066
| 19> C    -1.1364049    0.7772653   -0.0000024
| 20> C    -1.4836883   -0.6125452    0.0000334
| 21> C    -0.4522571   -1.5726724    0.0000935
| 22> H    -0.7200302   -2.6184106    0.0001164
| 23> C    -2.8896951   -1.0399796    0.0000029
| 24> H    -2.9838783   -2.1225328    0.0003153
| 25> H    -3.4140425   -0.6315064   -0.8683141
| 26> H    -3.4143104   -0.6309262    0.8678763
| 27> C    -2.1969908    1.8178604   -0.0001174
| 28> H    -2.8364687    1.7165367    0.8769958
| 29> H    -2.8368208    1.7160410   -0.8769090
| 30> H    -1.7644868    2.8143448   -0.0004668
| 31> H     0.4617260    2.1759515    0.0001109
| 32> C     2.5885432    0.6191547    0.0002323
| 33> C     3.6850981   -0.1700965   -0.0004018
| 34> H     3.6383402   -1.2461562   -0.0011686
| 35> H     4.6702997    0.2652848   -0.0002530
| 36> H     2.7244709    1.6933900    0.0007848
| 37> H     1.6294334   -1.9670749    0.0002199
| 38> *
| 39>
| 40>                          ****END OF INPUT****
 Total Charge           Charge          ....    1
 Multiplicity           Mult            ....    2
 Number of Electrons    NEL             ....   71
Dispersion correction           -0.020361683
FINAL SINGLE POINT ENERGY      -387.238601503159
Dispersion correction             ... done (  0.1 sec)
Dispersion correction           -0.020260875
FINAL SINGLE POINT ENERGY      -387.241223197355
Dispersion correction             ... done (  0.0 sec)
Dispersion correction           -0.020249943
FINAL SINGLE POINT ENERGY      -387.241306252504
Dispersion correction             ... done (  0.0 sec)
Dispersion correction           -0.020248187
FINAL SINGLE POINT ENERGY      -387.241329297643
Dispersion correction             ... done (  0.0 sec)
Dispersion correction           -0.020248970
FINAL SINGLE POINT ENERGY      -387.241331723432
Dispersion correction             ... done (  0.1 sec)
                    ***********************HURRAY********************

CARTESIAN COORDINATES (ANGSTROEM)
---------------------------------
  C      0.877448   -1.218830   -0.000004
  C      1.236144    0.169547   -0.000058
  C      0.194241    1.138607   -0.000104
  C     -1.138712    0.787650   -0.000108
  C     -1.476398   -0.612122   -0.000046
  C     -0.443132   -1.583853   -0.000002
  H     -0.716858   -2.642126    0.000031
  C     -2.895716   -1.038939    0.000089
  H     -3.002138   -2.133246   -0.000582
  H     -3.426110   -0.629839   -0.881122
  H     -3.425396   -0.631094    0.882342
  C     -2.212909    1.825155   -0.000143
  H     -2.864112    1.726484    0.886803
  H     -2.864023    1.726546   -0.887161
  H     -1.788903    2.840263   -0.000087
  H      0.469771    2.197253   -0.000140
  C      2.588147    0.620015   -0.000063
  C      3.703377   -0.178413   -0.000029
  H      3.652533   -1.272271    0.000010
  H      4.702812    0.269737   -0.000033
  H      2.736685    1.706055   -0.000093
  H      1.650487   -1.990008    0.000035

 Multiplicity           Mult            ....    2
 Number of Electrons    NEL             ....   71
 Basis Dimension        Dim             ....  164

ORBITAL ENERGIES
----------------
                 SPIN UP ORBITALS
  NO   OCC          E(Eh)            E(eV)
   0   1.0000     -10.454783      -284.4891
   1   1.0000     -10.452942      -284.4390
   2   1.0000     -10.439113      -284.0627
   3   1.0000     -10.434663      -283.9416
   4   1.0000     -10.431060      -283.8436
   5   1.0000     -10.430671      -283.8330
   6   1.0000     -10.418589      -283.5042
   7   1.0000     -10.414769      -283.4003
   8   1.0000     -10.382343      -282.5179
   9   1.0000     -10.373916      -282.2886
  10   1.0000      -1.076279       -29.2870
  11   1.0000      -1.014315       -27.6009
  12   1.0000      -0.965393       -26.2697
  13   1.0000      -0.951624       -25.8950
  14   1.0000      -0.889287       -24.1987
  15   1.0000      -0.859025       -23.3753
  16   1.0000      -0.803672       -21.8690
  17   1.0000      -0.792873       -21.5752
  18   1.0000      -0.737657       -20.0727
  19   1.0000      -0.699478       -19.0338
  20   1.0000      -0.681384       -18.5414
  21   1.0000      -0.645103       -17.5541
  22   1.0000      -0.622002       -16.9255
  23   1.0000      -0.618990       -16.8436
  24   1.0000      -0.612249       -16.6601
  25   1.0000      -0.602886       -16.4054
  26   1.0000      -0.570213       -15.5163
  27   1.0000      -0.567575       -15.4445
  28   1.0000      -0.562947       -15.3186
  29   1.0000      -0.557975       -15.1833
  30   1.0000      -0.552601       -15.0370
  31   1.0000      -0.528790       -14.3891
  32   1.0000      -0.522030       -14.2052
  33   1.0000      -0.498027       -13.5520
  34   1.0000      -0.444574       -12.0975
  35   1.0000      -0.428389       -11.6571
  36   0.0000      -0.240839        -6.5536
  37   0.0000      -0.177881        -4.8404
  38   0.0000      -0.135935        -3.6990
  39   0.0000      -0.069687        -1.8963
  40   0.0000      -0.063317        -1.7230

                 SPIN DOWN ORBITALS
  NO   OCC          E(Eh)            E(eV)
   0   1.0000     -10.449566      -284.3471
   1   1.0000     -10.449363      -284.3416
   2   1.0000     -10.435984      -283.9775
   3   1.0000     -10.431714      -283.8614
   4   1.0000     -10.430343      -283.8241
   5   1.0000     -10.429016      -283.7880
   6   1.0000     -10.418675      -283.5066
   7   1.0000     -10.415663      -283.4246
   8   1.0000     -10.382545      -282.5234
   9   1.0000     -10.373930      -282.2890
  10   1.0000      -1.069242       -29.0956
  11   1.0000      -1.005909       -27.3722
  12   1.0000      -0.963999       -26.2317
  13   1.0000      -0.940787       -25.6001
  14   1.0000      -0.884578       -24.0706
  15   1.0000      -0.853668       -23.2295
  16   1.0000      -0.799355       -21.7515
  17   1.0000      -0.788526       -21.4569
  18   1.0000      -0.733259       -19.9530
  19   1.0000      -0.697348       -18.9758
  20   1.0000      -0.678274       -18.4568
  21   1.0000      -0.641957       -17.4685
  22   1.0000      -0.619577       -16.8595
  23   1.0000      -0.609469       -16.5845
  24   1.0000      -0.606845       -16.5131
  25   1.0000      -0.601787       -16.3754
  26   1.0000      -0.565195       -15.3797
  27   1.0000      -0.562971       -15.3192
  28   1.0000      -0.557488       -15.1700
  29   1.0000      -0.551117       -14.9967
  30   1.0000      -0.548839       -14.9347
  31   1.0000      -0.527879       -14.3643
  32   1.0000      -0.519936       -14.1482
  33   1.0000      -0.471017       -12.8170
  34   1.0000      -0.439781       -11.9671
  35   0.0000      -0.338482        -9.2106
  36   0.0000      -0.207132        -5.6363
  37   0.0000      -0.167522        -4.5585
  38   0.0000      -0.114224        -3.1082
  39   0.0000      -0.067832        -1.8458

MULLIKEN ATOMIC CHARGES AND SPIN POPULATIONS
--------------------------------------------
   0 C :   -0.070483    0.131211
   1 C :    0.117492    0.238092
   2 C :   -0.162966   -0.012752
   3 C :   -0.008868    0.006266
   4 C :   -0.017086    0.359160
   5 C :   -0.102630   -0.085050
   6 H :    0.144334    0.001864
   7 C :   -0.302968   -0.027908
   8 H :    0.180421   -0.000039
   9 H :    0.194216    0.023460
  10 H :    0.194275    0.023506
  11 C :   -0.289434   -0.001640
  12 H :    0.179340    0.002918
  13 H :    0.179365    0.002914
  14 H :    0.170702   -0.000491
  15 H :    0.134094   -0.000771
  16 C :   -0.113758   -0.097397
  17 C :   -0.142895    0.490457
  18 H :    0.198506   -0.023741
  19 H :    0.210053   -0.026057
  20 H :    0.165724    0.003246
  21 H :    0.142566   -0.007250
Sum of atomic charges         :    1.0000000

LOEWDIN ATOMIC CHARGES AND SPIN POPULATIONS
-------------------------------------------
   0 C :   -0.047025    0.121110
   1 C :    0.023580    0.191871
   2 C :   -0.073139    0.008041
   3 C :   -0.005642    0.030157
   4 C :    0.077162    0.277495
   5 C :   -0.095016   -0.031542
   6 H :    0.160410    0.000744
   7 C :   -0.323993   -0.000529
   8 H :    0.153709    0.000061
   9 H :    0.170817    0.020099
  10 H :    0.170868    0.020140
  11 C :   -0.324523    0.000639
  12 H :    0.157763    0.002529
  13 H :    0.157767    0.002527
  14 H :    0.150387   -0.000345
  15 H :    0.156119   -0.000577
  16 C :   -0.076192   -0.044758
  17 C :   -0.078975    0.429107
  18 H :    0.156116   -0.011933
  19 H :    0.171059   -0.012510
  20 H :    0.162066    0.001511
  21 H :    0.156681   -0.003837

  Mayer bond orders larger than 0.100000
B(  0-C ,  1-C ) :   1.1669 B(  0-C ,  5-C ) :   1.5335 B(  0-C , 21-H ) :   0.9453
B(  1-C ,  2-C ) :   1.2072 B(  1-C , 16-C ) :   1.2804 B(  2-C ,  3-C ) :   1.5268
B(  2-C , 15-H ) :   0.9521 B(  3-C ,  4-C ) :   1.2135 B(  3-C , 11-C ) :   1.1160
B(  4-C ,  5-C ) :   1.2870 B(  4-C ,  7-C ) :   1.1500 B(  5-C ,  6-H ) :   0.9503
B(  7-C ,  8-H ) :   0.9293 B(  7-C ,  9-H ) :   0.8963 B(  7-C , 10-H ) :   0.8962
B( 11-C , 12-H ) :   0.9125 B( 11-C , 13-H ) :   0.9125 B( 11-C , 14-H ) :   0.9316
B( 16-C , 17-C ) :   1.6472 B( 16-C , 20-H ) :   0.9262 B( 17-C , 18-H ) :   0.9018
B( 17-C , 19-H ) :   0.9110

Dispersion correction           -0.020249345
FINAL SINGLE POINT ENERGY      -387.241332143170

DIPOLE MOMENT
-------------

Method             : SCF
Type of density    : Electron Density
Multiplicity       :   2
Irrep              :   0
Energy             :  -387.2210827985333594 Eh
Relativity type    :
Basis              : AO
                                X                 Y                 Z
Electronic contribution:      5.279128203      -1.225149944      -0.000318864
Nuclear contribution   :     -4.597722468       1.088585918       0.000480466
                        -----------------------------------------
Total Dipole Moment    :      0.681405735      -0.136564027       0.000161601
                        -----------------------------------------
Magnitude (a.u.)       :      0.694955779
Magnitude (Debye)      :      1.766437209

VIBRATIONAL FREQUENCIES
-----------------------

Scaling factor for frequencies =  1.000000000  (already applied!)

     0:       0.00 cm**-1
     1:       0.00 cm**-1
     2:       0.00 cm**-1
     3:       0.00 cm**-1
     4:       0.00 cm**-1
     5:       0.00 cm**-1
     6:      78.63 cm**-1
     7:      89.55 cm**-1
     8:     125.56 cm**-1
     9:     175.50 cm**-1
    10:     209.84 cm**-1
    11:     229.08 cm**-1
    12:     281.64 cm**-1
    13:     315.80 cm**-1
    14:     382.26 cm**-1
    15:     424.77 cm**-1
    16:     427.75 cm**-1
    17:     477.60 cm**-1
    18:     523.02 cm**-1
    19:     563.99 cm**-1
    20:     615.76 cm**-1
    21:     717.23 cm**-1
    22:     722.57 cm**-1
    23:     759.55 cm**-1
    24:     832.30 cm**-1
    25:     909.59 cm**-1
    26:     940.85 cm**-1
    27:     970.28 cm**-1
    28:    1000.77 cm**-1
    29:    1004.62 cm**-1
    30:    1010.89 cm**-1
    31:    1021.26 cm**-1
    32:    1028.55 cm**-1
    33:    1037.97 cm**-1
    34:    1057.90 cm**-1
    35:    1159.10 cm**-1
    36:    1214.34 cm**-1
    37:    1255.87 cm**-1
    38:    1281.56 cm**-1
    39:    1305.89 cm**-1
    40:    1337.40 cm**-1
    41:    1372.45 cm**-1
    42:    1398.38 cm**-1
    43:    1406.10 cm**-1
    44:    1437.77 cm**-1
    45:    1444.60 cm**-1
    46:    1456.09 cm**-1
    47:    1461.55 cm**-1
    48:    1477.26 cm**-1
    49:    1492.09 cm**-1
    50:    1525.42 cm**-1
    51:    1554.74 cm**-1
    52:    1601.62 cm**-1
    53:    1704.27 cm**-1
    54:    3024.70 cm**-1
    55:    3042.18 cm**-1
    56:    3097.33 cm**-1
    57:    3122.90 cm**-1
    58:    3170.70 cm**-1
    59:    3177.17 cm**-1
    60:    3185.69 cm**-1
    61:    3197.02 cm**-1
    62:    3212.91 cm**-1
    63:    3223.60 cm**-1
    64:    3242.74 cm**-1
    65:    3284.17 cm**-1

IR SPECTRUM
-----------

 Mode   freq       eps      Int      T**2         TX        TY        TZ
       cm**-1   L/(mol*cm) km/mol    a.u.
----------------------------------------------------------------------------
  6:     78.63   0.000546    2.76  0.002168  (-0.000013 -0.000028  0.046558)
  7:     89.55   0.000002    0.01  0.000008  ( 0.000035  0.000061 -0.002792)
  8:    125.56   0.000067    0.34  0.000166  (-0.000000 -0.000024  0.012873)
  9:    175.50   0.000529    2.67  0.000940  (-0.000016 -0.000033  0.030661)
 10:    209.84   0.000088    0.44  0.000131  (-0.005164 -0.010203 -0.000005)
 11:    229.08   0.000096    0.49  0.000131  ( 0.000000 -0.000008 -0.011438)
 12:    281.64   0.000021    0.11  0.000023  (-0.000009 -0.000013 -0.004838)
 13:    315.80   0.000116    0.59  0.000115  ( 0.010345  0.002741  0.000011)
 14:    382.26   0.000309    1.56  0.000252  ( 0.014716 -0.005991 -0.000009)
 15:    424.77   0.001297    6.55  0.000953  ( 0.000025 -0.000005 -0.030868)
 16:    427.75   0.000022    0.11  0.000016  ( 0.000147 -0.004018  0.000111)
 17:    477.60   0.000520    2.63  0.000340  (-0.000001 -0.000002 -0.018430)
 18:    523.02   0.000344    1.74  0.000205  ( 0.011924  0.007946  0.000002)
 19:    563.99   0.000075    0.38  0.000041  (-0.005431 -0.003430  0.000000)
 20:    615.76   0.000030    0.15  0.000015  (-0.000015 -0.000005  0.003916)
 21:    717.23   0.001944    9.82  0.000846  (-0.028945 -0.002808 -0.000040)
 22:    722.57   0.000937    4.73  0.000405  ( 0.000037 -0.000001 -0.020113)
 23:    759.55   0.001730    8.74  0.000711  (-0.026246 -0.004670 -0.000013)
 24:    832.30   0.002309   11.67  0.000866  ( 0.000021  0.000008  0.029425)
 25:    909.59   0.000212    1.07  0.000073  (-0.000028 -0.000009 -0.008520)
 26:    940.85   0.001194    6.03  0.000396  (-0.019311 -0.004796  0.000011)
 27:    970.28   0.007517   37.99  0.002418  ( 0.000012  0.000004  0.049170)
 28:   1000.77   0.002157   10.90  0.000672  ( 0.000076  0.000015 -0.025932)
 29:   1004.62   0.001065    5.38  0.000331  (-0.018168 -0.000934 -0.000016)
 30:   1010.89   0.000388    1.96  0.000120  (-0.000019 -0.000005  0.010942)
 31:   1021.26   0.004148   20.96  0.001267  ( 0.035553  0.001852 -0.000009)
 32:   1028.55   0.002382   12.04  0.000723  ( 0.000051  0.000006 -0.026884)
 33:   1037.97   0.001610    8.14  0.000484  (-0.021442  0.004943 -0.000022)
 34:   1057.90   0.000521    2.63  0.000154  ( 0.000026  0.000005  0.012391)
 35:   1159.10   0.001418    7.17  0.000382  (-0.013252  0.014362 -0.000004)
 36:   1214.34   0.005057   25.55  0.001299  (-0.034925 -0.008929  0.000001)
 37:   1255.87   0.001258    6.36  0.000313  ( 0.017667  0.000701 -0.000004)
 38:   1281.56   0.013861   70.05  0.003375  (-0.058058  0.002097  0.000007)
 39:   1305.89   0.025160  127.15  0.006012  (-0.077343  0.005511  0.000002)
 40:   1337.40   0.001319    6.67  0.000308  ( 0.012131  0.012678  0.000002)
 41:   1372.45   0.009696   49.00  0.002205  (-0.046415  0.007098  0.000037)
 42:   1398.38   0.000964    4.87  0.000215  ( 0.007580 -0.012559  0.000027)
 43:   1406.10   0.002704   13.66  0.000600  (-0.022614  0.009416  0.000004)
 44:   1437.77   0.001397    7.06  0.000303  ( 0.000167  0.000080 -0.017413)
 45:   1444.60   0.002342   11.84  0.000506  ( 0.022477  0.000877  0.000022)
 46:   1456.09   0.006986   35.30  0.001497  ( 0.026110  0.028557 -0.000034)
 47:   1461.55   0.006616   33.43  0.001413  ( 0.000059  0.000051  0.037584)
 48:   1477.26   0.004631   23.40  0.000978  (-0.030480  0.007014 -0.000034)
 49:   1492.09   0.018344   92.70  0.003837  (-0.061602 -0.006462  0.000023)
 50:   1525.42   0.020781  105.02  0.004251  ( 0.065138  0.002899  0.000003)
 51:   1554.74   0.057664  291.41  0.011574  (-0.105067  0.023134 -0.000003)
 52:   1601.62   0.032815  165.83  0.006394  ( 0.069349  0.039805 -0.000002)
 53:   1704.27   0.004938   24.95  0.000904  ( 0.024652  0.017216 -0.000003)
 54:   3024.70   0.006404   32.37  0.000661  (-0.025300 -0.004544  0.000021)
 55:   3042.18   0.000338    1.71  0.000035  (-0.005676  0.001558 -0.000001)
 56:   3097.33   0.000367    1.85  0.000037  ( 0.000006  0.000007 -0.006078)
 57:   3122.90   0.000001    0.00  0.000000  ( 0.000003  0.000003  0.000270)
 58:   3170.70   0.000735    3.72  0.000072  ( 0.006065 -0.005966  0.000001)
 59:   3177.17   0.002166   10.95  0.000213  (-0.014014 -0.004045  0.000003)
 60:   3185.69   0.000274    1.39  0.000027  ( 0.005136 -0.000709  0.000000)
 61:   3197.02   0.000038    0.19  0.000004  (-0.001339  0.001371  0.000000)
 62:   3212.91   0.000036    0.18  0.000003  ( 0.001508  0.001102  0.000000)
 63:   3223.60   0.000053    0.27  0.000005  (-0.001591  0.001613  0.000000)
 64:   3242.74   0.000203    1.02  0.000019  (-0.002426  0.003688 -0.000000)
 65:   3284.17   0.001230    6.21  0.000117  (-0.009032 -0.005937  0.000000)

--------------------------
THERMOCHEMISTRY AT 298.15K
--------------------------

Temperature         ...   298.15 K
Pressure            ...     1.00 atm
Total Mass          ...   132.21 AMU
Quasi RRHO          ...     True
Cut-Off Frequency   ...     1.00 cm^-1

Throughout the following assumptions are being made:
  (1) The electronic state is orbitally nondegenerate
      but the spin degeneracy is treated
  (2) There are no thermally accessible electronically excited states
  (3) Hindered rotations indicated by low frequency modes are not
      treated as such but are treated as vibrations and this may
      cause some error
  (4) All equations used are the standard statistical mechanics
      equations for an ideal gas
  (5) All vibrations are strictly harmonic

freq.      78.63  E(vib)   ...       0.49
freq.      89.55  E(vib)   ...       0.47
freq.     125.56  E(vib)   ...       0.43
freq.     175.50  E(vib)   ...       0.38
freq.     209.84  E(vib)   ...       0.34
freq.     229.08  E(vib)   ...       0.32
freq.     281.64  E(vib)   ...       0.28
freq.     315.80  E(vib)   ...       0.25
freq.     382.26  E(vib)   ...       0.21
freq.     424.77  E(vib)   ...       0.18
freq.     427.75  E(vib)   ...       0.18
freq.     477.60  E(vib)   ...       0.15
freq.     523.02  E(vib)   ...       0.13
freq.     563.99  E(vib)   ...       0.11
freq.     615.76  E(vib)   ...       0.10
freq.     717.23  E(vib)   ...       0.07
freq.     722.57  E(vib)   ...       0.07
freq.     759.55  E(vib)   ...       0.06
freq.     832.30  E(vib)   ...       0.04
freq.     909.59  E(vib)   ...       0.03
freq.     940.85  E(vib)   ...       0.03
freq.     970.28  E(vib)   ...       0.03
freq.    1000.77  E(vib)   ...       0.02
freq.    1004.62  E(vib)   ...       0.02
freq.    1010.89  E(vib)   ...       0.02
freq.    1021.26  E(vib)   ...       0.02
freq.    1028.55  E(vib)   ...       0.02
freq.    1037.97  E(vib)   ...       0.02
freq.    1057.90  E(vib)   ...       0.02
freq.    1159.10  E(vib)   ...       0.01
freq.    1214.34  E(vib)   ...       0.01
freq.    1255.87  E(vib)   ...       0.01
freq.    1281.56  E(vib)   ...       0.01
freq.    1305.89  E(vib)   ...       0.01
freq.    1337.40  E(vib)   ...       0.01
freq.    1372.45  E(vib)   ...       0.01
freq.    1398.38  E(vib)   ...       0.00
freq.    1406.10  E(vib)   ...       0.00
freq.    1437.77  E(vib)   ...       0.00
freq.    1444.60  E(vib)   ...       0.00
freq.    1456.09  E(vib)   ...       0.00
freq.    1461.55  E(vib)   ...       0.00
freq.    1477.26  E(vib)   ...       0.00
freq.    1492.09  E(vib)   ...       0.00
freq.    1525.42  E(vib)   ...       0.00
freq.    1554.74  E(vib)   ...       0.00
freq.    1601.62  E(vib)   ...       0.00
freq.    1704.27  E(vib)   ...       0.00
freq.    3024.70  E(vib)   ...       0.00
freq.    3042.18  E(vib)   ...       0.00
freq.    3097.33  E(vib)   ...       0.00
freq.    3122.90  E(vib)   ...       0.00
freq.    3170.70  E(vib)   ...       0.00
freq.    3177.17  E(vib)   ...       0.00
freq.    3185.69  E(vib)   ...       0.00
freq.    3197.02  E(vib)   ...       0.00
freq.    3212.91  E(vib)   ...       0.00
freq.    3223.60  E(vib)   ...       0.00
freq.    3242.74  E(vib)   ...       0.00
freq.    3284.17  E(vib)   ...       0.00

------------
INNER ENERGY
------------

The inner energy is: U= E(el) + E(ZPE) + E(vib) + E(rot) + E(trans)
    E(el)   - is the total energy from the electronic structure calculation
              = E(kin-el) + E(nuc-el) + E(el-el) + E(nuc-nuc)
    E(ZPE)  - the the zero temperature vibrational energy from the frequency calculation
    E(vib)  - the the finite temperature correction to E(ZPE) due to population
              of excited vibrational states
    E(rot)  - is the rotational thermal energy
    E(trans)- is the translational thermal energy

Summary of contributions to the inner energy U:
Electronic energy                ...   -387.24133214 Eh
Zero point energy                ...      0.18863842 Eh     118.37 kcal/mol
Thermal vibrational correction   ...      0.00730180 Eh       4.58 kcal/mol
Thermal rotational correction    ...      0.00141627 Eh       0.89 kcal/mol
Thermal translational correction ...      0.00141627 Eh       0.89 kcal/mol
-----------------------------------------------------------------------
Total thermal energy                   -387.04255937 Eh

Summary of corrections to the electronic energy:
(perhaps to be used in another calculation)
Total thermal correction                  0.01013435 Eh       6.36 kcal/mol
Non-thermal (ZPE) correction              0.18863842 Eh     118.37 kcal/mol
-----------------------------------------------------------------------
Total correction                          0.19877277 Eh     124.73 kcal/mol

--------
ENTHALPY
--------

The enthalpy is H = U + kB*T
                kB is Boltzmann's constant
Total thermal energy              ...   -387.04255937 Eh
Thermal Enthalpy correction       ...      0.00094421 Eh       0.59 kcal/mol
-----------------------------------------------------------------------
Total Enthalpy                    ...   -387.04161516 Eh

Note: Only C1 symmetry has been detected, increase convergence thresholds
      if your molecule has a higher symmetry. Symmetry factor of 1.0 is
      used for the rotational entropy correction.

Note: Rotational entropy computed according to Herzberg
Infrared and Raman Spectra, Chapter V,1, Van Nostrand Reinhold, 1945
Point Group:  C1, Symmetry Number:   1
Rotational constants in cm-1:     0.095239     0.029097     0.022475

Vibrational entropy computed according to the QRRHO of S. Grimme
Chem.Eur.J. 2012 18 9955 using a reference frequency of 100.0 cm-1

-------
ENTROPY
-------

The entropy contributions are T*S = T*(S(el)+S(vib)+S(rot)+S(trans))
     S(el)   - electronic entropy
     S(vib)  - vibrational entropy
     S(rot)  - rotational entropy
     S(trans)- translational entropy
The entropies will be listed as multiplied by the temperature to get
units of energy

Electronic entropy                ...      0.00065446 Eh      0.41 kcal/mol
Vibrational entropy               ...      0.01235385 Eh      7.75 kcal/mol
Rotational entropy                ...      0.01408244 Eh      8.84 kcal/mol
Translational entropy             ...      0.01926665 Eh     12.09 kcal/mol
-----------------------------------------------------------------------
Final entropy term                ...      0.04635740 Eh     29.09 kcal/mol

In case the symmetry of your molecule has not been determined correctly
or in case you have a reason to use a different symmetry number we print
out the resulting rotational entropy values for sn=1,12:

                             ****ORCA TERMINATED NORMALLY****
TOTAL RUN TIME: 0 days 0 hours 11 minutes 24 seconds 38 msec
