                         Program Version 6.0.0  -   RELEASE  -
|  1> !PBE0 aug-cc-pVTZ d3 TightSCF SlowConv RIJCOSX defgrid2
|  2>
|  3> %pal
|  4> nprocs 4
|  5> end
|  6>
|  7> %scf
|  8> MaxIter 1500
|  9> end
| 10>
| 11> %maxcore 3000
| 12>
| 13> !CPCM
| 14> %cpcm smd true
| 15> SMDsolvent "MeCN"
| 16> surfacetype gepol_ses
| 17> rsolv 2.19
| 18> end
| 19>
| 20> * xyz 0 1
| 21> C          -1.22529066987343      0.66704743781773      0.00002168359140
| 22> C          -0.03496126853419      1.39469871106093      0.00001681573232
| 23> C           1.19034742281071      0.72763815656934      0.00000486668415
| 24> C           1.22529060623977     -0.66703623444881     -0.00000274991533
| 25> C           0.03496151907311     -1.39468785704343      0.00000348152268
| 26> C          -1.19034789437969     -0.72762723255936      0.00001493638754
| 27> H          -2.12407118413544     -1.29834756579676      0.00001940750089
| 28> H           0.06240295882327     -2.48867478107419     -0.00000153324095
| 29> H           2.18642211750805     -1.19027035399337     -0.00001108378126
| 30> H           2.12407102187395      1.29835788033297      0.00000056110263
| 31> H          -0.06240416187133      2.48868564425629      0.00002192326032
| 32> H          -2.18642146753477      1.19028329487864      0.00003019115560
| 33> *
| 34>
| 35>                          ****END OF INPUT****

CARTESIAN COORDINATES (ANGSTROEM)
---------------------------------
  C     -1.225291    0.667047    0.000022
  C     -0.034961    1.394699    0.000017
  C      1.190347    0.727638    0.000005
  C      1.225291   -0.667036   -0.000003
  C      0.034962   -1.394688    0.000003
  C     -1.190348   -0.727627    0.000015
  H     -2.124071   -1.298348    0.000019
  H      0.062403   -2.488675   -0.000002
  H      2.186422   -1.190270   -0.000011
  H      2.124071    1.298358    0.000001
  H     -0.062404    2.488686    0.000022
  H     -2.186421    1.190283    0.000030

 Total Charge           Charge          ....    0
 Multiplicity           Mult            ....    1
 Number of Electrons    NEL             ....   42
 Basis Dimension        Dim             ....  414

ORBITAL ENERGIES
----------------

  NO   OCC          E(Eh)            E(eV)
   0   2.0000     -10.231182      -278.4046
   1   2.0000     -10.230888      -278.3966
   2   2.0000     -10.230883      -278.3965
   3   2.0000     -10.230216      -278.3783
   4   2.0000     -10.230209      -278.3781
   5   2.0000     -10.229942      -278.3709
   6   2.0000      -0.881059       -23.9748
   7   2.0000      -0.768098       -20.9010
   8   2.0000      -0.768083       -20.9006
   9   2.0000      -0.618495       -16.8301
  10   2.0000      -0.618487       -16.8299
  11   2.0000      -0.535264       -14.5653
  12   2.0000      -0.467921       -12.7328
  13   2.0000      -0.460664       -12.5353
  14   2.0000      -0.429651       -11.6914
  15   2.0000      -0.429636       -11.6910
  16   2.0000      -0.387453       -10.5431
  17   2.0000      -0.350590        -9.5400
  18   2.0000      -0.350584        -9.5399
  19   2.0000      -0.269490        -7.3332
  20   2.0000      -0.269466        -7.3325
  21   0.0000      -0.011288        -0.3072
  22   0.0000      -0.011274        -0.3068
  23   0.0000       0.002967         0.0807
  24   0.0000       0.020242         0.5508
  25   0.0000       0.020250         0.5510

MULLIKEN ATOMIC CHARGES
-----------------------
   0 C :   -0.509868
   1 C :   -0.496304
   2 C :   -0.503732
   3 C :   -0.510174
   4 C :   -0.499235
   5 C :   -0.501145
   6 H :    0.499742
   7 H :    0.514535
   8 H :    0.496764
   9 H :    0.502580
  10 H :    0.515380
  11 H :    0.491457
Sum of atomic charges:    0.0000000

LOEWDIN ATOMIC CHARGES
----------------------
   0 C :    0.170655
   1 C :    0.170615
   2 C :    0.170692
   3 C :    0.170655
   4 C :    0.170613
   5 C :    0.170696
   6 H :   -0.170647
   7 H :   -0.170651
   8 H :   -0.170664
   9 H :   -0.170647
  10 H :   -0.170650
  11 H :   -0.170667

  Mayer bond orders larger than 0.100000
B(  0-C ,  1-C ) :   1.3013 B(  0-C ,  5-C ) :   1.2930 B(  0-C , 11-H ) :   0.6165
B(  1-C ,  2-C ) :   1.3031 B(  1-C , 10-H ) :   0.5800 B(  2-C ,  3-C ) :   1.2982
B(  2-C ,  9-H ) :   0.6015 B(  3-C ,  4-C ) :   1.2995 B(  3-C ,  8-H ) :   0.6086
B(  4-C ,  5-C ) :   1.3011 B(  4-C ,  7-H ) :   0.5814 B(  5-C ,  6-H ) :   0.6066

Dispersion correction           -0.009348435
FINAL SINGLE POINT ENERGY      -232.060338463290

DIPOLE MOMENT
-------------

Method             : SCF
Type of density    : Electron Density
Multiplicity       :   1
Irrep              :   0
Energy             :  -232.0509900287799212 Eh
Relativity type    :
Basis              : AO
                                X                 Y                 Z
Electronic contribution:     -0.000001129      -0.000000529      -0.000001460
Nuclear contribution   :     -0.000000373       0.000000984       0.000000374
                        -----------------------------------------
Total Dipole Moment    :     -0.000001502       0.000000455      -0.000001087
                        -----------------------------------------
Magnitude (a.u.)       :      0.000001909
Magnitude (Debye)      :      0.000004851

Rotational constants in cm-1:             0.189685             0.189678             0.094841
Rotational constants in MHz :          5686.605662          5686.389794          2843.248863

                             ****ORCA TERMINATED NORMALLY****
TOTAL RUN TIME: 0 days 0 hours 2 minutes 7 seconds 927 msec
