                         Program Version 6.0.0  -   RELEASE  -
|  1> !B3LYP freq aug-cc-pVTZ d3 TightSCF SlowConv RIJCOSX defgrid2
|  2>
|  3> %pal
|  4> nprocs 12
|  5>
|  6> end
|  7>
|  8> %scf
|  9> MaxIter 1500
| 10> end
| 11>
| 12> %maxcore 5000
| 13>
| 14> !CPCM
| 15> %cpcm smd true
| 16> SMDsolvent "MeCN"
| 17> surfacetype gepol_ses
| 18> rsolv 2.19
| 19> end
| 20>
| 21> * xyz 0 1
| 22> C          -0.02595369759475      1.19161884365003     -0.00052235133579
| 23> C           1.36148104681987      1.22182778949415     -0.00022584210533
| 24> C           2.03965393793107      0.01808913660672      0.00014535817934
| 25> C           1.39736017312941     -1.20835020020960      0.00067519218639
| 26> C           0.01328711258150     -1.21864412079044      0.00004443963075
| 27> C          -0.71516263094953     -0.02434293331863     -0.00065837566449
| 28> C          -2.20466807822205     -0.08632390937234     -0.00140189771980
| 29> O          -2.78165389028868     -1.16361608165070     -0.00318592841764
| 30> C          -2.98005968839021      1.20373975040213      0.00021440331604
| 31> H          -2.73184877781190      1.80132180102909      0.87912086075356
| 32> H          -2.73365874240221      1.80259507407146     -0.87843866980964
| 33> H          -4.04470383809842      0.98535721263666      0.00117101231471
| 34> H          -0.51969435774282     -2.15796529474714      0.00034958161246
| 35> H           1.97220502993099     -2.12318091856948      0.00140140046494
| 36> F           3.39488874417485      0.03784059684453      0.00010383910805
| 37> H           1.90647006097469      2.15457089089827     -0.00039723566164
| 38> H          -0.56357430404177      2.12755446302526     -0.00012218685190
| 39> *
| 40>
| 41>                          ****END OF INPUT****

CARTESIAN COORDINATES (ANGSTROEM)
---------------------------------
  C     -0.025954    1.191619   -0.000522
  C      1.361481    1.221828   -0.000226
  C      2.039654    0.018089    0.000145
  C      1.397360   -1.208350    0.000675
  C      0.013287   -1.218644    0.000044
  C     -0.715163   -0.024343   -0.000658
  C     -2.204668   -0.086324   -0.001402
  O     -2.781654   -1.163616   -0.003186
  C     -2.980060    1.203740    0.000214
  H     -2.731849    1.801322    0.879121
  H     -2.733659    1.802595   -0.878439
  H     -4.044704    0.985357    0.001171
  H     -0.519694   -2.157965    0.000350
  H      1.972205   -2.123181    0.001401
  F      3.394889    0.037841    0.000104
  H      1.906470    2.154571   -0.000397
  H     -0.563574    2.127554   -0.000122

 Total Charge           Charge          ....    0
 Multiplicity           Mult            ....    1
 Number of Electrons    NEL             ....   72
 Basis Dimension        Dim             ....  621

ORBITAL ENERGIES
----------------

  NO   OCC          E(Eh)            E(eV)
   0   2.0000     -24.705412      -672.2684
   1   2.0000     -19.116440      -520.1848
   2   2.0000     -10.270469      -279.4737
   3   2.0000     -10.264406      -279.3087
   4   2.0000     -10.192487      -277.3517
   5   2.0000     -10.189719      -277.2764
   6   2.0000     -10.188729      -277.2494
   7   2.0000     -10.186686      -277.1938
   8   2.0000     -10.186664      -277.1932
   9   2.0000     -10.163273      -276.5567
  10   2.0000      -1.235843       -33.6290
  11   2.0000      -1.041816       -28.3493
  12   2.0000      -0.875700       -23.8290
  13   2.0000      -0.779083       -21.1999
  14   2.0000      -0.766299       -20.8520
  15   2.0000      -0.729368       -19.8471
  16   2.0000      -0.638998       -17.3880
  17   2.0000      -0.630302       -17.1514
  18   2.0000      -0.559369       -15.2212
  19   2.0000      -0.552850       -15.0438
  20   2.0000      -0.503744       -13.7076
  21   2.0000      -0.483419       -13.1545
  22   2.0000      -0.480399       -13.0723
  23   2.0000      -0.455364       -12.3911
  24   2.0000      -0.441206       -12.0058
  25   2.0000      -0.437813       -11.9135
  26   2.0000      -0.434324       -11.8185
  27   2.0000      -0.409826       -11.1519
  28   2.0000      -0.403821       -10.9885
  29   2.0000      -0.378792       -10.3074
  30   2.0000      -0.378169       -10.2905
  31   2.0000      -0.354961        -9.6590
  32   2.0000      -0.351945        -9.5769
  33   2.0000      -0.272460        -7.4140
  34   2.0000      -0.260244        -7.0816
  35   2.0000      -0.258502        -7.0342
  36   0.0000      -0.062053        -1.6886
  37   0.0000      -0.025829        -0.7028
  38   0.0000      -0.003124        -0.0850
  39   0.0000       0.009963         0.2711
  40   0.0000       0.014507         0.3948

MULLIKEN ATOMIC CHARGES
-----------------------
   0 C :   -0.348428
   1 C :   -0.858339
   2 C :    0.692132
   3 C :   -0.707411
   4 C :   -0.794916
   5 C :    1.428933
   6 C :    0.632578
   7 O :   -0.922363
   8 C :   -0.580373
   9 H :    0.250315
  10 H :    0.251385
  11 H :    0.172904
  12 H :    0.237897
  13 H :    0.454720
  14 F :   -0.529314
  15 H :    0.441009
  16 H :    0.179270
Sum of atomic charges:    0.0000000

LOEWDIN ATOMIC CHARGES
----------------------
   0 C :    0.207917
   1 C :    0.212595
   2 C :   -0.523764
   3 C :    0.208055
   4 C :    0.195633
   5 C :   -0.128012
   6 C :   -0.540213
   7 O :    0.478161
   8 C :    0.571246
   9 H :   -0.162116
  10 H :   -0.161976
  11 H :   -0.179973
  12 H :   -0.185928
  13 H :   -0.170342
  14 F :    0.527260
  15 H :   -0.169350
  16 H :   -0.179193

  Mayer bond orders larger than 0.100000
B(  0-C ,  1-C ) :   0.9336 B(  0-C ,  2-C ) :  -0.2213 B(  0-C ,  3-C ) :  -0.1128
B(  0-C ,  4-C ) :  -0.3061 B(  0-C ,  5-C ) :   0.4737 B(  0-C ,  6-C ) :   0.1188
B(  0-C , 16-H ) :   1.1588 B(  1-C ,  2-C ) :   1.3943 B(  1-C ,  3-C ) :   0.2774
B(  1-C , 14-F ) :   0.1993 B(  1-C , 15-H ) :   0.5417 B(  2-C ,  3-C ) :   1.3723
B(  2-C ,  4-C ) :  -0.2919 B(  2-C , 14-F ) :   0.2257 B(  3-C ,  4-C ) :   1.3470
B(  3-C , 13-H ) :   0.5237 B(  3-C , 14-F ) :   0.1970 B(  4-C ,  5-C ) :   0.3350
B(  4-C ,  6-C ) :   0.2562 B(  4-C , 12-H ) :   0.9511 B(  4-C , 16-H ) :   0.1161
B(  5-C ,  6-C ) :   0.2468 B(  5-C ,  7-O ) :   0.1221 B(  5-C , 16-H ) :  -0.1396
B(  6-C ,  7-O ) :   0.8772 B(  6-C ,  8-C ) :   0.9207 B(  7-O , 12-H ) :   0.1297
B(  8-C ,  9-H ) :   0.9620 B(  8-C , 10-H ) :   0.9610 B(  8-C , 11-H ) :   0.9725
B( 12-H , 16-H ) :   0.1159 B( 13-H , 14-F ) :   0.1255 B( 14-F , 15-H ) :   0.1146

Dispersion correction           -0.030330374
FINAL SINGLE POINT ENERGY      -484.094333968997

DIPOLE MOMENT
-------------

Method             : SCF
Type of density    : Electron Density
Multiplicity       :   1
Irrep              :   0
Energy             :  -484.0640035945584714 Eh
Relativity type    :
Basis              : AO
                                X                 Y                 Z
Electronic contribution:      9.772094480      -2.891105342      -0.002440933
Nuclear contribution   :     -9.479857583       4.257774870       0.005479676
                        -----------------------------------------
Total Dipole Moment    :      0.292236897       1.366669528       0.003038744
                        -----------------------------------------
Magnitude (a.u.)       :      1.397568330
Magnitude (Debye)      :      3.552336386

VIBRATIONAL FREQUENCIES
-----------------------

Scaling factor for frequencies =  1.000000000  (already applied!)

     0:       0.00 cm**-1
     1:       0.00 cm**-1
     2:       0.00 cm**-1
     3:       0.00 cm**-1
     4:       0.00 cm**-1
     5:       0.00 cm**-1
     6:      39.03 cm**-1
     7:     103.53 cm**-1
     8:     134.75 cm**-1
     9:     193.68 cm**-1
    10:     291.64 cm**-1
    11:     339.00 cm**-1
    12:     395.64 cm**-1
    13:     424.36 cm**-1
    14:     468.16 cm**-1
    15:     498.39 cm**-1
    16:     571.78 cm**-1
    17:     597.83 cm**-1
    18:     638.22 cm**-1
    19:     687.34 cm**-1
    20:     740.83 cm**-1
    21:     824.61 cm**-1
    22:     837.24 cm**-1
    23:     856.33 cm**-1
    24:     963.19 cm**-1
    25:     978.17 cm**-1
    26:     998.63 cm**-1
    27:    1024.68 cm**-1
    28:    1043.67 cm**-1
    29:    1092.15 cm**-1
    30:    1116.49 cm**-1
    31:    1164.49 cm**-1
    32:    1222.59 cm**-1
    33:    1275.40 cm**-1
    34:    1316.23 cm**-1
    35:    1342.20 cm**-1
    36:    1375.83 cm**-1
    37:    1434.73 cm**-1
    38:    1447.53 cm**-1
    39:    1453.44 cm**-1
    40:    1528.95 cm**-1
    41:    1624.14 cm**-1
    42:    1630.05 cm**-1
    43:    1708.13 cm**-1
    44:    3036.45 cm**-1
    45:    3091.49 cm**-1
    46:    3135.09 cm**-1
    47:    3195.10 cm**-1
    48:    3197.72 cm**-1
    49:    3206.94 cm**-1
    50:    3211.07 cm**-1

IR SPECTRUM
-----------

 Mode   freq       eps      Int      T**2         TX        TY        TZ
       cm**-1   L/(mol*cm) km/mol    a.u.
----------------------------------------------------------------------------
  6:     39.03   0.001200    6.06  0.009592  ( 0.000833  0.000580 -0.097932)
  7:    103.53   0.000494    2.50  0.001490  (-0.000235  0.000248 -0.038599)
  8:    134.75   0.000019    0.10  0.000044  ( 0.000783 -0.000043  0.006566)
  9:    193.68   0.001790    9.05  0.002885  ( 0.050452 -0.018416  0.000168)
 10:    291.64   0.000139    0.70  0.000149  ( 0.000249  0.000154  0.012208)
 11:    339.00   0.000666    3.36  0.000613  ( 0.015453  0.019340  0.000198)
 12:    395.64   0.001386    7.00  0.001093  (-0.010059 -0.031493 -0.000023)
 13:    424.36   0.000002    0.01  0.000001  (-0.000005  0.000155  0.001144)
 14:    468.16   0.000523    2.64  0.000349  ( 0.018054 -0.004750 -0.000283)
 15:    498.39   0.003025   15.28  0.001894  (-0.000061  0.000004 -0.043518)
 16:    571.78   0.014770   74.64  0.008061  ( 0.087467 -0.020256 -0.000017)
 17:    597.83   0.005550   28.05  0.002897  ( 0.000030 -0.000067  0.053825)
 18:    638.22   0.000087    0.44  0.000043  (-0.002196  0.006146 -0.000153)
 19:    687.34   0.000477    2.41  0.000216  ( 0.011308  0.009410  0.000109)
 20:    740.83   0.000064    0.33  0.000027  (-0.000288 -0.000040  0.005200)
 21:    824.61   0.000788    3.98  0.000298  ( 0.000453 -0.000328 -0.017257)
 22:    837.24   0.009515   48.09  0.003547  ( 0.059451  0.003315 -0.001122)
 23:    856.33   0.023102  116.75  0.008419  ( 0.000412  0.000218  0.091753)
 24:    963.19   0.015638   79.03  0.005067  (-0.066934  0.024219 -0.000125)
 25:    978.17   0.000059    0.30  0.000019  ( 0.002496 -0.000589  0.003514)
 26:    998.63   0.000054    0.27  0.000017  (-0.000265 -0.000536  0.004058)
 27:   1024.68   0.003561   18.00  0.001085  (-0.032820  0.002702  0.000237)
 28:   1043.67   0.000774    3.91  0.000231  ( 0.000270 -0.000173  0.015208)
 29:   1092.15   0.000420    2.12  0.000120  ( 0.001946  0.010781  0.000088)
 30:   1116.49   0.004048   20.46  0.001131  ( 0.004772 -0.033297 -0.000090)
 31:   1164.49   0.028382  143.43  0.007606  (-0.087211 -0.000095 -0.000190)
 32:   1222.59   0.036707  185.50  0.009369  (-0.096676 -0.004819  0.000022)
 33:   1275.40   0.070114  354.33  0.017155  (-0.129925  0.016581 -0.000050)
 34:   1316.23   0.002523   12.75  0.000598  (-0.018865  0.015563  0.000051)
 35:   1342.20   0.003984   20.13  0.000926  ( 0.016485  0.025584  0.000053)
 36:   1375.83   0.017768   89.79  0.004030  ( 0.043899 -0.045859 -0.000237)
 37:   1434.73   0.007673   38.78  0.001669  ( 0.037221 -0.016838  0.000029)
 38:   1447.53   0.007149   36.13  0.001541  ( 0.029165  0.026273  0.000629)
 39:   1453.44   0.003087   15.60  0.000663  (-0.000728 -0.001068  0.025711)
 40:   1528.95   0.010868   54.92  0.002218  (-0.046929 -0.003985 -0.000015)
 41:   1624.14   0.046654  235.77  0.008964  ( 0.094557  0.004816  0.000037)
 42:   1630.05   0.016267   82.20  0.003114  (-0.050259 -0.024252  0.000065)
 43:   1708.13   0.078630  397.36  0.014365  (-0.067493 -0.099044 -0.000226)
 44:   3036.45   0.000131    0.66  0.000014  (-0.001733 -0.003242  0.000047)
 45:   3091.49   0.001196    6.04  0.000121  ( 0.000012 -0.000165 -0.010987)
 46:   3135.09   0.004735   23.93  0.000471  (-0.021626 -0.001904 -0.000077)
 47:   3195.10   0.000360    1.82  0.000035  (-0.005730 -0.001535 -0.000062)
 48:   3197.72   0.000467    2.36  0.000046  ( 0.006280 -0.002477  0.000058)
 49:   3206.94   0.000992    5.01  0.000097  ( 0.007977 -0.005733 -0.000031)
 50:   3211.07   0.000334    1.69  0.000032  ( 0.004287  0.003750 -0.000086)

--------------------------
THERMOCHEMISTRY AT 298.15K
--------------------------

Temperature         ...   298.15 K
Pressure            ...     1.00 atm
Total Mass          ...   138.14 AMU
Quasi RRHO          ...     True
Cut-Off Frequency   ...     1.00 cm^-1

Throughout the following assumptions are being made:
  (1) The electronic state is orbitally nondegenerate
  (2) There are no thermally accessible electronically excited states
  (3) Hindered rotations indicated by low frequency modes are not
      treated as such but are treated as vibrations and this may
      cause some error
  (4) All equations used are the standard statistical mechanics
      equations for an ideal gas
  (5) All vibrations are strictly harmonic

freq.      39.03  E(vib)   ...       0.54
freq.     103.53  E(vib)   ...       0.46
freq.     134.75  E(vib)   ...       0.42
freq.     193.68  E(vib)   ...       0.36
freq.     291.64  E(vib)   ...       0.27
freq.     339.00  E(vib)   ...       0.23
freq.     395.64  E(vib)   ...       0.20
freq.     424.36  E(vib)   ...       0.18
freq.     468.16  E(vib)   ...       0.16
freq.     498.39  E(vib)   ...       0.14
freq.     571.78  E(vib)   ...       0.11
freq.     597.83  E(vib)   ...       0.10
freq.     638.22  E(vib)   ...       0.09
freq.     687.34  E(vib)   ...       0.07
freq.     740.83  E(vib)   ...       0.06
freq.     824.61  E(vib)   ...       0.04
freq.     837.24  E(vib)   ...       0.04
freq.     856.33  E(vib)   ...       0.04
freq.     963.19  E(vib)   ...       0.03
freq.     978.17  E(vib)   ...       0.03
freq.     998.63  E(vib)   ...       0.02
freq.    1024.68  E(vib)   ...       0.02
freq.    1043.67  E(vib)   ...       0.02
freq.    1092.15  E(vib)   ...       0.02
freq.    1116.49  E(vib)   ...       0.01
freq.    1164.49  E(vib)   ...       0.01
freq.    1222.59  E(vib)   ...       0.01
freq.    1275.40  E(vib)   ...       0.01
freq.    1316.23  E(vib)   ...       0.01
freq.    1342.20  E(vib)   ...       0.01
freq.    1375.83  E(vib)   ...       0.01
freq.    1434.73  E(vib)   ...       0.00
freq.    1447.53  E(vib)   ...       0.00
freq.    1453.44  E(vib)   ...       0.00
freq.    1528.95  E(vib)   ...       0.00
freq.    1624.14  E(vib)   ...       0.00
freq.    1630.05  E(vib)   ...       0.00
freq.    1708.13  E(vib)   ...       0.00
freq.    3036.45  E(vib)   ...       0.00
freq.    3091.49  E(vib)   ...       0.00
freq.    3135.09  E(vib)   ...       0.00
freq.    3195.10  E(vib)   ...       0.00
freq.    3197.72  E(vib)   ...       0.00
freq.    3206.94  E(vib)   ...       0.00
freq.    3211.07  E(vib)   ...       0.00

------------
INNER ENERGY
------------

The inner energy is: U= E(el) + E(ZPE) + E(vib) + E(rot) + E(trans)
    E(el)   - is the total energy from the electronic structure calculation
              = E(kin-el) + E(nuc-el) + E(el-el) + E(nuc-nuc)
    E(ZPE)  - the the zero temperature vibrational energy from the frequency calculation
    E(vib)  - the the finite temperature correction to E(ZPE) due to population
              of excited vibrational states
    E(rot)  - is the rotational thermal energy
    E(trans)- is the translational thermal energy

Summary of contributions to the inner energy U:
Electronic energy                ...   -484.09433397 Eh
Zero point energy                ...      0.12861836 Eh      80.71 kcal/mol
Thermal vibrational correction   ...      0.00594074 Eh       3.73 kcal/mol
Thermal rotational correction    ...      0.00141627 Eh       0.89 kcal/mol
Thermal translational correction ...      0.00141627 Eh       0.89 kcal/mol
-----------------------------------------------------------------------
Total thermal energy                   -483.95694233 Eh

Summary of corrections to the electronic energy:
(perhaps to be used in another calculation)
Total thermal correction                  0.00877328 Eh       5.51 kcal/mol
Non-thermal (ZPE) correction              0.12861836 Eh      80.71 kcal/mol
-----------------------------------------------------------------------
Total correction                          0.13739164 Eh      86.21 kcal/mol

--------
ENTHALPY
--------

The enthalpy is H = U + kB*T
                kB is Boltzmann's constant
Total thermal energy              ...   -483.95694233 Eh
Thermal Enthalpy correction       ...      0.00094421 Eh       0.59 kcal/mol
-----------------------------------------------------------------------
Total Enthalpy                    ...   -483.95599812 Eh

Note: Only C1 symmetry has been detected, increase convergence thresholds
      if your molecule has a higher symmetry. Symmetry factor of 1.0 is
      used for the rotational entropy correction.

Note: Rotational entropy computed according to Herzberg
Infrared and Raman Spectra, Chapter V,1, Van Nostrand Reinhold, 1945
Point Group:  C1, Symmetry Number:   1
Rotational constants in cm-1:     0.122945     0.025898     0.021477

Vibrational entropy computed according to the QRRHO of S. Grimme
Chem.Eur.J. 2012 18 9955 using a reference frequency of 100.0 cm-1

-------
ENTROPY
-------

The entropy contributions are T*S = T*(S(el)+S(vib)+S(rot)+S(trans))
     S(el)   - electronic entropy
     S(vib)  - vibrational entropy
     S(rot)  - rotational entropy
     S(trans)- translational entropy
The entropies will be listed as multiplied by the temperature to get
units of energy

Electronic entropy                ...      0.00000000 Eh      0.00 kcal/mol
Vibrational entropy               ...      0.01007663 Eh      6.32 kcal/mol
Rotational entropy                ...      0.01403833 Eh      8.81 kcal/mol
Translational entropy             ...      0.01932885 Eh     12.13 kcal/mol
-----------------------------------------------------------------------
Final entropy term                ...      0.04344381 Eh     27.26 kcal/mol

In case the symmetry of your molecule has not been determined correctly
or in case you have a reason to use a different symmetry number we print
out the resulting rotational entropy values for sn=1,12:

 non-linear molecules -----------------------------------
|  sn= 1 | S(rot)=       0.01403833 Eh      8.81 kcal/mol|
|  sn= 2 | S(rot)=       0.01338388 Eh      8.40 kcal/mol|
|  sn= 3 | S(rot)=       0.01300104 Eh      8.16 kcal/mol|
|  sn= 4 | S(rot)=       0.01272942 Eh      7.99 kcal/mol|
|  sn= 5 | S(rot)=       0.01251873 Eh      7.86 kcal/mol|
|  sn= 6 | S(rot)=       0.01234659 Eh      7.75 kcal/mol|
|  sn= 7 | S(rot)=       0.01220104 Eh      7.66 kcal/mol|
|  sn= 8 | S(rot)=       0.01207496 Eh      7.58 kcal/mol|
|  sn= 9 | S(rot)=       0.01196376 Eh      7.51 kcal/mol|
|  sn=10 | S(rot)=       0.01186428 Eh      7.44 kcal/mol|
|  sn=11 | S(rot)=       0.01177429 Eh      7.39 kcal/mol|
|  sn=12 | S(rot)=       0.01169213 Eh      7.34 kcal/mol|
 linear molecules ---------------------------------------
|  Dinfh | S(rot)=       0.00895219 Eh      5.62 kcal/mol|
|  Cinfv | S(rot)=       0.00960665 Eh      6.03 kcal/mol|

                             ****ORCA TERMINATED NORMALLY****
TOTAL RUN TIME: 0 days 0 hours 44 minutes 59 seconds 247 msec
