                         Program Version 6.0.0  -   RELEASE  -
|  1> !B3LYP freq aug-cc-pVTZ d3 TightSCF SlowConv RIJCOSX defgrid2
|  2>
|  3> %pal
|  4> nprocs 12
|  5>
|  6> end
|  7>
|  8> %scf
|  9> MaxIter 1500
| 10> end
| 11>
| 12> %maxcore 5000
| 13>
| 14> !CPCM
| 15> %cpcm smd true
| 16> SMDsolvent "MeCN"
| 17> surfacetype gepol_ses
| 18> rsolv 2.19
| 19> end
| 20>
| 21> * xyz 0 1
| 22> C           0.86737695550746     -1.20046600745939      0.00004239985749
| 23> C           1.23274653536530      0.14897446332456      0.00015896159050
| 24> C           0.20751800982698      1.10049162972742      0.00021300054954
| 25> C          -1.13981839644817      0.75113346319559      0.00010909385983
| 26> C          -1.49065458807368     -0.60881671504983     -0.00005872147009
| 27> C          -0.47001285335906     -1.56173441759933     -0.00007691555346
| 28> H          -0.73305712932166     -2.61215519562722      0.00018911164468
| 29> C          -2.93050087183888     -1.03477047525278     -0.00018855250120
| 30> H          -3.01872253441517     -2.12013667090276      0.00009288867089
| 31> H          -3.46051025319606     -0.65388045519998     -0.87656362634184
| 32> H          -3.46081547004186     -0.65347821163704      0.87579153014013
| 33> C          -2.19744704972996      1.81858019453860      0.00005966571677
| 34> H          -2.84457827723829      1.74126106135827      0.87697890321240
| 35> H          -2.84615249376275      1.73932844430194     -0.87549111460861
| 36> H          -1.75202281997956      2.81228800478205     -0.00152986922505
| 37> H           0.47406030953098      2.15075286176579      0.00007736064140
| 38> C           2.62566534339183      0.60888342139632      0.00029517100137
| 39> C           3.72560062302774     -0.14599358351837     -0.00031620235245
| 40> H           3.69355227285487     -1.22827954780610     -0.00109457066141
| 41> H           4.70660059213987      0.30985101667598      0.00000224514403
| 42> H           2.74478937611200      1.68788356034113      0.00071631895294
| 43> H           1.62361421964806     -1.97316924135487      0.00011292173212
| 44> *
| 45>
| 46>                          ****END OF INPUT****

CARTESIAN COORDINATES (ANGSTROEM)
---------------------------------
  C      0.867377   -1.200466    0.000042
  C      1.232747    0.148974    0.000159
  C      0.207518    1.100492    0.000213
  C     -1.139818    0.751133    0.000109
  C     -1.490655   -0.608817   -0.000059
  C     -0.470013   -1.561734   -0.000077
  H     -0.733057   -2.612155    0.000189
  C     -2.930501   -1.034770   -0.000189
  H     -3.018723   -2.120137    0.000093
  H     -3.460510   -0.653880   -0.876564
  H     -3.460815   -0.653478    0.875792
  C     -2.197447    1.818580    0.000060
  H     -2.844578    1.741261    0.876979
  H     -2.846152    1.739328   -0.875491
  H     -1.752023    2.812288   -0.001530
  H      0.474060    2.150753    0.000077
  C      2.625665    0.608883    0.000295
  C      3.725601   -0.145994   -0.000316
  H      3.693552   -1.228280   -0.001095
  H      4.706601    0.309851    0.000002
  H      2.744789    1.687884    0.000716
  H      1.623614   -1.973169    0.000113

 Total Charge           Charge          ....    0
 Multiplicity           Mult            ....    1
 Number of Electrons    NEL             ....   72
 Basis Dimension        Dim             ....  736

ORBITAL ENERGIES
----------------

  NO   OCC          E(Eh)            E(eV)
   0   2.0000     -10.179465      -276.9973
   1   2.0000     -10.178705      -276.9767
   2   2.0000     -10.178130      -276.9610
   3   2.0000     -10.176073      -276.9050
   4   2.0000     -10.168345      -276.6947
   5   2.0000     -10.167633      -276.6754
   6   2.0000     -10.167409      -276.6693
   7   2.0000     -10.162067      -276.5239
   8   2.0000     -10.157976      -276.4126
   9   2.0000     -10.157854      -276.4093
  10   2.0000      -0.863939       -23.5090
  11   2.0000      -0.800429       -21.7808
  12   2.0000      -0.762750       -20.7555
  13   2.0000      -0.744961       -20.2714
  14   2.0000      -0.694211       -18.8904
  15   2.0000      -0.666786       -18.1442
  16   2.0000      -0.600808       -16.3488
  17   2.0000      -0.594846       -16.1866
  18   2.0000      -0.539052       -14.6684
  19   2.0000      -0.495729       -13.4895
  20   2.0000      -0.478158       -13.0113
  21   2.0000      -0.446618       -12.1531
  22   2.0000      -0.429476       -11.6866
  23   2.0000      -0.427120       -11.6225
  24   2.0000      -0.412113       -11.2142
  25   2.0000      -0.404495       -11.0069
  26   2.0000      -0.391560       -10.6549
  27   2.0000      -0.378614       -10.3026
  28   2.0000      -0.377063       -10.2604
  29   2.0000      -0.364810        -9.9270
  30   2.0000      -0.357166        -9.7190
  31   2.0000      -0.332858        -9.0575
  32   2.0000      -0.328357        -8.9350
  33   2.0000      -0.294523        -8.0144
  34   2.0000      -0.248227        -6.7546
  35   2.0000      -0.221042        -6.0149
  36   0.0000      -0.040623        -1.1054
  37   0.0000      -0.009198        -0.2503
  38   0.0000      -0.003028        -0.0824
  39   0.0000       0.006292         0.1712
  40   0.0000       0.010700         0.2912

MULLIKEN ATOMIC CHARGES
-----------------------
   0 C :   -0.327888
   1 C :    2.064443
   2 C :   -1.192742
   3 C :    0.702871
   4 C :    0.897447
   5 C :   -1.272825
   6 H :    0.051754
   7 C :   -0.787111
   8 H :    0.108980
   9 H :    0.216610
  10 H :    0.215697
  11 C :   -0.787889
  12 H :    0.221104
  13 H :    0.220062
  14 H :    0.105656
  15 H :   -0.259695
  16 C :    0.009552
  17 C :   -1.015392
  18 H :    0.249281
  19 H :    0.283271
  20 H :    0.126616
  21 H :    0.170198
Sum of atomic charges:   -0.0000000

LOEWDIN ATOMIC CHARGES
----------------------
   0 C :    0.208900
   1 C :   -0.147641
   2 C :    0.223272
   3 C :   -0.098667
   4 C :   -0.103134
   5 C :    0.219573
   6 H :   -0.173714
   7 C :    0.579944
   8 H :   -0.171827
   9 H :   -0.159251
  10 H :   -0.159232
  11 C :    0.581877
  12 H :   -0.158943
  13 H :   -0.159101
  14 H :   -0.171383
  15 H :   -0.173429
  16 C :    0.166662
  17 C :    0.522667
  18 H :   -0.225281
  19 H :   -0.220791
  20 H :   -0.193656
  21 H :   -0.186844

  Mayer bond orders larger than 0.100000
B(  0-C ,  1-C ) :   0.2298 B(  0-C ,  2-C ) :  -0.8716 B(  0-C ,  3-C ) :  -0.1613
B(  0-C ,  5-C ) :   0.7252 B(  0-C ,  6-H ) :  -0.1021 B(  0-C , 16-C ) :   0.3698
B(  0-C , 21-H ) :   1.4886 B(  1-C ,  2-C ) :  -0.3795 B(  1-C ,  3-C ) :   0.4530
B(  1-C ,  4-C ) :  -0.3265 B(  1-C ,  7-C ) :   0.1104 B(  1-C , 15-H ) :  -0.4260
B(  1-C , 16-C ) :  -0.1713 B(  1-C , 17-C ) :  -0.1204 B(  1-C , 21-H ) :  -0.1079
B(  2-C ,  3-C ) :   0.6227 B(  2-C ,  4-C ) :  -0.2971 B(  2-C ,  5-C ) :   0.2773
B(  2-C , 11-C ) :  -0.2029 B(  2-C , 15-H ) :   2.2578 B(  2-C , 16-C ) :   0.2004
B(  2-C , 17-C ) :   0.1143 B(  2-C , 20-H ) :  -0.1396 B(  3-C ,  4-C ) :   1.2367
B(  3-C ,  5-C ) :   0.2799 B(  3-C ,  7-C ) :   0.1435 B(  3-C , 12-H ) :  -0.1256
B(  3-C , 13-H ) :  -0.1255 B(  3-C , 15-H ) :  -0.2058 B(  3-C , 20-H ) :   0.1342
B(  3-C , 21-H ) :  -0.2536 B(  4-C ,  5-C ) :   0.5781 B(  4-C ,  7-C ) :   0.2261
B(  4-C ,  9-H ) :  -0.1045 B(  4-C , 10-H ) :  -0.1047 B(  4-C , 11-C ) :   0.4436
B(  4-C , 16-C ) :   0.1433 B(  4-C , 21-H ) :  -0.1253 B(  5-C ,  6-H ) :   1.2039
B(  5-C ,  7-C ) :  -0.1677 B(  5-C , 17-C ) :  -0.1382 B(  5-C , 21-H ) :  -0.1503
B(  7-C ,  8-H ) :   1.0557 B(  7-C ,  9-H ) :   1.0332 B(  7-C , 10-H ) :   1.0331
B( 11-C , 12-H ) :   1.0267 B( 11-C , 13-H ) :   1.0279 B( 11-C , 14-H ) :   1.0518
B( 15-H , 16-C ) :  -0.1531 B( 15-H , 20-H ) :  -0.1020 B( 15-H , 21-H ) :   0.1055
B( 16-C , 17-C ) :   0.9442 B( 16-C , 20-H ) :   1.0830 B( 17-C , 18-H ) :   1.1317
B( 17-C , 19-H ) :   0.8660 B( 17-C , 20-H ) :  -0.1966

Dispersion correction           -0.039359670
FINAL SINGLE POINT ENERGY      -388.211247318124

DIPOLE MOMENT
-------------

Method             : SCF
Type of density    : Electron Density
Multiplicity       :   1
Irrep              :   0
Energy             :  -388.1718876485863916 Eh
Relativity type    :
Basis              : AO
                                X                 Y                 Z
Electronic contribution:      3.995466626      -1.056355233       0.000951926
Nuclear contribution   :     -4.593947437       1.149573246      -0.000855222
                        -----------------------------------------
Total Dipole Moment    :     -0.598480811       0.093218014       0.000096705
                        -----------------------------------------
Magnitude (a.u.)       :      0.605697027
Magnitude (Debye)      :      1.539559491

VIBRATIONAL FREQUENCIES
-----------------------

Scaling factor for frequencies =  1.000000000  (already applied!)

     0:       0.00 cm**-1
     1:       0.00 cm**-1
     2:       0.00 cm**-1
     3:       0.00 cm**-1
     4:       0.00 cm**-1
     5:       0.00 cm**-1
     6:      37.40 cm**-1
     7:     119.19 cm**-1
     8:     128.32 cm**-1
     9:     152.17 cm**-1
    10:     193.06 cm**-1
    11:     207.64 cm**-1
    12:     297.56 cm**-1
    13:     307.88 cm**-1
    14:     372.93 cm**-1
    15:     428.41 cm**-1
    16:     448.51 cm**-1
    17:     521.53 cm**-1
    18:     536.88 cm**-1
    19:     573.18 cm**-1
    20:     685.54 cm**-1
    21:     719.96 cm**-1
    22:     755.75 cm**-1
    23:     757.20 cm**-1
    24:     844.53 cm**-1
    25:     915.37 cm**-1
    26:     935.50 cm**-1
    27:     936.45 cm**-1
    28:     982.48 cm**-1
    29:    1009.20 cm**-1
    30:    1011.61 cm**-1
    31:    1035.42 cm**-1
    32:    1045.17 cm**-1
    33:    1068.63 cm**-1
    34:    1074.09 cm**-1
    35:    1136.99 cm**-1
    36:    1188.64 cm**-1
    37:    1227.12 cm**-1
    38:    1260.19 cm**-1
    39:    1308.98 cm**-1
    40:    1316.44 cm**-1
    41:    1339.13 cm**-1
    42:    1403.37 cm**-1
    43:    1407.64 cm**-1
    44:    1415.84 cm**-1
    45:    1459.45 cm**-1
    46:    1461.92 cm**-1
    47:    1469.68 cm**-1
    48:    1473.51 cm**-1
    49:    1480.02 cm**-1
    50:    1529.37 cm**-1
    51:    1599.43 cm**-1
    52:    1643.11 cm**-1
    53:    1680.81 cm**-1
    54:    3018.86 cm**-1
    55:    3020.18 cm**-1
    56:    3058.22 cm**-1
    57:    3062.65 cm**-1
    58:    3101.34 cm**-1
    59:    3102.28 cm**-1
    60:    3128.64 cm**-1
    61:    3135.91 cm**-1
    62:    3151.78 cm**-1
    63:    3158.23 cm**-1
    64:    3179.91 cm**-1
    65:    3216.31 cm**-1

IR SPECTRUM
-----------

 Mode   freq       eps      Int      T**2         TX        TY        TZ
       cm**-1   L/(mol*cm) km/mol    a.u.
----------------------------------------------------------------------------
  6:     37.40   0.000021    0.10  0.000171  ( 0.000213 -0.000306 -0.013088)
  7:    119.19   0.000032    0.16  0.000083  (-0.000251 -0.000184  0.009119)
  8:    128.32   0.000451    2.28  0.001097  (-0.000042  0.000224  0.033124)
  9:    152.17   0.000085    0.43  0.000174  ( 0.000072 -0.000377 -0.013201)
 10:    193.06   0.000184    0.93  0.000298  (-0.013348  0.010950  0.000321)
 11:    207.64   0.001297    6.56  0.001950  (-0.000098  0.000249 -0.044155)
 12:    297.56   0.000237    1.20  0.000249  ( 0.015646 -0.002068 -0.000012)
 13:    307.88   0.000056    0.28  0.000057  ( 0.000111  0.000073  0.007522)
 14:    372.93   0.000382    1.93  0.000320  (-0.013256 -0.011997 -0.000000)
 15:    428.41   0.000603    3.05  0.000439  ( 0.020951 -0.000414  0.000189)
 16:    448.51   0.003171   16.02  0.002206  (-0.000203 -0.000103  0.046969)
 17:    521.53   0.002384   12.05  0.001426  (-0.000137 -0.000019  0.037766)
 18:    536.88   0.000501    2.53  0.000291  (-0.016184  0.005418 -0.000328)
 19:    573.18   0.000602    3.04  0.000328  (-0.016864 -0.006599 -0.000073)
 20:    685.54   0.000164    0.83  0.000075  (-0.000043 -0.000047  0.008648)
 21:    719.96   0.000302    1.53  0.000131  ( 0.011439 -0.000210  0.000096)
 22:    755.75   0.001094    5.53  0.000452  (-0.000264  0.000040  0.021255)
 23:    757.20   0.000120    0.60  0.000049  ( 0.006886  0.001291  0.000458)
 24:    844.53   0.008664   43.79  0.003202  (-0.000012  0.000015 -0.056583)
 25:    915.37   0.007028   35.52  0.002396  (-0.000098 -0.000043  0.048948)
 26:    935.50   0.000255    1.29  0.000085  ( 0.002282 -0.007800  0.004369)
 27:    936.45   0.015230   76.97  0.005075  ( 0.000111 -0.000540 -0.071240)
 28:    982.48   0.000059    0.30  0.000019  (-0.000208  0.000167  0.004309)
 29:   1009.20   0.005974   30.19  0.001847  ( 0.042703 -0.004872 -0.000342)
 30:   1011.61   0.000701    3.54  0.000216  ( 0.011177 -0.009546  0.000292)
 31:   1035.42   0.005760   29.11  0.001736  ( 0.000075  0.000316 -0.041665)
 32:   1045.17   0.003049   15.41  0.000910  ( 0.000086  0.000060  0.030172)
 33:   1068.63   0.000460    2.32  0.000134  ( 0.009819  0.006149  0.000257)
 34:   1074.09   0.000000    0.00  0.000000  (-0.000276  0.000098  0.000072)
 35:   1136.99   0.001628    8.23  0.000447  ( 0.013412  0.016340  0.000056)
 36:   1188.64   0.000595    3.01  0.000156  ( 0.009197 -0.008465 -0.000011)
 37:   1227.12   0.000009    0.04  0.000002  ( 0.001495  0.000112  0.000051)
 38:   1260.19   0.004308   21.77  0.001067  (-0.032033  0.006386 -0.000024)
 39:   1308.98   0.001153    5.83  0.000275  ( 0.016525 -0.001390 -0.000017)
 40:   1316.44   0.000529    2.67  0.000125  (-0.011003  0.002098 -0.000014)
 41:   1339.13   0.001006    5.09  0.000235  (-0.015106 -0.002521 -0.000013)
 42:   1403.37   0.000122    0.61  0.000027  (-0.005148 -0.000682 -0.000262)
 43:   1407.64   0.000233    1.18  0.000052  ( 0.001475 -0.007036 -0.000050)
 44:   1415.84   0.001622    8.20  0.000358  ( 0.015466  0.010881 -0.000078)
 45:   1459.45   0.002100   10.61  0.000449  (-0.003943 -0.020817 -0.000160)
 46:   1461.92   0.000001    0.00  0.000000  (-0.000038  0.000394  0.000028)
 47:   1469.68   0.005347   27.02  0.001135  ( 0.000247 -0.000206  0.033693)
 48:   1473.51   0.000503    2.54  0.000107  (-0.007794  0.006691  0.001052)
 49:   1480.02   0.003602   18.21  0.000760  (-0.009259 -0.025957  0.000305)
 50:   1529.37   0.009002   45.49  0.001837  ( 0.042743 -0.003146 -0.000001)
 51:   1599.43   0.002406   12.16  0.000469  (-0.017371  0.012949  0.000000)
 52:   1643.11   0.001745    8.82  0.000332  (-0.001941 -0.018104 -0.000001)
 53:   1680.81   0.010885   55.01  0.002021  ( 0.044272 -0.007798 -0.000018)
 54:   3018.86   0.013586   68.66  0.001404  (-0.037441  0.001627 -0.000109)
 55:   3020.18   0.004825   24.38  0.000499  ( 0.014670 -0.016832 -0.000124)
 56:   3058.22   0.010256   51.83  0.001046  ( 0.000011 -0.000003 -0.032349)
 57:   3062.65   0.000820    4.14  0.000084  (-0.000123  0.000025 -0.009137)
 58:   3101.34   0.011879   60.03  0.001195  ( 0.010518  0.032934  0.000070)
 59:   3102.28   0.001178    5.95  0.000119  (-0.005179  0.009576  0.000008)
 60:   3128.64   0.004405   22.26  0.000439  ( 0.005026  0.020349  0.000059)
 61:   3135.91   0.000874    4.41  0.000087  ( 0.009231 -0.001309  0.000023)
 62:   3151.78   0.008210   41.49  0.000813  (-0.007552 -0.027493 -0.000089)
 63:   3158.23   0.003296   16.66  0.000326  (-0.013309 -0.012187 -0.000057)
 64:   3179.91   0.003865   19.53  0.000379  ( 0.008233 -0.017649 -0.000019)
 65:   3216.31   0.003235   16.35  0.000314  ( 0.009185  0.015151 -0.000016)

--------------------------
THERMOCHEMISTRY AT 298.15K
--------------------------

Temperature         ...   298.15 K
Pressure            ...     1.00 atm
Total Mass          ...   132.21 AMU
Quasi RRHO          ...     True
Cut-Off Frequency   ...     1.00 cm^-1

Throughout the following assumptions are being made:
  (1) The electronic state is orbitally nondegenerate
  (2) There are no thermally accessible electronically excited states
  (3) Hindered rotations indicated by low frequency modes are not
      treated as such but are treated as vibrations and this may
      cause some error
  (4) All equations used are the standard statistical mechanics
      equations for an ideal gas
  (5) All vibrations are strictly harmonic

freq.      37.40  E(vib)   ...       0.54
freq.     119.19  E(vib)   ...       0.44
freq.     128.32  E(vib)   ...       0.43
freq.     152.17  E(vib)   ...       0.40
freq.     193.06  E(vib)   ...       0.36
freq.     207.64  E(vib)   ...       0.34
freq.     297.56  E(vib)   ...       0.27
freq.     307.88  E(vib)   ...       0.26
freq.     372.93  E(vib)   ...       0.21
freq.     428.41  E(vib)   ...       0.18
freq.     448.51  E(vib)   ...       0.17
freq.     521.53  E(vib)   ...       0.13
freq.     536.88  E(vib)   ...       0.12
freq.     573.18  E(vib)   ...       0.11
freq.     685.54  E(vib)   ...       0.07
freq.     719.96  E(vib)   ...       0.07
freq.     755.75  E(vib)   ...       0.06
freq.     757.20  E(vib)   ...       0.06
freq.     844.53  E(vib)   ...       0.04
freq.     915.37  E(vib)   ...       0.03
freq.     935.50  E(vib)   ...       0.03
freq.     936.45  E(vib)   ...       0.03
freq.     982.48  E(vib)   ...       0.02
freq.    1009.20  E(vib)   ...       0.02
freq.    1011.61  E(vib)   ...       0.02
freq.    1035.42  E(vib)   ...       0.02
freq.    1045.17  E(vib)   ...       0.02
freq.    1068.63  E(vib)   ...       0.02
freq.    1074.09  E(vib)   ...       0.02
freq.    1136.99  E(vib)   ...       0.01
freq.    1188.64  E(vib)   ...       0.01
freq.    1227.12  E(vib)   ...       0.01
freq.    1260.19  E(vib)   ...       0.01
freq.    1308.98  E(vib)   ...       0.01
freq.    1316.44  E(vib)   ...       0.01
freq.    1339.13  E(vib)   ...       0.01
freq.    1403.37  E(vib)   ...       0.00
freq.    1407.64  E(vib)   ...       0.00
freq.    1415.84  E(vib)   ...       0.00
freq.    1459.45  E(vib)   ...       0.00
freq.    1461.92  E(vib)   ...       0.00
freq.    1469.68  E(vib)   ...       0.00
freq.    1473.51  E(vib)   ...       0.00
freq.    1480.02  E(vib)   ...       0.00
freq.    1529.37  E(vib)   ...       0.00
freq.    1599.43  E(vib)   ...       0.00
freq.    1643.11  E(vib)   ...       0.00
freq.    1680.81  E(vib)   ...       0.00
freq.    3018.86  E(vib)   ...       0.00
freq.    3020.18  E(vib)   ...       0.00
freq.    3058.22  E(vib)   ...       0.00
freq.    3062.65  E(vib)   ...       0.00
freq.    3101.34  E(vib)   ...       0.00
freq.    3102.28  E(vib)   ...       0.00
freq.    3128.64  E(vib)   ...       0.00
freq.    3135.91  E(vib)   ...       0.00
freq.    3151.78  E(vib)   ...       0.00
freq.    3158.23  E(vib)   ...       0.00
freq.    3179.91  E(vib)   ...       0.00
freq.    3216.31  E(vib)   ...       0.00

------------
INNER ENERGY
------------

The inner energy is: U= E(el) + E(ZPE) + E(vib) + E(rot) + E(trans)
    E(el)   - is the total energy from the electronic structure calculation
              = E(kin-el) + E(nuc-el) + E(el-el) + E(nuc-nuc)
    E(ZPE)  - the the zero temperature vibrational energy from the frequency calculation
    E(vib)  - the the finite temperature correction to E(ZPE) due to population
              of excited vibrational states
    E(rot)  - is the rotational thermal energy
    E(trans)- is the translational thermal energy

Summary of contributions to the inner energy U:
Electronic energy                ...   -388.21124732 Eh
Zero point energy                ...      0.18735089 Eh     117.56 kcal/mol
Thermal vibrational correction   ...      0.00731086 Eh       4.59 kcal/mol
Thermal rotational correction    ...      0.00141627 Eh       0.89 kcal/mol
Thermal translational correction ...      0.00141627 Eh       0.89 kcal/mol
-----------------------------------------------------------------------
Total thermal energy                   -388.01375302 Eh

Summary of corrections to the electronic energy:
(perhaps to be used in another calculation)
Total thermal correction                  0.01014341 Eh       6.37 kcal/mol
Non-thermal (ZPE) correction              0.18735089 Eh     117.56 kcal/mol
-----------------------------------------------------------------------
Total correction                          0.19749429 Eh     123.93 kcal/mol

--------
ENTHALPY
--------

The enthalpy is H = U + kB*T
                kB is Boltzmann's constant
Total thermal energy              ...   -388.01375302 Eh
Thermal Enthalpy correction       ...      0.00094421 Eh       0.59 kcal/mol
-----------------------------------------------------------------------
Total Enthalpy                    ...   -388.01280881 Eh

Note: Only C1 symmetry has been detected, increase convergence thresholds
      if your molecule has a higher symmetry. Symmetry factor of 1.0 is
      used for the rotational entropy correction.

Note: Rotational entropy computed according to Herzberg
Infrared and Raman Spectra, Chapter V,1, Van Nostrand Reinhold, 1945
Point Group:  C1, Symmetry Number:   1
Rotational constants in cm-1:     0.097749     0.028750     0.022398

Vibrational entropy computed according to the QRRHO of S. Grimme
Chem.Eur.J. 2012 18 9955 using a reference frequency of 100.0 cm-1

-------
ENTROPY
-------

The entropy contributions are T*S = T*(S(el)+S(vib)+S(rot)+S(trans))
     S(el)   - electronic entropy
     S(vib)  - vibrational entropy
     S(rot)  - rotational entropy
     S(trans)- translational entropy
The entropies will be listed as multiplied by the temperature to get
units of energy

Electronic entropy                ...      0.00000000 Eh      0.00 kcal/mol
Vibrational entropy               ...      0.01255710 Eh      7.88 kcal/mol
Rotational entropy                ...      0.01407746 Eh      8.83 kcal/mol
Translational entropy             ...      0.01926665 Eh     12.09 kcal/mol
-----------------------------------------------------------------------
Final entropy term                ...      0.04590121 Eh     28.80 kcal/mol

In case the symmetry of your molecule has not been determined correctly
or in case you have a reason to use a different symmetry number we print
out the resulting rotational entropy values for sn=1,12:

 non-linear molecules -----------------------------------

                             ****ORCA TERMINATED NORMALLY****
TOTAL RUN TIME: 0 days 0 hours 41 minutes 9 seconds 265 msec
