                         Program Version 6.0.0  -   RELEASE  -
|  1> !TPSSh aug-cc-pVTZ d3 TightSCF SlowConv RIJCOSX defgrid2
|  2>
|  3> %pal
|  4> nprocs 15
|  5> end
|  6>
|  7> %scf
|  8> MaxIter 1500
|  9> end
| 10>
| 11> %maxcore 3500
| 12>
| 13> !CPCM
| 14> %cpcm smd true
| 15> SMDsolvent "WATER"
| 16> surfacetype gepol_ses
| 17> rsolv 1.40
| 18> end
| 19>
| 20> * xyz 0 1
| 21> C           0.00636908025291      0.00344693466191     -3.48568134762916
| 22> C          -0.07329586297975     -0.04398063872276      0.74138085624868
| 23> C           1.10272166896467     -0.10799321931825      1.50278690341546
| 24> C           1.00614211679588     -0.13690311443854      2.89048895011345
| 25> C          -0.25700371911238     -0.09995487217630      3.47371798070641
| 26> C          -1.36597504158140     -0.04157282452465      2.62711576918004
| 27> N          -1.28290853833089     -0.01622478520361      1.30443177594435
| 28> H           2.07864268736179     -0.16148217056008      1.01390529605249
| 29> H           1.90787256726744     -0.19674804501795      3.50759598842189
| 30> H          -0.38580781708437     -0.12069403978637      4.55934543988249
| 31> H          -2.37943344126066     -0.01230626984174      3.04845755675130
| 32> C          -0.01960087155986     -0.01156089996578     -0.74687997443611
| 33> C           1.03675391875749      0.62425707841442     -1.41531420429447
| 34> C           1.04680281402184      0.63075677304619     -2.80669132538117
| 35> C          -1.00064817669856     -0.59696094289784     -2.72713929450383
| 36> N          -1.01921053020765     -0.60549492558988     -1.40177260600152
| 37> H           1.82553959271218      1.12971852084172     -0.85261087525814
| 38> H           1.85413972205566      1.12838604917571     -3.35269269539613
| 39> H          -0.03136082161732     -0.01872909991858     -4.57822525423132
| 40> H          -1.83911827075703     -1.10093954717764     -3.22567631758471
| 41> *
| 42>
| 43>                          ****END OF INPUT****

CARTESIAN COORDINATES (ANGSTROEM)
---------------------------------
  C      0.006369    0.003447   -3.485681
  C     -0.073296   -0.043981    0.741381
  C      1.102722   -0.107993    1.502787
  C      1.006142   -0.136903    2.890489
  C     -0.257004   -0.099955    3.473718
  C     -1.365975   -0.041573    2.627116
  N     -1.282909   -0.016225    1.304432
  H      2.078643   -0.161482    1.013905
  H      1.907873   -0.196748    3.507596
  H     -0.385808   -0.120694    4.559345
  H     -2.379433   -0.012306    3.048458
  C     -0.019601   -0.011561   -0.746880
  C      1.036754    0.624257   -1.415314
  C      1.046803    0.630757   -2.806691
  C     -1.000648   -0.596961   -2.727139
  N     -1.019211   -0.605495   -1.401773
  H      1.825540    1.129719   -0.852611
  H      1.854140    1.128386   -3.352693
  H     -0.031361   -0.018729   -4.578225
  H     -1.839118   -1.100940   -3.225676

 Total Charge           Charge          ....    0
 Multiplicity           Mult            ....    1
 Number of Electrons    NEL             ....   82
 Basis Dimension        Dim             ....  736

ORBITAL ENERGIES
----------------

  NO   OCC          E(Eh)            E(eV)
   0   2.0000     -14.250583      -387.7781
   1   2.0000     -14.250570      -387.7777
   2   2.0000     -10.159228      -276.4467
   3   2.0000     -10.158984      -276.4400
   4   2.0000     -10.149460      -276.1808
   5   2.0000     -10.149447      -276.1805
   6   2.0000     -10.133115      -275.7361
   7   2.0000     -10.133074      -275.7349
   8   2.0000     -10.126414      -275.5537
   9   2.0000     -10.126384      -275.5529
  10   2.0000     -10.124081      -275.4903
  11   2.0000     -10.124071      -275.4900
  12   2.0000      -0.940134       -25.5823
  13   2.0000      -0.918630       -24.9972
  14   2.0000      -0.787633       -21.4326
  15   2.0000      -0.781811       -21.2742
  16   2.0000      -0.773571       -21.0499
  17   2.0000      -0.721785       -19.6408
  18   2.0000      -0.634779       -17.2732
  19   2.0000      -0.623803       -16.9746
  20   2.0000      -0.598642       -16.2899
  21   2.0000      -0.581125       -15.8132
  22   2.0000      -0.518116       -14.0986
  23   2.0000      -0.482235       -13.1223
  24   2.0000      -0.477121       -12.9831
  25   2.0000      -0.457414       -12.4469
  26   2.0000      -0.450836       -12.2679
  27   2.0000      -0.424798       -11.5594
  28   2.0000      -0.408011       -11.1025
  29   2.0000      -0.406173       -11.0525
  30   2.0000      -0.387285       -10.5385
  31   2.0000      -0.380803       -10.3622
  32   2.0000      -0.379279       -10.3207
  33   2.0000      -0.356078        -9.6894
  34   2.0000      -0.341107        -9.2820
  35   2.0000      -0.288668        -7.8550
  36   2.0000      -0.281207        -7.6520
  37   2.0000      -0.274428        -7.4676
  38   2.0000      -0.252298        -6.8654
  39   2.0000      -0.243402        -6.6233
  40   2.0000      -0.236221        -6.4279
  41   0.0000      -0.067019        -1.8237
  42   0.0000      -0.043449        -1.1823
  43   0.0000      -0.039473        -1.0741
  44   0.0000      -0.004688        -0.1276
  45   0.0000      -0.003506        -0.0954

MULLIKEN ATOMIC CHARGES
-----------------------
   0 C :   -0.013648
   1 C :    1.425628
   2 C :   -0.468607
   3 C :   -0.734127
   4 C :   -0.011958
   5 C :   -0.374016
   6 N :   -0.808379
   7 H :    0.010357
   8 H :    0.475217
   9 H :    0.139193
  10 H :    0.350851
  11 C :    1.401618
  12 C :   -0.468177
  13 C :   -0.734857
  14 C :   -0.361157
  15 N :   -0.805672
  16 H :    0.012412
  17 H :    0.478456
  18 H :    0.131376
  19 H :    0.355491
Sum of atomic charges:   -0.0000000

LOEWDIN ATOMIC CHARGES
----------------------
   0 C :    0.206896
   1 C :   -0.325708
   2 C :    0.219538
   3 C :    0.206762
   4 C :    0.206933
   5 C :    0.002980
   6 N :    0.363512
   7 H :   -0.167532
   8 H :   -0.156717
   9 H :   -0.167735
  10 H :   -0.182025
  11 C :   -0.325758
  12 C :    0.219634
  13 C :    0.206767
  14 C :    0.002992
  15 N :    0.363492
  16 H :   -0.167551
  17 H :   -0.156731
  18 H :   -0.167771
  19 H :   -0.181976

  Mayer bond orders larger than 0.100000
B(  0-C , 13-C ) :   1.4389 B(  0-C , 14-C ) :   0.9873 B(  0-C , 15-N ) :  -0.1303
B(  0-C , 18-H ) :   1.0019 B(  1-C ,  2-C ) :   0.7749 B(  1-C ,  3-C ) :  -0.2292
B(  1-C ,  6-N ) :  -0.1128 B(  1-C , 11-C ) :   0.2283 B(  1-C , 15-N ) :   0.2178
B(  2-C ,  3-C ) :   1.5941 B(  2-C ,  6-N ) :   0.1025 B(  2-C ,  7-H ) :   1.2343
B(  2-C ,  8-H ) :   0.1210 B(  3-C ,  4-C ) :   1.4433 B(  3-C ,  5-C ) :   0.2661
B(  3-C ,  6-N ) :   0.1366 B(  3-C ,  8-H ) :   0.5641 B(  4-C ,  5-C ) :   0.9932
B(  4-C ,  6-N ) :  -0.1290 B(  4-C ,  9-H ) :   0.9914 B(  5-C ,  6-N ) :   1.4936
B(  5-C , 10-H ) :   0.6722 B(  6-N , 11-C ) :   0.2263 B( 11-C , 12-C ) :   0.7838
B( 11-C , 13-C ) :  -0.2223 B( 11-C , 15-N ) :  -0.1006 B( 12-C , 13-C ) :   1.5984
B( 12-C , 15-N ) :   0.1008 B( 12-C , 16-H ) :   1.2321 B( 12-C , 17-H ) :   0.1212
B( 13-C , 14-C ) :   0.2655 B( 13-C , 15-N ) :   0.1374 B( 13-C , 17-H ) :   0.5599
B( 14-C , 15-N ) :   1.4945 B( 14-C , 19-H ) :   0.6685 B( 16-H , 18-H ) :   0.1041

Dispersion correction           -0.027439980
FINAL SINGLE POINT ENERGY      -495.618508869845

DIPOLE MOMENT
-------------

Method             : SCF
Type of density    : Electron Density
Multiplicity       :   1
Irrep              :   0
Energy             :  -495.5910688901001890 Eh
Relativity type    :
Basis              : AO
                                X                 Y                 Z
Electronic contribution:     -1.458516511      -0.373017183      -0.060797096
Nuclear contribution   :      3.378460210       0.864564887       0.140838942
                        -----------------------------------------
Total Dipole Moment    :      1.919943699       0.491547704       0.080041846
                        -----------------------------------------
Magnitude (a.u.)       :      1.983484220
Magnitude (Debye)      :      5.041616223

Rotational constants in cm-1:             0.098656             0.019232             0.016535
Rotational constants in MHz :          2957.622560           576.568291           495.704573

                             ****ORCA TERMINATED NORMALLY****
TOTAL RUN TIME: 0 days 0 hours 13 minutes 44 seconds 88 msec
