                         Program Version 6.0.0  -   RELEASE  -
|  1> !PBE0 def2-SV(p) Opt Freq d3 TightSCF SlowConv RIJCOSX defgrid2
|  2>
|  3> %pal
|  4> nprocs 15
|  5> end
|  6>
|  7> %scf
|  8> MaxIter 1500
|  9> end
| 10>
| 11> %maxcore 3500
| 12>
| 13>
| 14>
| 15> * xyz 0 1
| 16> C        0.000000000      0.000000000      0.000000000
| 17> C       -1.156068693     -0.354690359      0.698164000
| 18> C        1.156068693      0.354690359      0.698164000
| 19> H       -2.055493799     -0.630640582      0.154991000
| 20> H        2.055493799      0.630640582      0.154991000
| 21> C       -1.156068693     -0.354690359      2.094494000
| 22> C        1.156068693      0.354690359      2.094494000
| 23> H       -2.055493799     -0.630640582      2.637667000
| 24> H        2.055493799      0.630640582      2.637667000
| 25> C        0.000000000      0.000000000      2.792658000
| 26> O        0.000000000      0.000000000      4.232658000
| 27> O        0.000000000      0.000000000     -1.440000000
| 28> *
| 29>
| 30>                          ****END OF INPUT****
 Total Charge           Charge          ....    0
 Multiplicity           Mult            ....    1
 Number of Electrons    NEL             ....   56
Dispersion correction           -0.010325141
FINAL SINGLE POINT ENERGY      -380.637880226014
Dispersion correction             ... done (  0.1 sec)
Dispersion correction           -0.010392193
FINAL SINGLE POINT ENERGY      -380.702247658081
Dispersion correction             ... done (  0.1 sec)
Dispersion correction           -0.010443415
FINAL SINGLE POINT ENERGY      -380.736249842639
Dispersion correction             ... done (  0.1 sec)
FINAL SINGLE POINT ENERGY      -380.740971260582
FINAL SINGLE POINT ENERGY      -380.742122031194
FINAL SINGLE POINT ENERGY      -380.742203511511
Dispersion correction             ... done (  0.1 sec)
Dispersion correction           -0.010378495
FINAL SINGLE POINT ENERGY      -380.742226609543
Dispersion correction             ... done (  0.1 sec)
Dispersion correction           -0.010380399
FINAL SINGLE POINT ENERGY      -380.742232391032
Dispersion correction             ... done (  0.1 sec)
                    ***********************HURRAY********************

CARTESIAN COORDINATES (ANGSTROEM)
---------------------------------
  C     -0.000000    0.000001   -0.050691
  C     -1.209068   -0.370998    0.724982
  C      1.209068    0.370996    0.724982
  H     -2.089657   -0.641098    0.134137
  H      2.089659    0.641095    0.134137
  C     -1.209068   -0.370997    2.067676
  C      1.209068    0.370997    2.067676
  H     -2.089659   -0.641095    2.658520
  H      2.089659    0.641097    2.658520
  C     -0.000000    0.000000    2.843349
  O     -0.000000   -0.000000    4.057378
  O     -0.000001    0.000002   -1.264719

 Multiplicity           Mult            ....    1
 Number of Electrons    NEL             ....   56
 Basis Dimension        Dim             ....  120

ORBITAL ENERGIES
----------------

  NO   OCC          E(Eh)            E(eV)
   0   2.0000     -19.228343      -523.2298
   1   2.0000     -19.228320      -523.2292
   2   2.0000     -10.346137      -281.5327
   3   2.0000     -10.346067      -281.5308
   4   2.0000     -10.277457      -279.6638
   5   2.0000     -10.277406      -279.6624
   6   2.0000     -10.276692      -279.6430
   7   2.0000     -10.276656      -279.6420
   8   2.0000      -1.087619       -29.5956
   9   2.0000      -1.085501       -29.5380
  10   2.0000      -0.885268       -24.0894
  11   2.0000      -0.813099       -22.1256
  12   2.0000      -0.727004       -19.7828
  13   2.0000      -0.661915       -18.0116
  14   2.0000      -0.625280       -17.0147
  15   2.0000      -0.540631       -14.7113
  16   2.0000      -0.526250       -14.3200
  17   2.0000      -0.500548       -13.6206
  18   2.0000      -0.481571       -13.1042
  19   2.0000      -0.468290       -12.7428
  20   2.0000      -0.460788       -12.5387
  21   2.0000      -0.441638       -12.0176
  22   2.0000      -0.434940       -11.8353
  23   2.0000      -0.420443       -11.4408
  24   2.0000      -0.324619        -8.8333
  25   2.0000      -0.322724        -8.7818
  26   2.0000      -0.299232        -8.1425
  27   2.0000      -0.288029        -7.8377
  28   0.0000      -0.131650        -3.5824
  29   0.0000      -0.029410        -0.8003
  30   0.0000       0.014948         0.4068
  31   0.0000       0.070595         1.9210
  32   0.0000       0.089499         2.4354

MULLIKEN ATOMIC CHARGES
-----------------------
   0 C :    0.196290
   1 C :   -0.127648
   2 C :   -0.127649
   3 H :    0.126682
   4 H :    0.126682
   5 C :   -0.127649
   6 C :   -0.127648
   7 H :    0.126682
   8 H :    0.126682
   9 C :    0.196290
  10 O :   -0.194357
  11 O :   -0.194357
Sum of atomic charges:   -0.0000000

LOEWDIN ATOMIC CHARGES
----------------------
   0 C :    0.053095
   1 C :   -0.116791
   2 C :   -0.116792
   3 H :    0.148817
   4 H :    0.148817
   5 C :   -0.116791
   6 C :   -0.116791
   7 H :    0.148817
   8 H :    0.148817
   9 C :    0.053095
  10 O :   -0.117146
  11 O :   -0.117146

  Mayer bond orders larger than 0.100000
B(  0-C ,  1-C ) :   1.0046 B(  0-C ,  2-C ) :   1.0046 B(  0-C , 11-O ) :   2.0282
B(  1-C ,  3-H ) :   0.9526 B(  1-C ,  5-C ) :   1.6896 B(  2-C ,  4-H ) :   0.9526
B(  2-C ,  6-C ) :   1.6896 B(  5-C ,  7-H ) :   0.9526 B(  5-C ,  9-C ) :   1.0046
B(  6-C ,  8-H ) :   0.9526 B(  6-C ,  9-C ) :   1.0046 B(  9-C , 10-O ) :   2.0282

Dispersion correction           -0.010380638
FINAL SINGLE POINT ENERGY      -380.742233615907

DIPOLE MOMENT
-------------

Method             : SCF
Type of density    : Electron Density
Multiplicity       :   1
Irrep              :   0
Energy             :  -380.7318529782704104 Eh
Relativity type    :
Basis              : AO
                                X                 Y                 Z
Electronic contribution:     -0.000000986       0.000001858       0.000001954
Nuclear contribution   :      0.000002198      -0.000002102      -0.000001065
                        -----------------------------------------
Total Dipole Moment    :      0.000001212      -0.000000244       0.000000889
                        -----------------------------------------
Magnitude (a.u.)       :      0.000001523
Magnitude (Debye)      :      0.000003871

VIBRATIONAL FREQUENCIES
-----------------------

Scaling factor for frequencies =  1.000000000  (already applied!)

     0:       0.00 cm**-1
     1:       0.00 cm**-1
     2:       0.00 cm**-1
     3:       0.00 cm**-1
     4:       0.00 cm**-1
     5:       0.00 cm**-1
     6:      97.38 cm**-1
     7:     237.95 cm**-1
     8:     344.32 cm**-1
     9:     420.22 cm**-1
    10:     454.53 cm**-1
    11:     456.92 cm**-1
    12:     522.62 cm**-1
    13:     611.04 cm**-1
    14:     765.06 cm**-1
    15:     769.78 cm**-1
    16:     796.21 cm**-1
    17:     817.36 cm**-1
    18:     919.02 cm**-1
    19:     950.62 cm**-1
    20:    1033.57 cm**-1
    21:    1042.02 cm**-1
    22:    1079.74 cm**-1
    23:    1150.89 cm**-1
    24:    1242.42 cm**-1
    25:    1340.92 cm**-1
    26:    1379.96 cm**-1
    27:    1416.45 cm**-1
    28:    1695.86 cm**-1
    29:    1728.34 cm**-1
    30:    1818.35 cm**-1
    31:    1819.63 cm**-1
    32:    3207.48 cm**-1
    33:    3208.51 cm**-1
    34:    3224.65 cm**-1
    35:    3226.87 cm**-1

IR SPECTRUM
-----------

 Mode   freq       eps      Int      T**2         TX        TY        TZ
       cm**-1   L/(mol*cm) km/mol    a.u.
----------------------------------------------------------------------------
  6:     97.38   0.002388   12.07  0.007653  ( 0.025680 -0.083629  0.000000)
  7:    237.95   0.000000    0.00  0.000000  (-0.000000  0.000000  0.000000)
  8:    344.32   0.000000    0.00  0.000000  (-0.000000 -0.000000 -0.000032)
  9:    420.22   0.005117   25.86  0.003800  (-0.058934 -0.018079  0.000000)
 10:    454.53   0.000000    0.00  0.000000  ( 0.000002  0.000000 -0.000000)
 11:    456.92   0.000000    0.00  0.000000  (-0.000000  0.000000 -0.000000)
 12:    522.62   0.000570    2.88  0.000340  (-0.005426  0.017628  0.000000)
 13:    611.04   0.000000    0.00  0.000000  (-0.000000  0.000000 -0.000000)
 14:    765.06   0.000000    0.00  0.000000  ( 0.000000 -0.000000  0.000001)
 15:    769.78   0.000219    1.10  0.000089  (-0.000000 -0.000000  0.009415)
 16:    796.21   0.000000    0.00  0.000000  (-0.000000 -0.000000 -0.000000)
 17:    817.36   0.000000    0.00  0.000000  (-0.000000  0.000000 -0.000000)
 18:    919.02   0.015444   78.05  0.005244  ( 0.021261 -0.069226  0.000000)
 19:    950.62   0.003357   16.97  0.001102  ( 0.000000  0.000000  0.033198)
 20:   1033.57   0.000000    0.00  0.000000  (-0.000000 -0.000000  0.000006)
 21:   1042.02   0.000000    0.00  0.000000  (-0.000001 -0.000000  0.000000)
 22:   1079.74   0.009135   46.17  0.002640  ( 0.049123  0.015070 -0.000000)
 23:   1150.89   0.000000    0.00  0.000000  (-0.000002 -0.000001  0.000000)
 24:   1242.42   0.000000    0.00  0.000000  (-0.000001 -0.000000 -0.000000)
 25:   1340.92   0.017397   87.92  0.004049  (-0.060833 -0.018657  0.000000)
 26:   1379.96   0.001642    8.30  0.000371  (-0.000001 -0.000000 -0.019267)
 27:   1416.45   0.000000    0.00  0.000000  ( 0.000000  0.000000  0.000000)
 28:   1695.86   0.004132   20.88  0.000760  ( 0.026354  0.008116 -0.000000)
 29:   1728.34   0.000000    0.00  0.000000  ( 0.000000  0.000000  0.000000)
 30:   1818.35   0.000000    0.00  0.000000  (-0.000000  0.000000  0.000116)
 31:   1819.63   0.073750  372.70  0.012648  ( 0.000000 -0.000000  0.112463)
 32:   3207.48   0.000204    1.03  0.000020  ( 0.000000  0.000000 -0.004451)
 33:   3208.51   0.000000    0.00  0.000000  (-0.000001 -0.000000  0.000004)
 34:   3224.65   0.000261    1.32  0.000025  ( 0.004821  0.001416  0.000000)
 35:   3226.87   0.000000    0.00  0.000000  ( 0.000001  0.000000  0.000001)

--------------------------
THERMOCHEMISTRY AT 298.15K
--------------------------

Temperature         ...   298.15 K
Pressure            ...     1.00 atm
Total Mass          ...   108.10 AMU
Quasi RRHO          ...     True
Cut-Off Frequency   ...     1.00 cm^-1

Throughout the following assumptions are being made:
  (1) The electronic state is orbitally nondegenerate
  (2) There are no thermally accessible electronically excited states
  (3) Hindered rotations indicated by low frequency modes are not
      treated as such but are treated as vibrations and this may
      cause some error
  (4) All equations used are the standard statistical mechanics
      equations for an ideal gas
  (5) All vibrations are strictly harmonic

freq.      97.38  E(vib)   ...       0.46
freq.     237.95  E(vib)   ...       0.32
freq.     344.32  E(vib)   ...       0.23
freq.     420.22  E(vib)   ...       0.18
freq.     454.53  E(vib)   ...       0.16
freq.     456.92  E(vib)   ...       0.16
freq.     522.62  E(vib)   ...       0.13
freq.     611.04  E(vib)   ...       0.10
freq.     765.06  E(vib)   ...       0.06
freq.     769.78  E(vib)   ...       0.05
freq.     796.21  E(vib)   ...       0.05
freq.     817.36  E(vib)   ...       0.05
freq.     919.02  E(vib)   ...       0.03
freq.     950.62  E(vib)   ...       0.03
freq.    1033.57  E(vib)   ...       0.02
freq.    1042.02  E(vib)   ...       0.02
freq.    1079.74  E(vib)   ...       0.02
freq.    1150.89  E(vib)   ...       0.01
freq.    1242.42  E(vib)   ...       0.01
freq.    1340.92  E(vib)   ...       0.01
freq.    1379.96  E(vib)   ...       0.01
freq.    1416.45  E(vib)   ...       0.00
freq.    1695.86  E(vib)   ...       0.00
freq.    1728.34  E(vib)   ...       0.00
freq.    1818.35  E(vib)   ...       0.00
freq.    1819.63  E(vib)   ...       0.00
freq.    3207.48  E(vib)   ...       0.00
freq.    3208.51  E(vib)   ...       0.00
freq.    3224.65  E(vib)   ...       0.00
freq.    3226.87  E(vib)   ...       0.00

------------
INNER ENERGY
------------

The inner energy is: U= E(el) + E(ZPE) + E(vib) + E(rot) + E(trans)
    E(el)   - is the total energy from the electronic structure calculation
              = E(kin-el) + E(nuc-el) + E(el-el) + E(nuc-nuc)
    E(ZPE)  - the the zero temperature vibrational energy from the frequency calculation
    E(vib)  - the the finite temperature correction to E(ZPE) due to population
              of excited vibrational states
    E(rot)  - is the rotational thermal energy
    E(trans)- is the translational thermal energy

Summary of contributions to the inner energy U:
Electronic energy                ...   -380.74223362 Eh
Zero point energy                ...      0.08606619 Eh      54.01 kcal/mol
Thermal vibrational correction   ...      0.00336192 Eh       2.11 kcal/mol
Thermal rotational correction    ...      0.00141627 Eh       0.89 kcal/mol
Thermal translational correction ...      0.00141627 Eh       0.89 kcal/mol
-----------------------------------------------------------------------
Total thermal energy                   -380.64997296 Eh

Summary of corrections to the electronic energy:
(perhaps to be used in another calculation)
Total thermal correction                  0.00619447 Eh       3.89 kcal/mol
Non-thermal (ZPE) correction              0.08606619 Eh      54.01 kcal/mol
-----------------------------------------------------------------------
Total correction                          0.09226065 Eh      57.89 kcal/mol

--------
ENTHALPY
--------

The enthalpy is H = U + kB*T
                kB is Boltzmann's constant
Total thermal energy              ...   -380.64997296 Eh
Thermal Enthalpy correction       ...      0.00094421 Eh       0.59 kcal/mol
-----------------------------------------------------------------------
Total Enthalpy                    ...   -380.64902875 Eh

Note: Rotational entropy computed according to Herzberg
Infrared and Raman Spectra, Chapter V,1, Van Nostrand Reinhold, 1945
Point Group:  D2h, Symmetry Number:   4
Rotational constants in cm-1:     0.175401     0.055278     0.042032

Vibrational entropy computed according to the QRRHO of S. Grimme
Chem.Eur.J. 2012 18 9955 using a reference frequency of 100.0 cm-1

-------
ENTROPY
-------

The entropy contributions are T*S = T*(S(el)+S(vib)+S(rot)+S(trans))
     S(el)   - electronic entropy
     S(vib)  - vibrational entropy
     S(rot)  - rotational entropy
     S(trans)- translational entropy
The entropies will be listed as multiplied by the temperature to get
units of energy

Electronic entropy                ...      0.00000000 Eh      0.00 kcal/mol
Vibrational entropy               ...      0.00531816 Eh      3.34 kcal/mol
Rotational entropy                ...      0.01188675 Eh      7.46 kcal/mol
Translational entropy             ...      0.01898150 Eh     11.91 kcal/mol
-----------------------------------------------------------------------
Final entropy term                ...      0.03618640 Eh     22.71 kcal/mol

In case the symmetry of your molecule has not been determined correctly
or in case you have a reason to use a different symmetry number we print
out the resulting rotational entropy values for sn=1,12:

 non-linear molecules -----------------------------------
|  sn= 1 | S(rot)=       0.01319566 Eh      8.28 kcal/mol|
|  sn= 2 | S(rot)=       0.01254120 Eh      7.87 kcal/mol|
|  sn= 3 | S(rot)=       0.01215837 Eh      7.63 kcal/mol|
|  sn= 4 | S(rot)=       0.01188675 Eh      7.46 kcal/mol|
|  sn= 5 | S(rot)=       0.01167606 Eh      7.33 kcal/mol|
|  sn= 6 | S(rot)=       0.01150391 Eh      7.22 kcal/mol|
|  sn= 7 | S(rot)=       0.01135837 Eh      7.13 kcal/mol|
|  sn= 8 | S(rot)=       0.01123229 Eh      7.05 kcal/mol|
|  sn= 9 | S(rot)=       0.01112108 Eh      6.98 kcal/mol|
|  sn=10 | S(rot)=       0.01102160 Eh      6.92 kcal/mol|
|  sn=11 | S(rot)=       0.01093161 Eh      6.86 kcal/mol|
|  sn=12 | S(rot)=       0.01084946 Eh      6.81 kcal/mol|
 linear molecules ---------------------------------------
|  Dinfh | S(rot)=       0.00831823 Eh      5.22 kcal/mol|
|  Cinfv | S(rot)=       0.00897268 Eh      5.63 kcal/mol|
 --------------------------------------------------------

-------------------
GIBBS FREE ENERGY
-------------------

The Gibbs free energy is G = H - T*S

Total enthalpy                    ...   -380.64902875 Eh
Total entropy correction          ...     -0.03618640 Eh    -22.71 kcal/mol
-----------------------------------------------------------------------
Final Gibbs free energy         ...   -380.68521515 Eh

For completeness - the Gibbs free energy minus the electronic energy
G-E(el)                           ...      0.05701846 Eh     35.78 kcal/mol

                             ****ORCA TERMINATED NORMALLY****
TOTAL RUN TIME: 0 days 0 hours 13 minutes 5 seconds 215 msec
