                         Program Version 6.0.0  -   RELEASE  -
|  1> !r2SCANh aug-cc-pVTZ d3 TightSCF SlowConv RIJCOSX defgrid2
|  2>
|  3> %pal
|  4> nprocs 4
|  5> end
|  6>
|  7> %scf
|  8> MaxIter 1500
|  9> end
| 10>
| 11> %maxcore 3000
| 12>
| 13> !CPCM
| 14> %cpcm smd true
| 15> SMDsolvent "MeCN"
| 16> surfacetype gepol_ses
| 17> rsolv 2.19
| 18> end
| 19>
| 20> * xyz 0 1
| 21> C           0.42903816797988     -1.14370342260353     -0.19375133840947
| 22> N           1.23090536349830     -0.00018108549555      0.21241157549017
| 23> H           1.32661660064153     -0.00085078462932      1.22885627448115
| 24> C           0.42918767964663      1.14398838233565     -0.19235272832111
| 25> C          -1.04960974603338      0.77261574951429      0.06492785280490
| 26> C          -1.04906283726916     -0.77294678133786      0.06683505909787
| 27> H          -1.38035607535846     -1.16390392177494      1.04420027054079
| 28> H          -1.72458244369567     -1.20024957174541     -0.69292350481507
| 29> H          -1.38487048878375      1.16593613289024      1.03994785440171
| 30> H          -1.72261217593395      1.19722636930467     -0.69855684493278
| 31> H           0.59041632586080      1.31476098653939     -1.27323726969509
| 32> H           0.75473592936517      2.05790809606369      0.33083351670359
| 33> H           0.58863701367587     -1.31196075363090     -1.27529624277050
| 34> H           0.75559928640620     -2.05873729543043      0.32686602542384
| 35> *
| 36>
| 37>                          ****END OF INPUT****

CARTESIAN COORDINATES (ANGSTROEM)
---------------------------------
  C      0.429038   -1.143703   -0.193751
  N      1.230905   -0.000181    0.212412
  H      1.326617   -0.000851    1.228856
  C      0.429188    1.143988   -0.192353
  C     -1.049610    0.772616    0.064928
  C     -1.049063   -0.772947    0.066835
  H     -1.380356   -1.163904    1.044200
  H     -1.724582   -1.200250   -0.692924
  H     -1.384870    1.165936    1.039948
  H     -1.722612    1.197226   -0.698557
  H      0.590416    1.314761   -1.273237
  H      0.754736    2.057908    0.330834
  H      0.588637   -1.311961   -1.275296
  H      0.755599   -2.058737    0.326866

 Total Charge           Charge          ....    0
 Multiplicity           Mult            ....    1
 Number of Electrons    NEL             ....   40
 Basis Dimension        Dim             ....  437

ORBITAL ENERGIES
----------------

  NO   OCC          E(Eh)            E(eV)
   0   2.0000     -14.284307      -388.6958
   1   2.0000     -10.165908      -276.6284
   2   2.0000     -10.165901      -276.6282
   3   2.0000     -10.141274      -275.9581
   4   2.0000     -10.141125      -275.9540
   5   2.0000      -0.916524       -24.9399
   6   2.0000      -0.744646       -20.2629
   7   2.0000      -0.706578       -19.2270
   8   2.0000      -0.585646       -15.9362
   9   2.0000      -0.559266       -15.2184
  10   2.0000      -0.488487       -13.2924
  11   2.0000      -0.450282       -12.2528
  12   2.0000      -0.412366       -11.2210
  13   2.0000      -0.408623       -11.1192
  14   2.0000      -0.354329        -9.6418
  15   2.0000      -0.334013        -9.0890
  16   2.0000      -0.320934        -8.7331
  17   2.0000      -0.320776        -8.7288
  18   2.0000      -0.294856        -8.0234
  19   2.0000      -0.222339        -6.0501
  20   0.0000       0.013508         0.3676
  21   0.0000       0.029045         0.7904
  22   0.0000       0.034392         0.9359
  23   0.0000       0.034925         0.9504
  24   0.0000       0.053249         1.4490

MULLIKEN ATOMIC CHARGES
-----------------------
   0 C :   -0.278968
   1 N :   -0.372930
   2 H :    0.014149
   3 C :   -0.277272
   4 C :   -0.330771
   5 C :   -0.328979
   6 H :    0.138056
   7 H :    0.212878
   8 H :    0.140182
   9 H :    0.210031
  10 H :    0.169478
  11 H :    0.267922
  12 H :    0.168262
  13 H :    0.267961
Sum of atomic charges:    0.0000000

LOEWDIN ATOMIC CHARGES
----------------------
   0 C :    0.149430
   1 N :    0.535399
   2 H :   -0.293936
   3 C :    0.149651
   4 C :    0.301126
   5 C :    0.300954
   6 H :   -0.147146
   7 H :   -0.145076
   8 H :   -0.147194
   9 H :   -0.145168
  10 H :   -0.143457
  11 H :   -0.135653
  12 H :   -0.143331
  13 H :   -0.135598

  Mayer bond orders larger than 0.100000
B(  0-C ,  1-N ) :   0.8447 B(  0-C ,  5-C ) :   0.9092 B(  0-C , 12-H ) :   1.0271
B(  0-C , 13-H ) :   0.9142 B(  1-N ,  2-H ) :   0.9462 B(  1-N ,  3-C ) :   0.8427
B(  3-C ,  4-C ) :   0.9096 B(  3-C , 10-H ) :   1.0267 B(  3-C , 11-H ) :   0.9139
B(  4-C ,  5-C ) :   0.9096 B(  4-C ,  8-H ) :   1.0338 B(  4-C ,  9-H ) :   0.9143
B(  5-C ,  6-H ) :   1.0356 B(  5-C ,  7-H ) :   0.9113

Dispersion correction           -0.002976292
FINAL SINGLE POINT ENERGY      -212.532656550322

DIPOLE MOMENT
-------------

Method             : SCF
Type of density    : Electron Density
Multiplicity       :   1
Irrep              :   0
Energy             :  -212.5296802579581481 Eh
Relativity type    :
Basis              : AO
                                X                 Y                 Z
Electronic contribution:      1.469260255      -0.000978786       0.341135547
Nuclear contribution   :     -2.069088816       0.000471850       0.035748568
                        -----------------------------------------
Total Dipole Moment    :     -0.599828561      -0.000506936       0.376884115
                        -----------------------------------------
Magnitude (a.u.)       :      0.708403978
Magnitude (Debye)      :      1.800619815

Rotational constants in cm-1:             0.230180             0.223654             0.130688
Rotational constants in MHz :          6900.610800          6704.969164          3917.942142

                             ****ORCA TERMINATED NORMALLY****
TOTAL RUN TIME: 0 days 0 hours 2 minutes 32 seconds 510 msec
