                         Program Version 6.0.0  -   RELEASE  -
|  1> !PBE0 def2-SV(p) Opt Freq d3 TightSCF SlowConv RIJCOSX defgrid2
|  2>
|  3> %pal
|  4> nprocs 4
|  5> end
|  6>
|  7> %scf
|  8> MaxIter 1500
|  9> end
| 10>
| 11> %maxcore 3000
| 12>
| 13>
| 14>
| 15> * xyz 0 1
| 16> C    -0.6841979    1.1979351    0.0101140
| 17> C     0.6967547    1.1916043    0.0070638
| 18> C     1.4124371    0.0003694    0.0066624
| 19> C     2.9132587   -0.0002504   -0.0151623
| 20> H     3.3073253    0.8939525    0.4626182
| 21> H     3.2742970   -0.0197346   -1.0445334
| 22> H     3.3069044   -0.8765159    0.4952904
| 23> C     0.6969812   -1.1911670    0.0068983
| 24> C    -0.6838554   -1.1979033    0.0098363
| 25> C    -1.4000178   -0.0000390    0.0097831
| 26> N    -2.7807111   -0.0002683   -0.0608464
| 27> H    -3.2363971   -0.8465501    0.2407810
| 28> H    -3.2366719    0.8458435    0.2408415
| 29> H    -1.2209600   -2.1362301    0.0124223
| 30> H     1.2308983   -2.1316477    0.0095073
| 31> H     1.2302152    2.1323505    0.0097819
| 32> H    -1.2215057    2.1361446    0.0129761
| 33> *
| 34>
| 35>                          ****END OF INPUT****
 Total Charge           Charge          ....    0
 Multiplicity           Mult            ....    1
 Number of Electrons    NEL             ....   58
Dispersion correction           -0.014336238
FINAL SINGLE POINT ENERGY      -326.286360573382
Dispersion correction             ... done (  0.1 sec)
Dispersion correction           -0.014254954
FINAL SINGLE POINT ENERGY      -326.288144709152
Dispersion correction             ... done (  0.1 sec)
Dispersion correction           -0.014244577
FINAL SINGLE POINT ENERGY      -326.288210648873
Dispersion correction             ... done (  0.1 sec)
Dispersion correction           -0.014239964
FINAL SINGLE POINT ENERGY      -326.288234547591
Dispersion correction             ... done (  0.1 sec)
                    ***********************HURRAY********************

CARTESIAN COORDINATES (ANGSTROEM)
---------------------------------
  C     -0.694717    1.201604    0.002543
  C      0.696121    1.192919    0.009686
  C      1.427787    0.000184    0.010078
  C      2.930631   -0.000279   -0.018292
  H      3.344024    0.900787    0.466037
  H      3.317301   -0.020141   -1.055035
  H      3.344596   -0.882063    0.500083
  C      0.696190   -1.192808    0.009275
  C     -0.694481   -1.201625    0.002112
  C     -1.421129    0.000012   -0.003899
  N     -2.804576   -0.000217   -0.059003
  H     -3.265713   -0.846589    0.254609
  H     -3.265979    0.846026    0.254566
  H     -1.232443   -2.155528    0.001338
  H      1.230011   -2.149470    0.018549
  H      1.229855    2.149607    0.019265
  H     -1.232722    2.155476    0.002120

 Multiplicity           Mult            ....    1
 Number of Electrons    NEL             ....   58
 Basis Dimension        Dim             ....  130

ORBITAL ENERGIES
----------------

  NO   OCC          E(Eh)            E(eV)
   0   2.0000     -14.389112      -391.5476
   1   2.0000     -10.269077      -279.4358
   2   2.0000     -10.225724      -278.2561
   3   2.0000     -10.224468      -278.2219
   4   2.0000     -10.224394      -278.2199
   5   2.0000     -10.221513      -278.1415
   6   2.0000     -10.221443      -278.1396
   7   2.0000     -10.217654      -278.0365
   8   2.0000      -0.934893       -25.4397
   9   2.0000      -0.853459       -23.2238
  10   2.0000      -0.765559       -20.8319
  11   2.0000      -0.751360       -20.4455
  12   2.0000      -0.681821       -18.5533
  13   2.0000      -0.622666       -16.9436
  14   2.0000      -0.591529       -16.0963
  15   2.0000      -0.532483       -14.4896
  16   2.0000      -0.526872       -14.3369
  17   2.0000      -0.468560       -12.7502
  18   2.0000      -0.450972       -12.2716
  19   2.0000      -0.434828       -11.8323
  20   2.0000      -0.423198       -11.5158
  21   2.0000      -0.423151       -11.5145
  22   2.0000      -0.387827       -10.5533
  23   2.0000      -0.385822       -10.4987
  24   2.0000      -0.360688        -9.8148
  25   2.0000      -0.340875        -9.2757
  26   2.0000      -0.311445        -8.4749
  27   2.0000      -0.256589        -6.9822
  28   2.0000      -0.204971        -5.5775
  29   0.0000       0.006407         0.1743
  30   0.0000       0.023655         0.6437
  31   0.0000       0.069092         1.8801
  32   0.0000       0.084025         2.2864
  33   0.0000       0.098297         2.6748

MULLIKEN ATOMIC CHARGES
-----------------------
   0 C :   -0.156674
   1 C :   -0.142289
   2 C :   -0.002877
   3 C :   -0.291439
   4 H :    0.125611
   5 H :    0.138808
   6 H :    0.126059
   7 C :   -0.141805
   8 C :   -0.156650
   9 C :    0.164030
  10 N :   -0.434545
  11 H :    0.244156
  12 H :    0.244159
  13 H :    0.065533
  14 H :    0.076232
  15 H :    0.076243
  16 H :    0.065450
Sum of atomic charges:   -0.0000000

LOEWDIN ATOMIC CHARGES
----------------------
   0 C :   -0.167919
   1 C :   -0.117528
   2 C :   -0.086345
   3 C :   -0.327528
   4 H :    0.125379
   5 H :    0.130414
   6 H :    0.125591
   7 C :   -0.117350
   8 C :   -0.167731
   9 C :   -0.000843
  10 N :   -0.349522
  11 H :    0.230272
  12 H :    0.230276
  13 H :    0.122436
  14 H :    0.123990
  15 H :    0.123976
  16 H :    0.122434

  Mayer bond orders larger than 0.100000
B(  0-C ,  1-C ) :   1.4077 B(  0-C ,  9-C ) :   1.3383 B(  0-C , 16-H ) :   0.9630
B(  1-C ,  2-C ) :   1.3952 B(  1-C , 15-H ) :   0.9601 B(  2-C ,  3-C ) :   1.0741
B(  2-C ,  7-C ) :   1.3931 B(  3-C ,  4-H ) :   0.9491 B(  3-C ,  5-H ) :   0.9369
B(  3-C ,  6-H ) :   0.9488 B(  7-C ,  8-C ) :   1.4091 B(  7-C , 14-H ) :   0.9605
B(  8-C ,  9-C ) :   1.3374 B(  8-C , 13-H ) :   0.9629 B(  9-C , 10-N ) :   1.1902
B( 10-N , 11-H ) :   0.8818 B( 10-N , 12-H ) :   0.8818

Dispersion correction           -0.014240512
FINAL SINGLE POINT ENERGY      -326.288235582733

DIPOLE MOMENT
-------------

Method             : SCF
Type of density    : Electron Density
Multiplicity       :   1
Irrep              :   0
Energy             :  -326.2739950703219165 Eh
Relativity type    :
Basis              : AO
                                X                 Y                 Z
Electronic contribution:     -3.810732845      -0.000129542      -0.093587989
Nuclear contribution   :      3.276071104      -0.001396692       0.450262688
                        -----------------------------------------
Total Dipole Moment    :     -0.534661741      -0.001526234       0.356674699
                        -----------------------------------------
Magnitude (a.u.)       :      0.642714826
Magnitude (Debye)      :      1.633651259

VIBRATIONAL FREQUENCIES
-----------------------

Scaling factor for frequencies =  1.000000000  (already applied!)

     0:       0.00 cm**-1
     1:       0.00 cm**-1
     2:       0.00 cm**-1
     3:       0.00 cm**-1
     4:       0.00 cm**-1
     5:       0.00 cm**-1
     6:      37.92 cm**-1
     7:     142.10 cm**-1
     8:     301.30 cm**-1
     9:     314.32 cm**-1
    10:     326.64 cm**-1
    11:     411.70 cm**-1
    12:     423.17 cm**-1
    13:     470.18 cm**-1
    14:     501.90 cm**-1
    15:     545.48 cm**-1
    16:     658.41 cm**-1
    17:     735.03 cm**-1
    18:     765.70 cm**-1
    19:     831.70 cm**-1
    20:     840.50 cm**-1
    21:     869.04 cm**-1
    22:     956.95 cm**-1
    23:     974.96 cm**-1
    24:    1004.72 cm**-1
    25:    1030.76 cm**-1
    26:    1064.86 cm**-1
    27:    1092.02 cm**-1
    28:    1148.15 cm**-1
    29:    1198.48 cm**-1
    30:    1259.54 cm**-1
    31:    1338.04 cm**-1
    32:    1352.73 cm**-1
    33:    1399.37 cm**-1
    34:    1412.18 cm**-1
    35:    1469.30 cm**-1
    36:    1471.73 cm**-1
    37:    1500.45 cm**-1
    38:    1584.13 cm**-1
    39:    1659.40 cm**-1
    40:    1663.34 cm**-1
    41:    1722.78 cm**-1
    42:    3026.24 cm**-1
    43:    3105.70 cm**-1
    44:    3135.19 cm**-1
    45:    3175.76 cm**-1
    46:    3176.76 cm**-1
    47:    3192.71 cm**-1
    48:    3195.76 cm**-1
    49:    3563.00 cm**-1
    50:    3660.33 cm**-1

IR SPECTRUM
-----------

 Mode   freq       eps      Int      T**2         TX        TY        TZ
       cm**-1   L/(mol*cm) km/mol    a.u.
----------------------------------------------------------------------------
  6:     37.92   0.000129    0.65  0.001061  (-0.000095  0.032548 -0.001276)
  7:    142.10   0.000995    5.03  0.002185  (-0.017804 -0.000165 -0.043216)
  8:    301.30   0.001019    5.15  0.001055  ( 0.000145 -0.032480  0.000013)
  9:    314.32   0.002567   12.97  0.002548  (-0.000162 -0.050478 -0.000072)
 10:    326.64   0.000586    2.96  0.000560  ( 0.022462 -0.000030  0.007452)
 11:    411.70   0.000001    0.01  0.000001  (-0.000195 -0.000843 -0.000085)
 12:    423.17   0.000037    0.19  0.000028  (-0.000045 -0.005245  0.000106)
 13:    470.18   0.000662    3.34  0.000439  ( 0.017447  0.000060  0.011606)
 14:    501.90   0.052254  264.07  0.032490  ( 0.122278  0.000005  0.132430)
 15:    545.48   0.021666  109.49  0.012395  ( 0.101055 -0.000002  0.046724)
 16:    658.41   0.000009    0.05  0.000004  ( 0.000007  0.002060 -0.000017)
 17:    735.03   0.000101    0.51  0.000043  (-0.005200 -0.000026  0.003971)
 18:    765.70   0.000287    1.45  0.000117  ( 0.010796 -0.000102 -0.000629)
 19:    831.70   0.000026    0.13  0.000010  ( 0.000040 -0.003141  0.000201)
 20:    840.50   0.009587   48.45  0.003559  (-0.010806 -0.000008 -0.058674)
 21:    869.04   0.000203    1.03  0.000073  (-0.007509 -0.000007  0.004073)
 22:    956.95   0.000306    1.55  0.000100  ( 0.002182  0.000003 -0.009755)
 23:    974.96   0.000003    0.01  0.000001  ( 0.000043 -0.000936 -0.000070)
 24:   1004.72   0.000086    0.43  0.000027  (-0.000766  0.005101  0.000066)
 25:   1030.76   0.000079    0.40  0.000024  ( 0.003638 -0.000016  0.003277)
 26:   1064.86   0.002078   10.50  0.000609  ( 0.018810 -0.000033 -0.015970)
 27:   1092.02   0.000463    2.34  0.000132  ( 0.000243 -0.011496 -0.000015)
 28:   1148.15   0.002318   11.71  0.000630  (-0.000072  0.025100  0.000013)
 29:   1198.48   0.001397    7.06  0.000364  (-0.019067 -0.000005  0.000398)
 30:   1259.54   0.000206    1.04  0.000051  ( 0.006935 -0.000142 -0.001681)
 31:   1338.04   0.000062    0.31  0.000015  ( 0.000411  0.003789  0.000006)
 32:   1352.73   0.010477   52.94  0.002417  (-0.049086 -0.000141 -0.002718)
 33:   1399.37   0.001994   10.08  0.000445  (-0.000080  0.021087 -0.000014)
 34:   1412.18   0.000117    0.59  0.000026  ( 0.005081  0.000211  0.000314)
 35:   1469.30   0.001755    8.87  0.000373  (-0.000067  0.019296 -0.000638)
 36:   1471.73   0.001693    8.56  0.000359  (-0.002579 -0.000603 -0.018763)
 37:   1500.45   0.000741    3.75  0.000154  ( 0.000246  0.012415  0.000027)
 38:   1584.13   0.019106   96.56  0.003764  ( 0.061250 -0.000011  0.003506)
 39:   1659.40   0.017864   90.28  0.003359  ( 0.055485 -0.000174 -0.016758)
 40:   1663.34   0.000680    3.44  0.000128  (-0.001261 -0.011224  0.000269)
 41:   1722.78   0.020618  104.19  0.003735  (-0.061048  0.000009  0.002789)
 42:   3026.24   0.007855   39.69  0.000810  (-0.028126  0.000068  0.004343)
 43:   3105.70   0.002608   13.18  0.000262  (-0.005201  0.000065 -0.015329)
 44:   3135.19   0.002147   10.85  0.000214  (-0.000137 -0.014618 -0.000000)
 45:   3175.76   0.005177   26.16  0.000509  ( 0.022554 -0.000053  0.000081)
 46:   3176.76   0.000024    0.12  0.000002  (-0.001531 -0.000018 -0.000006)
 47:   3192.71   0.006525   32.97  0.000638  (-0.000117 -0.025254 -0.000003)
 48:   3195.76   0.000068    0.35  0.000007  (-0.002528  0.000494  0.000185)
 49:   3563.00   0.006518   32.94  0.000571  (-0.021982 -0.000004  0.009362)
 50:   3660.33   0.004121   20.83  0.000351  ( 0.000006 -0.018744  0.000001)

--------------------------
THERMOCHEMISTRY AT 298.15K
--------------------------

Temperature         ...   298.15 K
Pressure            ...     1.00 atm
Total Mass          ...   107.16 AMU
Quasi RRHO          ...     True
Cut-Off Frequency   ...     1.00 cm^-1

Throughout the following assumptions are being made:
  (1) The electronic state is orbitally nondegenerate
  (2) There are no thermally accessible electronically excited states
  (3) Hindered rotations indicated by low frequency modes are not
      treated as such but are treated as vibrations and this may
      cause some error
  (4) All equations used are the standard statistical mechanics
      equations for an ideal gas
  (5) All vibrations are strictly harmonic

freq.      37.92  E(vib)   ...       0.54
freq.     142.10  E(vib)   ...       0.41
freq.     301.30  E(vib)   ...       0.26
freq.     314.32  E(vib)   ...       0.25
freq.     326.64  E(vib)   ...       0.24
freq.     411.70  E(vib)   ...       0.19
freq.     423.17  E(vib)   ...       0.18
freq.     470.18  E(vib)   ...       0.16
freq.     501.90  E(vib)   ...       0.14
freq.     545.48  E(vib)   ...       0.12
freq.     658.41  E(vib)   ...       0.08
freq.     735.03  E(vib)   ...       0.06
freq.     765.70  E(vib)   ...       0.06
freq.     831.70  E(vib)   ...       0.04
freq.     840.50  E(vib)   ...       0.04
freq.     869.04  E(vib)   ...       0.04
freq.     956.95  E(vib)   ...       0.03
freq.     974.96  E(vib)   ...       0.03
freq.    1004.72  E(vib)   ...       0.02
freq.    1030.76  E(vib)   ...       0.02
freq.    1064.86  E(vib)   ...       0.02
freq.    1092.02  E(vib)   ...       0.02
freq.    1148.15  E(vib)   ...       0.01
freq.    1198.48  E(vib)   ...       0.01
freq.    1259.54  E(vib)   ...       0.01
freq.    1338.04  E(vib)   ...       0.01
freq.    1352.73  E(vib)   ...       0.01
freq.    1399.37  E(vib)   ...       0.00
freq.    1412.18  E(vib)   ...       0.00
freq.    1469.30  E(vib)   ...       0.00
freq.    1471.73  E(vib)   ...       0.00
freq.    1500.45  E(vib)   ...       0.00
freq.    1584.13  E(vib)   ...       0.00
freq.    1659.40  E(vib)   ...       0.00
freq.    1663.34  E(vib)   ...       0.00
freq.    1722.78  E(vib)   ...       0.00
freq.    3026.24  E(vib)   ...       0.00
freq.    3105.70  E(vib)   ...       0.00
freq.    3135.19  E(vib)   ...       0.00
freq.    3175.76  E(vib)   ...       0.00
freq.    3176.76  E(vib)   ...       0.00
freq.    3192.71  E(vib)   ...       0.00
freq.    3195.76  E(vib)   ...       0.00
freq.    3563.00  E(vib)   ...       0.00
freq.    3660.33  E(vib)   ...       0.00

------------
INNER ENERGY
------------

The inner energy is: U= E(el) + E(ZPE) + E(vib) + E(rot) + E(trans)
    E(el)   - is the total energy from the electronic structure calculation
              = E(kin-el) + E(nuc-el) + E(el-el) + E(nuc-nuc)
    E(ZPE)  - the the zero temperature vibrational energy from the frequency calculation
    E(vib)  - the the finite temperature correction to E(ZPE) due to population
              of excited vibrational states
    E(rot)  - is the rotational thermal energy
    E(trans)- is the translational thermal energy

Summary of contributions to the inner energy U:
Electronic energy                ...   -326.28823558 Eh
Zero point energy                ...      0.14514301 Eh      91.08 kcal/mol
Thermal vibrational correction   ...      0.00480906 Eh       3.02 kcal/mol
Thermal rotational correction    ...      0.00141627 Eh       0.89 kcal/mol
Thermal translational correction ...      0.00141627 Eh       0.89 kcal/mol
-----------------------------------------------------------------------
Total thermal energy                   -326.13545097 Eh

Summary of corrections to the electronic energy:
(perhaps to be used in another calculation)
Total thermal correction                  0.00764161 Eh       4.80 kcal/mol
Non-thermal (ZPE) correction              0.14514301 Eh      91.08 kcal/mol
-----------------------------------------------------------------------
Total correction                          0.15278462 Eh      95.87 kcal/mol

--------
ENTHALPY
--------

The enthalpy is H = U + kB*T
                kB is Boltzmann's constant
Total thermal energy              ...   -326.13545097 Eh
Thermal Enthalpy correction       ...      0.00094421 Eh       0.59 kcal/mol
-----------------------------------------------------------------------
Total Enthalpy                    ...   -326.13450676 Eh

Note: Only C1 symmetry has been detected, increase convergence thresholds
      if your molecule has a higher symmetry. Symmetry factor of 1.0 is
      used for the rotational entropy correction.

Note: Rotational entropy computed according to Herzberg
Infrared and Raman Spectra, Chapter V,1, Van Nostrand Reinhold, 1945
Point Group:  C1, Symmetry Number:   1
Rotational constants in cm-1:     0.182492     0.048394     0.038562

Vibrational entropy computed according to the QRRHO of S. Grimme
Chem.Eur.J. 2012 18 9955 using a reference frequency of 100.0 cm-1

-------
ENTROPY
-------

The entropy contributions are T*S = T*(S(el)+S(vib)+S(rot)+S(trans))
     S(el)   - electronic entropy
     S(vib)  - vibrational entropy
     S(rot)  - rotational entropy
     S(trans)- translational entropy
The entropies will be listed as multiplied by the temperature to get
units of energy

Electronic entropy                ...      0.00000000 Eh      0.00 kcal/mol
Vibrational entropy               ...      0.00785748 Eh      4.93 kcal/mol
Rotational entropy                ...      0.01328041 Eh      8.33 kcal/mol
Translational entropy             ...      0.01896913 Eh     11.90 kcal/mol
-----------------------------------------------------------------------
Final entropy term                ...      0.04010702 Eh     25.17 kcal/mol

In case the symmetry of your molecule has not been determined correctly
or in case you have a reason to use a different symmetry number we print
out the resulting rotational entropy values for sn=1,12:

 non-linear molecules -----------------------------------
|  sn= 1 | S(rot)=       0.01328041 Eh      8.33 kcal/mol|
|  sn= 2 | S(rot)=       0.01262595 Eh      7.92 kcal/mol|
|  sn= 3 | S(rot)=       0.01224312 Eh      7.68 kcal/mol|
|  sn= 4 | S(rot)=       0.01197149 Eh      7.51 kcal/mol|
|  sn= 5 | S(rot)=       0.01176081 Eh      7.38 kcal/mol|
|  sn= 6 | S(rot)=       0.01158866 Eh      7.27 kcal/mol|
|  sn= 7 | S(rot)=       0.01144312 Eh      7.18 kcal/mol|
|  sn= 8 | S(rot)=       0.01131704 Eh      7.10 kcal/mol|
|  sn= 9 | S(rot)=       0.01120583 Eh      7.03 kcal/mol|
|  sn=10 | S(rot)=       0.01110635 Eh      6.97 kcal/mol|
|  sn=11 | S(rot)=       0.01101636 Eh      6.91 kcal/mol|
|  sn=12 | S(rot)=       0.01093421 Eh      6.86 kcal/mol|
 linear molecules ---------------------------------------
|  Dinfh | S(rot)=       0.00839957 Eh      5.27 kcal/mol|
|  Cinfv | S(rot)=       0.00905403 Eh      5.68 kcal/mol|

                             ****ORCA TERMINATED NORMALLY****
TOTAL RUN TIME: 0 days 0 hours 5 minutes 51 seconds 948 msec
