                         Program Version 6.0.0  -   RELEASE  -
|  1> !TPSSh opt aug-cc-pVTZ d3 TightSCF SlowConv RIJCOSX defgrid2
|  2>
|  3> %pal
|  4> nprocs 8
|  5> end
|  6>
|  7> %scf
|  8> MaxIter 1500
|  9> end
| 10>
| 11> %maxcore 3500
| 12>
| 13> !CPCM
| 14> %cpcm smd true
| 15> SMDsolvent "MeCN"
| 16> surfacetype gepol_ses
| 17> rsolv 2.19
| 18> end
| 19>
| 20> * xyz 1 2
| 21> C          -0.69806914174773     -1.08130758385803      0.00000478073461
| 22> C          -1.29995911913199      0.21220975823502      0.00000712364871
| 23> C          -0.48713495449795      1.39007645246692     -0.00001560397811
| 24> C           0.87407248196079      1.28097563070640     -0.00003015609287
| 25> C           1.48961473063931     -0.00988444370075     -0.00003464832734
| 26> C           0.66713129411178     -1.18242862965134     -0.00001675195059
| 27> H           1.14787115207094     -2.16374838611022     -0.00001833432844
| 28> C           2.87923367476782     -0.13303827989769     -0.00003947759998
| 29> C           4.09817372516796     -0.24492334399421     -0.00000244744274
| 30> H           5.17420938419188     -0.34031758843355     -0.00000256865577
| 31> H           1.50568477881681      2.17231925078041     -0.00004562485067
| 32> H          -0.99220253079888      2.35905562684180     -0.00001378344560
| 33> O          -2.58101948918323      0.42008257874155      0.00003691245038
| 34> C          -3.53711041258472     -0.64087278516494      0.00007811011347
| 35> H          -4.51842922650600     -0.15013878054896      0.00011237958636
| 36> H          -3.42139067434806     -1.25399713854605     -0.90847216906212
| 37> H          -3.42131652654994     -1.25398175148381      0.90862972609483
| 38> H          -1.31361454637877     -1.98259848638256      0.00002453310588
| 39> *
| 40>
| 41>                          ****END OF INPUT****
 Total Charge           Charge          ....    1
 Multiplicity           Mult            ....    2
 Number of Electrons    NEL             ....   69
Dispersion correction           -0.021279694
FINAL SINGLE POINT ENERGY      -422.918024045601
Dispersion correction             ... done (  0.0 sec)
Dispersion correction           -0.021361911
FINAL SINGLE POINT ENERGY      -422.919450128358
Dispersion correction             ... done (  0.0 sec)
Dispersion correction           -0.021389571
FINAL SINGLE POINT ENERGY      -422.919613385029
Dispersion correction             ... done (  0.1 sec)
Dispersion correction           -0.021393670
FINAL SINGLE POINT ENERGY      -422.919652550951
Dispersion correction             ... done (  0.0 sec)
Dispersion correction           -0.021390497
FINAL SINGLE POINT ENERGY      -422.919659711618
Dispersion correction             ... done (  0.0 sec)
                    ***********************HURRAY********************

CARTESIAN COORDINATES (ANGSTROEM)
---------------------------------
  C     -0.709940   -1.064163   -0.002650
  C     -1.292059    0.232258   -0.000530
  C     -0.481168    1.404902   -0.001003
  C      0.874662    1.284830   -0.001230
  C      1.472369   -0.009108   -0.001361
  C      0.649293   -1.175155   -0.002841
  H      1.119580   -2.148382   -0.003640
  C      2.859738   -0.140929    0.000678
  C      4.068039   -0.258373    0.002612
  H      5.131608   -0.358523    0.003907
  H      1.508749    2.159845   -0.001427
  H     -0.968821    2.370084   -0.000157
  O     -2.584824    0.449242    0.002152
  C     -3.516999   -0.669183    0.002068
  H     -4.498103   -0.207005   -0.000271
  H     -3.365415   -1.264466   -0.896563
  H     -3.368674   -1.262189    0.902903
  H     -1.332291   -1.946203   -0.002445

 Multiplicity           Mult            ....    2
 Number of Electrons    NEL             ....   69
 Basis Dimension        Dim             ....  644

ORBITAL ENERGIES
----------------
                 SPIN UP ORBITALS
  NO   OCC          E(Eh)            E(eV)
   0   1.0000     -19.158946      -521.3414
   1   1.0000     -10.246253      -278.8147
   2   1.0000     -10.202767      -277.6314
   3   1.0000     -10.183108      -277.0964
   4   1.0000     -10.169500      -276.7262
   5   1.0000     -10.165670      -276.6219
   6   1.0000     -10.164752      -276.5970
   7   1.0000     -10.163400      -276.5602
   8   1.0000     -10.163291      -276.5572
   9   1.0000     -10.158737      -276.4333
  10   1.0000      -1.115524       -30.3550
  11   1.0000      -0.891809       -24.2674
  12   1.0000      -0.814067       -22.1519
  13   1.0000      -0.784600       -21.3501
  14   1.0000      -0.761398       -20.7187
  15   1.0000      -0.720112       -19.5952
  16   1.0000      -0.645295       -17.5594
  17   1.0000      -0.629240       -17.1225
  18   1.0000      -0.571567       -15.5531
  19   1.0000      -0.549167       -14.9436
  20   1.0000      -0.517925       -14.0935
  21   1.0000      -0.515356       -14.0236
  22   1.0000      -0.498043       -13.5524
  23   1.0000      -0.464315       -12.6347
  24   1.0000      -0.451108       -12.2753
  25   1.0000      -0.433479       -11.7956
  26   1.0000      -0.419798       -11.4233
  27   1.0000      -0.416739       -11.3400
  28   1.0000      -0.388245       -10.5647
  29   1.0000      -0.382711       -10.4141
  30   1.0000      -0.351365        -9.5611
  31   1.0000      -0.327134        -8.9018
  32   1.0000      -0.306511        -8.3406
  33   1.0000      -0.296896        -8.0789
  34   1.0000      -0.258496        -7.0340
  35   0.0000      -0.092805        -2.5254
  36   0.0000      -0.062484        -1.7003
  37   0.0000      -0.009879        -0.2688
  38   0.0000      -0.007710        -0.2098
  39   0.0000       0.003764         0.1024

                 SPIN DOWN ORBITALS
  NO   OCC          E(Eh)            E(eV)
   0   1.0000     -19.153486      -521.1928
   1   1.0000     -10.243928      -278.7515
   2   1.0000     -10.197813      -277.4966
   3   1.0000     -10.183270      -277.1009
   4   1.0000     -10.169690      -276.7313
   5   1.0000     -10.165502      -276.6174
   6   1.0000     -10.162090      -276.5245
   7   1.0000     -10.161545      -276.5097
   8   1.0000     -10.161296      -276.5029
   9   1.0000     -10.159153      -276.4446
  10   1.0000      -1.106439       -30.1077
  11   1.0000      -0.885654       -24.0999
  12   1.0000      -0.806949       -21.9582
  13   1.0000      -0.782710       -21.2986
  14   1.0000      -0.754462       -20.5300
  15   1.0000      -0.713836       -19.4245
  16   1.0000      -0.641368       -17.4525
  17   1.0000      -0.625715       -17.0266
  18   1.0000      -0.568955       -15.4821
  19   1.0000      -0.546119       -14.8607
  20   1.0000      -0.515384       -14.0243
  21   1.0000      -0.513309       -13.9679
  22   1.0000      -0.481706       -13.1079
  23   1.0000      -0.461980       -12.5711
  24   1.0000      -0.450361       -12.2549
  25   1.0000      -0.431998       -11.7553
  26   1.0000      -0.415746       -11.3130
  27   1.0000      -0.405789       -11.0421
  28   1.0000      -0.386856       -10.5269
  29   1.0000      -0.365360        -9.9420
  30   1.0000      -0.348797        -9.4913
  31   1.0000      -0.305083        -8.3017
  32   1.0000      -0.303119        -8.2483
  33   1.0000      -0.291413        -7.9297
  34   0.0000      -0.205955        -5.6043
  35   0.0000      -0.070378        -1.9151
  36   0.0000      -0.052327        -1.4239
  37   0.0000      -0.007767        -0.2113
  38   0.0000      -0.007005        -0.1906

MULLIKEN ATOMIC CHARGES AND SPIN POPULATIONS
--------------------------------------------
   0 C :   -0.081236    0.071781
   1 C :    1.140498    0.162681
   2 C :   -0.505898    0.084228
   3 C :   -0.823329   -0.068928
   4 C :    1.245011    0.362675
   5 C :   -0.900436   -0.022787
   6 H :   -0.244127   -0.000339
   7 C :    1.269502   -0.110823
   8 C :   -0.554757    0.339985
   9 H :    0.103179   -0.005755
  10 H :   -0.219934   -0.000086
  11 H :    0.475236    0.000942
  12 O :   -0.657939    0.175603
  13 C :   -0.236958   -0.013876
  14 H :    0.060696    0.001505
  15 H :    0.235477    0.008151
  16 H :    0.234202    0.008254
  17 H :    0.460812    0.006789
Sum of atomic charges         :    1.0000000

LOEWDIN ATOMIC CHARGES AND SPIN POPULATIONS
-------------------------------------------
   0 C :    0.286791    0.070319
   1 C :   -0.329012    0.128653
   2 C :    0.281345    0.074904
   3 C :    0.261465    0.032816
   4 C :   -0.149803    0.141943
   5 C :    0.271506    0.048013
   6 H :   -0.143015    0.000232
   7 C :    0.056741    0.072953
   8 C :    0.510763    0.188739
   9 H :   -0.242160    0.043644
  10 H :   -0.146071   -0.003538
  11 H :   -0.149563    0.010750
  12 O :    0.666586    0.155622
  13 C :    0.463243    0.016890
  14 H :   -0.162430   -0.000324
  15 H :   -0.154628    0.004367
  16 H :   -0.153988    0.004394
  17 H :   -0.167769    0.009622

  Mayer bond orders larger than 0.100000
B(  0-C ,  1-C ) :   0.9664 B(  0-C ,  2-C ) :   0.1041 B(  0-C ,  4-C ) :   0.4401
B(  0-C ,  5-C ) :   1.5001 B(  0-C ,  7-C ) :  -0.1080 B(  0-C ,  8-C ) :  -0.1277
B(  0-C , 17-H ) :   0.4139 B(  1-C ,  2-C ) :   0.8566 B(  1-C ,  3-C ) :  -0.3515
B(  1-C ,  4-C ) :  -0.1845 B(  1-C ,  5-C ) :  -0.3225 B(  1-C ,  7-C ) :   0.2785
B(  1-C , 11-H ) :   0.1863 B(  1-C , 12-O ) :   0.2758 B(  1-C , 13-C ) :   0.1068
B(  1-C , 17-H ) :   0.1609 B(  2-C ,  3-C ) :   1.7146 B(  2-C ,  4-C ) :   0.3583
B(  2-C , 11-H ) :   0.3651 B(  2-C , 12-O ) :   0.3563 B(  3-C ,  4-C ) :   0.5181
B(  3-C ,  5-C ) :  -0.4002 B(  3-C ,  6-H ) :   0.1320 B(  3-C ,  7-C ) :   0.2687
B(  3-C , 10-H ) :   1.6096 B(  4-C ,  5-C ) :   0.5027 B(  4-C ,  7-C ) :   0.1273
B(  4-C ,  8-C ) :   0.5727 B(  4-C , 10-H ) :   0.2051 B(  4-C , 12-O ) :   0.1235
B(  5-C ,  6-H ) :   1.7436 B(  5-C ,  7-C ) :   0.2142 B(  5-C , 10-H ) :   0.1206
B(  5-C , 17-H ) :  -0.1035 B(  6-H ,  7-C ) :  -0.2330 B(  6-H ,  8-C ) :  -0.2428
B(  6-H , 10-H ) :   0.3772 B(  7-C ,  8-C ) :   1.5150 B(  7-C ,  9-H ) :  -0.4116
B(  7-C , 10-H ) :  -0.3070 B(  8-C ,  9-H ) :   1.4516 B(  8-C , 10-H ) :  -0.2290
B(  8-C , 11-H ) :   0.1044 B(  8-C , 17-H ) :   0.1908 B( 12-O , 13-C ) :   0.9075
B( 13-C , 14-H ) :   1.0735 B( 13-C , 15-H ) :   0.8997 B( 13-C , 16-H ) :   0.9003

Dispersion correction           -0.021389196
FINAL SINGLE POINT ENERGY      -422.919661201675

DIPOLE MOMENT
-------------

Method             : SCF
Type of density    : Electron Density
Multiplicity       :   2
Irrep              :   0
Energy             :  -422.8982720059464668 Eh
Relativity type    :
Basis              : AO
                                X                 Y                 Z
Electronic contribution:      5.139768666       1.786084611      -0.002784208
Nuclear contribution   :     -5.452173866      -2.472618942       0.003013772
                        -----------------------------------------
Total Dipole Moment    :     -0.312405199      -0.686534331       0.000229563
                        -----------------------------------------
Magnitude (a.u.)       :      0.754272132
Magnitude (Debye)      :      1.917207396

Rotational constants in cm-1:             0.156283             0.024104             0.020968
Rotational constants in MHz :          4685.247068           722.625029           628.607003

                             ****ORCA TERMINATED NORMALLY****
TOTAL RUN TIME: 0 days 0 hours 31 minutes 21 seconds 218 msec
