                         Program Version 6.0.0  -   RELEASE  -
|  1> !TPSSh aug-cc-pVTZ d3 TightSCF SlowConv RIJCOSX defgrid2
|  2>
|  3> %pal
|  4> nprocs 4
|  5> end
|  6>
|  7> %scf
|  8> MaxIter 1500
|  9> end
| 10>
| 11> %maxcore 3000
| 12>
| 13> !CPCM
| 14> %cpcm smd true
| 15> SMDsolvent "MeCN"
| 16> surfacetype gepol_ses
| 17> rsolv 2.19
| 18> end
| 19>
| 20> * xyz 1 2
| 21> C           1.11125997383576     -1.29424514996325     -0.00265064680051
| 22> C           0.38198773558317      0.02008196306092     -0.00073603831801
| 23> C           1.09787452277410      1.23185818450004     -0.01840094347389
| 24> C           2.57516897563739      1.29944130725048     -0.05423021306044
| 25> C           3.25276060267681     -0.03006541948416     -0.36652594694293
| 26> C           2.57851945407381     -1.15958568043340      0.39766653752240
| 27> H           3.08673048588062     -2.11897794137244      0.21233290930891
| 28> H           2.64919644329653     -0.97201856058805      1.48490961905849
| 29> H           4.32300865456417      0.02994921608983     -0.11393141051059
| 30> H           3.19729504970193     -0.22847646380504     -1.45259326590540
| 31> H           2.88017444257326      2.09814619264511     -0.75665169289489
| 32> H           2.90436924042770      1.68065620438759      0.93876248720231
| 33> H           0.54894601237680      2.17778008647932      0.00559677216772
| 34> N          -0.94881866071091      0.02146974198586     -0.00750665676214
| 35> C          -1.80124595163478      1.22171206218783      0.02414035141441
| 36> C          -3.20201957398761      0.67299556712206      0.26488079247656
| 37> C          -3.16019989927783     -0.69168873479307     -0.41474108783946
| 38> C          -1.76503158912719     -1.19776594082048     -0.07505159311078
| 39> H          -1.34448546450201     -1.89626495900324     -0.81481906895254
| 40> H          -1.73682708705057     -1.69322252819275      0.91433806284159
| 41> H          -3.94379277720373     -1.38008145705625     -0.06506994380082
| 42> H          -3.26951180028075     -0.58721234569693     -1.50795872354530
| 43> H          -3.97836095131839      1.34028947438083     -0.13789958124651
| 44> H          -3.38451416042342      0.56256073325110      1.34753390290322
| 45> H          -1.45816127292513      1.91216175251807      0.80965132239800
| 46> H          -1.72037794411018      1.73381076618573     -0.95200027343459
| 47> H           0.59311740358867     -2.00524001309646      0.66292893429951
| 48> H           1.03641913556176     -1.72255585773926     -1.02261090499431
| 49> *
| 50>
| 51>                          ****END OF INPUT****

CARTESIAN COORDINATES (ANGSTROEM)
---------------------------------
  C      1.111260   -1.294245   -0.002651
  C      0.381988    0.020082   -0.000736
  C      1.097875    1.231858   -0.018401
  C      2.575169    1.299441   -0.054230
  C      3.252761   -0.030065   -0.366526
  C      2.578519   -1.159586    0.397667
  H      3.086730   -2.118978    0.212333
  H      2.649196   -0.972019    1.484910
  H      4.323009    0.029949   -0.113931
  H      3.197295   -0.228476   -1.452593
  H      2.880174    2.098146   -0.756652
  H      2.904369    1.680656    0.938762
  H      0.548946    2.177780    0.005597
  N     -0.948819    0.021470   -0.007507
  C     -1.801246    1.221712    0.024140
  C     -3.202020    0.672996    0.264881
  C     -3.160200   -0.691689   -0.414741
  C     -1.765032   -1.197766   -0.075052
  H     -1.344485   -1.896265   -0.814819
  H     -1.736827   -1.693223    0.914338
  H     -3.943793   -1.380081   -0.065070
  H     -3.269512   -0.587212   -1.507959
  H     -3.978361    1.340289   -0.137900
  H     -3.384514    0.562561    1.347534
  H     -1.458161    1.912162    0.809651
  H     -1.720378    1.733811   -0.952000
  H      0.593117   -2.005240    0.662929
  H      1.036419   -1.722556   -1.022611

 Total Charge           Charge          ....    1
 Multiplicity           Mult            ....    2
 Number of Electrons    NEL             ....   83
 Basis Dimension        Dim             ....  897

ORBITAL ENERGIES
----------------
                 SPIN UP ORBITALS
  NO   OCC          E(Eh)            E(eV)
   0   1.0000     -14.347101      -390.4045
   1   1.0000     -10.197936      -277.4999
   2   1.0000     -10.166269      -276.6383
   3   1.0000     -10.165991      -276.6307
   4   1.0000     -10.164781      -276.5977
   5   1.0000     -10.133703      -275.7521
   6   1.0000     -10.128832      -275.6195
   7   1.0000     -10.123224      -275.4669
   8   1.0000     -10.122912      -275.4584
   9   1.0000     -10.116940      -275.2959
  10   1.0000     -10.114583      -275.2318
  11   1.0000      -0.993534       -27.0354
  12   1.0000      -0.844576       -22.9821
  13   1.0000      -0.794932       -21.6312
  14   1.0000      -0.758117       -20.6294
  15   1.0000      -0.732690       -19.9375
  16   1.0000      -0.722912       -19.6714
  17   1.0000      -0.639699       -17.4071
  18   1.0000      -0.625838       -17.0299
  19   1.0000      -0.580009       -15.7828
  20   1.0000      -0.575984       -15.6733
  21   1.0000      -0.541520       -14.7355
  22   1.0000      -0.510117       -13.8810
  23   1.0000      -0.507284       -13.8039
  24   1.0000      -0.460188       -12.5224
  25   1.0000      -0.451212       -12.2781
  26   1.0000      -0.431578       -11.7438
  27   1.0000      -0.428744       -11.6667
  28   1.0000      -0.424437       -11.5495
  29   1.0000      -0.412812       -11.2332
  30   1.0000      -0.398504       -10.8438
  31   1.0000      -0.391098       -10.6423
  32   1.0000      -0.384277       -10.4567
  33   1.0000      -0.377786       -10.2801
  34   1.0000      -0.345573        -9.4035
  35   1.0000      -0.343603        -9.3499
  36   1.0000      -0.325626        -8.8607
  37   1.0000      -0.322314        -8.7706
  38   1.0000      -0.319664        -8.6985
  39   1.0000      -0.315272        -8.5790
  40   1.0000      -0.311027        -8.4635
  41   1.0000      -0.233799        -6.3620
  42   0.0000      -0.029020        -0.7897
  43   0.0000      -0.009906        -0.2696
  44   0.0000       0.001883         0.0512
  45   0.0000       0.005997         0.1632
  46   0.0000       0.007584         0.2064

                 SPIN DOWN ORBITALS
  NO   OCC          E(Eh)            E(eV)
   0   1.0000     -14.338080      -390.1590
   1   1.0000     -10.199358      -277.5386
   2   1.0000     -10.166314      -276.6395
   3   1.0000     -10.165178      -276.6086
   4   1.0000     -10.156509      -276.3727
   5   1.0000     -10.133636      -275.7502
   6   1.0000     -10.129308      -275.6325
   7   1.0000     -10.123180      -275.4657
   8   1.0000     -10.122884      -275.4577
   9   1.0000     -10.116947      -275.2961
  10   1.0000     -10.114524      -275.2302
  11   1.0000      -0.981293       -26.7023
  12   1.0000      -0.839066       -22.8321
  13   1.0000      -0.793414       -21.5899
  14   1.0000      -0.753031       -20.4910
  15   1.0000      -0.730412       -19.8755
  16   1.0000      -0.716915       -19.5082
  17   1.0000      -0.638531       -17.3753
  18   1.0000      -0.620822       -16.8934
  19   1.0000      -0.577178       -15.7058
  20   1.0000      -0.573314       -15.6007
  21   1.0000      -0.537844       -14.6355
  22   1.0000      -0.505042       -13.7429
  23   1.0000      -0.498193       -13.5565
  24   1.0000      -0.455548       -12.3961
  25   1.0000      -0.446974       -12.1628
  26   1.0000      -0.427573       -11.6348
  27   1.0000      -0.427125       -11.6227
  28   1.0000      -0.420930       -11.4541
  29   1.0000      -0.403976       -10.9927
  30   1.0000      -0.396363       -10.7856
  31   1.0000      -0.388567       -10.5734
  32   1.0000      -0.381961       -10.3937
  33   1.0000      -0.370659       -10.0861
  34   1.0000      -0.344749        -9.3811
  35   1.0000      -0.343082        -9.3357
  36   1.0000      -0.324142        -8.8204
  37   1.0000      -0.320281        -8.7153
  38   1.0000      -0.317774        -8.6471
  39   1.0000      -0.310703        -8.4547
  40   1.0000      -0.297178        -8.0866
  41   0.0000      -0.151510        -4.1228
  42   0.0000      -0.010877        -0.2960
  43   0.0000      -0.001326        -0.0361
  44   0.0000       0.004398         0.1197
  45   0.0000       0.007009         0.1907

MULLIKEN ATOMIC CHARGES AND SPIN POPULATIONS
--------------------------------------------
   0 C :    0.279943    0.003842
   1 C :    0.322891   -0.014650
   2 C :   -0.237574    0.694021
   3 C :    0.018448   -0.143726
   4 C :    0.069327    0.008670
   5 C :   -0.127754   -0.007621
   6 H :   -0.049535    0.000486
   7 H :    0.031979   -0.002823
   8 H :   -0.048760   -0.000640
   9 H :    0.060107    0.000839
  10 H :    0.080138    0.025187
  11 H :    0.101976    0.057681
  12 H :   -0.012121   -0.015820
  13 N :    0.019657    0.381126
  14 C :   -0.018457   -0.047172
  15 C :   -0.041446    0.007026
  16 C :   -0.015368    0.006943
  17 C :   -0.005534   -0.052925
  18 H :    0.066149    0.016662
  19 H :    0.087654    0.040433
  20 H :    0.018524   -0.000195
  21 H :    0.012525    0.000249
  22 H :    0.021810   -0.000125
  23 H :    0.000210    0.000057
  24 H :    0.076293    0.015810
  25 H :    0.057579    0.023844
  26 H :    0.092832   -0.000514
  27 H :    0.138506    0.003335
Sum of atomic charges         :    1.0000000

LOEWDIN ATOMIC CHARGES AND SPIN POPULATIONS
-------------------------------------------
   0 C :    0.317467    0.003131
   1 C :   -0.097162    0.106677
   2 C :    0.360459    0.319521
   3 C :    0.301352    0.096036
   4 C :    0.292507    0.005102
   5 C :    0.299892    0.002188
   6 H :   -0.122059    0.000262
   7 H :   -0.119171    0.000345
   8 H :   -0.125517    0.000048
   9 H :   -0.122855    0.000847
  10 H :   -0.119536    0.014699
  11 H :   -0.111600    0.027965
  12 H :   -0.148849    0.059585
  13 N :    0.349626    0.235774
  14 C :    0.263696    0.035700
  15 C :    0.324473    0.001000
  16 C :    0.326504    0.002551
  17 C :    0.263508    0.045760
  18 H :   -0.113634    0.008042
  19 H :   -0.095517    0.015704
  20 H :   -0.117730    0.000007
  21 H :   -0.119393    0.000301
  22 H :   -0.118044    0.000002
  23 H :   -0.120236    0.000019
  24 H :   -0.114912    0.007503
  25 H :   -0.096401    0.011128
  26 H :   -0.130449   -0.000502
  27 H :   -0.106421    0.000605

  Mayer bond orders larger than 0.100000
B(  0-C ,  1-C ) :   0.6235 B(  0-C ,  5-C ) :   1.1205 B(  0-C , 26-H ) :   0.8998
B(  0-C , 27-H ) :   0.8630 B(  1-C ,  2-C ) :   0.5156 B(  1-C ,  3-C ) :  -0.1308
B(  1-C ,  4-C ) :  -0.1039 B(  1-C , 13-N ) :   0.8348 B(  2-C ,  3-C ) :   1.0742
B(  2-C ,  4-C ) :   0.1168 B(  2-C , 12-H ) :   0.8727 B(  2-C , 13-N ) :  -0.1626
B(  3-C ,  4-C ) :   1.0878 B(  3-C , 10-H ) :   0.8452 B(  3-C , 11-H ) :   0.8991
B(  4-C ,  5-C ) :   1.0852 B(  4-C ,  8-H ) :   0.9836 B(  4-C ,  9-H ) :   0.9372
B(  5-C ,  6-H ) :   0.9463 B(  5-C ,  7-H ) :   0.9724 B( 13-N , 14-C ) :   0.9089
B( 13-N , 17-C ) :   0.8237 B( 14-C , 15-C ) :   1.1270 B( 14-C , 24-H ) :   0.9419
B( 14-C , 25-H ) :   0.9435 B( 15-C , 16-C ) :   1.1221 B( 15-C , 22-H ) :   0.9484
B( 15-C , 23-H ) :   0.9831 B( 16-C , 17-C ) :   1.0922 B( 16-C , 20-H ) :   0.9358
B( 16-C , 21-H ) :   0.9819 B( 17-C , 18-H ) :   0.9376 B( 17-C , 19-H ) :   0.9240

Dispersion correction           -0.033813530
FINAL SINGLE POINT ENERGY      -446.115749123967

DIPOLE MOMENT
-------------

Method             : SCF
Type of density    : Electron Density
Multiplicity       :   2
Irrep              :   0
Energy             :  -446.0819355935940962 Eh
Relativity type    :
Basis              : AO
                                X                 Y                 Z
Electronic contribution:     -0.926009357       1.313757265       0.063527560
Nuclear contribution   :      0.360970584      -1.012753361      -0.049963368
                        -----------------------------------------
Total Dipole Moment    :     -0.565038773       0.301003904       0.013564192
                        -----------------------------------------
Magnitude (a.u.)       :      0.640356270
Magnitude (Debye)      :      1.627656286

Rotational constants in cm-1:             0.091390             0.021094             0.017904
Rotational constants in MHz :          2739.816467           632.377129           536.750842

                             ****ORCA TERMINATED NORMALLY****
TOTAL RUN TIME: 0 days 0 hours 13 minutes 16 seconds 228 msec
