                         Program Version 6.0.0  -   RELEASE  -
|  1> !B3LYP aug-cc-pVTZ d3 TightSCF SlowConv RIJCOSX defgrid2
|  2>
|  3> %pal
|  4> nprocs 4
|  5> end
|  6>
|  7> %scf
|  8> MaxIter 1500
|  9> end
| 10>
| 11> %maxcore 3000
| 12>
| 13> !CPCM
| 14> %cpcm smd true
| 15> SMDsolvent "MeCN"
| 16> surfacetype gepol_ses
| 17> rsolv 2.19
| 18> end
| 19>
| 20> * xyz 1 2
| 21> C          -0.69806914174773     -1.08130758385803      0.00000478073461
| 22> C          -1.29995911913199      0.21220975823502      0.00000712364871
| 23> C          -0.48713495449795      1.39007645246692     -0.00001560397811
| 24> C           0.87407248196079      1.28097563070640     -0.00003015609287
| 25> C           1.48961473063931     -0.00988444370075     -0.00003464832734
| 26> C           0.66713129411178     -1.18242862965134     -0.00001675195059
| 27> H           1.14787115207094     -2.16374838611022     -0.00001833432844
| 28> C           2.87923367476782     -0.13303827989769     -0.00003947759998
| 29> C           4.09817372516796     -0.24492334399421     -0.00000244744274
| 30> H           5.17420938419188     -0.34031758843355     -0.00000256865577
| 31> H           1.50568477881681      2.17231925078041     -0.00004562485067
| 32> H          -0.99220253079888      2.35905562684180     -0.00001378344560
| 33> O          -2.58101948918323      0.42008257874155      0.00003691245038
| 34> C          -3.53711041258472     -0.64087278516494      0.00007811011347
| 35> H          -4.51842922650600     -0.15013878054896      0.00011237958636
| 36> H          -3.42139067434806     -1.25399713854605     -0.90847216906212
| 37> H          -3.42131652654994     -1.25398175148381      0.90862972609483
| 38> H          -1.31361454637877     -1.98259848638256      0.00002453310588
| 39> *
| 40>
| 41>                          ****END OF INPUT****

CARTESIAN COORDINATES (ANGSTROEM)
---------------------------------
  C     -0.698069   -1.081308    0.000005
  C     -1.299959    0.212210    0.000007
  C     -0.487135    1.390076   -0.000016
  C      0.874072    1.280976   -0.000030
  C      1.489615   -0.009884   -0.000035
  C      0.667131   -1.182429   -0.000017
  H      1.147871   -2.163748   -0.000018
  C      2.879234   -0.133038   -0.000039
  C      4.098174   -0.244923   -0.000002
  H      5.174209   -0.340318   -0.000003
  H      1.505685    2.172319   -0.000046
  H     -0.992203    2.359056   -0.000014
  O     -2.581019    0.420083    0.000037
  C     -3.537110   -0.640873    0.000078
  H     -4.518429   -0.150139    0.000112
  H     -3.421391   -1.253997   -0.908472
  H     -3.421317   -1.253982    0.908630
  H     -1.313615   -1.982598    0.000025

 Total Charge           Charge          ....    1
 Multiplicity           Mult            ....    2
 Number of Electrons    NEL             ....   69
 Basis Dimension        Dim             ....  644

ORBITAL ENERGIES
----------------
                 SPIN UP ORBITALS
  NO   OCC          E(Eh)            E(eV)
   0   1.0000     -19.234564      -523.3991
   1   1.0000     -10.310657      -280.5673
   2   1.0000     -10.264873      -279.3214
   3   1.0000     -10.242395      -278.7098
   4   1.0000     -10.230933      -278.3978
   5   1.0000     -10.228581      -278.3338
   6   1.0000     -10.226165      -278.2681
   7   1.0000     -10.224310      -278.2176
   8   1.0000     -10.224159      -278.2135
   9   1.0000     -10.222286      -278.1625
  10   1.0000      -1.149216       -31.2718
  11   1.0000      -0.910250       -24.7692
  12   1.0000      -0.834498       -22.7078
  13   1.0000      -0.801329       -21.8053
  14   1.0000      -0.782345       -21.2887
  15   1.0000      -0.739768       -20.1301
  16   1.0000      -0.662487       -18.0272
  17   1.0000      -0.644542       -17.5389
  18   1.0000      -0.586055       -15.9474
  19   1.0000      -0.569888       -15.5075
  20   1.0000      -0.537523       -14.6268
  21   1.0000      -0.534989       -14.5578
  22   1.0000      -0.521726       -14.1969
  23   1.0000      -0.476982       -12.9794
  24   1.0000      -0.465303       -12.6615
  25   1.0000      -0.453713       -12.3462
  26   1.0000      -0.436696       -11.8831
  27   1.0000      -0.432159       -11.7596
  28   1.0000      -0.401001       -10.9118
  29   1.0000      -0.395246       -10.7552
  30   1.0000      -0.365661        -9.9501
  31   1.0000      -0.338991        -9.2244
  32   1.0000      -0.319101        -8.6832
  33   1.0000      -0.306291        -8.3346
  34   1.0000      -0.267270        -7.2728
  35   0.0000      -0.082614        -2.2480
  36   0.0000      -0.051778        -1.4089
  37   0.0000      -0.007998        -0.2176
  38   0.0000      -0.002612        -0.0711
  39   0.0000       0.003168         0.0862

                 SPIN DOWN ORBITALS
  NO   OCC          E(Eh)            E(eV)
   0   1.0000     -19.229424      -523.2592
   1   1.0000     -10.308449      -280.5071
   2   1.0000     -10.260162      -279.1932
   3   1.0000     -10.242553      -278.7140
   4   1.0000     -10.231088      -278.4021
   5   1.0000     -10.226842      -278.2865
   6   1.0000     -10.224724      -278.2289
   7   1.0000     -10.223101      -278.1847
   8   1.0000     -10.222543      -278.1695
   9   1.0000     -10.222533      -278.1693
  10   1.0000      -1.139776       -31.0149
  11   1.0000      -0.903676       -24.5903
  12   1.0000      -0.826948       -22.5024
  13   1.0000      -0.799131       -21.7455
  14   1.0000      -0.775880       -21.1128
  15   1.0000      -0.732213       -19.9245
  16   1.0000      -0.658205       -17.9107
  17   1.0000      -0.640811       -17.4374
  18   1.0000      -0.583257       -15.8712
  19   1.0000      -0.566409       -15.4128
  20   1.0000      -0.535250       -14.5649
  21   1.0000      -0.531292       -14.4572
  22   1.0000      -0.504071       -13.7165
  23   1.0000      -0.474765       -12.9190
  24   1.0000      -0.464273       -12.6335
  25   1.0000      -0.451814       -12.2945
  26   1.0000      -0.435519       -11.8511
  27   1.0000      -0.417797       -11.3688
  28   1.0000      -0.399471       -10.8702
  29   1.0000      -0.377993       -10.2857
  30   1.0000      -0.362618        -9.8673
  31   1.0000      -0.316022        -8.5994
  32   1.0000      -0.314688        -8.5631
  33   1.0000      -0.301443        -8.2027
  34   0.0000      -0.196109        -5.3364
  35   0.0000      -0.060135        -1.6364
  36   0.0000      -0.041532        -1.1301
  37   0.0000      -0.007765        -0.2113
  38   0.0000      -0.001832        -0.0498

MULLIKEN ATOMIC CHARGES AND SPIN POPULATIONS
--------------------------------------------
   0 C :   -0.175264    0.075204
   1 C :    1.392062    0.158040
   2 C :   -0.696421    0.092718
   3 C :   -1.094065   -0.058956
   4 C :    1.515952    0.345058
   5 C :   -1.150576   -0.016203
   6 H :   -0.221611   -0.003014
   7 C :    1.264609   -0.105765
   8 C :   -0.732820    0.348155
   9 H :    0.341661   -0.013662
  10 H :   -0.203928   -0.001114
  11 H :    0.599154    0.000729
  12 O :   -0.654401    0.168644
  13 C :   -0.619757   -0.010998
  14 H :    0.256994    0.000844
  15 H :    0.309502    0.008289
  16 H :    0.309280    0.008389
  17 H :    0.559629    0.003642
Sum of atomic charges         :    1.0000000

LOEWDIN ATOMIC CHARGES AND SPIN POPULATIONS
-------------------------------------------
   0 C :    0.282564    0.071405
   1 C :   -0.330865    0.128520
   2 C :    0.275835    0.075948
   3 C :    0.254949    0.034263
   4 C :   -0.154632    0.144681
   5 C :    0.263396    0.049221
   6 H :   -0.132838    0.000447
   7 C :    0.052870    0.073853
   8 C :    0.503350    0.186968
   9 H :   -0.231192    0.042474
  10 H :   -0.135720   -0.003254
  11 H :   -0.139652    0.010831
  12 O :    0.657103    0.149549
  13 C :    0.426108    0.016813
  14 H :   -0.153546   -0.000317
  15 H :   -0.142302    0.004520
  16 H :   -0.142248    0.004520
  17 H :   -0.153180    0.009557

  Mayer bond orders larger than 0.100000
B(  0-C ,  1-C ) :   0.8610 B(  0-C ,  2-C ) :   0.1427 B(  0-C ,  4-C ) :   0.6867
B(  0-C ,  5-C ) :   1.1835 B(  0-C ,  6-H ) :  -0.1816 B(  0-C ,  7-C ) :  -0.2568
B(  0-C ,  8-C ) :  -0.1011 B(  0-C , 11-H ) :  -0.1050 B(  0-C , 17-H ) :   0.3444
B(  1-C ,  2-C ) :   0.6491 B(  1-C ,  3-C ) :  -0.4793 B(  1-C ,  4-C ) :  -0.2156
B(  1-C ,  5-C ) :  -0.4590 B(  1-C ,  7-C ) :   0.3226 B(  1-C , 10-H ) :  -0.1059
B(  1-C , 11-H ) :   0.1582 B(  1-C , 12-O ) :   0.4587 B(  1-C , 17-H ) :   0.1297
B(  2-C ,  3-C ) :   1.4151 B(  2-C ,  4-C ) :   0.5744 B(  2-C ,  7-C ) :  -0.1518
B(  2-C , 11-H ) :   0.2754 B(  2-C , 12-O ) :   0.3105 B(  3-C ,  4-C ) :   0.1505
B(  3-C ,  5-C ) :  -0.4818 B(  3-C ,  6-H ) :   0.2375 B(  3-C ,  7-C ) :   0.4070
B(  3-C , 10-H ) :   2.0121 B(  4-C ,  5-C ) :   0.1738 B(  4-C ,  6-H ) :  -0.1927
B(  4-C ,  7-C ) :   0.1305 B(  4-C ,  8-C ) :   0.7378 B(  4-C , 12-O ) :   0.1274
B(  5-C ,  6-H ) :   2.0740 B(  5-C ,  7-C ) :   0.3399 B(  5-C ,  8-C ) :  -0.1482
B(  5-C , 10-H ) :   0.2176 B(  6-H ,  7-C ) :  -0.2300 B(  6-H ,  8-C ) :  -0.3339
B(  6-H , 10-H ) :   0.4181 B(  7-C ,  8-C ) :   1.6886 B(  7-C ,  9-H ) :  -0.2451
B(  7-C , 10-H ) :  -0.3129 B(  8-C ,  9-H ) :   1.1842 B(  8-C , 10-H ) :  -0.3355
B(  8-C , 11-H ) :   0.1120 B(  8-C , 17-H ) :   0.1866 B( 12-O , 13-C ) :   0.9498
B( 13-C , 14-H ) :   0.9649 B( 13-C , 15-H ) :   0.8862 B( 13-C , 16-H ) :   0.8866

Dispersion correction           -0.031260995
FINAL SINGLE POINT ENERGY      -422.652429514890

DIPOLE MOMENT
-------------

Method             : SCF
Type of density    : Electron Density
Multiplicity       :   2
Irrep              :   0
Energy             :  -422.6211685201594719 Eh
Relativity type    :
Basis              : AO
                                X                 Y                 Z
Electronic contribution:      5.260631198       1.742485148       0.000011179
Nuclear contribution   :     -5.555943012      -2.398496713       0.000189114
                        -----------------------------------------
Total Dipole Moment    :     -0.295311814      -0.656011566       0.000200293
                        -----------------------------------------
Magnitude (a.u.)       :      0.719416626
Magnitude (Debye)      :      1.828611741

Rotational constants in cm-1:             0.157571             0.023827             0.020782
Rotational constants in MHz :          4723.848433           714.307245           623.028150

                             ****ORCA TERMINATED NORMALLY****
TOTAL RUN TIME: 0 days 0 hours 6 minutes 44 seconds 674 msec
