                         Program Version 6.0.0  -   RELEASE  -
|  1> !PBE0 opt aug-cc-pVTZ d3 TightSCF SlowConv RIJCOSX defgrid2
|  2>
|  3> %pal
|  4> nprocs 8
|  5> end
|  6>
|  7> %scf
|  8> MaxIter 1500
|  9> end
| 10>
| 11> %maxcore 3500
| 12>
| 13> !CPCM
| 14> %cpcm smd true
| 15> SMDsolvent "MeCN"
| 16> surfacetype gepol_ses
| 17> rsolv 2.19
| 18> end
| 19>
| 20> * xyz 1 2
| 21>   C           2.42230352616407     -0.93967185065321      0.55395676667095
| 22>   C           1.25951593658087     -0.38560971154623     -0.02731266921458
| 23>   C           1.34515879875246      0.87334496095507     -0.66544135860675
| 24>   C           2.54528563840583      1.55610620094528     -0.70562222792677
| 25>   C           3.67856810652336      1.00584233737466     -0.10368066735552
| 26>   C           3.61187185026418     -0.24112438636345      0.52736087430039
| 27>   H           4.49354374784810     -0.65683800598034      0.99712782798028
| 28>   H           4.61885991421619      1.54158673683928     -0.13586227472231
| 29>   H           2.60896111030022      2.50843993754257     -1.21520939393472
| 30>   H           0.47607610672627      1.27576006187750     -1.16799099253149
| 31>   C          -0.00000570549071     -1.10233841529063      0.00019637099190
| 32>   C          -0.00003460802992     -2.48933307036506      0.00018510010177
| 33>   H          -0.92472654811303     -3.04999418999173     -0.01929544407525
| 34>   H           0.92462709128575     -3.05004417162606      0.01968554274561
| 35>   C          -1.25952449905545     -0.38558911777278      0.02757646044082
| 36>   C          -2.42215182971805     -0.93951962168999     -0.55411589561984
| 37>   C          -3.61169501277446     -0.24091618816804     -0.52785170744445
| 38>   C          -3.67854712087020      1.00598657107722      0.10328056731093
| 39>   C          -2.54544555482518      1.55611097274351      0.70570295844559
| 40>   C          -1.34535777294727      0.87326975987189      0.66586309035078
| 41>   H          -0.47652092219768      1.27561931840986      1.16890430148388
| 42>   H          -2.60924094930472      2.50838746005521      1.21537445618179
| 43>   H          -4.61881791219384      1.54178536604920      0.13515340253785
| 44>   H          -4.49322069397192     -0.65653541850228     -0.99797479446139
| 45>   H          -2.36891360407110     -1.89364615065512     -1.06095714187422
| 46>   H           2.36919830649625     -1.89387338513632      1.06067094822473
| 47> *
| 48>
| 49>                          ****END OF INPUT****
 Total Charge           Charge          ....    1
 Multiplicity           Mult            ....    2
 Number of Electrons    NEL             ....   95
Dispersion correction           -0.029219285
FINAL SINGLE POINT ENERGY      -540.055423793589
Dispersion correction             ... done (  0.0 sec)
Dispersion correction           -0.029262962
FINAL SINGLE POINT ENERGY      -540.055657967233
Dispersion correction             ... done (  0.1 sec)
Dispersion correction           -0.029293403
FINAL SINGLE POINT ENERGY      -540.055628532759
Dispersion correction             ... done (  0.1 sec)
Dispersion correction           -0.029277181
FINAL SINGLE POINT ENERGY      -540.055643272622
Dispersion correction             ... done (  0.0 sec)
                    ***********************HURRAY********************

CARTESIAN COORDINATES (ANGSTROEM)
---------------------------------
  C      2.413251   -0.933756    0.555732
  C      1.256540   -0.380179   -0.027190
  C      1.346582    0.871278   -0.668512
  C      2.546129    1.547227   -0.711395
  C      3.672908    0.997726   -0.107679
  C      3.601889   -0.241492    0.527471
  H      4.481769   -0.658462    0.999748
  H      4.615023    1.530510   -0.141440
  H      2.613211    2.497056   -1.225456
  H      0.479638    1.275866   -1.173293
  C     -0.000012   -1.092313    0.000548
  C     -0.000049   -2.476989    0.000657
  H     -0.924800   -3.037192   -0.024019
  H      0.924640   -3.037280    0.025555
  C     -1.256590   -0.380225    0.027878
  C     -2.412841   -0.933491   -0.556215
  C     -3.601413   -0.241086   -0.528717
  C     -3.672839    0.997965    0.106682
  C     -2.546548    1.547134    0.711588
  C     -1.347087    0.870980    0.669615
  H     -0.480711    1.275187    1.175657
  H     -2.613928    2.496870    1.225788
  H     -4.614893    1.530913    0.139629
  H     -4.480882   -0.657714   -1.001990
  H     -2.356588   -1.885407   -1.067211
  H      2.357369   -1.885918    1.066291

 Multiplicity           Mult            ....    2
 Number of Electrons    NEL             ....   95
 Basis Dimension        Dim             ....  920

ORBITAL ENERGIES
----------------
                 SPIN UP ORBITALS
  NO   OCC          E(Eh)            E(eV)
   0   1.0000     -10.307429      -280.4794
   1   1.0000     -10.294646      -280.1316
   2   1.0000     -10.279639      -279.7232
   3   1.0000     -10.279580      -279.7216
   4   1.0000     -10.261177      -279.2208
   5   1.0000     -10.261143      -279.2199
   6   1.0000     -10.261032      -279.2169
   7   1.0000     -10.261016      -279.2164
   8   1.0000     -10.260097      -279.1914
   9   1.0000     -10.260041      -279.1899
  10   1.0000     -10.249123      -278.8928
  11   1.0000     -10.249112      -278.8925
  12   1.0000     -10.248640      -278.8797
  13   1.0000     -10.248620      -278.8791
  14   1.0000      -0.940456       -25.5911
  15   1.0000      -0.913287       -24.8518
  16   1.0000      -0.874213       -23.7886
  17   1.0000      -0.805482       -21.9183
  18   1.0000      -0.803954       -21.8767
  19   1.0000      -0.795256       -21.6400
  20   1.0000      -0.780175       -21.2296
  21   1.0000      -0.694712       -18.9041
  22   1.0000      -0.660054       -17.9610
  23   1.0000      -0.649137       -17.6639
  24   1.0000      -0.642567       -17.4851
  25   1.0000      -0.600102       -16.3296
  26   1.0000      -0.570931       -15.5358
  27   1.0000      -0.548022       -14.9124
  28   1.0000      -0.511628       -13.9221
  29   1.0000      -0.511077       -13.9071
  30   1.0000      -0.491416       -13.3721
  31   1.0000      -0.482319       -13.1246
  32   1.0000      -0.480054       -13.0629
  33   1.0000      -0.459864       -12.5135
  34   1.0000      -0.459746       -12.5103
  35   1.0000      -0.458481       -12.4759
  36   1.0000      -0.429018       -11.6742
  37   1.0000      -0.424522       -11.5518
  38   1.0000      -0.416321       -11.3287
  39   1.0000      -0.393159       -10.6984
  40   1.0000      -0.382708       -10.4140
  41   1.0000      -0.377274       -10.2662
  42   1.0000      -0.372248       -10.1294
  43   1.0000      -0.362126        -9.8539
  44   1.0000      -0.300418        -8.1748
  45   1.0000      -0.297977        -8.1084
  46   1.0000      -0.292349        -7.9552
  47   1.0000      -0.279112        -7.5950
  48   0.0000      -0.097035        -2.6405
  49   0.0000      -0.045888        -1.2487
  50   0.0000      -0.036343        -0.9889
  51   0.0000      -0.021926        -0.5966
  52   0.0000      -0.002639        -0.0718

                 SPIN DOWN ORBITALS
  NO   OCC          E(Eh)            E(eV)
   0   1.0000     -10.307732      -280.4877
   1   1.0000     -10.285856      -279.8924
   2   1.0000     -10.278615      -279.6953
   3   1.0000     -10.278556      -279.6937
   4   1.0000     -10.260164      -279.1933
   5   1.0000     -10.260130      -279.1923
   6   1.0000     -10.259192      -279.1668
   7   1.0000     -10.259139      -279.1654
   8   1.0000     -10.259106      -279.1645
   9   1.0000     -10.259088      -279.1640
  10   1.0000     -10.249597      -278.9057
  11   1.0000     -10.249586      -278.9054
  12   1.0000     -10.249188      -278.8946
  13   1.0000     -10.249167      -278.8940
  14   1.0000      -0.936164       -25.4743
  15   1.0000      -0.910334       -24.7714
  16   1.0000      -0.867707       -23.6115
  17   1.0000      -0.802933       -21.8489
  18   1.0000      -0.801051       -21.7977
  19   1.0000      -0.792723       -21.5711
  20   1.0000      -0.766727       -20.8637
  21   1.0000      -0.688480       -18.7345
  22   1.0000      -0.658114       -17.9082
  23   1.0000      -0.645663       -17.5694
  24   1.0000      -0.640806       -17.4372
  25   1.0000      -0.597153       -16.2494
  26   1.0000      -0.569824       -15.5057
  27   1.0000      -0.545232       -14.8365
  28   1.0000      -0.509517       -13.8647
  29   1.0000      -0.509068       -13.8524
  30   1.0000      -0.489503       -13.3200
  31   1.0000      -0.478872       -13.0308
  32   1.0000      -0.478118       -13.0102
  33   1.0000      -0.458672       -12.4811
  34   1.0000      -0.458137       -12.4665
  35   1.0000      -0.456529       -12.4228
  36   1.0000      -0.425827       -11.5873
  37   1.0000      -0.415880       -11.3167
  38   1.0000      -0.408286       -11.1100
  39   1.0000      -0.392479       -10.6799
  40   1.0000      -0.382193       -10.4000
  41   1.0000      -0.372634       -10.1399
  42   1.0000      -0.370938       -10.0937
  43   1.0000      -0.341494        -9.2925
  44   1.0000      -0.296726        -8.0743
  45   1.0000      -0.290041        -7.8924
  46   1.0000      -0.281377        -7.6567
  47   0.0000      -0.193107        -5.2547
  48   0.0000      -0.066049        -1.7973
  49   0.0000      -0.038527        -1.0484
  50   0.0000      -0.031674        -0.8619
  51   0.0000      -0.016059        -0.4370

MULLIKEN ATOMIC CHARGES AND SPIN POPULATIONS
--------------------------------------------
   0 C :   -1.168137    0.029221
   1 C :    2.163087    0.114914
   2 C :   -0.778332    0.053863
   3 C :   -1.111006   -0.030568
   4 C :   -0.291225    0.120335
   5 C :   -0.885775   -0.022557
   6 H :    0.617577   -0.000239
   7 H :    0.755756    0.001692
   8 H :    0.600709    0.001367
   9 H :    0.276547   -0.003172
  10 C :    0.727288    0.023401
  11 C :   -1.030382    0.477630
  12 H :    0.350209   -0.002686
  13 H :    0.345924   -0.002690
  14 C :    2.153390    0.114789
  15 C :   -1.187001    0.029222
  16 C :   -0.893728   -0.022582
  17 C :   -0.310940    0.120255
  18 C :   -1.102884   -0.030761
  19 C :   -0.766526    0.054250
  20 H :    0.279331   -0.003485
  21 H :    0.600160    0.001333
  22 H :    0.691399    0.002334
  23 H :    0.725335   -0.000680
  24 H :    0.113960   -0.012750
  25 H :    0.125264   -0.012433
Sum of atomic charges         :    1.0000000

LOEWDIN ATOMIC CHARGES AND SPIN POPULATIONS
-------------------------------------------
   0 C :    0.251182    0.034958
   1 C :   -0.096661    0.053920
   2 C :    0.239446    0.038755
   3 C :    0.246358    0.012696
   4 C :    0.243281    0.058301
   5 C :    0.244109    0.013739
   6 H :   -0.158091   -0.002193
   7 H :   -0.152749    0.014246
   8 H :   -0.157230   -0.002483
   9 H :   -0.156702    0.006565
  10 C :   -0.056052    0.108724
  11 C :    0.698738    0.297133
  12 H :   -0.160797    0.062595
  13 H :   -0.160850    0.062593
  14 C :   -0.096754    0.053870
  15 C :    0.251175    0.034929
  16 C :    0.244084    0.013728
  17 C :    0.243249    0.058251
  18 C :    0.246336    0.012673
  19 C :    0.239345    0.038740
  20 H :   -0.156691    0.006559
  21 H :   -0.157221   -0.002485
  22 H :   -0.152772    0.014234
  23 H :   -0.158095   -0.002190
  24 H :   -0.163290    0.006073
  25 H :   -0.163347    0.006070

  Mayer bond orders larger than 0.100000
B(  0-C ,  1-C ) :   0.1419 B(  0-C ,  2-C ) :  -0.6726 B(  0-C ,  3-C ) :   0.1342
B(  0-C ,  4-C ) :  -0.1390 B(  0-C ,  5-C ) :   1.5300 B(  0-C ,  6-H ) :  -0.1459
B(  0-C , 10-C ) :   0.3306 B(  0-C , 25-H ) :   1.4582 B(  1-C ,  2-C ) :   0.5084
B(  1-C ,  3-C ) :  -0.1735 B(  1-C ,  4-C ) :  -0.2745 B(  1-C ,  5-C ) :  -0.1019
B(  1-C , 10-C ) :   0.1473 B(  1-C , 11-C ) :  -0.2869 B(  1-C , 14-C ) :  -0.2584
B(  2-C ,  3-C ) :   1.5323 B(  2-C ,  9-H ) :   1.2149 B(  2-C , 10-C ) :   0.2352
B(  2-C , 19-C ) :   0.1672 B(  3-C ,  4-C ) :   1.5267 B(  3-C ,  5-C ) :   0.3058
B(  3-C ,  8-H ) :   0.2633 B(  4-C ,  5-C ) :   1.3359 B(  4-C ,  6-H ) :   0.1251
B(  4-C ,  7-H ) :   0.2065 B(  4-C ,  8-H ) :   0.1072 B(  4-C , 10-C ) :   0.1957
B(  5-C ,  6-H ) :   0.3059 B(  5-C ,  9-H ) :  -0.1152 B(  9-H , 10-C ) :  -0.1517
B(  9-H , 25-H ) :   0.1657 B( 10-C , 11-C ) :   0.8783 B( 10-C , 14-C ) :   0.1469
B( 10-C , 15-C ) :   0.3244 B( 10-C , 17-C ) :   0.2026 B( 10-C , 19-C ) :   0.2317
B( 10-C , 20-H ) :  -0.1488 B( 10-C , 24-H ) :  -0.1493 B( 10-C , 25-H ) :  -0.1515
B( 11-C , 12-H ) :   0.8701 B( 11-C , 13-H ) :   0.8755 B( 11-C , 14-C ) :  -0.2808
B( 14-C , 15-C ) :   0.1445 B( 14-C , 17-C ) :  -0.2533 B( 14-C , 18-C ) :  -0.1716
B( 14-C , 19-C ) :   0.5150 B( 15-C , 16-C ) :   1.5721 B( 15-C , 17-C ) :  -0.1487
B( 15-C , 18-C ) :   0.1372 B( 15-C , 19-C ) :  -0.6609 B( 15-C , 23-H ) :  -0.1452
B( 15-C , 24-H ) :   1.4695 B( 16-C , 17-C ) :   1.3642 B( 16-C , 18-C ) :   0.3121
B( 16-C , 20-H ) :  -0.1168 B( 16-C , 23-H ) :   0.1191 B( 17-C , 18-C ) :   1.5065
B( 17-C , 21-H ) :   0.1130 B( 17-C , 22-H ) :   0.2854 B( 17-C , 23-H ) :   0.1304
B( 18-C , 19-C ) :   1.5155 B( 18-C , 21-H ) :   0.2628 B( 19-C , 20-H ) :   1.2142
B( 20-H , 24-H ) :   0.1696

Dispersion correction           -0.029275881
FINAL SINGLE POINT ENERGY      -540.055651825835

DIPOLE MOMENT
-------------

Method             : SCF
Type of density    : Electron Density
Multiplicity       :   2
Irrep              :   0
Energy             :  -540.0263759448787368 Eh
Relativity type    :
Basis              : AO
                                X                 Y                 Z
Electronic contribution:      0.000676524      -0.350546146       0.000453446
Nuclear contribution   :     -0.000070873      -0.600856828      -0.000996108
                        -----------------------------------------
Total Dipole Moment    :      0.000605650      -0.951402975      -0.000542662
                        -----------------------------------------
Magnitude (a.u.)       :      0.951403322
Magnitude (Debye)      :      2.418275062

Rotational constants in cm-1:             0.054710             0.014397             0.012179
Rotational constants in MHz :          1640.156042           431.623646           365.125209

                             ****ORCA TERMINATED NORMALLY****
TOTAL RUN TIME: 0 days 1 hours 1 minutes 40 seconds 845 msec
