                         Program Version 6.0.0  -   RELEASE  -
|  1> !r2SCAN aug-cc-pVTZ d3 TightSCF SlowConv RIJCOSX defgrid2
|  2>
|  3> %pal
|  4> nprocs 4
|  5> end
|  6>
|  7> %scf
|  8> MaxIter 1500
|  9> end
| 10>
| 11> %maxcore 3000
| 12>
| 13> !CPCM
| 14> %cpcm smd true
| 15> SMDsolvent "MeCN"
| 16> surfacetype gepol_ses
| 17> rsolv 2.19
| 18> end
| 19>
| 20> * xyz 0 1
| 21> C          -1.22529066987343      0.66704743781773      0.00002168359140
| 22> C          -0.03496126853419      1.39469871106093      0.00001681573232
| 23> C           1.19034742281071      0.72763815656934      0.00000486668415
| 24> C           1.22529060623977     -0.66703623444881     -0.00000274991533
| 25> C           0.03496151907311     -1.39468785704343      0.00000348152268
| 26> C          -1.19034789437969     -0.72762723255936      0.00001493638754
| 27> H          -2.12407118413544     -1.29834756579676      0.00001940750089
| 28> H           0.06240295882327     -2.48867478107419     -0.00000153324095
| 29> H           2.18642211750805     -1.19027035399337     -0.00001108378126
| 30> H           2.12407102187395      1.29835788033297      0.00000056110263
| 31> H          -0.06240416187133      2.48868564425629      0.00002192326032
| 32> H          -2.18642146753477      1.19028329487864      0.00003019115560
| 33> *
| 34>
| 35>                          ****END OF INPUT****

CARTESIAN COORDINATES (ANGSTROEM)
---------------------------------
  C     -1.225291    0.667047    0.000022
  C     -0.034961    1.394699    0.000017
  C      1.190347    0.727638    0.000005
  C      1.225291   -0.667036   -0.000003
  C      0.034962   -1.394688    0.000003
  C     -1.190348   -0.727627    0.000015
  H     -2.124071   -1.298348    0.000019
  H      0.062403   -2.488675   -0.000002
  H      2.186422   -1.190270   -0.000011
  H      2.124071    1.298358    0.000001
  H     -0.062404    2.488686    0.000022
  H     -2.186421    1.190283    0.000030

 Total Charge           Charge          ....    0
 Multiplicity           Mult            ....    1
 Number of Electrons    NEL             ....   42
 Basis Dimension        Dim             ....  414

ORBITAL ENERGIES
----------------

  NO   OCC          E(Eh)            E(eV)
   0   2.0000     -10.040503      -273.2160
   1   2.0000     -10.040291      -273.2102
   2   2.0000     -10.040287      -273.2101
   3   2.0000     -10.039826      -273.1975
   4   2.0000     -10.039822      -273.1974
   5   2.0000     -10.039634      -273.1923
   6   2.0000      -0.820408       -22.3244
   7   2.0000      -0.712095       -19.3771
   8   2.0000      -0.712084       -19.3768
   9   2.0000      -0.567539       -15.4435
  10   2.0000      -0.567534       -15.4434
  11   2.0000      -0.486340       -13.2340
  12   2.0000      -0.422431       -11.4949
  13   2.0000      -0.412811       -11.2332
  14   2.0000      -0.384442       -10.4612
  15   2.0000      -0.384427       -10.4608
  16   2.0000      -0.347241        -9.4489
  17   2.0000      -0.307235        -8.3603
  18   2.0000      -0.307228        -8.3601
  19   2.0000      -0.239732        -6.5234
  20   2.0000      -0.239712        -6.5229
  21   0.0000      -0.037041        -1.0079
  22   0.0000      -0.037035        -1.0078
  23   0.0000       0.009543         0.2597
  24   0.0000       0.029038         0.7902
  25   0.0000       0.029038         0.7902

MULLIKEN ATOMIC CHARGES
-----------------------
   0 C :   -0.387657
   1 C :   -0.387657
   2 C :   -0.387539
   3 C :   -0.387661
   4 C :   -0.387650
   5 C :   -0.387525
   6 H :    0.387938
   7 H :    0.387161
   8 H :    0.387722
   9 H :    0.387965
  10 H :    0.387181
  11 H :    0.387724
Sum of atomic charges:    0.0000000

LOEWDIN ATOMIC CHARGES
----------------------
   0 C :    0.174131
   1 C :    0.174128
   2 C :    0.174142
   3 C :    0.174131
   4 C :    0.174128
   5 C :    0.174142
   6 H :   -0.174118
   7 H :   -0.174150
   8 H :   -0.174133
   9 H :   -0.174118
  10 H :   -0.174150
  11 H :   -0.174133

  Mayer bond orders larger than 0.100000
B(  0-C ,  1-C ) :   1.0969 B(  0-C ,  5-C ) :   1.0964 B(  0-C , 11-H ) :   0.7401
B(  1-C ,  2-C ) :   1.0961 B(  1-C , 10-H ) :   0.7407 B(  2-C ,  3-C ) :   1.0965
B(  2-C ,  9-H ) :   0.7401 B(  3-C ,  4-C ) :   1.0969 B(  3-C ,  8-H ) :   0.7401
B(  4-C ,  5-C ) :   1.0960 B(  4-C ,  7-H ) :   0.7408 B(  5-C ,  6-H ) :   0.7401

Dispersion correction           -0.003012138
FINAL SINGLE POINT ENERGY      -232.199831283023

DIPOLE MOMENT
-------------

Method             : SCF
Type of density    : Electron Density
Multiplicity       :   1
Irrep              :   0
Energy             :  -232.1968191447975869 Eh
Relativity type    :
Basis              : AO
                                X                 Y                 Z
Electronic contribution:     -0.000001682      -0.000000808      -0.000002366
Nuclear contribution   :     -0.000000373       0.000000984       0.000000374
                        -----------------------------------------
Total Dipole Moment    :     -0.000002055       0.000000176      -0.000001992
                        -----------------------------------------
Magnitude (a.u.)       :      0.000002867
Magnitude (Debye)      :      0.000007288

Rotational constants in cm-1:             0.189685             0.189678             0.094841
Rotational constants in MHz :          5686.605662          5686.389794          2843.248863

                             ****ORCA TERMINATED NORMALLY****
TOTAL RUN TIME: 0 days 0 hours 1 minutes 27 seconds 414 msec
