                         Program Version 6.0.0  -   RELEASE  -
|  1> !r2SCAN aug-cc-pVTZ d3 TightSCF SlowConv RIJCOSX defgrid2
|  2>
|  3> %pal
|  4> nprocs 4
|  5> end
|  6>
|  7> %scf
|  8> MaxIter 1500
|  9> end
| 10>
| 11> %maxcore 3000
| 12>
| 13> !CPCM
| 14> %cpcm smd true
| 15> SMDsolvent "MeCN"
| 16> surfacetype gepol_ses
| 17> rsolv 2.19
| 18> end
| 19>
| 20> * xyz 1 2
| 21> C           0.46714487133843     -1.31596872615065      0.00043307960453
| 22> C           1.40171557217885     -0.23770807732832      0.00025638478659
| 23> C           0.88407949479514      1.09158487284969      0.00004092926418
| 24> C          -0.46712830128476      1.31604469822195      0.00000295911120
| 25> C          -1.40170089628676      0.23778263147851      0.00017108805360
| 26> C          -0.88406255954178     -1.09151075505496      0.00038804805116
| 27> H          -1.56465680467619     -1.94551717434521      0.00051308611121
| 28> C          -2.79688855585044      0.54394549069400      0.00010405022453
| 29> C          -3.82430179119378     -0.36186733524039      0.00028564609405
| 30> C          -5.25538349314657     -0.00243324194906      0.00029381155554
| 31> H          -5.75917453342121     -0.44813816832529     -0.87970790560214
| 32> H          -5.42346358891650      1.08552343691300     -0.00039098136190
| 33> H          -5.75876746290359     -0.44688449439862      0.88117967002482
| 34> H          -3.59373242007271     -1.43478557196118      0.00051686705574
| 35> H          -3.05807707707141      1.60899060395392     -0.00011509029154
| 36> H          -0.84761071039142      2.34119359797197     -0.00016682822425
| 37> H           1.56466696644477      1.94559472915825     -0.00010365132895
| 38> C           2.79689693733142     -0.54387663280000      0.00029128970272
| 39> C           3.82431604801398      0.36192101310663      0.00012996933116
| 40> C           5.25539100174106      0.00246938598978      0.00017091184030
| 41> H           5.75904846017879      0.44783593741242      0.88042381529925
| 42> H           5.75892633220905      0.44725096613417     -0.88045536326881
| 43> H           5.42345877365595     -1.08548600733987      0.00050393935968
| 44> H           3.59376340127937      1.43483964875828     -0.00005091579321
| 45> H           3.05807564363531     -1.60891817616373      0.00047196102492
| 46> H           0.84762319195501     -2.34111455158529      0.00059172937562
| 47> *
| 48>
| 49>                          ****END OF INPUT****

CARTESIAN COORDINATES (ANGSTROEM)
---------------------------------
  C      0.467145   -1.315969    0.000433
  C      1.401716   -0.237708    0.000256
  C      0.884079    1.091585    0.000041
  C     -0.467128    1.316045    0.000003
  C     -1.401701    0.237783    0.000171
  C     -0.884063   -1.091511    0.000388
  H     -1.564657   -1.945517    0.000513
  C     -2.796889    0.543945    0.000104
  C     -3.824302   -0.361867    0.000286
  C     -5.255383   -0.002433    0.000294
  H     -5.759175   -0.448138   -0.879708
  H     -5.423464    1.085523   -0.000391
  H     -5.758767   -0.446884    0.881180
  H     -3.593732   -1.434786    0.000517
  H     -3.058077    1.608991   -0.000115
  H     -0.847611    2.341194   -0.000167
  H      1.564667    1.945595   -0.000104
  C      2.796897   -0.543877    0.000291
  C      3.824316    0.361921    0.000130
  C      5.255391    0.002469    0.000171
  H      5.759048    0.447836    0.880424
  H      5.758926    0.447251   -0.880455
  H      5.423459   -1.085486    0.000504
  H      3.593763    1.434840   -0.000051
  H      3.058076   -1.608918    0.000472
  H      0.847623   -2.341115    0.000592

 Total Charge           Charge          ....    1
 Multiplicity           Mult            ....    2
 Number of Electrons    NEL             ....   85
 Basis Dimension        Dim             ....  874

ORBITAL ENERGIES
----------------
                 SPIN UP ORBITALS
  NO   OCC          E(Eh)            E(eV)
   0   1.0000     -10.098213      -274.7864
   1   1.0000     -10.098197      -274.7859
   2   1.0000     -10.091275      -274.5975
   3   1.0000     -10.091272      -274.5975
   4   1.0000     -10.073297      -274.1083
   5   1.0000     -10.073282      -274.1079
   6   1.0000     -10.072927      -274.0983
   7   1.0000     -10.072924      -274.0982
   8   1.0000     -10.071381      -274.0562
   9   1.0000     -10.071362      -274.0557
  10   1.0000     -10.044378      -273.3214
  11   1.0000     -10.044377      -273.3214
  12   1.0000      -0.866088       -23.5675
  13   1.0000      -0.817855       -22.2550
  14   1.0000      -0.788587       -21.4585
  15   1.0000      -0.752247       -20.4697
  16   1.0000      -0.745976       -20.2990
  17   1.0000      -0.695376       -18.9222
  18   1.0000      -0.652363       -17.7517
  19   1.0000      -0.616777       -16.7834
  20   1.0000      -0.591354       -16.0916
  21   1.0000      -0.554888       -15.0993
  22   1.0000      -0.537697       -14.6315
  23   1.0000      -0.503129       -13.6908
  24   1.0000      -0.473886       -12.8951
  25   1.0000      -0.462995       -12.5987
  26   1.0000      -0.432092       -11.7578
  27   1.0000      -0.413661       -11.2563
  28   1.0000      -0.412922       -11.2362
  29   1.0000      -0.405563       -11.0359
  30   1.0000      -0.400052       -10.8860
  31   1.0000      -0.397088       -10.8053
  32   1.0000      -0.388737       -10.5781
  33   1.0000      -0.386666       -10.5217
  34   1.0000      -0.362351        -9.8601
  35   1.0000      -0.350510        -9.5379
  36   1.0000      -0.343882        -9.3575
  37   1.0000      -0.339212        -9.2304
  38   1.0000      -0.332797        -9.0559
  39   1.0000      -0.322111        -8.7651
  40   1.0000      -0.272964        -7.4277
  41   1.0000      -0.272039        -7.4026
  42   1.0000      -0.226475        -6.1627
  43   0.0000      -0.121401        -3.3035
  44   0.0000      -0.062143        -1.6910
  45   0.0000      -0.050743        -1.3808
  46   0.0000       0.005070         0.1380
  47   0.0000       0.008135         0.2214

                 SPIN DOWN ORBITALS
  NO   OCC          E(Eh)            E(eV)
   0   1.0000     -10.095364      -274.7088
   1   1.0000     -10.095348      -274.7084
   2   1.0000     -10.085739      -274.4469
   3   1.0000     -10.085737      -274.4469
   4   1.0000     -10.073363      -274.1101
   5   1.0000     -10.073360      -274.1101
   6   1.0000     -10.072738      -274.0931
   7   1.0000     -10.072723      -274.0927
   8   1.0000     -10.071204      -274.0514
   9   1.0000     -10.071184      -274.0509
  10   1.0000     -10.044542      -273.3259
  11   1.0000     -10.044540      -273.3258
  12   1.0000      -0.860930       -23.4271
  13   1.0000      -0.810552       -22.0562
  14   1.0000      -0.779730       -21.2175
  15   1.0000      -0.747742       -20.3471
  16   1.0000      -0.741076       -20.1657
  17   1.0000      -0.695299       -18.9201
  18   1.0000      -0.648401       -17.6439
  19   1.0000      -0.612957       -16.6794
  20   1.0000      -0.586806       -15.9678
  21   1.0000      -0.550400       -14.9771
  22   1.0000      -0.533782       -14.5249
  23   1.0000      -0.501663       -13.6509
  24   1.0000      -0.472613       -12.8604
  25   1.0000      -0.461316       -12.5531
  26   1.0000      -0.429660       -11.6917
  27   1.0000      -0.413462       -11.2509
  28   1.0000      -0.411950       -11.2097
  29   1.0000      -0.395573       -10.7641
  30   1.0000      -0.394009       -10.7215
  31   1.0000      -0.390347       -10.6219
  32   1.0000      -0.387570       -10.5463
  33   1.0000      -0.377185       -10.2637
  34   1.0000      -0.360675        -9.8145
  35   1.0000      -0.349717        -9.5163
  36   1.0000      -0.343154        -9.3377
  37   1.0000      -0.338173        -9.2022
  38   1.0000      -0.320588        -8.7236
  39   1.0000      -0.319406        -8.6915
  40   1.0000      -0.268880        -7.3166
  41   1.0000      -0.257235        -6.9997
  42   0.0000      -0.195106        -5.3091
  43   0.0000      -0.095053        -2.5865
  44   0.0000      -0.054845        -1.4924
  45   0.0000      -0.032749        -0.8911
  46   0.0000       0.005754         0.1566

MULLIKEN ATOMIC CHARGES AND SPIN POPULATIONS
--------------------------------------------
   0 C :   -1.180978   -0.018986
   1 C :    2.302282    0.213335
   2 C :   -0.609426    0.002396
   3 C :   -1.180910   -0.019000
   4 C :    2.302279    0.213352
   5 C :   -0.609326    0.002411
   6 H :   -0.040392   -0.008009
   7 C :    0.148090   -0.035197
   8 C :   -0.167251    0.288461
   9 C :   -0.806755   -0.034699
  10 H :    0.172532    0.029750
  11 H :    0.252153   -0.006346
  12 H :    0.172548    0.029783
  13 H :    0.257742    0.027887
  14 H :   -0.003301    0.005393
  15 H :    0.002713    0.006240
  16 H :   -0.040413   -0.008005
  17 C :    0.148089   -0.035204
  18 C :   -0.167299    0.288442
  19 C :   -0.806720   -0.034691
  20 H :    0.172609    0.029763
  21 H :    0.172494    0.029772
  22 H :    0.252148   -0.006346
  23 H :    0.257705    0.027881
  24 H :   -0.003302    0.005394
  25 H :    0.002688    0.006224
Sum of atomic charges         :    1.0000000

LOEWDIN ATOMIC CHARGES AND SPIN POPULATIONS
-------------------------------------------
   0 C :    0.262741    0.032838
   1 C :   -0.090288    0.090261
   2 C :    0.265781    0.039756
   3 C :    0.262740    0.032838
   4 C :   -0.090288    0.090262
   5 C :    0.265781    0.039756
   6 H :   -0.164364    0.002598
   7 C :    0.265103    0.061834
   8 C :    0.274920    0.163737
   9 C :    0.601348    0.053579
  10 H :   -0.144863    0.012053
  11 H :   -0.159070    0.000985
  12 H :   -0.144796    0.012070
  13 H :   -0.158062    0.029250
  14 H :   -0.160814   -0.000338
  15 H :   -0.147632    0.001377
  16 H :   -0.164364    0.002598
  17 C :    0.265101    0.061835
  18 C :    0.274921    0.163735
  19 C :    0.601351    0.053579
  20 H :   -0.144855    0.012058
  21 H :   -0.144803    0.012065
  22 H :   -0.159071    0.000985
  23 H :   -0.158062    0.029249
  24 H :   -0.160818   -0.000338
  25 H :   -0.147636    0.001377

  Mayer bond orders larger than 0.100000
B(  0-C ,  1-C ) :  -0.3890 B(  0-C ,  2-C ) :  -0.6029 B(  0-C ,  3-C ) :   0.1974
B(  0-C ,  5-C ) :   1.1785 B(  0-C ,  8-C ) :  -0.1149 B(  0-C , 25-H ) :   1.5505
B(  1-C ,  2-C ) :   0.1045 B(  1-C ,  4-C ) :  -0.2316 B(  1-C ,  7-C ) :   0.3556
B(  1-C , 16-H ) :  -0.2732 B(  1-C , 17-C ) :   0.2577 B(  1-C , 23-H ) :  -0.1413
B(  1-C , 25-H ) :  -0.3081 B(  2-C ,  3-C ) :   1.1786 B(  2-C ,  5-C ) :  -0.4372
B(  2-C ,  6-H ) :  -0.2944 B(  2-C ,  8-C ) :   0.1239 B(  2-C , 15-H ) :  -0.1562
B(  2-C , 16-H ) :   1.6084 B(  2-C , 17-C ) :   0.1401 B(  2-C , 25-H ) :   0.1001
B(  3-C ,  4-C ) :  -0.3890 B(  3-C ,  5-C ) :  -0.6030 B(  3-C , 15-H ) :   1.5505
B(  3-C , 18-C ) :  -0.1148 B(  4-C ,  5-C ) :   0.1045 B(  4-C ,  6-H ) :  -0.2732
B(  4-C ,  7-C ) :   0.2577 B(  4-C , 13-H ) :  -0.1413 B(  4-C , 15-H ) :  -0.3081
B(  4-C , 17-C ) :   0.3556 B(  5-C ,  6-H ) :   1.6084 B(  5-C ,  7-C ) :   0.1401
B(  5-C , 15-H ) :   0.1000 B(  5-C , 16-H ) :  -0.2943 B(  5-C , 18-C ) :   0.1239
B(  5-C , 25-H ) :  -0.1563 B(  6-H ,  7-C ) :  -0.1047 B(  6-H , 15-H ) :   0.1568
B(  7-C ,  8-C ) :   0.6494 B(  7-C , 14-H ) :   1.2448 B(  8-C ,  9-C ) :   0.6469
B(  8-C , 13-H ) :   1.1648 B(  8-C , 14-H ) :  -0.1799 B(  9-C , 10-H ) :   1.0459
B(  9-C , 11-H ) :   0.9305 B(  9-C , 12-H ) :   1.0454 B(  9-C , 13-H ) :  -0.2159
B( 16-H , 17-C ) :  -0.1047 B( 16-H , 25-H ) :   0.1568 B( 17-C , 18-C ) :   0.6494
B( 17-C , 24-H ) :   1.2448 B( 18-C , 19-C ) :   0.6469 B( 18-C , 23-H ) :   1.1648
B( 18-C , 24-H ) :  -0.1799 B( 19-C , 20-H ) :   1.0458 B( 19-C , 21-H ) :   1.0454
B( 19-C , 22-H ) :   0.9305 B( 19-C , 23-H ) :  -0.2159

Dispersion correction           -0.008212939
FINAL SINGLE POINT ENERGY      -465.392726168195

DIPOLE MOMENT
-------------

Method             : SCF
Type of density    : Electron Density
Multiplicity       :   2
Irrep              :   0
Energy             :  -465.3845132288876130 Eh
Relativity type    :
Basis              : AO
                                X                 Y                 Z
Electronic contribution:      0.000010536       0.000049555      -0.000105697
Nuclear contribution   :     -0.000009580      -0.000053351       0.000182982
                        -----------------------------------------
Total Dipole Moment    :      0.000000956      -0.000003796       0.000077285
                        -----------------------------------------
Magnitude (a.u.)       :      0.000077384
Magnitude (Debye)      :      0.000196695

Rotational constants in cm-1:             0.145084             0.011081             0.010334
Rotational constants in MHz :          4349.508816           332.191507           309.803376

                             ****ORCA TERMINATED NORMALLY****
TOTAL RUN TIME: 0 days 0 hours 7 minutes 3 seconds 622 msec
