                         Program Version 6.0.0  -   RELEASE  -
|  1> !TPSSh opt aug-cc-pVTZ d3 TightSCF SlowConv RIJCOSX defgrid2
|  2>
|  3> %pal
|  4> nprocs 8
|  5> end
|  6>
|  7> %scf
|  8> MaxIter 1500
|  9> end
| 10>
| 11> %maxcore 3500
| 12>
| 13> !CPCM
| 14> %cpcm smd true
| 15> SMDsolvent "MeCN"
| 16> surfacetype gepol_ses
| 17> rsolv 2.19
| 18> end
| 19>
| 20> * xyz 0 1
| 21> C          -1.20884186796781     -0.02278058914418      0.00003742233159
| 22> C          -1.20709913160620      1.38045218788773      0.00016703364523
| 23> C           0.00003556987027      2.07238258705511      0.00002257197541
| 24> C           1.20714414585697      1.38040506278913     -0.00023783478174
| 25> C           1.20883517896309     -0.02282737272555     -0.00031075934043
| 26> C          -0.00001674938231     -0.72722788932514     -0.00021243594479
| 27> H          -0.00003875372447     -1.81890955720448     -0.00030359455707
| 28> C           2.45039282749013     -0.73822162648839     -0.00031862016213
| 29> N           3.45665781045797     -1.31294485312421      0.00119491286029
| 30> H           2.15765649045058      1.91893621365633     -0.00034701835738
| 31> H           0.00005970442079      3.16546819660540      0.00011390445176
| 32> H          -2.15759482922730      1.91901494079977      0.00036663554396
| 33> C          -2.45042247590246     -0.73813543850926      0.00010406543100
| 34> N          -3.45670371969924     -1.31283236227226     -0.00021618309569
| 35> *
| 36>
| 37>                          ****END OF INPUT****
 Total Charge           Charge          ....    0
 Multiplicity           Mult            ....    1
 Number of Electrons    NEL             ....   66
Dispersion correction           -0.018996589
FINAL SINGLE POINT ENERGY      -416.932026782133
Dispersion correction             ... done (  0.1 sec)
Dispersion correction           -0.019055012
FINAL SINGLE POINT ENERGY      -416.932538922186
Dispersion correction             ... done (  0.1 sec)
Dispersion correction           -0.019065946
FINAL SINGLE POINT ENERGY      -416.932556306008
Dispersion correction             ... done (  0.1 sec)
Dispersion correction           -0.019067904
FINAL SINGLE POINT ENERGY      -416.932560157955
Dispersion correction             ... done (  0.1 sec)
                    ***********************HURRAY********************

CARTESIAN COORDINATES (ANGSTROEM)
---------------------------------
  C     -1.199740   -0.021247    0.000130
  C     -1.203913    1.379751    0.000412
  C      0.000032    2.069721    0.000020
  C      1.203951    1.379707   -0.000477
  C      1.199743   -0.021289   -0.000344
  C     -0.000012   -0.733090   -0.000179
  H     -0.000032   -1.813503   -0.000266
  C      2.436393   -0.733032   -0.000168
  N      3.441362   -1.305700    0.001299
  H      2.143849    1.914359   -0.000615
  H      0.000056    3.151183    0.000100
  H     -2.143794    1.914432    0.000624
  C     -2.436418   -0.732944   -0.000023
  N     -3.441413   -1.305568   -0.000455

 Multiplicity           Mult            ....    1
 Number of Electrons    NEL             ....   66
 Basis Dimension        Dim             ....  552

ORBITAL ENERGIES
----------------

  NO   OCC          E(Eh)            E(eV)
   0   2.0000     -14.263819      -388.1383
   1   2.0000     -14.263818      -388.1382
   2   2.0000     -10.175868      -276.8994
   3   2.0000     -10.175856      -276.8991
   4   2.0000     -10.168767      -276.7062
   5   2.0000     -10.168762      -276.7061
   6   2.0000     -10.160133      -276.4713
   7   2.0000     -10.152338      -276.2592
   8   2.0000     -10.152320      -276.2587
   9   2.0000     -10.140619      -275.9403
  10   2.0000      -0.908326       -24.7168
  11   2.0000      -0.902885       -24.5687
  12   2.0000      -0.872469       -23.7411
  13   2.0000      -0.787123       -21.4187
  14   2.0000      -0.769870       -20.9492
  15   2.0000      -0.651978       -17.7412
  16   2.0000      -0.647176       -17.6106
  17   2.0000      -0.579835       -15.7781
  18   2.0000      -0.498548       -13.5662
  19   2.0000      -0.488570       -13.2947
  20   2.0000      -0.477151       -12.9839
  21   2.0000      -0.437813       -11.9135
  22   2.0000      -0.413894       -11.2626
  23   2.0000      -0.384756       -10.4698
  24   2.0000      -0.380412       -10.3515
  25   2.0000      -0.375203       -10.2098
  26   2.0000      -0.368103       -10.0166
  27   2.0000      -0.362929        -9.8758
  28   2.0000      -0.339458        -9.2371
  29   2.0000      -0.337778        -9.1914
  30   2.0000      -0.336790        -9.1645
  31   2.0000      -0.274176        -7.4607
  32   2.0000      -0.269764        -7.3407
  33   0.0000      -0.085834        -2.3357
  34   0.0000      -0.070434        -1.9166
  35   0.0000      -0.006886        -0.1874
  36   0.0000      -0.006500        -0.1769
  37   0.0000       0.007662         0.2085

MULLIKEN ATOMIC CHARGES
-----------------------
   0 C :    1.006962
   1 C :   -0.577294
   2 C :   -0.395656
   3 C :   -0.577081
   4 C :    1.007769
   5 C :   -0.656876
   6 H :   -0.080849
   7 C :    0.815866
   8 N :   -0.998977
   9 H :    0.069651
  10 H :    0.500042
  11 H :    0.069467
  12 C :    0.815910
  13 N :   -0.998932
Sum of atomic charges:   -0.0000000

LOEWDIN ATOMIC CHARGES
----------------------
   0 C :   -0.181002
   1 C :    0.237171
   2 C :    0.248063
   3 C :    0.237167
   4 C :   -0.181002
   5 C :    0.226115
   6 H :   -0.149047
   7 C :   -0.236874
   8 N :    0.251930
   9 H :   -0.153660
  10 H :   -0.160256
  11 H :   -0.153659
  12 C :   -0.236876
  13 N :    0.251930

  Mayer bond orders larger than 0.100000
B(  0-C ,  1-C ) :   0.6282 B(  0-C ,  4-C ) :   0.1407 B(  0-C ,  5-C ) :   0.6937
B(  0-C , 12-C ) :   0.8021 B(  0-C , 13-N ) :   0.1573 B(  1-C ,  2-C ) :   1.3829
B(  1-C ,  3-C ) :  -0.1003 B(  1-C , 11-H ) :   1.0668 B(  1-C , 12-C ) :   0.2158
B(  1-C , 13-N ) :   0.1265 B(  2-C ,  3-C ) :   1.3834 B(  2-C , 10-H ) :   0.5468
B(  3-C ,  4-C ) :   0.6277 B(  3-C ,  7-C ) :   0.2151 B(  3-C ,  8-N ) :   0.1266
B(  3-C ,  9-H ) :   1.0667 B(  4-C ,  5-C ) :   0.6926 B(  4-C ,  7-C ) :   0.8018
B(  4-C ,  8-N ) :   0.1580 B(  5-C ,  6-H ) :   1.2348 B(  7-C ,  8-N ) :   1.0522
B(  7-C , 12-C ) :   0.1830 B( 12-C , 13-N ) :   1.0523

Dispersion correction           -0.019067152
FINAL SINGLE POINT ENERGY      -416.932561246292

DIPOLE MOMENT
-------------

Method             : SCF
Type of density    : Electron Density
Multiplicity       :   1
Irrep              :   0
Energy             :  -416.9134940938063210 Eh
Relativity type    :
Basis              : AO
                                X                 Y                 Z
Electronic contribution:     -0.000034798      -2.440341466      -0.000550366
Nuclear contribution   :      0.000078416       4.841166227      -0.000264288
                        -----------------------------------------
Total Dipole Moment    :      0.000043618       2.400824761      -0.000814654
                        -----------------------------------------
Magnitude (a.u.)       :      2.400824899
Magnitude (Debye)      :      6.102411928

Rotational constants in cm-1:             0.091112             0.030482             0.022841
Rotational constants in MHz :          2731.470473           913.835296           684.747583

                             ****ORCA TERMINATED NORMALLY****
TOTAL RUN TIME: 0 days 0 hours 16 minutes 21 seconds 69 msec
