                         Program Version 6.0.0  -   RELEASE  -
|  1> !PBE0 aug-cc-pVTZ d3 TightSCF SlowConv RIJCOSX defgrid2
|  2>
|  3> %pal
|  4> nprocs 6
|  5> end
|  6>
|  7> %scf
|  8> MaxIter 1500
|  9> end
| 10>
| 11> %maxcore 3000
| 12>
| 13> !CPCM
| 14> %cpcm smd true
| 15> SMDsolvent "MeCN"
| 16> surfacetype gepol_ses
| 17> rsolv 2.19
| 18> end
| 19>
| 20> * xyz -1 2
| 21>   C          -1.16908364743389     -1.25106043112589     -0.00046711885945
| 22>   C          -2.51558895662628     -0.94805778331016     -0.00048970260602
| 23>   C          -2.96951415995677      0.38786935411419     -0.00003437372110
| 24>   C          -1.99949719417351      1.41257476413842      0.00046952009611
| 25>   C          -0.64650719425624      1.13368035065037      0.00050575201273
| 26>   C          -0.16707249946699     -0.21739071251225      0.00002200149285
| 27>   C           1.18771930240505     -0.62830725495849      0.00000084051024
| 28>   O           1.69166054938407     -1.73447405522234     -0.00027921149921
| 29>   Cl          2.41415222066200      0.84117378911090      0.00088007792741
| 30>   H           0.08783721642061      1.94210741862158      0.00088650713536
| 31>   H          -2.32239478311716      2.46171169296406      0.00083360203305
| 32>   H          -4.03893270236722      0.62157662484535     -0.00006413910783
| 33>   H          -3.24555265578784     -1.76825494852385     -0.00088549117391
| 34>   H          -0.82790279568582     -2.29013880879190     -0.00083276424023
| 35> *
| 36>
| 37>                          ****END OF INPUT****

CARTESIAN COORDINATES (ANGSTROEM)
---------------------------------
  C     -1.169084   -1.251060   -0.000467
  C     -2.515589   -0.948058   -0.000490
  C     -2.969514    0.387869   -0.000034
  C     -1.999497    1.412575    0.000470
  C     -0.646507    1.133680    0.000506
  C     -0.167072   -0.217391    0.000022
  C      1.187719   -0.628307    0.000001
  O      1.691661   -1.734474   -0.000279
  Cl     2.414152    0.841174    0.000880
  H      0.087837    1.942107    0.000887
  H     -2.322395    2.461712    0.000834
  H     -4.038933    0.621577   -0.000064
  H     -3.245553   -1.768255   -0.000885
  H     -0.827903   -2.290139   -0.000833

 Total Charge           Charge          ....   -1
 Multiplicity           Mult            ....    2
 Number of Electrons    NEL             ....   73
 Basis Dimension        Dim             ....  533

ORBITAL ENERGIES
----------------
                 SPIN UP ORBITALS
  NO   OCC          E(Eh)            E(eV)
   0   1.0000    -101.691845     -2767.1758
   1   1.0000     -19.174065      -521.7528
   2   1.0000     -10.302449      -280.3439
   3   1.0000     -10.221383      -278.1380
   4   1.0000     -10.214959      -277.9632
   5   1.0000     -10.214406      -277.9481
   6   1.0000     -10.212076      -277.8847
   7   1.0000     -10.211974      -277.8819
   8   1.0000     -10.207603      -277.7630
   9   1.0000      -9.494063      -258.3466
  10   1.0000      -7.227558      -196.6719
  11   1.0000      -7.222031      -196.5215
  12   1.0000      -7.221490      -196.5067
  13   1.0000      -1.051792       -28.6207
  14   1.0000      -0.863424       -23.4950
  15   1.0000      -0.812678       -22.1141
  16   1.0000      -0.760875       -20.7045
  17   1.0000      -0.752046       -20.4642
  18   1.0000      -0.646988       -17.6054
  19   1.0000      -0.599701       -16.3187
  20   1.0000      -0.550880       -14.9902
  21   1.0000      -0.501531       -13.6474
  22   1.0000      -0.462205       -12.5772
  23   1.0000      -0.453277       -12.3343
  24   1.0000      -0.426065       -11.5938
  25   1.0000      -0.423910       -11.5352
  26   1.0000      -0.414051       -11.2669
  27   1.0000      -0.408210       -11.1080
  28   1.0000      -0.365334        -9.9412
  29   1.0000      -0.355523        -9.6743
  30   1.0000      -0.325852        -8.8669
  31   1.0000      -0.304012        -8.2726
  32   1.0000      -0.300288        -8.1713
  33   1.0000      -0.266273        -7.2456
  34   1.0000      -0.263872        -7.1803
  35   1.0000      -0.262758        -7.1500
  36   1.0000      -0.120696        -3.2843
  37   0.0000       0.001192         0.0324
  38   0.0000       0.003670         0.0999
  39   0.0000       0.016655         0.4532
  40   0.0000       0.019778         0.5382
  41   0.0000       0.032101         0.8735

                 SPIN DOWN ORBITALS
  NO   OCC          E(Eh)            E(eV)
   0   1.0000    -101.691839     -2767.1756
   1   1.0000     -19.168402      -521.5987
   2   1.0000     -10.297477      -280.2086
   3   1.0000     -10.221194      -278.1328
   4   1.0000     -10.216555      -278.0066
   5   1.0000     -10.215910      -277.9890
   6   1.0000     -10.209045      -277.8022
   7   1.0000     -10.209014      -277.8014
   8   1.0000     -10.202941      -277.6361
   9   1.0000      -9.494056      -258.3464
  10   1.0000      -7.227823      -196.6791
  11   1.0000      -7.221716      -196.5129
  12   1.0000      -7.221502      -196.5070
  13   1.0000      -1.040980       -28.3265
  14   1.0000      -0.858915       -23.3723
  15   1.0000      -0.809900       -22.0385
  16   1.0000      -0.755100       -20.5473
  17   1.0000      -0.748349       -20.3636
  18   1.0000      -0.633966       -17.2511
  19   1.0000      -0.598275       -16.2799
  20   1.0000      -0.546603       -14.8738
  21   1.0000      -0.496418       -13.5082
  22   1.0000      -0.459236       -12.4964
  23   1.0000      -0.447907       -12.1882
  24   1.0000      -0.424708       -11.5569
  25   1.0000      -0.412912       -11.2359
  26   1.0000      -0.405208       -11.0263
  27   1.0000      -0.395905       -10.7731
  28   1.0000      -0.353062        -9.6073
  29   1.0000      -0.349480        -9.5098
  30   1.0000      -0.324860        -8.8399
  31   1.0000      -0.299706        -8.1554
  32   1.0000      -0.296060        -8.0562
  33   1.0000      -0.262886        -7.1535
  34   1.0000      -0.251877        -6.8539
  35   1.0000      -0.240456        -6.5431
  36   0.0000      -0.032073        -0.8727
  37   0.0000       0.003298         0.0898
  38   0.0000       0.008876         0.2415
  39   0.0000       0.018361         0.4996
  40   0.0000       0.021358         0.5812

MULLIKEN ATOMIC CHARGES AND SPIN POPULATIONS
--------------------------------------------
   0 C :   -0.939694    0.221227
   1 C :   -0.495540   -0.089829
   2 C :   -0.522223    0.305139
   3 C :   -0.709535   -0.087724
   4 C :   -0.967743    0.214828
   5 C :    1.316213    0.044507
   6 C :    0.440861    0.241596
   7 O :   -0.795871    0.206526
   8 Cl:   -0.479837    0.003047
   9 H :    0.358811   -0.015288
  10 H :    0.549557   -0.004769
  11 H :    0.542185   -0.009350
  12 H :    0.516558   -0.006375
  13 H :    0.186258   -0.023532
Sum of atomic charges         :   -1.0000000

LOEWDIN ATOMIC CHARGES AND SPIN POPULATIONS
-------------------------------------------
   0 C :    0.129356    0.098248
   1 C :    0.128737    0.026806
   2 C :    0.142930    0.138015
   3 C :    0.125881    0.027791
   4 C :    0.094328    0.096073
   5 C :   -0.334481    0.114799
   6 C :   -1.146043    0.207993
   7 O :    0.292850    0.195486
   8 Cl:    0.604935    0.027543
   9 H :   -0.272369    0.020645
  10 H :   -0.183523   -0.006248
  11 H :   -0.198004    0.037372
  12 H :   -0.182351   -0.006761
  13 H :   -0.202247    0.022238

  Mayer bond orders larger than 0.100000
B(  0-C ,  1-C ) :   1.3719 B(  0-C ,  4-C ) :  -0.1770 B(  0-C ,  5-C ) :   0.4948
B(  0-C ,  6-C ) :   0.1664 B(  0-C , 13-H ) :   0.9423 B(  1-C ,  2-C ) :   1.1782
B(  1-C , 12-H ) :   0.5760 B(  2-C ,  3-C ) :   1.2100 B(  2-C ,  5-C ) :  -0.1210
B(  2-C ,  6-C ) :   0.1112 B(  2-C , 11-H ) :   0.5517 B(  3-C ,  4-C ) :   1.3584
B(  3-C , 10-H ) :   0.5101 B(  4-C ,  5-C ) :   0.3378 B(  4-C ,  6-C ) :   0.3092
B(  4-C ,  9-H ) :   1.0260 B(  5-C ,  6-C ) :   0.7955 B(  5-C ,  7-O ) :   0.2211
B(  6-C ,  7-O ) :   0.8930 B(  6-C ,  8-Cl) :   0.6781 B(  7-O , 13-H ) :   0.1560
B(  8-Cl,  9-H ) :  -0.1191

Dispersion correction           -0.014092198
FINAL SINGLE POINT ENERGY      -804.902259250634

DIPOLE MOMENT
-------------

Method             : SCF
Type of density    : Electron Density
Multiplicity       :   2
Irrep              :   0
Energy             :  -804.8881670530350902 Eh
Relativity type    :
Basis              : AO
                                X                 Y                 Z
Electronic contribution:     11.131759682       1.058433380       0.001900196
Nuclear contribution   :    -12.989017313      -0.288558488      -0.001883982
                        -----------------------------------------
Total Dipole Moment    :     -1.857257631       0.769874892       0.000016214
                        -----------------------------------------
Magnitude (a.u.)       :      2.010500748
Magnitude (Debye)      :      5.110286780

Rotational constants in cm-1:             0.100365             0.030413             0.023340
Rotational constants in MHz :          3008.857541           911.756969           699.723685

                             ****ORCA TERMINATED NORMALLY****
TOTAL RUN TIME: 0 days 0 hours 3 minutes 42 seconds 982 msec
