                         Program Version 6.0.0  -   RELEASE  -
|  1> !TPSSh freq aug-cc-pVTZ d3 TightSCF SlowConv RIJCOSX defgrid2
|  2>
|  3> %pal
|  4> nprocs 12
|  5> end
|  6>
|  7> %scf
|  8> MaxIter 1500
|  9> end
| 10>
| 11> %maxcore 5000
| 12>
| 13> !CPCM
| 14> %cpcm smd true
| 15> SMDsolvent "MeCN"
| 16> surfacetype gepol_ses
| 17> rsolv 2.19
| 18> end
| 19>
| 20> * xyz 1 2
| 21> C           2.42230352616407     -0.93967185065321      0.55395676667095
| 22> C           1.25951593658087     -0.38560971154623     -0.02731266921458
| 23> C           1.34515879875246      0.87334496095507     -0.66544135860675
| 24> C           2.54528563840583      1.55610620094528     -0.70562222792677
| 25> C           3.67856810652336      1.00584233737466     -0.10368066735552
| 26> C           3.61187185026418     -0.24112438636345      0.52736087430039
| 27> H           4.49354374784810     -0.65683800598034      0.99712782798028
| 28> H           4.61885991421619      1.54158673683928     -0.13586227472231
| 29> H           2.60896111030022      2.50843993754257     -1.21520939393472
| 30> H           0.47607610672627      1.27576006187750     -1.16799099253149
| 31> C          -0.00000570549071     -1.10233841529063      0.00019637099190
| 32> C          -0.00003460802992     -2.48933307036506      0.00018510010177
| 33> H          -0.92472654811303     -3.04999418999173     -0.01929544407525
| 34> H           0.92462709128575     -3.05004417162606      0.01968554274561
| 35> C          -1.25952449905545     -0.38558911777278      0.02757646044082
| 36> C          -2.42215182971805     -0.93951962168999     -0.55411589561984
| 37> C          -3.61169501277446     -0.24091618816804     -0.52785170744445
| 38> C          -3.67854712087020      1.00598657107722      0.10328056731093
| 39> C          -2.54544555482518      1.55611097274351      0.70570295844559
| 40> C          -1.34535777294727      0.87326975987189      0.66586309035078
| 41> H          -0.47652092219768      1.27561931840986      1.16890430148388
| 42> H          -2.60924094930472      2.50838746005521      1.21537445618179
| 43> H          -4.61881791219384      1.54178536604920      0.13515340253785
| 44> H          -4.49322069397192     -0.65653541850228     -0.99797479446139
| 45> H          -2.36891360407110     -1.89364615065512     -1.06095714187422
| 46> H           2.36919830649625     -1.89387338513632      1.06067094822473
| 47> *
| 48>
| 49>                          ****END OF INPUT****

CARTESIAN COORDINATES (ANGSTROEM)
---------------------------------
  C      2.422304   -0.939672    0.553957
  C      1.259516   -0.385610   -0.027313
  C      1.345159    0.873345   -0.665441
  C      2.545286    1.556106   -0.705622
  C      3.678568    1.005842   -0.103681
  C      3.611872   -0.241124    0.527361
  H      4.493544   -0.656838    0.997128
  H      4.618860    1.541587   -0.135862
  H      2.608961    2.508440   -1.215209
  H      0.476076    1.275760   -1.167991
  C     -0.000006   -1.102338    0.000196
  C     -0.000035   -2.489333    0.000185
  H     -0.924727   -3.049994   -0.019295
  H      0.924627   -3.050044    0.019686
  C     -1.259524   -0.385589    0.027576
  C     -2.422152   -0.939520   -0.554116
  C     -3.611695   -0.240916   -0.527852
  C     -3.678547    1.005987    0.103281
  C     -2.545446    1.556111    0.705703
  C     -1.345358    0.873270    0.665863
  H     -0.476521    1.275619    1.168904
  H     -2.609241    2.508387    1.215374
  H     -4.618818    1.541785    0.135153
  H     -4.493221   -0.656535   -0.997975
  H     -2.368914   -1.893646   -1.060957
  H      2.369198   -1.893873    1.060671

 Total Charge           Charge          ....    1
 Multiplicity           Mult            ....    2
 Number of Electrons    NEL             ....   95
 Basis Dimension        Dim             ....  920

ORBITAL ENERGIES
----------------
                 SPIN UP ORBITALS
  NO   OCC          E(Eh)            E(eV)
   0   1.0000     -10.189195      -277.2621
   1   1.0000     -10.179843      -277.0076
   2   1.0000     -10.165374      -276.6139
   3   1.0000     -10.165371      -276.6138
   4   1.0000     -10.148318      -276.1498
   5   1.0000     -10.148314      -276.1497
   6   1.0000     -10.147750      -276.1343
   7   1.0000     -10.147718      -276.1334
   8   1.0000     -10.146590      -276.1028
   9   1.0000     -10.146588      -276.1027
  10   1.0000     -10.137027      -275.8425
  11   1.0000     -10.137026      -275.8425
  12   1.0000     -10.136503      -275.8283
  13   1.0000     -10.136496      -275.8281
  14   1.0000      -0.888324       -24.1725
  15   1.0000      -0.862574       -23.4718
  16   1.0000      -0.824792       -22.4437
  17   1.0000      -0.760315       -20.6892
  18   1.0000      -0.758363       -20.6361
  19   1.0000      -0.750328       -20.4175
  20   1.0000      -0.735712       -20.0197
  21   1.0000      -0.653675       -17.7874
  22   1.0000      -0.619728       -16.8637
  23   1.0000      -0.610796       -16.6206
  24   1.0000      -0.603912       -16.4333
  25   1.0000      -0.562739       -15.3129
  26   1.0000      -0.533636       -14.5210
  27   1.0000      -0.513047       -13.9607
  28   1.0000      -0.477335       -12.9889
  29   1.0000      -0.475501       -12.9390
  30   1.0000      -0.457783       -12.4569
  31   1.0000      -0.449233       -12.2242
  32   1.0000      -0.448378       -12.2010
  33   1.0000      -0.428205       -11.6521
  34   1.0000      -0.427339       -11.6285
  35   1.0000      -0.425518       -11.5789
  36   1.0000      -0.398409       -10.8413
  37   1.0000      -0.392446       -10.6790
  38   1.0000      -0.384377       -10.4594
  39   1.0000      -0.364083        -9.9072
  40   1.0000      -0.353751        -9.6261
  41   1.0000      -0.348323        -9.4784
  42   1.0000      -0.344034        -9.3616
  43   1.0000      -0.333429        -9.0731
  44   1.0000      -0.277129        -7.5411
  45   1.0000      -0.274677        -7.4743
  46   1.0000      -0.269225        -7.3260
  47   1.0000      -0.256360        -6.9759
  48   0.0000      -0.109195        -2.9713
  49   0.0000      -0.060690        -1.6515
  50   0.0000      -0.050799        -1.3823
  51   0.0000      -0.037525        -1.0211
  52   0.0000      -0.008211        -0.2234

                 SPIN DOWN ORBITALS
  NO   OCC          E(Eh)            E(eV)
   0   1.0000     -10.189597      -277.2730
   1   1.0000     -10.171132      -276.7706
   2   1.0000     -10.164167      -276.5810
   3   1.0000     -10.164164      -276.5810
   4   1.0000     -10.146841      -276.1096
   5   1.0000     -10.146809      -276.1087
   6   1.0000     -10.146406      -276.0977
   7   1.0000     -10.146403      -276.0977
   8   1.0000     -10.145798      -276.0812
   9   1.0000     -10.145795      -276.0811
  10   1.0000     -10.137383      -275.8522
  11   1.0000     -10.137382      -275.8522
  12   1.0000     -10.136934      -275.8400
  13   1.0000     -10.136928      -275.8398
  14   1.0000      -0.884616       -24.0716
  15   1.0000      -0.859986       -23.4014
  16   1.0000      -0.819253       -22.2930
  17   1.0000      -0.758184       -20.6312
  18   1.0000      -0.755931       -20.5699
  19   1.0000      -0.747926       -20.3521
  20   1.0000      -0.724309       -19.7094
  21   1.0000      -0.648157       -17.6372
  22   1.0000      -0.617896       -16.8138
  23   1.0000      -0.607887       -16.5414
  24   1.0000      -0.602359       -16.3910
  25   1.0000      -0.560199       -15.2438
  26   1.0000      -0.532616       -14.4932
  27   1.0000      -0.511026       -13.9057
  28   1.0000      -0.475660       -12.9434
  29   1.0000      -0.473497       -12.8845
  30   1.0000      -0.456394       -12.4191
  31   1.0000      -0.446866       -12.1598
  32   1.0000      -0.445975       -12.1356
  33   1.0000      -0.427227       -11.6254
  34   1.0000      -0.427005       -11.6194
  35   1.0000      -0.422797       -11.5049
  36   1.0000      -0.396248       -10.7825
  37   1.0000      -0.384726       -10.4689
  38   1.0000      -0.377419       -10.2701
  39   1.0000      -0.363547        -9.8926
  40   1.0000      -0.353294        -9.6136
  41   1.0000      -0.344525        -9.3750
  42   1.0000      -0.342902        -9.3308
  43   1.0000      -0.317083        -8.6283
  44   1.0000      -0.273216        -7.4346
  45   1.0000      -0.266954        -7.2642
  46   1.0000      -0.262503        -7.1431
  47   0.0000      -0.202645        -5.5143
  48   0.0000      -0.081283        -2.2118
  49   0.0000      -0.053072        -1.4442
  50   0.0000      -0.046534        -1.2662
  51   0.0000      -0.032649        -0.8884

MULLIKEN ATOMIC CHARGES AND SPIN POPULATIONS
--------------------------------------------
   0 C :   -0.902288    0.025431
   1 C :    1.897565    0.108890
   2 C :   -0.543056    0.052729
   3 C :   -0.854635   -0.028530
   4 C :   -0.074983    0.127523
   5 C :   -0.632848   -0.022179
   6 H :    0.436030   -0.001769
   7 H :    0.506174    0.003608
   8 H :    0.406008   -0.000445
   9 H :    0.087723   -0.001859
  10 C :    0.787247    0.022659
  11 C :   -0.622408    0.498020
  12 H :    0.152077   -0.005817
  13 H :    0.150412   -0.005797
  14 C :    1.884401    0.108825
  15 C :   -0.891505    0.025511
  16 C :   -0.631024   -0.022151
  17 C :   -0.074464    0.127438
  18 C :   -0.848590   -0.028450
  19 C :   -0.536524    0.052886
  20 H :    0.085651   -0.001907
  21 H :    0.414001   -0.000371
  22 H :    0.466518    0.003405
  23 H :    0.457124   -0.001719
  24 H :   -0.062093   -0.018018
  25 H :   -0.056512   -0.017910
Sum of atomic charges         :    1.0000000

LOEWDIN ATOMIC CHARGES AND SPIN POPULATIONS
-------------------------------------------
   0 C :    0.255594    0.033633
   1 C :   -0.090843    0.056832
   2 C :    0.243059    0.037927
   3 C :    0.252210    0.015114
   4 C :    0.249475    0.059903
   5 C :    0.249616    0.016225
   6 H :   -0.162846   -0.001380
   7 H :   -0.157719    0.014051
   8 H :   -0.161891   -0.001702
   9 H :   -0.162642    0.006047
  10 C :   -0.053203    0.104945
  11 C :    0.694607    0.291067
  12 H :   -0.166167    0.060083
  13 H :   -0.166178    0.060083
  14 C :   -0.090858    0.056809
  15 C :    0.255600    0.033624
  16 C :    0.249611    0.016219
  17 C :    0.249471    0.059883
  18 C :    0.252212    0.015108
  19 C :    0.242988    0.037920
  20 H :   -0.162671    0.006045
  21 H :   -0.161884   -0.001702
  22 H :   -0.157731    0.014046
  23 H :   -0.162838   -0.001379
  24 H :   -0.168480    0.005301
  25 H :   -0.168490    0.005299

  Mayer bond orders larger than 0.100000
B(  0-C ,  1-C ) :   0.2722 B(  0-C ,  2-C ) :  -0.5169 B(  0-C ,  3-C ) :   0.1088
B(  0-C ,  5-C ) :   1.6481 B(  0-C , 10-C ) :   0.2877 B(  0-C , 25-H ) :   1.4078
B(  1-C ,  2-C ) :   0.6389 B(  1-C ,  3-C ) :  -0.2298 B(  1-C ,  4-C ) :  -0.2518
B(  1-C ,  5-C ) :  -0.1587 B(  1-C ,  6-H ) :   0.1096 B(  1-C ,  8-H ) :   0.1072
B(  1-C ,  9-H ) :   0.1055 B(  1-C , 10-C ) :   0.1799 B(  1-C , 11-C ) :  -0.2183
B(  1-C , 14-C ) :  -0.2840 B(  1-C , 25-H ) :   0.1027 B(  2-C ,  3-C ) :   1.6450
B(  2-C ,  9-H ) :   1.2608 B(  2-C , 10-C ) :   0.1148 B(  2-C , 19-C ) :   0.1769
B(  3-C ,  4-C ) :   1.4899 B(  3-C ,  5-C ) :   0.2375 B(  3-C ,  8-H ) :   0.4764
B(  4-C ,  5-C ) :   1.3331 B(  4-C ,  6-H ) :   0.1246 B(  4-C ,  7-H ) :   0.4305
B(  4-C ,  8-H ) :   0.1086 B(  4-C , 10-C ) :   0.1808 B(  5-C ,  6-H ) :   0.5107
B(  9-H , 10-C ) :  -0.1549 B(  9-H , 25-H ) :   0.1163 B( 10-C , 11-C ) :   0.8440
B( 10-C , 14-C ) :   0.1809 B( 10-C , 15-C ) :   0.2890 B( 10-C , 17-C ) :   0.1855
B( 10-C , 19-C ) :   0.1162 B( 10-C , 20-H ) :  -0.1539 B( 10-C , 24-H ) :  -0.1512
B( 10-C , 25-H ) :  -0.1506 B( 11-C , 12-H ) :   0.9978 B( 11-C , 13-H ) :   0.9984
B( 11-C , 14-C ) :  -0.2158 B( 14-C , 15-C ) :   0.2733 B( 14-C , 16-C ) :  -0.1491
B( 14-C , 17-C ) :  -0.2321 B( 14-C , 18-C ) :  -0.2225 B( 14-C , 19-C ) :   0.6490
B( 14-C , 20-H ) :   0.1080 B( 14-C , 21-H ) :   0.1061 B( 14-C , 23-H ) :   0.1102
B( 15-C , 16-C ) :   1.6425 B( 15-C , 18-C ) :   0.1117 B( 15-C , 19-C ) :  -0.5193
B( 15-C , 24-H ) :   1.4111 B( 16-C , 17-C ) :   1.3309 B( 16-C , 18-C ) :   0.2457
B( 16-C , 23-H ) :   0.4704 B( 17-C , 18-C ) :   1.4737 B( 17-C , 21-H ) :   0.1099
B( 17-C , 22-H ) :   0.4875 B( 17-C , 23-H ) :   0.1181 B( 18-C , 19-C ) :   1.6424
B( 18-C , 21-H ) :   0.4664 B( 19-C , 20-H ) :   1.2579 B( 20-H , 24-H ) :   0.1185

Dispersion correction           -0.038920882
FINAL SINGLE POINT ENERGY      -540.768799273476

DIPOLE MOMENT
-------------

Method             : SCF
Type of density    : Electron Density
Multiplicity       :   2
Irrep              :   0
Energy             :  -540.7298783912916633 Eh
Relativity type    :
Basis              : AO
                                X                 Y                 Z
Electronic contribution:     -0.000011528      -0.280187420      -0.000143661
Nuclear contribution   :     -0.000108901      -0.590749633      -0.000400214
                        -----------------------------------------
Total Dipole Moment    :     -0.000120429      -0.870937053      -0.000543875
                        -----------------------------------------
Magnitude (a.u.)       :      0.870937232
Magnitude (Debye)      :      2.213746513

VIBRATIONAL FREQUENCIES
-----------------------

Scaling factor for frequencies =  1.000000000  (already applied!)

     0:       0.00 cm**-1
     1:       0.00 cm**-1
     2:       0.00 cm**-1
     3:       0.00 cm**-1
     4:       0.00 cm**-1
     5:       0.00 cm**-1
     6:      43.49 cm**-1
     7:      60.75 cm**-1
     8:      80.26 cm**-1
     9:     116.70 cm**-1
    10:     205.89 cm**-1
    11:     242.70 cm**-1
    12:     298.28 cm**-1
    13:     330.20 cm**-1
    14:     390.90 cm**-1
    15:     403.02 cm**-1
    16:     416.24 cm**-1
    17:     420.38 cm**-1
    18:     488.29 cm**-1
    19:     554.03 cm**-1
    20:     579.06 cm**-1
    21:     601.41 cm**-1
    22:     604.43 cm**-1
    23:     612.44 cm**-1
    24:     677.25 cm**-1
    25:     682.20 cm**-1
    26:     727.72 cm**-1
    27:     789.24 cm**-1
    28:     796.42 cm**-1
    29:     839.87 cm**-1
    30:     840.54 cm**-1
    31:     841.85 cm**-1
    32:     947.15 cm**-1
    33:     962.32 cm**-1
    34:     965.39 cm**-1
    35:    1000.49 cm**-1
    36:    1003.07 cm**-1
    37:    1005.26 cm**-1
    38:    1008.38 cm**-1
    39:    1023.35 cm**-1
    40:    1024.31 cm**-1
    41:    1031.00 cm**-1
    42:    1034.22 cm**-1
    43:    1062.99 cm**-1
    44:    1107.23 cm**-1
    45:    1111.60 cm**-1
    46:    1162.01 cm**-1
    47:    1164.10 cm**-1
    48:    1166.99 cm**-1
    49:    1186.21 cm**-1
    50:    1198.71 cm**-1
    51:    1317.80 cm**-1
    52:    1321.47 cm**-1
    53:    1365.71 cm**-1
    54:    1369.82 cm**-1
    55:    1394.52 cm**-1
    56:    1394.85 cm**-1
    57:    1464.80 cm**-1
    58:    1466.98 cm**-1
    59:    1502.22 cm**-1
    60:    1508.55 cm**-1
    61:    1524.20 cm**-1
    62:    1567.89 cm**-1
    63:    1567.93 cm**-1
    64:    1589.93 cm**-1
    65:    1638.64 cm**-1
    66:    3158.03 cm**-1
    67:    3181.17 cm**-1
    68:    3181.30 cm**-1
    69:    3188.20 cm**-1
    70:    3189.09 cm**-1
    71:    3192.96 cm**-1
    72:    3194.28 cm**-1
    73:    3200.75 cm**-1
    74:    3201.72 cm**-1
    75:    3204.92 cm**-1
    76:    3206.38 cm**-1
    77:    3260.27 cm**-1

IR SPECTRUM
-----------

 Mode   freq       eps      Int      T**2         TX        TY        TZ
       cm**-1   L/(mol*cm) km/mol    a.u.
----------------------------------------------------------------------------
  6:     43.49   0.001657    8.37  0.011892  (-0.109050  0.000014 -0.000390)
  7:     60.75   0.000014    0.07  0.000074  ( 0.000452  0.008585  0.000017)
  8:     80.26   0.000019    0.09  0.000073  (-0.000120 -0.008542  0.000005)
  9:    116.70   0.003024   15.28  0.008085  ( 0.069046  0.000005  0.057602)
 10:    205.89   0.000028    0.14  0.000042  (-0.000274 -0.006491 -0.000000)
 11:    242.70   0.000773    3.90  0.000993  ( 0.026709 -0.000001  0.016733)
 12:    298.28   0.000012    0.06  0.000013  (-0.000064 -0.003608 -0.000001)
 13:    330.20   0.019928  100.71  0.018833  ( 0.137125 -0.000006 -0.005487)
 14:    390.90   0.011323   57.22  0.009039  ( 0.095032  0.000031 -0.002864)
 15:    403.02   0.000015    0.08  0.000012  (-0.000134  0.003440  0.000009)
 16:    416.24   0.000356    1.80  0.000267  (-0.000116  0.016338 -0.000013)
 17:    420.38   0.009165   46.31  0.006803  ( 0.078945  0.000041  0.023892)
 18:    488.29   0.000188    0.95  0.000120  ( 0.000005  0.010950  0.000001)
 19:    554.03   0.003078   15.56  0.001734  ( 0.000092 -0.041638 -0.000002)
 20:    579.06   0.024905  125.86  0.013421  ( 0.114505  0.000027 -0.017607)
 21:    601.41   0.000260    1.31  0.000135  (-0.007443 -0.000017 -0.008916)
 22:    604.43   0.000008    0.04  0.000004  ( 0.000152  0.001977  0.000004)
 23:    612.44   0.011145   56.32  0.005679  (-0.074277 -0.000004  0.012720)
 24:    677.25   0.006141   31.04  0.002830  ( 0.000251  0.053194 -0.000346)
 25:    682.20   0.027472  138.83  0.012567  ( 0.021047 -0.000173 -0.110107)
 26:    727.72   0.000024    0.12  0.000010  (-0.000024 -0.003189  0.000019)
 27:    789.24   0.004393   22.20  0.001737  ( 0.000493  0.041672 -0.000297)
 28:    796.42   0.029237  147.75  0.011456  (-0.076809  0.000175  0.074540)
 29:    839.87   0.000022    0.11  0.000008  (-0.002359 -0.000770 -0.001433)
 30:    840.54   0.000414    2.09  0.000154  (-0.001921  0.012242 -0.000034)
 31:    841.85   0.023829  120.42  0.008833  (-0.093945 -0.000232  0.002706)
 32:    947.15   0.021303  107.66  0.007019  ( 0.066779  0.000008 -0.050590)
 33:    962.32   0.000245    1.24  0.000079  (-0.000566  0.008885  0.000154)
 34:    965.39   0.000385    1.95  0.000125  ( 0.010691  0.000195 -0.003206)
 35:   1000.49   0.034378  173.73  0.010723  ( 0.103551 -0.000090 -0.000218)
 36:   1003.07   0.000352    1.78  0.000110  ( 0.002009  0.010277  0.000076)
 37:   1005.26   0.007682   38.82  0.002385  (-0.048673  0.000236 -0.003959)
 38:   1008.38   0.000188    0.95  0.000058  ( 0.000148  0.007634  0.000035)
 39:   1023.35   0.000259    1.31  0.000079  (-0.000395  0.008874 -0.000365)
 40:   1024.31   0.000197    1.00  0.000060  ( 0.006011  0.000677  0.004856)
 41:   1031.00   0.005776   29.19  0.001748  ( 0.041811 -0.000029  0.000200)
 42:   1034.22   0.000008    0.04  0.000002  (-0.000158  0.001500 -0.000014)
 43:   1062.99   0.036273  183.31  0.010649  (-0.103021 -0.000000  0.005957)
 44:   1107.23   0.001214    6.13  0.000342  (-0.000002 -0.018497 -0.000031)
 45:   1111.60   0.014271   72.12  0.004006  ( 0.060140 -0.000005  0.019733)
 46:   1162.01   0.003652   18.46  0.000981  ( 0.000294 -0.031318 -0.000032)
 47:   1164.10   0.000296    1.49  0.000079  ( 0.005836 -0.000157  0.006720)
 48:   1166.99   0.005351   27.04  0.001431  ( 0.000076  0.037828  0.000028)
 49:   1186.21   0.085015  429.63  0.022365  (-0.149467 -0.000008  0.004998)
 50:   1198.71   0.000001    0.00  0.000000  (-0.000073  0.000443  0.000034)
 51:   1317.80   0.019989  101.02  0.004734  (-0.068684 -0.000027  0.004012)
 52:   1321.47   0.000957    4.84  0.000226  (-0.000033  0.015035  0.000025)
 53:   1365.71   0.002856   14.43  0.000653  (-0.000198 -0.025546 -0.000056)
 54:   1369.82   0.010910   55.13  0.002485  ( 0.045349 -0.000071  0.020707)
 55:   1394.52   0.011566   58.45  0.002588  (-0.000889 -0.050867  0.000098)
 56:   1394.85   0.111045  561.17  0.024844  (-0.156858  0.000269  0.015461)
 57:   1464.80   0.019895  100.54  0.004239  (-0.060498  0.000097 -0.024054)
 58:   1466.98   0.002124   10.73  0.000452  (-0.000250 -0.021254 -0.000093)
 59:   1502.22   0.005628   28.44  0.001169  (-0.000043  0.034191  0.000016)
 60:   1508.55   0.075410  381.09  0.015600  ( 0.124898  0.000039 -0.000011)
 61:   1524.20   0.000005    0.02  0.000001  ( 0.000044  0.000998 -0.000010)
 62:   1567.89   0.002177   11.00  0.000433  ( 0.020654 -0.000416  0.002552)
 63:   1567.93   0.000110    0.56  0.000022  ( 0.002106  0.004177  0.000276)
 64:   1589.93   0.463122  2340.43  0.090899  (-0.301403  0.000006  0.007446)
 65:   1638.64   0.010785   54.50  0.002054  ( 0.000027  0.045320 -0.000015)
 66:   3158.03   0.000008    0.04  0.000001  ( 0.000011  0.000913 -0.000001)
 67:   3181.17   0.000362    1.83  0.000035  ( 0.005934 -0.000022 -0.000508)
 68:   3181.30   0.000005    0.03  0.000001  (-0.000146 -0.000709  0.000009)
 69:   3188.20   0.000348    1.76  0.000034  (-0.005425  0.000032 -0.002159)
 70:   3189.09   0.000375    1.90  0.000037  (-0.000003 -0.006058 -0.000008)
 71:   3192.96   0.000272    1.38  0.000027  (-0.005157 -0.000035 -0.000032)
 72:   3194.28   0.002211   11.17  0.000216  ( 0.000065  0.014697 -0.000012)
 73:   3200.75   0.001984   10.03  0.000193  ( 0.006358  0.000071  0.012369)
 74:   3201.72   0.001435    7.25  0.000140  (-0.000116  0.011827 -0.000041)
 75:   3204.92   0.026175  132.28  0.002549  ( 0.050465  0.000013 -0.001391)
 76:   3206.38   0.000881    4.45  0.000086  (-0.000007 -0.009258  0.000022)
 77:   3260.27   0.000213    1.08  0.000020  ( 0.004496  0.000001 -0.000442)

--------------------------
THERMOCHEMISTRY AT 298.15K
--------------------------

Temperature         ...   298.15 K
Pressure            ...     1.00 atm
Total Mass          ...   180.25 AMU
Quasi RRHO          ...     True
Cut-Off Frequency   ...     1.00 cm^-1

Throughout the following assumptions are being made:
  (1) The electronic state is orbitally nondegenerate
      but the spin degeneracy is treated
  (2) There are no thermally accessible electronically excited states
  (3) Hindered rotations indicated by low frequency modes are not
      treated as such but are treated as vibrations and this may
      cause some error
  (4) All equations used are the standard statistical mechanics
      equations for an ideal gas
  (5) All vibrations are strictly harmonic

freq.      43.49  E(vib)   ...       0.53
freq.      60.75  E(vib)   ...       0.51
freq.      80.26  E(vib)   ...       0.49
freq.     116.70  E(vib)   ...       0.44
freq.     205.89  E(vib)   ...       0.35
freq.     242.70  E(vib)   ...       0.31
freq.     298.28  E(vib)   ...       0.27
freq.     330.20  E(vib)   ...       0.24
freq.     390.90  E(vib)   ...       0.20
freq.     403.02  E(vib)   ...       0.19
freq.     416.24  E(vib)   ...       0.18
freq.     420.38  E(vib)   ...       0.18
freq.     488.29  E(vib)   ...       0.15
freq.     554.03  E(vib)   ...       0.12
freq.     579.06  E(vib)   ...       0.11
freq.     601.41  E(vib)   ...       0.10
freq.     604.43  E(vib)   ...       0.10
freq.     612.44  E(vib)   ...       0.10
freq.     677.25  E(vib)   ...       0.08
freq.     682.20  E(vib)   ...       0.08
freq.     727.72  E(vib)   ...       0.06
freq.     789.24  E(vib)   ...       0.05
freq.     796.42  E(vib)   ...       0.05
freq.     839.87  E(vib)   ...       0.04
freq.     840.54  E(vib)   ...       0.04
freq.     841.85  E(vib)   ...       0.04
freq.     947.15  E(vib)   ...       0.03
freq.     962.32  E(vib)   ...       0.03
freq.     965.39  E(vib)   ...       0.03
freq.    1000.49  E(vib)   ...       0.02
freq.    1003.07  E(vib)   ...       0.02
freq.    1005.26  E(vib)   ...       0.02
freq.    1008.38  E(vib)   ...       0.02
freq.    1023.35  E(vib)   ...       0.02
freq.    1024.31  E(vib)   ...       0.02
freq.    1031.00  E(vib)   ...       0.02
freq.    1034.22  E(vib)   ...       0.02
freq.    1062.99  E(vib)   ...       0.02
freq.    1107.23  E(vib)   ...       0.02
freq.    1111.60  E(vib)   ...       0.01
freq.    1162.01  E(vib)   ...       0.01
freq.    1164.10  E(vib)   ...       0.01
freq.    1166.99  E(vib)   ...       0.01
freq.    1186.21  E(vib)   ...       0.01
freq.    1198.71  E(vib)   ...       0.01
freq.    1317.80  E(vib)   ...       0.01
freq.    1321.47  E(vib)   ...       0.01
freq.    1365.71  E(vib)   ...       0.01
freq.    1369.82  E(vib)   ...       0.01
freq.    1394.52  E(vib)   ...       0.00
freq.    1394.85  E(vib)   ...       0.00
freq.    1464.80  E(vib)   ...       0.00
freq.    1466.98  E(vib)   ...       0.00
freq.    1502.22  E(vib)   ...       0.00
freq.    1508.55  E(vib)   ...       0.00
freq.    1524.20  E(vib)   ...       0.00
freq.    1567.89  E(vib)   ...       0.00
freq.    1567.93  E(vib)   ...       0.00
freq.    1589.93  E(vib)   ...       0.00
freq.    1638.64  E(vib)   ...       0.00
freq.    3158.03  E(vib)   ...       0.00
freq.    3181.17  E(vib)   ...       0.00
freq.    3181.30  E(vib)   ...       0.00
freq.    3188.20  E(vib)   ...       0.00
freq.    3189.09  E(vib)   ...       0.00
freq.    3192.96  E(vib)   ...       0.00
freq.    3194.28  E(vib)   ...       0.00
freq.    3200.75  E(vib)   ...       0.00
freq.    3201.72  E(vib)   ...       0.00
freq.    3204.92  E(vib)   ...       0.00
freq.    3206.38  E(vib)   ...       0.00
freq.    3260.27  E(vib)   ...       0.00

------------
INNER ENERGY
------------

The inner energy is: U= E(el) + E(ZPE) + E(vib) + E(rot) + E(trans)
    E(el)   - is the total energy from the electronic structure calculation
              = E(kin-el) + E(nuc-el) + E(el-el) + E(nuc-nuc)
    E(ZPE)  - the the zero temperature vibrational energy from the frequency calculation
    E(vib)  - the the finite temperature correction to E(ZPE) due to population
              of excited vibrational states
    E(rot)  - is the rotational thermal energy
    E(trans)- is the translational thermal energy

Summary of contributions to the inner energy U:
Electronic energy                ...   -540.76879927 Eh
Zero point energy                ...      0.21224029 Eh     133.18 kcal/mol
Thermal vibrational correction   ...      0.00863830 Eh       5.42 kcal/mol
Thermal rotational correction    ...      0.00141627 Eh       0.89 kcal/mol
Thermal translational correction ...      0.00141627 Eh       0.89 kcal/mol
-----------------------------------------------------------------------
Total thermal energy                   -540.54508813 Eh

Summary of corrections to the electronic energy:
(perhaps to be used in another calculation)
Total thermal correction                  0.01147085 Eh       7.20 kcal/mol
Non-thermal (ZPE) correction              0.21224029 Eh     133.18 kcal/mol
-----------------------------------------------------------------------
Total correction                          0.22371114 Eh     140.38 kcal/mol

--------
ENTHALPY
--------

The enthalpy is H = U + kB*T
                kB is Boltzmann's constant
Total thermal energy              ...   -540.54508813 Eh
Thermal Enthalpy correction       ...      0.00094421 Eh       0.59 kcal/mol
-----------------------------------------------------------------------
Total Enthalpy                    ...   -540.54414392 Eh

Note: Only C1 symmetry has been detected, increase convergence thresholds
      if your molecule has a higher symmetry. Symmetry factor of 1.0 is
      used for the rotational entropy correction.

Note: Rotational entropy computed according to Herzberg
Infrared and Raman Spectra, Chapter V,1, Van Nostrand Reinhold, 1945
Point Group:  C1, Symmetry Number:   1
Rotational constants in cm-1:     0.054290     0.014353     0.012117

Vibrational entropy computed according to the QRRHO of S. Grimme
Chem.Eur.J. 2012 18 9955 using a reference frequency of 100.0 cm-1

-------
ENTROPY
-------

The entropy contributions are T*S = T*(S(el)+S(vib)+S(rot)+S(trans))
     S(el)   - electronic entropy
     S(vib)  - vibrational entropy
     S(rot)  - rotational entropy
     S(trans)- translational entropy
The entropies will be listed as multiplied by the temperature to get
units of energy

                             ****ORCA TERMINATED NORMALLY****
TOTAL RUN TIME: 0 days 3 hours 11 minutes 20 seconds 801 msec
