                         Program Version 6.0.0  -   RELEASE  -
|  1> !PBE0 freq aug-cc-pVTZ d3 TightSCF SlowConv RIJCOSX defgrid2
|  2>
|  3> %pal
|  4> nprocs 12
|  5> end
|  6>
|  7> %scf
|  8> MaxIter 1500
|  9> end
| 10>
| 11> %maxcore 5000
| 12>
| 13> !CPCM
| 14> %cpcm smd true
| 15> SMDsolvent "MeCN"
| 16> surfacetype gepol_ses
| 17> rsolv 2.19
| 18> end
| 19>
| 20> * xyz -1 2
| 21> C           0.68350271655023     -1.22579547893447     -0.00266641684180
| 22> C          -0.68654109020027     -1.22175767331534     -0.00128142031297
| 23> C          -1.38562028425127      0.00452630362813     -0.00008263128190
| 24> C          -0.65903120503342      1.21236529167464     -0.00139762198890
| 25> C           0.71388464151786      1.18598435874792     -0.00274433035119
| 26> C           1.42730179581782     -0.02830340345720     -0.00317480367961
| 27> C           2.88619647738599     -0.08309767531389     -0.00401417787305
| 28> O           3.49044461029193     -1.15484721675114     -0.00507586137141
| 29> C           3.65543692828942      1.21112256599533     -0.00162655136998
| 30> H           3.41427077529183      1.81066203596070      0.87969403037833
| 31> H           4.72194638663458      0.99370523997093     -0.00418273210657
| 32> H           3.41121491159107      1.81598324902304     -0.87834152694345
| 33> H           1.24967543078694      2.12707858925357     -0.00377939284236
| 34> H          -1.20005405122950      2.14753362353569     -0.00102571294936
| 35> N          -2.76870961630440      0.02048682924753      0.00263264680527
| 36> O          -3.37418710991219      1.13057052490876      0.00401679635144
| 37> O          -3.40022639656780     -1.07499736817072      0.00515150440546
| 38> H          -1.25081981035991     -2.14334547482023     -0.00086377631877
| 39> H           1.22228038970112     -2.16532412118326     -0.00332352170917
| 40> *
| 41>
| 42>                          ****END OF INPUT****

CARTESIAN COORDINATES (ANGSTROEM)
---------------------------------
  C      0.683503   -1.225795   -0.002666
  C     -0.686541   -1.221758   -0.001281
  C     -1.385620    0.004526   -0.000083
  C     -0.659031    1.212365   -0.001398
  C      0.713885    1.185984   -0.002744
  C      1.427302   -0.028303   -0.003175
  C      2.886196   -0.083098   -0.004014
  O      3.490445   -1.154847   -0.005076
  C      3.655437    1.211123   -0.001627
  H      3.414271    1.810662    0.879694
  H      4.721946    0.993705   -0.004183
  H      3.411215    1.815983   -0.878342
  H      1.249675    2.127079   -0.003779
  H     -1.200054    2.147534   -0.001026
  N     -2.768710    0.020487    0.002633
  O     -3.374187    1.130571    0.004017
  O     -3.400226   -1.074997    0.005152
  H     -1.250820   -2.143345   -0.000864
  H      1.222280   -2.165324   -0.003324

 Total Charge           Charge          ....   -1
 Multiplicity           Mult            ....    2
 Number of Electrons    NEL             ....   87
 Basis Dimension        Dim             ....  713

ORBITAL ENERGIES
----------------
                 SPIN UP ORBITALS
  NO   OCC          E(Eh)            E(eV)
   0   1.0000     -19.175609      -521.7948
   1   1.0000     -19.174310      -521.7595
   2   1.0000     -19.174243      -521.7577
   3   1.0000     -14.539954      -395.6523
   4   1.0000     -10.293232      -280.0931
   5   1.0000     -10.254276      -279.0330
   6   1.0000     -10.224862      -278.2326
   7   1.0000     -10.221576      -278.1432
   8   1.0000     -10.220049      -278.1017
   9   1.0000     -10.219911      -278.0979
  10   1.0000     -10.219846      -278.0962
  11   1.0000     -10.205749      -277.7126
  12   1.0000      -1.178187       -32.0601
  13   1.0000      -1.048787       -28.5389
  14   1.0000      -1.001631       -27.2558
  15   1.0000      -0.887998       -24.1637
  16   1.0000      -0.816316       -22.2131
  17   1.0000      -0.771110       -20.9830
  18   1.0000      -0.753690       -20.5089
  19   1.0000      -0.704145       -19.1608
  20   1.0000      -0.617254       -16.7963
  21   1.0000      -0.602377       -16.3915
  22   1.0000      -0.559813       -15.2333
  23   1.0000      -0.527745       -14.3607
  24   1.0000      -0.503423       -13.6988
  25   1.0000      -0.492439       -13.4000
  26   1.0000      -0.481557       -13.1038
  27   1.0000      -0.454684       -12.3726
  28   1.0000      -0.448363       -12.2006
  29   1.0000      -0.445599       -12.1254
  30   1.0000      -0.428963       -11.6727
  31   1.0000      -0.414968       -11.2919
  32   1.0000      -0.405133       -11.0242
  33   1.0000      -0.383251       -10.4288
  34   1.0000      -0.375783       -10.2256
  35   1.0000      -0.357135        -9.7181
  36   1.0000      -0.339295        -9.2327
  37   1.0000      -0.293426        -7.9845
  38   1.0000      -0.283633        -7.7181
  39   1.0000      -0.272141        -7.4053
  40   1.0000      -0.269562        -7.3352
  41   1.0000      -0.254862        -6.9351
  42   1.0000      -0.252912        -6.8821
  43   1.0000      -0.144549        -3.9334
  44   0.0000      -0.031964        -0.8698
  45   0.0000      -0.001354        -0.0369
  46   0.0000       0.002657         0.0723
  47   0.0000       0.015397         0.4190
  48   0.0000       0.019446         0.5291

                 SPIN DOWN ORBITALS
  NO   OCC          E(Eh)            E(eV)
   0   1.0000     -19.173115      -521.7270
   1   1.0000     -19.169307      -521.6234
   2   1.0000     -19.169303      -521.6232
   3   1.0000     -14.534178      -395.4951
   4   1.0000     -10.292930      -280.0849
   5   1.0000     -10.253756      -279.0189
   6   1.0000     -10.225552      -278.2514
   7   1.0000     -10.222133      -278.1584
   8   1.0000     -10.218592      -278.0620
   9   1.0000     -10.218235      -278.0523
  10   1.0000     -10.217348      -278.0282
  11   1.0000     -10.205791      -277.7137
  12   1.0000      -1.167580       -31.7715
  13   1.0000      -1.044362       -28.4185
  14   1.0000      -0.991840       -26.9893
  15   1.0000      -0.884602       -24.0712
  16   1.0000      -0.809185       -22.0190
  17   1.0000      -0.768504       -20.9121
  18   1.0000      -0.750170       -20.4132
  19   1.0000      -0.696496       -18.9526
  20   1.0000      -0.616513       -16.7762
  21   1.0000      -0.597504       -16.2589
  22   1.0000      -0.557800       -15.1785
  23   1.0000      -0.521526       -14.1914
  24   1.0000      -0.488411       -13.2903
  25   1.0000      -0.479121       -13.0376
  26   1.0000      -0.472194       -12.8491
  27   1.0000      -0.450847       -12.2682
  28   1.0000      -0.447111       -12.1665
  29   1.0000      -0.439982       -11.9725
  30   1.0000      -0.428336       -11.6556
  31   1.0000      -0.413405       -11.2493
  32   1.0000      -0.404251       -11.0002
  33   1.0000      -0.375851       -10.2274
  34   1.0000      -0.374571       -10.1926
  35   1.0000      -0.346607        -9.4317
  36   1.0000      -0.338661        -9.2154
  37   1.0000      -0.279040        -7.5931
  38   1.0000      -0.267227        -7.2716
  39   1.0000      -0.253174        -6.8892
  40   1.0000      -0.252120        -6.8605
  41   1.0000      -0.251328        -6.8390
  42   1.0000      -0.248520        -6.7626
  43   0.0000      -0.067014        -1.8235
  44   0.0000      -0.002424        -0.0660
  45   0.0000       0.001465         0.0399
  46   0.0000       0.003943         0.1073
  47   0.0000       0.016593         0.4515

MULLIKEN ATOMIC CHARGES AND SPIN POPULATIONS
--------------------------------------------
   0 C :   -0.938870   -0.027582
   1 C :   -0.531734    0.103340
   2 C :    0.361576    0.026271
   3 C :   -0.793302    0.116956
   4 C :   -0.519072   -0.025953
   5 C :    1.102921    0.166140
   6 C :    0.640082    0.015353
   7 O :   -0.970817    0.091550
   8 C :   -0.672146   -0.004022
   9 H :    0.292767    0.002509
  10 H :    0.195370   -0.001151
  11 H :    0.292791    0.002513
  12 H :    0.217973   -0.000060
  13 H :    0.564418   -0.004235
  14 N :    0.604524    0.156375
  15 O :   -0.847956    0.192928
  16 O :   -0.844727    0.195162
  17 H :    0.638319   -0.005645
  18 H :    0.207884   -0.000450
Sum of atomic charges         :   -1.0000000

LOEWDIN ATOMIC CHARGES AND SPIN POPULATIONS
-------------------------------------------
   0 C :    0.173122    0.019797
   1 C :    0.180672    0.050011
   2 C :   -0.316009    0.062468
   3 C :    0.185491    0.055643
   4 C :    0.183458    0.022422
   5 C :   -0.161810    0.084123
   6 C :   -0.591890    0.053639
   7 O :    0.446927    0.076066
   8 C :    0.553688    0.006619
   9 H :   -0.166539    0.001545
  10 H :   -0.185759   -0.000074
  11 H :   -0.166950    0.001538
  12 H :   -0.188967   -0.001730
  13 H :   -0.213679    0.012669
  14 N :   -0.838701    0.194485
  15 O :    0.257914    0.174735
  16 O :    0.258142    0.176678
  17 H :   -0.214295    0.011288
  18 H :   -0.194815   -0.001923

  Mayer bond orders larger than 0.100000
B(  0-C ,  1-C ) :   1.5909 B(  0-C ,  2-C ) :  -0.3614 B(  0-C ,  4-C ) :  -0.4235
B(  0-C ,  5-C ) :   0.3490 B(  0-C ,  6-C ) :   0.2066 B(  0-C , 16-O ) :  -0.1409
B(  0-C , 18-H ) :   1.0145 B(  1-C ,  2-C ) :   0.9539 B(  1-C ,  3-C ) :   0.2110
B(  1-C ,  4-C ) :  -0.1612 B(  1-C ,  5-C ) :   0.1911 B(  1-C , 14-N ) :  -0.1491
B(  1-C , 17-H ) :   0.1994 B(  2-C ,  3-C ) :   0.8522 B(  2-C ,  4-C ) :  -0.2790
B(  2-C , 14-N ) :   1.3880 B(  2-C , 15-O ) :   0.4289 B(  2-C , 16-O ) :   0.4362
B(  3-C ,  4-C ) :   1.2470 B(  3-C ,  5-C ) :   0.2378 B(  3-C , 13-H ) :   0.3036
B(  3-C , 14-N ) :  -0.2231 B(  4-C ,  5-C ) :   0.4779 B(  4-C ,  6-C ) :   0.1212
B(  4-C , 12-H ) :   1.0988 B(  4-C , 15-O ) :  -0.1336 B(  5-C ,  6-C ) :   0.4434
B(  5-C ,  7-O ) :   0.2236 B(  6-C ,  7-O ) :   0.7837 B(  6-C ,  8-C ) :   0.9621
B(  7-O , 18-H ) :   0.1741 B(  8-C ,  9-H ) :   0.9164 B(  8-C , 10-H ) :   0.9540
B(  8-C , 11-H ) :   0.9168 B( 12-H , 18-H ) :   0.1034 B( 14-N , 15-O ) :   0.7411
B( 14-N , 16-O ) :   0.7592 B( 15-O , 16-O ) :   0.1012

Dispersion correction           -0.018396235
FINAL SINGLE POINT ENERGY      -589.111995334290

DIPOLE MOMENT
-------------

Method             : SCF
Type of density    : Electron Density
Multiplicity       :   2
Irrep              :   0
Energy             :  -589.0935990995546945 Eh
Relativity type    :
Basis              : AO
                                X                 Y                 Z
Electronic contribution:     -7.360790739      -2.944956606       0.001642532
Nuclear contribution   :     10.788127835       4.286815988      -0.006464632
                        -----------------------------------------
Total Dipole Moment    :      3.427337096       1.341859382      -0.004822100
                        -----------------------------------------
Magnitude (a.u.)       :      3.680658830
Magnitude (Debye)      :      9.355491253

VIBRATIONAL FREQUENCIES
-----------------------

Scaling factor for frequencies =  1.000000000  (already applied!)

     0:       0.00 cm**-1
     1:       0.00 cm**-1
     2:       0.00 cm**-1
     3:       0.00 cm**-1
     4:       0.00 cm**-1
     5:       0.00 cm**-1
     6:      64.42 cm**-1
     7:      74.63 cm**-1
     8:     108.76 cm**-1
     9:     126.25 cm**-1
    10:     155.83 cm**-1
    11:     228.04 cm**-1
    12:     249.08 cm**-1
    13:     295.85 cm**-1
    14:     408.72 cm**-1
    15:     438.98 cm**-1
    16:     445.13 cm**-1
    17:     521.67 cm**-1
    18:     542.48 cm**-1
    19:     586.05 cm**-1
    20:     622.19 cm**-1
    21:     623.62 cm**-1
    22:     625.93 cm**-1
    23:     729.94 cm**-1
    24:     744.16 cm**-1
    25:     822.49 cm**-1
    26:     828.01 cm**-1
    27:     840.85 cm**-1
    28:     955.28 cm**-1
    29:     985.75 cm**-1
    30:     994.14 cm**-1
    31:    1005.33 cm**-1
    32:    1029.96 cm**-1
    33:    1073.13 cm**-1
    34:    1103.64 cm**-1
    35:    1106.29 cm**-1
    36:    1178.50 cm**-1
    37:    1288.26 cm**-1
    38:    1297.39 cm**-1
    39:    1354.25 cm**-1
    40:    1370.47 cm**-1
    41:    1408.85 cm**-1
    42:    1418.39 cm**-1
    43:    1437.58 cm**-1
    44:    1445.74 cm**-1
    45:    1475.04 cm**-1
    46:    1505.56 cm**-1
    47:    1569.20 cm**-1
    48:    1635.70 cm**-1
    49:    1678.97 cm**-1
    50:    3048.23 cm**-1
    51:    3114.08 cm**-1
    52:    3154.91 cm**-1
    53:    3197.02 cm**-1
    54:    3197.97 cm**-1
    55:    3230.03 cm**-1
    56:    3232.78 cm**-1

IR SPECTRUM
-----------

 Mode   freq       eps      Int      T**2         TX        TY        TZ
       cm**-1   L/(mol*cm) km/mol    a.u.
----------------------------------------------------------------------------
  6:     64.42   0.000617    3.12  0.002988  (-0.000223 -0.000380 -0.054658)
  7:     74.63   0.002153   10.88  0.009001  ( 0.000884 -0.000457 -0.094867)
  8:    108.76   0.000205    1.04  0.000589  (-0.000937 -0.001022  0.024221)
  9:    126.25   0.000064    0.32  0.000158  ( 0.000944  0.000587  0.012510)
 10:    155.83   0.002395   12.10  0.004795  (-0.051074 -0.046764  0.000199)
 11:    228.04   0.000524    2.65  0.000717  (-0.000478  0.000080  0.026779)
 12:    249.08   0.001455    7.35  0.001823  ( 0.036937 -0.021409  0.000124)
 13:    295.85   0.002141   10.82  0.002259  (-0.046349  0.010504  0.000055)
 14:    408.72   0.000574    2.90  0.000438  (-0.000526 -0.000286  0.020931)
 15:    438.98   0.001446    7.31  0.001028  (-0.018088 -0.026468  0.000169)
 16:    445.13   0.000032    0.16  0.000023  ( 0.000216  0.000147  0.004756)
 17:    521.67   0.010505   53.09  0.006284  ( 0.078961 -0.006994 -0.000156)
 18:    542.48   0.004203   21.24  0.002418  ( 0.042177  0.025282 -0.000053)
 19:    586.05   0.000229    1.16  0.000122  (-0.000677 -0.000141 -0.011030)
 20:    622.19   0.003544   17.91  0.001778  ( 0.041165  0.009069 -0.000977)
 21:    623.62   0.003617   18.28  0.001810  (-0.040198 -0.013930  0.000469)
 22:    625.93   0.012548   63.41  0.006256  (-0.000106  0.000217  0.079096)
 23:    729.94   0.011897   60.12  0.005086  (-0.070966  0.007071 -0.000020)
 24:    744.16   0.000102    0.51  0.000043  ( 0.000056  0.000030 -0.006536)
 25:    822.49   0.003528   17.83  0.001338  (-0.001500 -0.000023  0.036554)
 26:    828.01   0.031693  160.16  0.011944  (-0.109238  0.003372 -0.000115)
 27:    840.85   0.018280   92.38  0.006784  ( 0.000216 -0.000144  0.082366)
 28:    955.28   0.085051  429.81  0.027784  ( 0.165858  0.016577 -0.000063)
 29:    985.75   0.000094    0.47  0.000030  (-0.002728  0.000040 -0.004713)
 30:    994.14   0.004504   22.76  0.001414  (-0.037600 -0.000383  0.000179)
 31:   1005.33   0.000071    0.36  0.000022  (-0.000119 -0.000449 -0.004687)
 32:   1029.96   0.000796    4.02  0.000241  (-0.000534 -0.000224 -0.015519)
 33:   1073.13   0.183187  925.75  0.053270  (-0.230266  0.015745  0.000226)
 34:   1103.64   0.103244  521.75  0.029193  (-0.169955 -0.017560  0.000190)
 35:   1106.29   0.025395  128.34  0.007164  ( 0.071900 -0.044653  0.000023)
 36:   1178.50   0.017462   88.25  0.004624  ( 0.067977 -0.001728 -0.000143)
 37:   1288.26   0.011045   55.82  0.002676  (-0.047213  0.021132 -0.000030)
 38:   1297.39   0.329721  1666.28  0.079309  ( 0.281435  0.010142 -0.000274)
 39:   1354.25   0.042342  213.98  0.009757  (-0.017434  0.097227 -0.000041)
 40:   1370.47   0.105024  530.75  0.023915  (-0.154347  0.009566  0.000214)
 41:   1408.85   0.132619  670.20  0.029375  ( 0.136065  0.104219 -0.000240)
 42:   1418.39   0.119127  602.02  0.026209  ( 0.142919 -0.076048 -0.000215)
 43:   1437.58   0.005520   27.90  0.001198  (-0.015775  0.030811 -0.000331)
 44:   1445.74   0.003036   15.34  0.000655  (-0.000111  0.000869  0.025585)
 45:   1475.04   0.005260   26.58  0.001113  ( 0.012874  0.030775 -0.000112)
 46:   1505.56   0.134343  678.92  0.027846  (-0.166414  0.012340  0.000181)
 47:   1569.20   0.009822   49.63  0.001953  (-0.039448  0.019926 -0.000011)
 48:   1635.70   0.193895  979.86  0.036992  ( 0.185312 -0.051489 -0.000332)
 49:   1678.97   0.105731  534.32  0.019652  ( 0.111406 -0.085091 -0.000121)
 50:   3048.23   0.001770    8.95  0.000181  ( 0.011320  0.007286  0.000040)
 51:   3114.08   0.001915    9.68  0.000192  (-0.000141 -0.000216  0.013851)
 52:   3154.91   0.005945   30.05  0.000588  (-0.024063  0.003009 -0.000070)
 53:   3197.02   0.001200    6.06  0.000117  ( 0.003215  0.010333  0.000074)
 54:   3197.97   0.001347    6.81  0.000131  ( 0.003265  0.010992 -0.000048)
 55:   3230.03   0.000956    4.83  0.000092  (-0.003928  0.008770  0.000050)
 56:   3232.78   0.000843    4.26  0.000081  ( 0.007127  0.005530 -0.000053)

--------------------------
THERMOCHEMISTRY AT 298.15K
--------------------------

Temperature         ...   298.15 K
Pressure            ...     1.00 atm
Total Mass          ...   165.15 AMU
Quasi RRHO          ...     True
Cut-Off Frequency   ...     1.00 cm^-1

Throughout the following assumptions are being made:
  (1) The electronic state is orbitally nondegenerate
      but the spin degeneracy is treated
  (2) There are no thermally accessible electronically excited states
  (3) Hindered rotations indicated by low frequency modes are not
      treated as such but are treated as vibrations and this may
      cause some error
  (4) All equations used are the standard statistical mechanics
      equations for an ideal gas
  (5) All vibrations are strictly harmonic

freq.      64.42  E(vib)   ...       0.51
freq.      74.63  E(vib)   ...       0.49
freq.     108.76  E(vib)   ...       0.45
freq.     126.25  E(vib)   ...       0.43
freq.     155.83  E(vib)   ...       0.40
freq.     228.04  E(vib)   ...       0.33
freq.     249.08  E(vib)   ...       0.31
freq.     295.85  E(vib)   ...       0.27
freq.     408.72  E(vib)   ...       0.19
freq.     438.98  E(vib)   ...       0.17
freq.     445.13  E(vib)   ...       0.17
freq.     521.67  E(vib)   ...       0.13
freq.     542.48  E(vib)   ...       0.12
freq.     586.05  E(vib)   ...       0.11
freq.     622.19  E(vib)   ...       0.09
freq.     623.62  E(vib)   ...       0.09
freq.     625.93  E(vib)   ...       0.09
freq.     729.94  E(vib)   ...       0.06
freq.     744.16  E(vib)   ...       0.06
freq.     822.49  E(vib)   ...       0.05
freq.     828.01  E(vib)   ...       0.04
freq.     840.85  E(vib)   ...       0.04
freq.     955.28  E(vib)   ...       0.03
freq.     985.75  E(vib)   ...       0.02
freq.     994.14  E(vib)   ...       0.02
freq.    1005.33  E(vib)   ...       0.02
freq.    1029.96  E(vib)   ...       0.02
freq.    1073.13  E(vib)   ...       0.02
freq.    1103.64  E(vib)   ...       0.02
freq.    1106.29  E(vib)   ...       0.02
freq.    1178.50  E(vib)   ...       0.01
freq.    1288.26  E(vib)   ...       0.01
freq.    1297.39  E(vib)   ...       0.01
freq.    1354.25  E(vib)   ...       0.01
freq.    1370.47  E(vib)   ...       0.01
freq.    1408.85  E(vib)   ...       0.00
freq.    1418.39  E(vib)   ...       0.00
freq.    1437.58  E(vib)   ...       0.00
freq.    1445.74  E(vib)   ...       0.00
freq.    1475.04  E(vib)   ...       0.00
freq.    1505.56  E(vib)   ...       0.00
freq.    1569.20  E(vib)   ...       0.00
freq.    1635.70  E(vib)   ...       0.00
freq.    1678.97  E(vib)   ...       0.00
freq.    3048.23  E(vib)   ...       0.00
freq.    3114.08  E(vib)   ...       0.00
freq.    3154.91  E(vib)   ...       0.00
freq.    3197.02  E(vib)   ...       0.00
freq.    3197.97  E(vib)   ...       0.00
freq.    3230.03  E(vib)   ...       0.00
freq.    3232.78  E(vib)   ...       0.00

------------
INNER ENERGY
------------

The inner energy is: U= E(el) + E(ZPE) + E(vib) + E(rot) + E(trans)
    E(el)   - is the total energy from the electronic structure calculation
              = E(kin-el) + E(nuc-el) + E(el-el) + E(nuc-nuc)
    E(ZPE)  - the the zero temperature vibrational energy from the frequency calculation
    E(vib)  - the the finite temperature correction to E(ZPE) due to population
              of excited vibrational states
    E(rot)  - is the rotational thermal energy
    E(trans)- is the translational thermal energy

Summary of contributions to the inner energy U:
Electronic energy                ...   -589.11199533 Eh
Zero point energy                ...      0.13800121 Eh      86.60 kcal/mol
Thermal vibrational correction   ...      0.00769055 Eh       4.83 kcal/mol
Thermal rotational correction    ...      0.00141627 Eh       0.89 kcal/mol
Thermal translational correction ...      0.00141627 Eh       0.89 kcal/mol
-----------------------------------------------------------------------
Total thermal energy                   -588.96347104 Eh

Summary of corrections to the electronic energy:
(perhaps to be used in another calculation)
Total thermal correction                  0.01052309 Eh       6.60 kcal/mol
Non-thermal (ZPE) correction              0.13800121 Eh      86.60 kcal/mol
-----------------------------------------------------------------------
Total correction                          0.14852430 Eh      93.20 kcal/mol

--------
ENTHALPY
--------

The enthalpy is H = U + kB*T
                kB is Boltzmann's constant
Total thermal energy              ...   -588.96347104 Eh
Thermal Enthalpy correction       ...      0.00094421 Eh       0.59 kcal/mol
-----------------------------------------------------------------------
Total Enthalpy                    ...   -588.96252683 Eh

Note: Only C1 symmetry has been detected, increase convergence thresholds
      if your molecule has a higher symmetry. Symmetry factor of 1.0 is
      used for the rotational entropy correction.

Note: Rotational entropy computed according to Herzberg
Infrared and Raman Spectra, Chapter V,1, Van Nostrand Reinhold, 1945
Point Group:  C1, Symmetry Number:   1
Rotational constants in cm-1:     0.095638     0.015998     0.013740

Vibrational entropy computed according to the QRRHO of S. Grimme
Chem.Eur.J. 2012 18 9955 using a reference frequency of 100.0 cm-1

-------
ENTROPY
-------

The entropy contributions are T*S = T*(S(el)+S(vib)+S(rot)+S(trans))
     S(el)   - electronic entropy
     S(vib)  - vibrational entropy
     S(rot)  - rotational entropy
     S(trans)- translational entropy
The entropies will be listed as multiplied by the temperature to get
units of energy

Electronic entropy                ...      0.00065446 Eh      0.41 kcal/mol
Vibrational entropy               ...      0.01325010 Eh      8.31 kcal/mol
Rotational entropy                ...      0.01459517 Eh      9.16 kcal/mol
Translational entropy             ...      0.01958175 Eh     12.29 kcal/mol
-----------------------------------------------------------------------
Final entropy term                ...      0.04808148 Eh     30.17 kcal/mol

In case the symmetry of your molecule has not been determined correctly
or in case you have a reason to use a different symmetry number we print
out the resulting rotational entropy values for sn=1,12:

 non-linear molecules -----------------------------------
|  sn= 1 | S(rot)=       0.01459517 Eh      9.16 kcal/mol|
|  sn= 2 | S(rot)=       0.01394072 Eh      8.75 kcal/mol|
|  sn= 3 | S(rot)=       0.01355789 Eh      8.51 kcal/mol|
|  sn= 4 | S(rot)=       0.01328626 Eh      8.34 kcal/mol|
|  sn= 5 | S(rot)=       0.01307557 Eh      8.21 kcal/mol|
|  sn= 6 | S(rot)=       0.01290343 Eh      8.10 kcal/mol|
|  sn= 7 | S(rot)=       0.01275788 Eh      8.01 kcal/mol|
|  sn= 8 | S(rot)=       0.01263181 Eh      7.93 kcal/mol|

                             ****ORCA TERMINATED NORMALLY****
TOTAL RUN TIME: 0 days 1 hours 0 minutes 37 seconds 48 msec
