                         Program Version 6.0.0  -   RELEASE  -
|  1> !TPSSh aug-cc-pVTZ d3 TightSCF SlowConv RIJCOSX defgrid2
|  2>
|  3> %pal
|  4> nprocs 4
|  5> end
|  6>
|  7> %scf
|  8> MaxIter 1500
|  9> end
| 10>
| 11> %maxcore 3000
| 12>
| 13> !CPCM
| 14> %cpcm smd true
| 15> SMDsolvent "MeCN"
| 16> surfacetype gepol_ses
| 17> rsolv 2.19
| 18> end
| 19>
| 20> * xyz 1 2
| 21> C          -1.18929710111744     -1.09285531809476     -0.10819644925615
| 22> C           0.00589173329489     -1.79822529332208     -0.13401141651239
| 23> C           1.19808208156691     -1.09105158000585     -0.06434654491920
| 24> C           1.21365138858984      0.35785054897918      0.03424223925553
| 25> C           2.51775471479426      1.05048436689676      0.10640427638312
| 26> H           2.41427085604479      2.14280676868630      0.17575377847974
| 27> H           3.09603271561737      0.68522468132195      0.97881748737636
| 28> H           3.13366664954396      0.79986441621953     -0.78044888567292
| 29> C          -0.00007800896972      1.04312717812580      0.05823770417539
| 30> C          -1.21092205755184      0.35593020163616     -0.01041203166499
| 31> C          -2.51780389192698      1.04678727365115      0.01197629521183
| 32> H          -3.09403194335214      0.80285450596818     -0.90319738383305
| 33> H          -2.41838300212946      2.13863620693826      0.09339400927998
| 34> H          -3.13338924600238      0.67411631081689      0.85502734287022
| 35> H          -0.00212028703487      2.13377489791986      0.13228993338047
| 36> H           2.15561414738440     -1.62182776088860     -0.08279661789994
| 37> H           0.00790773530576     -2.88854491189358     -0.20783219258290
| 38> H          -2.14457188405735     -1.62532769295516     -0.16174234407112
| 39> *
| 40>
| 41>                          ****END OF INPUT****

CARTESIAN COORDINATES (ANGSTROEM)
---------------------------------
  C     -1.189297   -1.092855   -0.108196
  C      0.005892   -1.798225   -0.134011
  C      1.198082   -1.091052   -0.064347
  C      1.213651    0.357851    0.034242
  C      2.517755    1.050484    0.106404
  H      2.414271    2.142807    0.175754
  H      3.096033    0.685225    0.978817
  H      3.133667    0.799864   -0.780449
  C     -0.000078    1.043127    0.058238
  C     -1.210922    0.355930   -0.010412
  C     -2.517804    1.046787    0.011976
  H     -3.094032    0.802855   -0.903197
  H     -2.418383    2.138636    0.093394
  H     -3.133389    0.674116    0.855027
  H     -0.002120    2.133775    0.132290
  H      2.155614   -1.621828   -0.082797
  H      0.007908   -2.888545   -0.207832
  H     -2.144572   -1.625328   -0.161742

 Total Charge           Charge          ....    1
 Multiplicity           Mult            ....    2
 Number of Electrons    NEL             ....   57
 Basis Dimension        Dim             ....  598

ORBITAL ENERGIES
----------------
                 SPIN UP ORBITALS
  NO   OCC          E(Eh)            E(eV)
   0   1.0000     -10.193976      -277.3922
   1   1.0000     -10.193932      -277.3910
   2   1.0000     -10.184501      -277.1344
   3   1.0000     -10.184457      -277.1332
   4   1.0000     -10.154208      -276.3100
   5   1.0000     -10.148500      -276.1547
   6   1.0000     -10.132004      -275.7058
   7   1.0000     -10.131986      -275.7053
   8   1.0000      -0.889328       -24.1999
   9   1.0000      -0.808942       -22.0124
  10   1.0000      -0.785924       -21.3861
  11   1.0000      -0.704703       -19.1759
  12   1.0000      -0.698015       -18.9940
  13   1.0000      -0.615867       -16.7586
  14   1.0000      -0.592195       -16.1144
  15   1.0000      -0.520964       -14.1762
  16   1.0000      -0.493690       -13.4340
  17   1.0000      -0.462716       -12.5911
  18   1.0000      -0.443055       -12.0561
  19   1.0000      -0.433836       -11.8053
  20   1.0000      -0.421422       -11.4675
  21   1.0000      -0.421004       -11.4561
  22   1.0000      -0.400390       -10.8952
  23   1.0000      -0.383401       -10.4329
  24   1.0000      -0.371053       -10.0969
  25   1.0000      -0.361447        -9.8355
  26   1.0000      -0.354666        -9.6509
  27   1.0000      -0.286018        -7.7829
  28   1.0000      -0.284890        -7.7522
  29   0.0000      -0.091327        -2.4851
  30   0.0000      -0.056481        -1.5369
  31   0.0000      -0.007336        -0.1996
  32   0.0000       0.006018         0.1637
  33   0.0000       0.008475         0.2306

                 SPIN DOWN ORBITALS
  NO   OCC          E(Eh)            E(eV)
   0   1.0000     -10.190550      -277.2990
   1   1.0000     -10.190514      -277.2980
   2   1.0000     -10.178860      -276.9809
   3   1.0000     -10.178824      -276.9799
   4   1.0000     -10.156367      -276.3688
   5   1.0000     -10.149785      -276.1897
   6   1.0000     -10.131943      -275.7042
   7   1.0000     -10.131924      -275.7037
   8   1.0000      -0.880266       -23.9533
   9   1.0000      -0.797964       -21.7137
  10   1.0000      -0.783444       -21.3186
  11   1.0000      -0.703627       -19.1467
  12   1.0000      -0.687750       -18.7146
  13   1.0000      -0.611739       -16.6463
  14   1.0000      -0.585720       -15.9382
  15   1.0000      -0.518065       -14.0973
  16   1.0000      -0.490572       -13.3491
  17   1.0000      -0.459842       -12.5129
  18   1.0000      -0.432805       -11.7772
  19   1.0000      -0.427459       -11.6318
  20   1.0000      -0.417528       -11.3615
  21   1.0000      -0.410723       -11.1763
  22   1.0000      -0.399284       -10.8651
  23   1.0000      -0.381968       -10.3939
  24   1.0000      -0.359767        -9.7898
  25   1.0000      -0.352218        -9.5844
  26   1.0000      -0.352205        -9.5840
  27   1.0000      -0.280336        -7.6283
  28   0.0000      -0.218979        -5.9587
  29   0.0000      -0.055164        -1.5011
  30   0.0000      -0.044110        -1.2003
  31   0.0000      -0.006491        -0.1766
  32   0.0000       0.006663         0.1813

MULLIKEN ATOMIC CHARGES AND SPIN POPULATIONS
--------------------------------------------
   0 C :   -0.483595    0.364114
   1 C :   -0.542705   -0.179421
   2 C :   -0.485282    0.363622
   3 C :    0.790393    0.267231
   4 C :   -0.181856   -0.032273
   5 H :    0.074471   -0.003926
   6 H :    0.158252    0.024781
   7 H :    0.159904    0.024495
   8 C :   -0.356808   -0.099107
   9 C :    0.790480    0.266493
  10 C :   -0.181604   -0.032128
  11 H :    0.159677    0.024844
  12 H :    0.074789   -0.003917
  13 H :    0.157939    0.024318
  14 H :    0.014690    0.000484
  15 H :    0.177880   -0.001418
  16 H :    0.497345   -0.006821
  17 H :    0.176030   -0.001372
Sum of atomic charges         :    1.0000000

LOEWDIN ATOMIC CHARGES AND SPIN POPULATIONS
-------------------------------------------
   0 C :    0.313855    0.199387
   1 C :    0.277167    0.045600
   2 C :    0.313805    0.199149
   3 C :   -0.049312    0.155480
   4 C :    0.623474    0.050302
   5 H :   -0.147259    0.002310
   6 H :   -0.128346    0.013979
   7 H :   -0.128524    0.013858
   8 C :    0.293113    0.027386
   9 C :   -0.049436    0.155284
  10 C :    0.623451    0.050204
  11 H :   -0.128256    0.014007
  12 H :   -0.147298    0.002307
  13 H :   -0.128628    0.013783
  14 H :   -0.143449   -0.006833
  15 H :   -0.124593    0.037203
  16 H :   -0.145195   -0.010665
  17 H :   -0.124568    0.037261

  Mayer bond orders larger than 0.100000
B(  0-C ,  1-C ) :   1.4649 B(  0-C ,  3-C ) :  -0.1260 B(  0-C ,  9-C ) :   0.7863
B(  0-C , 10-C ) :   0.1569 B(  0-C , 17-H ) :   0.9038 B(  1-C ,  2-C ) :   1.4619
B(  1-C , 16-H ) :   0.4123 B(  2-C ,  3-C ) :   0.7870 B(  2-C ,  4-C ) :   0.1581
B(  2-C ,  9-C ) :  -0.1268 B(  2-C , 15-H ) :   0.9022 B(  3-C ,  4-C ) :   0.7408
B(  3-C ,  8-C ) :   0.7194 B(  3-C ,  9-C ) :   0.2544 B(  4-C ,  5-H ) :   0.9905
B(  4-C ,  6-H ) :   0.9444 B(  4-C ,  7-H ) :   0.9425 B(  4-C ,  8-C ) :  -0.1736
B(  8-C ,  9-C ) :   0.7202 B(  8-C , 10-C ) :  -0.1730 B(  8-C , 14-H ) :   1.1944
B(  9-C , 10-C ) :   0.7402 B( 10-C , 11-H ) :   0.9429 B( 10-C , 12-H ) :   0.9911
B( 10-C , 13-H ) :   0.9443

Dispersion correction           -0.020054380
FINAL SINGLE POINT ENERGY      -310.818444897802

DIPOLE MOMENT
-------------

Method             : SCF
Type of density    : Electron Density
Multiplicity       :   2
Irrep              :   0
Energy             :  -310.7983905175335053 Eh
Relativity type    :
Basis              : AO
                                X                 Y                 Z
Electronic contribution:      0.006797972      -3.185918845      -0.217261250
Nuclear contribution   :     -0.005606480       2.888237007       0.196904737
                        -----------------------------------------
Total Dipole Moment    :      0.001191492      -0.297681838      -0.020356513
                        -----------------------------------------
Magnitude (a.u.)       :      0.298379429
Magnitude (Debye)      :      0.758420237

Rotational constants in cm-1:             0.117442             0.059099             0.039898
Rotational constants in MHz :          3520.819355          1771.755031          1196.125429

                             ****ORCA TERMINATED NORMALLY****
TOTAL RUN TIME: 0 days 0 hours 6 minutes 57 seconds 348 msec
