                         Program Version 6.0.0  -   RELEASE  -
|  1> !r2SCAN aug-cc-pVTZ d3 TightSCF SlowConv RIJCOSX defgrid2
|  2>
|  3> %pal
|  4> nprocs 15
|  5> end
|  6>
|  7> %scf
|  8> MaxIter 1500
|  9> end
| 10>
| 11> %maxcore 3500
| 12>
| 13> !CPCM
| 14> %cpcm smd true
| 15> SMDsolvent "WATER"
| 16> surfacetype gepol_ses
| 17> rsolv 1.40
| 18> end
| 19>
| 20> * xyz 0 2
| 21> O           1.86556239468452      3.66778063685740      1.41934048443660
| 22> N           2.63911006242494      2.68933162619386      1.23001507884931
| 23> C           3.73080247656957      2.90535757443730      0.24181063762861
| 24> C           4.36093762959910      1.55921653542741     -0.15336987209592
| 25> C           4.63172810194409      0.70262118274796      1.05667158740786
| 26> C           3.37344672734739      0.39530870243854      1.82691342143050
| 27> C           2.68993700964555      1.68066650325082      2.32342254966252
| 28> C           4.79147854810668      3.83582820328657      0.84153155747969
| 29> C           3.10645949127391      3.55822382808877     -0.98811835641252
| 30> C           3.44599743934561      2.26113926142754      3.52426459340538
| 31> C           1.24931104144319      1.37171748445294      2.72213530312512
| 32> H           5.29854507645140      1.73380073454675     -0.70282077300820
| 33> H           3.66072621433755      1.01505886466252     -0.81307937183032
| 34> H           3.61014563723972     -0.25605158453535      2.68210471533816
| 35> H           2.67928631607287     -0.14191365883771      1.15513451843579
| 36> H           4.29973116397687      4.72680814583179      1.26491139664203
| 37> H           5.37961996772319      3.34202382093710      1.63164483429192
| 38> H           5.49413089896826      4.16049866008557      0.05546712960242
| 39> H           2.69205521882801      4.54458266598734     -0.73348635939669
| 40> H           2.28924200187458      2.93262822416028     -1.38514477797188
| 41> H           3.87286307615791      3.67858497187703     -1.77227016899908
| 42> H           3.04871559772316      3.26304759444425      3.75501562998363
| 43> H           4.52927071669545      2.33887771005461      3.33785198450762
| 44> H           3.30430449817939      1.61369753756705      4.40621306394055
| 45> H           0.75896130686192      2.26873651212742      3.12797736173082
| 46> H           0.67080790712862      1.02777195958958      1.84800524786398
| 47> H           1.24122074344172      0.57661748497107      3.48643408439020
| 48> O           5.73186456195476      0.33572713792153      1.38978502456186
| 49> *
| 50>
| 51>                          ****END OF INPUT****

CARTESIAN COORDINATES (ANGSTROEM)
---------------------------------
  O      1.865562    3.667781    1.419340
  N      2.639110    2.689332    1.230015
  C      3.730802    2.905358    0.241811
  C      4.360938    1.559217   -0.153370
  C      4.631728    0.702621    1.056672
  C      3.373447    0.395309    1.826913
  C      2.689937    1.680667    2.323423
  C      4.791479    3.835828    0.841532
  C      3.106459    3.558224   -0.988118
  C      3.445997    2.261139    3.524265
  C      1.249311    1.371717    2.722135
  H      5.298545    1.733801   -0.702821
  H      3.660726    1.015059   -0.813079
  H      3.610146   -0.256052    2.682105
  H      2.679286   -0.141914    1.155135
  H      4.299731    4.726808    1.264911
  H      5.379620    3.342024    1.631645
  H      5.494131    4.160499    0.055467
  H      2.692055    4.544583   -0.733486
  H      2.289242    2.932628   -1.385145
  H      3.872863    3.678585   -1.772270
  H      3.048716    3.263048    3.755016
  H      4.529271    2.338878    3.337852
  H      3.304304    1.613698    4.406213
  H      0.758961    2.268737    3.127977
  H      0.670808    1.027772    1.848005
  H      1.241221    0.576617    3.486434
  O      5.731865    0.335727    1.389785

 Total Charge           Charge          ....    0
 Multiplicity           Mult            ....    2
 Number of Electrons    NEL             ....   93
 Basis Dimension        Dim             ....  920

ORBITAL ENERGIES
----------------
                 SPIN UP ORBITALS
  NO   OCC          E(Eh)            E(eV)
   0   1.0000     -18.965327      -516.0728
   1   1.0000     -18.962661      -516.0002
   2   1.0000     -14.268020      -388.2526
   3   1.0000     -10.135103      -275.7902
   4   1.0000     -10.098506      -274.7943
   5   1.0000     -10.098491      -274.7939
   6   1.0000     -10.044711      -273.3305
   7   1.0000     -10.044683      -273.3297
   8   1.0000     -10.029300      -272.9111
   9   1.0000     -10.029283      -272.9107
  10   1.0000     -10.025447      -272.8063
  11   1.0000     -10.025441      -272.8061
  12   1.0000      -1.083173       -29.4746
  13   1.0000      -1.028081       -27.9755
  14   1.0000      -0.845613       -23.0103
  15   1.0000      -0.796737       -21.6803
  16   1.0000      -0.724027       -19.7018
  17   1.0000      -0.692942       -18.8559
  18   1.0000      -0.664739       -18.0885
  19   1.0000      -0.663595       -18.0573
  20   1.0000      -0.654135       -17.7999
  21   1.0000      -0.573583       -15.6080
  22   1.0000      -0.533330       -14.5126
  23   1.0000      -0.492927       -13.4132
  24   1.0000      -0.472701       -12.8628
  25   1.0000      -0.465203       -12.6588
  26   1.0000      -0.450816       -12.2673
  27   1.0000      -0.435154       -11.8411
  28   1.0000      -0.432746       -11.7756
  29   1.0000      -0.418983       -11.4011
  30   1.0000      -0.403344       -10.9756
  31   1.0000      -0.386092       -10.5061
  32   1.0000      -0.375811       -10.2263
  33   1.0000      -0.366168        -9.9639
  34   1.0000      -0.364241        -9.9115
  35   1.0000      -0.357637        -9.7318
  36   1.0000      -0.344555        -9.3758
  37   1.0000      -0.342649        -9.3239
  38   1.0000      -0.340296        -9.2599
  39   1.0000      -0.339626        -9.2417
  40   1.0000      -0.317231        -8.6323
  41   1.0000      -0.314595        -8.5606
  42   1.0000      -0.311036        -8.4637
  43   1.0000      -0.308971        -8.4075
  44   1.0000      -0.239354        -6.5132
  45   1.0000      -0.227968        -6.2033
  46   1.0000      -0.176899        -4.8137
  47   0.0000      -0.064031        -1.7424
  48   0.0000       0.007476         0.2034
  49   0.0000       0.022202         0.6041
  50   0.0000       0.022249         0.6054
  51   0.0000       0.025033         0.6812

                 SPIN DOWN ORBITALS
  NO   OCC          E(Eh)            E(eV)
   0   1.0000     -18.962619      -515.9991
   1   1.0000     -18.950732      -515.6756
   2   1.0000     -14.253906      -387.8685
   3   1.0000     -10.135103      -275.7902
   4   1.0000     -10.098922      -274.8056
   5   1.0000     -10.098907      -274.8052
   6   1.0000     -10.044655      -273.3290
   7   1.0000     -10.044626      -273.3282
   8   1.0000     -10.028552      -272.8908
   9   1.0000     -10.028537      -272.8904
  10   1.0000     -10.025210      -272.7998
  11   1.0000     -10.025201      -272.7996
  12   1.0000      -1.062243       -28.9051
  13   1.0000      -1.027974       -27.9726
  14   1.0000      -0.836624       -22.7657
  15   1.0000      -0.795923       -21.6582
  16   1.0000      -0.718171       -19.5424
  17   1.0000      -0.680391       -18.5144
  18   1.0000      -0.664385       -18.0788
  19   1.0000      -0.661358       -17.9965
  20   1.0000      -0.652825       -17.7643
  21   1.0000      -0.570699       -15.5295
  22   1.0000      -0.531342       -14.4586
  23   1.0000      -0.484516       -13.1843
  24   1.0000      -0.471108       -12.8195
  25   1.0000      -0.458549       -12.4778
  26   1.0000      -0.435836       -11.8597
  27   1.0000      -0.432052       -11.7567
  28   1.0000      -0.424710       -11.5569
  29   1.0000      -0.414530       -11.2799
  30   1.0000      -0.403078       -10.9683
  31   1.0000      -0.377392       -10.2693
  32   1.0000      -0.373726       -10.1696
  33   1.0000      -0.363520        -9.8919
  34   1.0000      -0.363251        -9.8846
  35   1.0000      -0.356762        -9.7080
  36   1.0000      -0.341507        -9.2929
  37   1.0000      -0.341194        -9.2844
  38   1.0000      -0.338661        -9.2154
  39   1.0000      -0.329391        -8.9632
  40   1.0000      -0.313824        -8.5396
  41   1.0000      -0.313718        -8.5367
  42   1.0000      -0.307754        -8.3744
  43   1.0000      -0.293926        -7.9981
  44   1.0000      -0.231866        -6.3094
  45   1.0000      -0.224660        -6.1133
  46   0.0000      -0.096816        -2.6345
  47   0.0000      -0.062861        -1.7105
  48   0.0000       0.008772         0.2387
  49   0.0000       0.022681         0.6172
  50   0.0000       0.023422         0.6373

MULLIKEN ATOMIC CHARGES AND SPIN POPULATIONS
--------------------------------------------
   0 O :   -1.096077    0.499215
   1 N :    0.397712    0.513783
   2 C :    2.583734   -0.052564
   3 C :   -0.678667   -0.008639
   4 C :    1.268371   -0.000408
   5 C :   -0.681109   -0.008758
   6 C :    2.589140   -0.053159
   7 C :   -1.241157    0.045800
   8 C :   -1.462842    0.004884
   9 C :   -1.241798    0.046063
  10 C :   -1.465563    0.004750
  11 H :    0.143337   -0.001691
  12 H :    0.145927   -0.001350
  13 H :    0.137268   -0.001752
  14 H :    0.146884   -0.001559
  15 H :    0.158789   -0.002773
  16 H :    0.201116    0.001576
  17 H :    0.022275    0.006234
  18 H :    0.131554   -0.003981
  19 H :    0.175617    0.006223
  20 H :    0.158758   -0.000755
  21 H :    0.164052   -0.002600
  22 H :    0.192899    0.001533
  23 H :    0.026072    0.006224
  24 H :    0.128009   -0.003852
  25 H :    0.177740    0.006410
  26 H :    0.157188   -0.000666
  27 O :   -1.239229    0.001810
Sum of atomic charges         :   -0.0000000

LOEWDIN ATOMIC CHARGES AND SPIN POPULATIONS
-------------------------------------------
   0 O :    0.397785    0.433927
   1 N :   -0.109160    0.403114
   2 C :   -0.449883    0.040674
   3 C :    0.304059    0.002527
   4 C :   -0.521110    0.000838
   5 C :    0.304231    0.002500
   6 C :   -0.449411    0.040620
   7 C :    0.599468    0.021198
   8 C :    0.575146    0.003866
   9 C :    0.599190    0.021167
  10 C :    0.575019    0.003950
  11 H :   -0.126213   -0.000253
  12 H :   -0.118210    0.001043
  13 H :   -0.125875   -0.000255
  14 H :   -0.118424    0.001039
  15 H :   -0.147557    0.002025
  16 H :   -0.168393    0.001947
  17 H :   -0.136155    0.006267
  18 H :   -0.173278   -0.000155
  19 H :   -0.143764    0.001044
  20 H :   -0.139549    0.000342
  21 H :   -0.148300    0.002038
  22 H :   -0.167808    0.001954
  23 H :   -0.136285    0.006244
  24 H :   -0.172688   -0.000139
  25 H :   -0.143697    0.001056
  26 H :   -0.139938    0.000358
  27 O :    0.480799    0.001063

  Mayer bond orders larger than 0.100000
B(  0-O ,  1-N ) :   0.5214 B(  1-N ,  2-C ) :   0.5354 B(  1-N ,  3-C ) :   0.2898
B(  1-N ,  5-C ) :   0.2870 B(  1-N ,  6-C ) :   0.5400 B(  2-C ,  3-C ) :   0.1554
B(  2-C ,  4-C ) :   0.1532 B(  2-C ,  6-C ) :   0.1080 B(  2-C ,  7-C ) :  -0.2406
B(  2-C ,  8-C ) :  -0.4576 B(  2-C , 17-H ) :  -0.1374 B(  2-C , 18-H ) :  -0.1082
B(  2-C , 19-H ) :  -0.1125 B(  3-C ,  4-C ) :   0.8514 B(  3-C ,  5-C ) :   0.1408
B(  3-C ,  7-C ) :   0.1745 B(  3-C ,  8-C ) :   0.1045 B(  3-C , 11-H ) :   0.8677
B(  3-C , 12-H ) :   1.0431 B(  3-C , 27-O ) :   0.2278 B(  4-C ,  5-C ) :   0.8475
B(  4-C ,  6-C ) :   0.1560 B(  4-C , 27-O ) :   0.1362 B(  5-C ,  6-C ) :   0.1413
B(  5-C ,  9-C ) :   0.1781 B(  5-C , 10-C ) :   0.1069 B(  5-C , 13-H ) :   0.8754
B(  5-C , 14-H ) :   1.0430 B(  5-C , 27-O ) :   0.2263 B(  6-C ,  9-C ) :  -0.2450
B(  6-C , 10-C ) :  -0.4681 B(  6-C , 23-H ) :  -0.1398 B(  6-C , 24-H ) :  -0.1103
B(  6-C , 25-H ) :  -0.1118 B(  7-C ,  8-C ) :   0.2749 B(  7-C , 15-H ) :   1.0693
B(  7-C , 16-H ) :   1.0075 B(  7-C , 17-H ) :   1.2137 B(  8-C , 18-H ) :   1.1136
B(  8-C , 19-H ) :   1.1084 B(  8-C , 20-H ) :   1.0613 B(  9-C , 10-C ) :   0.2746
B(  9-C , 21-H ) :   1.0654 B(  9-C , 22-H ) :   1.0176 B(  9-C , 23-H ) :   1.2114
B( 10-C , 24-H ) :   1.1190 B( 10-C , 25-H ) :   1.1056 B( 10-C , 26-H ) :   1.0644

Dispersion correction           -0.010372652
FINAL SINGLE POINT ENERGY      -557.647649535348

DIPOLE MOMENT
-------------

Method             : SCF
Type of density    : Electron Density
Multiplicity       :   2
Irrep              :   0
Energy             :  -557.6372768837103422 Eh
Relativity type    :
Basis              : AO
                                X                 Y                 Z
Electronic contribution:      1.994524124      -3.529610104      -1.087062212
Nuclear contribution   :     -2.339550433       2.955416228       0.579005487
                        -----------------------------------------
Total Dipole Moment    :     -0.345026310      -0.574193876      -0.508056725
                        -----------------------------------------
Magnitude (a.u.)       :      0.840751686
Magnitude (Debye)      :      2.137020953

Rotational constants in cm-1:             0.036094             0.035779             0.023697
Rotational constants in MHz :          1082.069740          1072.621338           710.415750

                             ****ORCA TERMINATED NORMALLY****
TOTAL RUN TIME: 0 days 0 hours 5 minutes 50 seconds 576 msec
