                         Program Version 6.0.0  -   RELEASE  -
|  1> !TPSSh freq aug-cc-pVTZ d3 TightSCF SlowConv RIJCOSX defgrid2
|  2>
|  3> %pal
|  4> nprocs 12
|  5> end
|  6>
|  7> %scf
|  8> MaxIter 1500
|  9> end
| 10>
| 11> %maxcore 5000
| 12>
| 13> !CPCM
| 14> %cpcm smd true
| 15> SMDsolvent "MeCN"
| 16> surfacetype gepol_ses
| 17> rsolv 2.19
| 18> end
| 19>
| 20> * xyz 1 2
| 21> C           1.35066876936088     -0.82062115050532      0.61877563726275
| 22> C           2.61215189861107     -1.37876672431456      0.63382176151763
| 23> C           3.69722278652280     -0.68744929377490      0.08203614151470
| 24> C           3.52599597060823      0.58985524730139     -0.47123598388312
| 25> C           2.27855085226865      1.17441367878357     -0.48475767814082
| 26> C           1.19370169489819      0.44816506170390      0.03306902011876
| 27> O           0.00003865572884      1.09309855495191     -0.00091791948058
| 28> C          -1.19365430619804      0.44804232018675     -0.03394787350766
| 29> C          -2.27824759415010      1.17425740824061      0.48438462526236
| 30> C          -3.52569441633126      0.58961279283451      0.47166843539098
| 31> C          -3.69724970745756     -0.68766159250720     -0.08151874295744
| 32> C          -2.61244128428958     -1.37900182110204     -0.63376469782447
| 33> C          -1.35096077090035     -0.82081892069344     -0.61931253140513
| 34> H          -0.51478725250460     -1.31425812623349     -1.09412020504695
| 35> H          -2.76520871417660     -2.34349183945674     -1.09881096233638
| 36> H          -4.68280869613748     -1.13373620506544     -0.10458934327284
| 37> H          -4.37298731119969      1.11765685221388      0.88764037332880
| 38> H          -2.10593328680971      2.15535229237307      0.90558898598515
| 39> H           2.10639506184441      2.15548204853700     -0.90608078113031
| 40> H           4.37354081098962      1.11797374100405     -0.88658777440248
| 41> H           4.68275703040568     -1.13354819701102      0.10555766163552
| 42> H           2.76476692304711     -2.34321887019638      1.09900371730309
| 43> H           0.51421368586949     -1.31358155727010      1.09356373406844
| 44> *
| 45>
| 46>                          ****END OF INPUT****

CARTESIAN COORDINATES (ANGSTROEM)
---------------------------------
  C      1.350669   -0.820621    0.618776
  C      2.612152   -1.378767    0.633822
  C      3.697223   -0.687449    0.082036
  C      3.525996    0.589855   -0.471236
  C      2.278551    1.174414   -0.484758
  C      1.193702    0.448165    0.033069
  O      0.000039    1.093099   -0.000918
  C     -1.193654    0.448042   -0.033948
  C     -2.278248    1.174257    0.484385
  C     -3.525694    0.589613    0.471668
  C     -3.697250   -0.687662   -0.081519
  C     -2.612441   -1.379002   -0.633765
  C     -1.350961   -0.820819   -0.619313
  H     -0.514787   -1.314258   -1.094120
  H     -2.765209   -2.343492   -1.098811
  H     -4.682809   -1.133736   -0.104589
  H     -4.372987    1.117657    0.887640
  H     -2.105933    2.155352    0.905589
  H      2.106395    2.155482   -0.906081
  H      4.373541    1.117974   -0.886588
  H      4.682757   -1.133548    0.105558
  H      2.764767   -2.343219    1.099004
  H      0.514214   -1.313582    1.093564

 Total Charge           Charge          ....    1
 Multiplicity           Mult            ....    2
 Number of Electrons    NEL             ....   89
 Basis Dimension        Dim             ....  828

ORBITAL ENERGIES
----------------
                 SPIN UP ORBITALS
  NO   OCC          E(Eh)            E(eV)
   0   1.0000     -19.182762      -521.9895
   1   1.0000     -10.230365      -278.3824
   2   1.0000     -10.230316      -278.3811
   3   1.0000     -10.157845      -276.4090
   4   1.0000     -10.157818      -276.4083
   5   1.0000     -10.156067      -276.3606
   6   1.0000     -10.156019      -276.3593
   7   1.0000     -10.153790      -276.2987
   8   1.0000     -10.153764      -276.2980
   9   1.0000     -10.146634      -276.1040
  10   1.0000     -10.146614      -276.1034
  11   1.0000     -10.146606      -276.1032
  12   1.0000     -10.146578      -276.1024
  13   1.0000      -1.140521       -31.0352
  14   1.0000      -0.884476       -24.0678
  15   1.0000      -0.866871       -23.5887
  16   1.0000      -0.790683       -21.5156
  17   1.0000      -0.771696       -20.9989
  18   1.0000      -0.764374       -20.7997
  19   1.0000      -0.741870       -20.1873
  20   1.0000      -0.665501       -18.1092
  21   1.0000      -0.638564       -17.3762
  22   1.0000      -0.619266       -16.8511
  23   1.0000      -0.595583       -16.2066
  24   1.0000      -0.565557       -15.3896
  25   1.0000      -0.524137       -14.2625
  26   1.0000      -0.503686       -13.7060
  27   1.0000      -0.503644       -13.7048
  28   1.0000      -0.497780       -13.5453
  29   1.0000      -0.456250       -12.4152
  30   1.0000      -0.456008       -12.4086
  31   1.0000      -0.441465       -12.0129
  32   1.0000      -0.441101       -12.0030
  33   1.0000      -0.430634       -11.7182
  34   1.0000      -0.423361       -11.5202
  35   1.0000      -0.392181       -10.6718
  36   1.0000      -0.381060       -10.3692
  37   1.0000      -0.375555       -10.2194
  38   1.0000      -0.371535       -10.1100
  39   1.0000      -0.354408        -9.6439
  40   1.0000      -0.352474        -9.5913
  41   1.0000      -0.287691        -7.8285
  42   1.0000      -0.283783        -7.7221
  43   1.0000      -0.279677        -7.6104
  44   1.0000      -0.255206        -6.9445
  45   0.0000      -0.069930        -1.9029
  46   0.0000      -0.057483        -1.5642
  47   0.0000      -0.050648        -1.3782
  48   0.0000      -0.044156        -1.2015
  49   0.0000      -0.008036        -0.2187

                 SPIN DOWN ORBITALS
  NO   OCC          E(Eh)            E(eV)
   0   1.0000     -19.175564      -521.7936
   1   1.0000     -10.229214      -278.3511
   2   1.0000     -10.229168      -278.3498
   3   1.0000     -10.156120      -276.3621
   4   1.0000     -10.156095      -276.3614
   5   1.0000     -10.152737      -276.2700
   6   1.0000     -10.152697      -276.2689
   7   1.0000     -10.152351      -276.2595
   8   1.0000     -10.152328      -276.2589
   9   1.0000     -10.147379      -276.1242
  10   1.0000     -10.147349      -276.1234
  11   1.0000     -10.147252      -276.1208
  12   1.0000     -10.147230      -276.1202
  13   1.0000      -1.128927       -30.7197
  14   1.0000      -0.880181       -23.9509
  15   1.0000      -0.862553       -23.4713
  16   1.0000      -0.786254       -21.3951
  17   1.0000      -0.769600       -20.9419
  18   1.0000      -0.762342       -20.7444
  19   1.0000      -0.734075       -19.9752
  20   1.0000      -0.661070       -17.9886
  21   1.0000      -0.636712       -17.3258
  22   1.0000      -0.616174       -16.7669
  23   1.0000      -0.592537       -16.1238
  24   1.0000      -0.563569       -15.3355
  25   1.0000      -0.521888       -14.2013
  26   1.0000      -0.501164       -13.6374
  27   1.0000      -0.499099       -13.5812
  28   1.0000      -0.483691       -13.1619
  29   1.0000      -0.454342       -12.3633
  30   1.0000      -0.451856       -12.2956
  31   1.0000      -0.439925       -11.9710
  32   1.0000      -0.439356       -11.9555
  33   1.0000      -0.424634       -11.5549
  34   1.0000      -0.417696       -11.3661
  35   1.0000      -0.383188       -10.4271
  36   1.0000      -0.379871       -10.3368
  37   1.0000      -0.370858       -10.0916
  38   1.0000      -0.364436        -9.9168
  39   1.0000      -0.350131        -9.5276
  40   1.0000      -0.347031        -9.4432
  41   1.0000      -0.280380        -7.6295
  42   1.0000      -0.275392        -7.4938
  43   1.0000      -0.266186        -7.2433
  44   0.0000      -0.210949        -5.7402
  45   0.0000      -0.057722        -1.5707
  46   0.0000      -0.050557        -1.3757
  47   0.0000      -0.042730        -1.1628
  48   0.0000      -0.028270        -0.7693

MULLIKEN ATOMIC CHARGES AND SPIN POPULATIONS
--------------------------------------------
   0 C :   -0.355359    0.097863
   1 C :   -0.519897   -0.056139
   2 C :   -0.380966    0.219263
   3 C :   -0.272399   -0.044148
   4 C :   -0.826444    0.067467
   5 C :    1.223641    0.118538
   6 O :   -0.800526    0.223261
   7 C :    1.217746    0.118161
   8 C :   -0.834874    0.067458
   9 C :   -0.267559   -0.043985
  10 C :   -0.379535    0.218862
  11 C :   -0.516967   -0.056070
  12 C :   -0.353295    0.098051
  13 H :    0.478889   -0.011806
  14 H :    0.379798    0.001701
  15 H :    0.480667    0.006248
  16 H :    0.341172   -0.000649
  17 H :    0.352569   -0.010061
  18 H :    0.353735   -0.009937
  19 H :    0.340259   -0.000628
  20 H :    0.482159    0.006421
  21 H :    0.378436    0.001565
  22 H :    0.478752   -0.011437
Sum of atomic charges         :    1.0000000

LOEWDIN ATOMIC CHARGES AND SPIN POPULATIONS
-------------------------------------------
   0 C :    0.247401    0.064463
   1 C :    0.252435    0.026089
   2 C :    0.258809    0.104287
   3 C :    0.244312    0.028271
   4 C :    0.258681    0.055144
   5 C :   -0.317845    0.089307
   6 O :    0.689598    0.189389
   7 C :   -0.317919    0.089145
   8 C :    0.258617    0.055039
   9 C :    0.244239    0.028228
  10 C :    0.258717    0.104077
  11 C :    0.252361    0.026024
  12 C :    0.247283    0.064362
  13 H :   -0.163124    0.010641
  14 H :   -0.157016   -0.002844
  15 H :   -0.155359    0.024142
  16 H :   -0.159157   -0.002175
  17 H :   -0.153703    0.008287
  18 H :   -0.153691    0.008304
  19 H :   -0.159143   -0.002183
  20 H :   -0.155334    0.024190
  21 H :   -0.157004   -0.002845
  22 H :   -0.163157    0.010659

  Mayer bond orders larger than 0.100000
B(  0-C ,  1-C ) :   1.5088 B(  0-C ,  2-C ) :   0.1475 B(  0-C ,  4-C ) :   0.1757
B(  0-C ,  5-C ) :   0.9083 B(  0-C , 12-C ) :   0.2363 B(  0-C , 22-H ) :   0.4930
B(  1-C ,  2-C ) :   1.4281 B(  1-C ,  5-C ) :  -0.2827 B(  1-C , 21-H ) :   0.7151
B(  2-C ,  3-C ) :   1.3278 B(  2-C ,  4-C ) :   0.3311 B(  2-C , 20-H ) :   0.4688
B(  3-C ,  4-C ) :   1.5971 B(  3-C ,  5-C ) :  -0.3430 B(  3-C , 19-H ) :   0.7421
B(  4-C ,  5-C ) :   0.5880 B(  4-C ,  6-O ) :   0.2752 B(  4-C , 18-H ) :   0.4375
B(  4-C , 19-H ) :   0.1041 B(  5-C ,  6-O ) :   0.5047 B(  5-C ,  7-C ) :   0.1158
B(  5-C , 18-H ) :   0.1175 B(  6-O ,  7-C ) :   0.5065 B(  6-O ,  8-C ) :   0.2759
B(  7-C ,  8-C ) :   0.5941 B(  7-C ,  9-C ) :  -0.3405 B(  7-C , 11-C ) :  -0.2835
B(  7-C , 12-C ) :   0.9096 B(  7-C , 17-H ) :   0.1170 B(  8-C ,  9-C ) :   1.5994
B(  8-C , 10-C ) :   0.3307 B(  8-C , 12-C ) :   0.1781 B(  8-C , 16-H ) :   0.1100
B(  8-C , 17-H ) :   0.4388 B(  9-C , 10-C ) :   1.3330 B(  9-C , 16-H ) :   0.7377
B( 10-C , 11-C ) :   1.4303 B( 10-C , 12-C ) :   0.1426 B( 10-C , 15-H ) :   0.4712
B( 11-C , 12-C ) :   1.5075 B( 11-C , 14-H ) :   0.7119 B( 12-C , 13-H ) :   0.4950

Dispersion correction           -0.031527374
FINAL SINGLE POINT ENERGY      -538.568514501171

DIPOLE MOMENT
-------------

Method             : SCF
Type of density    : Electron Density
Multiplicity       :   2
Irrep              :   0
Energy             :  -538.5369871269543864 Eh
Relativity type    :
Basis              : AO
                                X                 Y                 Z
Electronic contribution:      0.002924057       2.220805631      -0.001975162
Nuclear contribution   :     -0.000108344      -2.732966405       0.002344110
                        -----------------------------------------
Total Dipole Moment    :      0.002815713      -0.512160774       0.000368948
                        -----------------------------------------
Magnitude (a.u.)       :      0.512168647
Magnitude (Debye)      :      1.301829242

VIBRATIONAL FREQUENCIES
-----------------------

Scaling factor for frequencies =  1.000000000  (already applied!)

     0:       0.00 cm**-1
     1:       0.00 cm**-1
     2:       0.00 cm**-1
     3:       0.00 cm**-1
     4:       0.00 cm**-1
     5:       0.00 cm**-1
     6:      20.28 cm**-1
     7:      43.96 cm**-1
     8:      90.96 cm**-1
     9:     214.95 cm**-1
    10:     222.78 cm**-1
    11:     310.54 cm**-1
    12:     352.01 cm**-1
    13:     388.96 cm**-1
    14:     406.34 cm**-1
    15:     464.65 cm**-1
    16:     474.27 cm**-1
    17:     544.70 cm**-1
    18:     575.40 cm**-1
    19:     590.84 cm**-1
    20:     627.66 cm**-1
    21:     659.38 cm**-1
    22:     660.71 cm**-1
    23:     763.58 cm**-1
    24:     772.21 cm**-1
    25:     803.23 cm**-1
    26:     810.00 cm**-1
    27:     820.73 cm**-1
    28:     881.32 cm**-1
    29:     937.81 cm**-1
    30:     945.61 cm**-1
    31:     990.97 cm**-1
    32:     996.44 cm**-1
    33:     997.93 cm**-1
    34:    1007.78 cm**-1
    35:    1014.52 cm**-1
    36:    1015.43 cm**-1
    37:    1019.76 cm**-1
    38:    1021.52 cm**-1
    39:    1073.94 cm**-1
    40:    1099.26 cm**-1
    41:    1104.46 cm**-1
    42:    1157.11 cm**-1
    43:    1158.45 cm**-1
    44:    1172.66 cm**-1
    45:    1207.25 cm**-1
    46:    1235.67 cm**-1
    47:    1322.03 cm**-1
    48:    1340.16 cm**-1
    49:    1373.47 cm**-1
    50:    1374.01 cm**-1
    51:    1464.58 cm**-1
    52:    1473.69 cm**-1
    53:    1484.92 cm**-1
    54:    1492.06 cm**-1
    55:    1549.58 cm**-1
    56:    1553.14 cm**-1
    57:    1571.77 cm**-1
    58:    1633.52 cm**-1
    59:    3190.21 cm**-1
    60:    3190.28 cm**-1
    61:    3198.25 cm**-1
    62:    3198.65 cm**-1
    63:    3203.10 cm**-1
    64:    3204.11 cm**-1
    65:    3210.08 cm**-1
    66:    3211.82 cm**-1
    67:    3212.28 cm**-1
    68:    3214.44 cm**-1

IR SPECTRUM
-----------

 Mode   freq       eps      Int      T**2         TX        TY        TZ
       cm**-1   L/(mol*cm) km/mol    a.u.
----------------------------------------------------------------------------
  6:     20.28   0.000035    0.18  0.000542  (-0.001074 -0.023263 -0.000230)
  7:     43.96   0.005108   25.81  0.036260  ( 0.184851 -0.000047  0.045713)
  8:     90.96   0.000052    0.26  0.000179  (-0.000231 -0.013386 -0.000008)
  9:    214.95   0.033703  170.32  0.048929  (-0.220991 -0.000004 -0.009616)
 10:    222.78   0.000003    0.02  0.000004  (-0.001424 -0.001460 -0.000051)
 11:    310.54   0.000142    0.72  0.000143  (-0.000109  0.011961 -0.000005)
 12:    352.01   0.016455   83.16  0.014588  ( 0.119094  0.000001  0.020111)
 13:    388.96   0.014777   74.68  0.011855  ( 0.108807  0.000006  0.004034)
 14:    406.34   0.000043    0.22  0.000033  (-0.000322  0.005731 -0.000005)
 15:    464.65   0.001231    6.22  0.000827  (-0.000828  0.028747  0.000018)
 16:    474.27   0.117081  591.68  0.077038  (-0.277258 -0.000106  0.012885)
 17:    544.70   0.078636  397.39  0.045051  (-0.210904  0.000016 -0.023879)
 18:    575.40   0.000092    0.46  0.000050  ( 0.000099  0.007056  0.000055)
 19:    590.84   0.013144   66.42  0.006942  (-0.081747  0.000028 -0.016112)
 20:    627.66   0.000422    2.13  0.000210  ( 0.000063 -0.014483 -0.000040)
 21:    659.38   0.019681   99.46  0.009314  ( 0.008868 -0.001670 -0.096088)
 22:    660.71   0.005109   25.82  0.002413  ( 0.000244  0.049012 -0.003293)
 23:    763.58   0.000891    4.50  0.000364  (-0.000050  0.019079 -0.000095)
 24:    772.21   0.075683  382.47  0.030585  (-0.139755 -0.000019 -0.105134)
 25:    803.23   0.005799   29.31  0.002253  (-0.000089 -0.047467  0.000048)
 26:    810.00   0.032905  166.29  0.012677  (-0.112262  0.000207  0.008620)
 27:    820.73   0.000727    3.68  0.000277  (-0.000734 -0.016612  0.000035)
 28:    881.32   0.052653  266.09  0.018644  ( 0.136525  0.000013  0.002167)
 29:    937.81   0.021812  110.23  0.007258  ( 0.079937  0.000109  0.029461)
 30:    945.61   0.001069    5.40  0.000353  ( 0.000567 -0.018776  0.000179)
 31:    990.97   0.319823  1616.25  0.100714  (-0.317324 -0.000007 -0.004440)
 32:    996.44   0.001169    5.91  0.000366  ( 0.019054  0.000007  0.001716)
 33:    997.93   0.000000    0.00  0.000000  (-0.000114 -0.000141 -0.000009)
 34:   1007.78   0.000025    0.12  0.000008  (-0.000282  0.002746 -0.000016)
 35:   1014.52   0.000090    0.45  0.000028  (-0.000002 -0.005251 -0.000041)
 36:   1015.43   0.001136    5.74  0.000349  ( 0.018241  0.000020 -0.004040)
 37:   1019.76   0.010306   52.08  0.003154  (-0.056128  0.000004 -0.001850)
 38:   1021.52   0.000003    0.02  0.000001  ( 0.000744 -0.000629  0.000017)
 39:   1073.94   0.766435  3873.25  0.222709  ( 0.471825 -0.000004  0.009494)
 40:   1099.26   0.007062   35.69  0.002005  (-0.037101 -0.000013 -0.025068)
 41:   1104.46   0.006092   30.79  0.001721  ( 0.000122  0.041490 -0.000014)
 42:   1157.11   0.000187    0.95  0.000051  (-0.000065 -0.007111  0.000021)
 43:   1158.45   0.000199    1.01  0.000054  (-0.005820  0.000029  0.004441)
 44:   1172.66   0.000288    1.45  0.000077  (-0.000028  0.008750 -0.000005)
 45:   1207.25   0.075843  383.28  0.019605  ( 0.139992 -0.000016  0.002613)
 46:   1235.67   0.001376    6.96  0.000348  ( 0.000283  0.018642 -0.000003)
 47:   1322.03   0.000792    4.00  0.000187  (-0.013099  0.000004  0.003935)
 48:   1340.16   0.000427    2.16  0.000099  (-0.000047  0.009966  0.000008)
 49:   1373.47   0.017436   88.12  0.003962  ( 0.060112 -0.001924 -0.018561)
 50:   1374.01   0.007155   36.16  0.001625  (-0.002974 -0.040190  0.000915)
 51:   1464.58   0.038492  194.53  0.008202  (-0.090407 -0.000065  0.005316)
 52:   1473.69   0.001549    7.83  0.000328  (-0.011239 -0.000031 -0.014203)
 53:   1484.92   0.000032    0.16  0.000007  ( 0.000111  0.002577  0.000033)
 54:   1492.06   0.010347   52.29  0.002164  (-0.000196  0.046518 -0.000032)
 55:   1549.58   0.046308  234.02  0.009326  (-0.096320 -0.000278  0.006937)
 56:   1553.14   0.001440    7.28  0.000289  (-0.001570  0.016939  0.000106)
 57:   1571.77   0.489163  2472.03  0.097119  ( 0.311485 -0.000021  0.009833)
 58:   1633.52   0.000081    0.41  0.000015  ( 0.000026 -0.003922  0.000001)
 59:   3190.21   0.000310    1.57  0.000030  (-0.005473 -0.000482  0.000372)
 60:   3190.28   0.000073    0.37  0.000007  ( 0.002458 -0.001042 -0.000174)
 61:   3198.25   0.000791    4.00  0.000077  (-0.005836  0.000623  0.006537)
 62:   3198.65   0.001442    7.29  0.000141  ( 0.000246  0.011855 -0.000341)
 63:   3203.10   0.000855    4.32  0.000083  ( 0.009120  0.000227  0.000314)
 64:   3204.11   0.000945    4.78  0.000092  (-0.000292  0.009589 -0.000025)
 65:   3210.08   0.003685   18.62  0.000358  (-0.018897  0.000013 -0.001083)
 66:   3211.82   0.000101    0.51  0.000010  ( 0.001300  0.002857  0.000015)
 67:   3212.28   0.035066  177.21  0.003407  (-0.058357  0.000050 -0.001032)
 68:   3214.44   0.000034    0.17  0.000003  ( 0.000594  0.001724  0.000003)

--------------------------
THERMOCHEMISTRY AT 298.15K
--------------------------

Temperature         ...   298.15 K
Pressure            ...     1.00 atm
Total Mass          ...   170.21 AMU
Quasi RRHO          ...     True
Cut-Off Frequency   ...     1.00 cm^-1

Throughout the following assumptions are being made:
  (1) The electronic state is orbitally nondegenerate
      but the spin degeneracy is treated
  (2) There are no thermally accessible electronically excited states
  (3) Hindered rotations indicated by low frequency modes are not
      treated as such but are treated as vibrations and this may
      cause some error
  (4) All equations used are the standard statistical mechanics
      equations for an ideal gas
  (5) All vibrations are strictly harmonic

freq.      20.28  E(vib)   ...       0.56
freq.      43.96  E(vib)   ...       0.53
freq.      90.96  E(vib)   ...       0.47
freq.     214.95  E(vib)   ...       0.34
freq.     222.78  E(vib)   ...       0.33
freq.     310.54  E(vib)   ...       0.26
freq.     352.01  E(vib)   ...       0.23
freq.     388.96  E(vib)   ...       0.20
freq.     406.34  E(vib)   ...       0.19
freq.     464.65  E(vib)   ...       0.16
freq.     474.27  E(vib)   ...       0.15
freq.     544.70  E(vib)   ...       0.12
freq.     575.40  E(vib)   ...       0.11
freq.     590.84  E(vib)   ...       0.10
freq.     627.66  E(vib)   ...       0.09
freq.     659.38  E(vib)   ...       0.08
freq.     660.71  E(vib)   ...       0.08
freq.     763.58  E(vib)   ...       0.06
freq.     772.21  E(vib)   ...       0.05
freq.     803.23  E(vib)   ...       0.05
freq.     810.00  E(vib)   ...       0.05
freq.     820.73  E(vib)   ...       0.05
freq.     881.32  E(vib)   ...       0.04
freq.     937.81  E(vib)   ...       0.03
freq.     945.61  E(vib)   ...       0.03
freq.     990.97  E(vib)   ...       0.02
freq.     996.44  E(vib)   ...       0.02
freq.     997.93  E(vib)   ...       0.02
freq.    1007.78  E(vib)   ...       0.02
freq.    1014.52  E(vib)   ...       0.02
freq.    1015.43  E(vib)   ...       0.02
freq.    1019.76  E(vib)   ...       0.02
freq.    1021.52  E(vib)   ...       0.02
freq.    1073.94  E(vib)   ...       0.02
freq.    1099.26  E(vib)   ...       0.02
freq.    1104.46  E(vib)   ...       0.02
freq.    1157.11  E(vib)   ...       0.01
freq.    1158.45  E(vib)   ...       0.01
freq.    1172.66  E(vib)   ...       0.01
freq.    1207.25  E(vib)   ...       0.01
freq.    1235.67  E(vib)   ...       0.01
freq.    1322.03  E(vib)   ...       0.01
freq.    1340.16  E(vib)   ...       0.01
freq.    1373.47  E(vib)   ...       0.01
freq.    1374.01  E(vib)   ...       0.01
freq.    1464.58  E(vib)   ...       0.00
freq.    1473.69  E(vib)   ...       0.00
freq.    1484.92  E(vib)   ...       0.00
freq.    1492.06  E(vib)   ...       0.00
freq.    1549.58  E(vib)   ...       0.00
freq.    1553.14  E(vib)   ...       0.00
freq.    1571.77  E(vib)   ...       0.00
freq.    1633.52  E(vib)   ...       0.00
freq.    3190.21  E(vib)   ...       0.00
freq.    3190.28  E(vib)   ...       0.00
freq.    3198.25  E(vib)   ...       0.00
freq.    3198.65  E(vib)   ...       0.00
freq.    3203.10  E(vib)   ...       0.00
freq.    3204.11  E(vib)   ...       0.00
freq.    3210.08  E(vib)   ...       0.00
freq.    3211.82  E(vib)   ...       0.00
freq.    3212.28  E(vib)   ...       0.00
freq.    3214.44  E(vib)   ...       0.00

------------
INNER ENERGY
------------

The inner energy is: U= E(el) + E(ZPE) + E(vib) + E(rot) + E(trans)
    E(el)   - is the total energy from the electronic structure calculation
              = E(kin-el) + E(nuc-el) + E(el-el) + E(nuc-nuc)
    E(ZPE)  - the the zero temperature vibrational energy from the frequency calculation
    E(vib)  - the the finite temperature correction to E(ZPE) due to population
              of excited vibrational states
    E(rot)  - is the rotational thermal energy
    E(trans)- is the translational thermal energy

Summary of contributions to the inner energy U:
Electronic energy                ...   -538.56851450 Eh
Zero point energy                ...      0.18298738 Eh     114.83 kcal/mol
Thermal vibrational correction   ...      0.00746124 Eh       4.68 kcal/mol
Thermal rotational correction    ...      0.00141627 Eh       0.89 kcal/mol
Thermal translational correction ...      0.00141627 Eh       0.89 kcal/mol
-----------------------------------------------------------------------
Total thermal energy                   -538.37523333 Eh

Summary of corrections to the electronic energy:
(perhaps to be used in another calculation)
Total thermal correction                  0.01029379 Eh       6.46 kcal/mol
Non-thermal (ZPE) correction              0.18298738 Eh     114.83 kcal/mol
-----------------------------------------------------------------------
Total correction                          0.19328117 Eh     121.29 kcal/mol

--------
ENTHALPY
--------

The enthalpy is H = U + kB*T
                kB is Boltzmann's constant
Total thermal energy              ...   -538.37523333 Eh
Thermal Enthalpy correction       ...      0.00094421 Eh       0.59 kcal/mol
-----------------------------------------------------------------------
Total Enthalpy                    ...   -538.37428912 Eh

Note: Only C1 symmetry has been detected, increase convergence thresholds
      if your molecule has a higher symmetry. Symmetry factor of 1.0 is
      used for the rotational entropy correction.

Note: Rotational entropy computed according to Herzberg
Infrared and Raman Spectra, Chapter V,1, Van Nostrand Reinhold, 1945
Point Group:  C1, Symmetry Number:   1
Rotational constants in cm-1:     0.081925     0.014794     0.013284

Vibrational entropy computed according to the QRRHO of S. Grimme
Chem.Eur.J. 2012 18 9955 using a reference frequency of 100.0 cm-1

-------
ENTROPY
-------

The entropy contributions are T*S = T*(S(el)+S(vib)+S(rot)+S(trans))
     S(el)   - electronic entropy
     S(vib)  - vibrational entropy
     S(rot)  - rotational entropy
     S(trans)- translational entropy
The entropies will be listed as multiplied by the temperature to get
units of energy

Electronic entropy                ...      0.00065446 Eh      0.41 kcal/mol
Vibrational entropy               ...      0.01268454 Eh      7.96 kcal/mol
Rotational entropy                ...      0.01472111 Eh      9.24 kcal/mol
Translational entropy             ...      0.01962451 Eh     12.31 kcal/mol
-----------------------------------------------------------------------
Final entropy term                ...      0.04768462 Eh     29.92 kcal/mol

In case the symmetry of your molecule has not been determined correctly

                             ****ORCA TERMINATED NORMALLY****
TOTAL RUN TIME: 0 days 2 hours 14 minutes 50 seconds 37 msec
