                         Program Version 6.0.0  -   RELEASE  -
|  1> !PBE0 def2-SV(p) Opt Freq d3 TightSCF SlowConv RIJCOSX defgrid2
|  2>
|  3> %pal
|  4> nprocs 4
|  5> end
|  6>
|  7> %scf
|  8> MaxIter 1500
|  9> end
| 10>
| 11> %maxcore 3000
| 12>
| 13>
| 14>
| 15> * xyz 1 2
| 16> C     1.5119481   -1.2238746   -0.0000848
| 17> C     2.2056967    0.0000144   -0.0000736
| 18> C     1.5119449    1.2239046   -0.0000982
| 19> C     0.1408691    1.2362863    0.0000676
| 20> C    -0.5700998    0.0000144    0.0001191
| 21> C     0.1408715   -1.2362572    0.0000817
| 22> H    -0.4149608   -2.1615445    0.0001553
| 23> C    -1.9579578    0.0000108    0.0000467
| 24> C    -3.1744272    0.0000361    0.0000920
| 25> H    -4.2302233    0.0000315    0.0001148
| 26> H    -0.4149633    2.1615737    0.0001307
| 27> H     2.0652493    2.1504937   -0.0001778
| 28> H     3.2861338    0.0000162    0.0000563
| 29> H     2.0652525   -2.1504638   -0.0001543
| 30> *
| 31>
| 32>                          ****END OF INPUT****
 Total Charge           Charge          ....    1
 Multiplicity           Mult            ....    2
 Number of Electrons    NEL             ....   53
Dispersion correction           -0.012387339
FINAL SINGLE POINT ENERGY      -307.481645766281
Dispersion correction             ... done (  0.0 sec)
Dispersion correction           -0.012333475
FINAL SINGLE POINT ENERGY      -307.483414174962
Dispersion correction             ... done (  0.0 sec)
Dispersion correction           -0.012330104
FINAL SINGLE POINT ENERGY      -307.483435351102
Dispersion correction             ... done (  0.0 sec)
Dispersion correction           -0.012330145
FINAL SINGLE POINT ENERGY      -307.483437725692
Dispersion correction             ... done (  0.1 sec)
                    ***********************HURRAY********************

CARTESIAN COORDINATES (ANGSTROEM)
---------------------------------
  C      1.517585   -1.234350   -0.000009
  C      2.207708    0.000017   -0.000026
  C      1.517579    1.234381   -0.000024
  C      0.143996    1.245288   -0.000010
  C     -0.570503    0.000010    0.000003
  C      0.144001   -1.245266    0.000003
  H     -0.419181   -2.181752    0.000012
  C     -1.958751    0.000012    0.000032
  C     -3.188869    0.000039    0.000156
  H     -4.270931    0.000042    0.000248
  H     -0.419190    2.181772   -0.000014
  H      2.079689    2.171847   -0.000037
  H      3.302499    0.000015   -0.000043
  H      2.079701   -2.171814   -0.000015

 Multiplicity           Mult            ....    2
 Number of Electrons    NEL             ....   53
 Basis Dimension        Dim             ....  124

ORBITAL ENERGIES
----------------
                 SPIN UP ORBITALS
  NO   OCC          E(Eh)            E(eV)
   0   1.0000     -10.496454      -285.6230
   1   1.0000     -10.475793      -285.0608
   2   1.0000     -10.467630      -284.8387
   3   1.0000     -10.464881      -284.7639
   4   1.0000     -10.455533      -284.5095
   5   1.0000     -10.455523      -284.5093
   6   1.0000     -10.439741      -284.0798
   7   1.0000     -10.439731      -284.0795
   8   1.0000      -1.098032       -29.8790
   9   1.0000      -1.020705       -27.7748
  10   1.0000      -0.974982       -26.5306
  11   1.0000      -0.962743       -26.1976
  12   1.0000      -0.856392       -23.3036
  13   1.0000      -0.826533       -22.4911
  14   1.0000      -0.767208       -20.8768
  15   1.0000      -0.733143       -19.9498
  16   1.0000      -0.694634       -18.9019
  17   1.0000      -0.685753       -18.6603
  18   1.0000      -0.644650       -17.5418
  19   1.0000      -0.641381       -17.4529
  20   1.0000      -0.615528       -16.7494
  21   1.0000      -0.575310       -15.6550
  22   1.0000      -0.563931       -15.3453
  23   1.0000      -0.547567       -14.9000
  24   1.0000      -0.505072       -13.7437
  25   1.0000      -0.476768       -12.9735
  26   1.0000      -0.471012       -12.8169
  27   0.0000      -0.259316        -7.0564
  28   0.0000      -0.203202        -5.5294
  29   0.0000      -0.161274        -4.3885
  30   0.0000      -0.123396        -3.3578
  31   0.0000      -0.088173        -2.3993

                 SPIN DOWN ORBITALS
  NO   OCC          E(Eh)            E(eV)
   0   1.0000     -10.492609      -285.5184
   1   1.0000     -10.468331      -284.8578
   2   1.0000     -10.465653      -284.7849
   3   1.0000     -10.462292      -284.6934
   4   1.0000     -10.454229      -284.4740
   5   1.0000     -10.454221      -284.4738
   6   1.0000     -10.440499      -284.1004
   7   1.0000     -10.440489      -284.1001
   8   1.0000      -1.090527       -29.6748
   9   1.0000      -1.011403       -27.5217
  10   1.0000      -0.973543       -26.4914
  11   1.0000      -0.943983       -25.6871
  12   1.0000      -0.849200       -23.1079
  13   1.0000      -0.822764       -22.3885
  14   1.0000      -0.763784       -20.7836
  15   1.0000      -0.728114       -19.8130
  16   1.0000      -0.691734       -18.8231
  17   1.0000      -0.683278       -18.5929
  18   1.0000      -0.641743       -17.4627
  19   1.0000      -0.641169       -17.4471
  20   1.0000      -0.592020       -16.1097
  21   1.0000      -0.574080       -15.6215
  22   1.0000      -0.562195       -15.2981
  23   1.0000      -0.512304       -13.9405
  24   1.0000      -0.499157       -13.5827
  25   1.0000      -0.473299       -12.8791
  26   0.0000      -0.375248       -10.2110
  27   0.0000      -0.225212        -6.1283
  28   0.0000      -0.193117        -5.2550
  29   0.0000      -0.157327        -4.2811
  30   0.0000      -0.100509        -2.7350

MULLIKEN ATOMIC CHARGES AND SPIN POPULATIONS
--------------------------------------------
   0 C :   -0.067031   -0.066418
   1 C :   -0.013676    0.367577
   2 C :   -0.067028   -0.066418
   3 C :   -0.015248    0.084323
   4 C :   -0.029205    0.274511
   5 C :   -0.015243    0.084323
   6 H :    0.172028   -0.004978
   7 C :    0.352733   -0.103463
   8 C :   -0.252735    0.474145
   9 H :    0.216254   -0.023586
  10 H :    0.172028   -0.004978
  11 H :    0.179001    0.001290
  12 H :    0.189120   -0.017620
  13 H :    0.179001    0.001290
Sum of atomic charges         :    1.0000000

LOEWDIN ATOMIC CHARGES AND SPIN POPULATIONS
-------------------------------------------
   0 C :   -0.083695   -0.025215
   1 C :    0.028320    0.298561
   2 C :   -0.083695   -0.025215
   3 C :   -0.029293    0.084548
   4 C :    0.027581    0.208213
   5 C :   -0.029293    0.084549
   6 H :    0.173389   -0.002859
   7 C :    0.045510   -0.024052
   8 C :    0.051594    0.426616
   9 H :    0.207545   -0.014533
  10 H :    0.173388   -0.002859
  11 H :    0.172308    0.000537
  12 H :    0.174032   -0.008827
  13 H :    0.172308    0.000537

  Mayer bond orders larger than 0.100000
B(  0-C ,  1-C ) :   1.2678 B(  0-C ,  5-C ) :   1.5027 B(  0-C , 13-H ) :   0.9479
B(  1-C ,  2-C ) :   1.2678 B(  1-C , 12-H ) :   0.9426 B(  2-C ,  3-C ) :   1.5027
B(  2-C , 11-H ) :   0.9479 B(  3-C ,  4-C ) :   1.1763 B(  3-C , 10-H ) :   0.9520
B(  4-C ,  5-C ) :   1.1763 B(  4-C ,  7-C ) :   1.2471 B(  5-C ,  6-H ) :   0.9520
B(  7-C ,  8-C ) :   2.1830 B(  8-C ,  9-H ) :   0.9921

Dispersion correction           -0.012330551
FINAL SINGLE POINT ENERGY      -307.483438030649

DIPOLE MOMENT
-------------

Method             : SCF
Type of density    : Electron Density
Multiplicity       :   2
Irrep              :   0
Energy             :  -307.4711074797899641 Eh
Relativity type    :
Basis              : AO
                                X                 Y                 Z
Electronic contribution:     -2.617712602      -0.000006292       0.000003845
Nuclear contribution   :      2.200402781       0.000011219       0.000050647
                        -----------------------------------------
Total Dipole Moment    :     -0.417309820       0.000004926       0.000054491
                        -----------------------------------------
Magnitude (a.u.)       :      0.417309824
Magnitude (Debye)      :      1.060717276

VIBRATIONAL FREQUENCIES
-----------------------

Scaling factor for frequencies =  1.000000000  (already applied!)

     0:       0.00 cm**-1
     1:       0.00 cm**-1
     2:       0.00 cm**-1
     3:       0.00 cm**-1
     4:       0.00 cm**-1
     5:       0.00 cm**-1
     6:     118.19 cm**-1
     7:     152.13 cm**-1
     8:     327.68 cm**-1
     9:     364.41 cm**-1
    10:     468.01 cm**-1
    11:     484.90 cm**-1
    12:     528.54 cm**-1
    13:     580.82 cm**-1
    14:     648.00 cm**-1
    15:     702.99 cm**-1
    16:     738.26 cm**-1
    17:     774.48 cm**-1
    18:     812.64 cm**-1
    19:     827.03 cm**-1
    20:     986.68 cm**-1
    21:    1002.21 cm**-1
    22:    1020.93 cm**-1
    23:    1025.49 cm**-1
    24:    1045.89 cm**-1
    25:    1118.40 cm**-1
    26:    1171.15 cm**-1
    27:    1199.30 cm**-1
    28:    1288.08 cm**-1
    29:    1312.00 cm**-1
    30:    1411.90 cm**-1
    31:    1477.16 cm**-1
    32:    1490.86 cm**-1
    33:    1557.43 cm**-1
    34:    1687.39 cm**-1
    35:    2128.97 cm**-1
    36:    3222.61 cm**-1
    37:    3232.25 cm**-1
    38:    3235.08 cm**-1
    39:    3243.84 cm**-1
    40:    3246.20 cm**-1
    41:    3420.25 cm**-1

IR SPECTRUM
-----------

 Mode   freq       eps      Int      T**2         TX        TY        TZ
       cm**-1   L/(mol*cm) km/mol    a.u.
----------------------------------------------------------------------------
  6:    118.19   0.000854    4.32  0.002255  (-0.000005 -0.000001 -0.047492)
  7:    152.13   0.000803    4.06  0.001648  ( 0.000003  0.040594 -0.000001)
  8:    327.68   0.000747    3.77  0.000711  (-0.000010 -0.000000 -0.026664)
  9:    364.41   0.000000    0.00  0.000000  (-0.000001 -0.000000 -0.000001)
 10:    468.01   0.000162    0.82  0.000108  ( 0.010395 -0.000000 -0.000001)
 11:    484.90   0.000536    2.71  0.000345  ( 0.000007  0.000000  0.018567)
 12:    528.54   0.000522    2.64  0.000308  ( 0.000003 -0.017555 -0.000001)
 13:    580.82   0.001058    5.35  0.000568  ( 0.000001 -0.023839  0.000002)
 14:    648.00   0.006683   33.78  0.003219  (-0.000001  0.000000  0.056733)
 15:    702.99   0.007118   35.97  0.003160  ( 0.000000 -0.056213 -0.000002)
 16:    738.26   0.003947   19.95  0.001669  ( 0.000017 -0.000003  0.040848)
 17:    774.48   0.001196    6.05  0.000482  (-0.021954  0.000001  0.000013)
 18:    812.64   0.006999   35.37  0.002688  ( 0.000000  0.000000  0.051841)
 19:    827.03   0.000000    0.00  0.000000  ( 0.000001  0.000000  0.000006)
 20:    986.68   0.000837    4.23  0.000265  ( 0.000006 -0.000001  0.016266)
 21:   1002.21   0.001460    7.38  0.000455  (-0.021321  0.000000  0.000002)
 22:   1020.93   0.004228   21.37  0.001292  (-0.035949  0.000001  0.000001)
 23:   1025.49   0.000000    0.00  0.000000  (-0.000001 -0.000002  0.000001)
 24:   1045.89   0.000158    0.80  0.000047  (-0.000004  0.000000  0.006874)
 25:   1118.40   0.002138   10.80  0.000596  (-0.000001  0.024423  0.000000)
 26:   1171.15   0.000698    3.53  0.000186  ( 0.000001  0.013634  0.000000)
 27:   1199.30   0.001777    8.98  0.000462  ( 0.021504  0.000001 -0.000001)
 28:   1288.08   0.000809    4.09  0.000196  ( 0.014003  0.000000 -0.000000)
 29:   1312.00   0.000028    0.14  0.000007  ( 0.000001  0.002558 -0.000000)
 30:   1411.90   0.000218    1.10  0.000048  (-0.000001 -0.006934  0.000000)
 31:   1477.16   0.009731   49.18  0.002056  ( 0.000007 -0.045340  0.000000)
 32:   1490.86   0.013832   69.90  0.002895  (-0.053807 -0.000005  0.000000)
 33:   1557.43   0.005004   25.29  0.001003  ( 0.000001  0.031665 -0.000000)
 34:   1687.39   0.032668  165.09  0.006042  (-0.077727  0.000000  0.000002)
 35:   2128.97   0.078611  397.27  0.011523  (-0.107344  0.000000  0.000004)
 36:   3222.61   0.000018    0.09  0.000002  ( 0.001314  0.000001 -0.000000)
 37:   3232.25   0.000000    0.00  0.000000  (-0.000014  0.000079 -0.000000)
 38:   3235.08   0.001417    7.16  0.000137  ( 0.011690 -0.000011 -0.000000)
 39:   3243.84   0.003505   17.71  0.000337  (-0.000013 -0.018362  0.000000)
 40:   3246.20   0.000171    0.86  0.000016  ( 0.004054 -0.000025 -0.000000)
 41:   3420.25   0.021626  109.29  0.001973  ( 0.044420 -0.000000 -0.000004)

--------------------------
THERMOCHEMISTRY AT 298.15K
--------------------------

Temperature         ...   298.15 K
Pressure            ...     1.00 atm
Total Mass          ...   102.14 AMU
Quasi RRHO          ...     True
Cut-Off Frequency   ...     1.00 cm^-1

Throughout the following assumptions are being made:
  (1) The electronic state is orbitally nondegenerate
      but the spin degeneracy is treated
  (2) There are no thermally accessible electronically excited states
  (3) Hindered rotations indicated by low frequency modes are not
      treated as such but are treated as vibrations and this may
      cause some error
  (4) All equations used are the standard statistical mechanics
      equations for an ideal gas
  (5) All vibrations are strictly harmonic

freq.     118.19  E(vib)   ...       0.44
freq.     152.13  E(vib)   ...       0.40
freq.     327.68  E(vib)   ...       0.24
freq.     364.41  E(vib)   ...       0.22
freq.     468.01  E(vib)   ...       0.16
freq.     484.90  E(vib)   ...       0.15
freq.     528.54  E(vib)   ...       0.13
freq.     580.82  E(vib)   ...       0.11
freq.     648.00  E(vib)   ...       0.08
freq.     702.99  E(vib)   ...       0.07
freq.     738.26  E(vib)   ...       0.06
freq.     774.48  E(vib)   ...       0.05
freq.     812.64  E(vib)   ...       0.05
freq.     827.03  E(vib)   ...       0.04
freq.     986.68  E(vib)   ...       0.02
freq.    1002.21  E(vib)   ...       0.02
freq.    1020.93  E(vib)   ...       0.02
freq.    1025.49  E(vib)   ...       0.02
freq.    1045.89  E(vib)   ...       0.02
freq.    1118.40  E(vib)   ...       0.01
freq.    1171.15  E(vib)   ...       0.01
freq.    1199.30  E(vib)   ...       0.01
freq.    1288.08  E(vib)   ...       0.01
freq.    1312.00  E(vib)   ...       0.01
freq.    1411.90  E(vib)   ...       0.00
freq.    1477.16  E(vib)   ...       0.00
freq.    1490.86  E(vib)   ...       0.00
freq.    1557.43  E(vib)   ...       0.00
freq.    1687.39  E(vib)   ...       0.00
freq.    2128.97  E(vib)   ...       0.00
freq.    3222.61  E(vib)   ...       0.00
freq.    3232.25  E(vib)   ...       0.00
freq.    3235.08  E(vib)   ...       0.00
freq.    3243.84  E(vib)   ...       0.00
freq.    3246.20  E(vib)   ...       0.00
freq.    3420.25  E(vib)   ...       0.00

------------
INNER ENERGY
------------

The inner energy is: U= E(el) + E(ZPE) + E(vib) + E(rot) + E(trans)
    E(el)   - is the total energy from the electronic structure calculation
              = E(kin-el) + E(nuc-el) + E(el-el) + E(nuc-nuc)
    E(ZPE)  - the the zero temperature vibrational energy from the frequency calculation
    E(vib)  - the the finite temperature correction to E(ZPE) due to population
              of excited vibrational states
    E(rot)  - is the rotational thermal energy
    E(trans)- is the translational thermal energy

Summary of contributions to the inner energy U:
Electronic energy                ...   -307.48343803 Eh
Zero point energy                ...      0.10947089 Eh      68.69 kcal/mol
Thermal vibrational correction   ...      0.00378728 Eh       2.38 kcal/mol
Thermal rotational correction    ...      0.00141627 Eh       0.89 kcal/mol
Thermal translational correction ...      0.00141627 Eh       0.89 kcal/mol
-----------------------------------------------------------------------
Total thermal energy                   -307.36734732 Eh

Summary of corrections to the electronic energy:
(perhaps to be used in another calculation)
Total thermal correction                  0.00661982 Eh       4.15 kcal/mol
Non-thermal (ZPE) correction              0.10947089 Eh      68.69 kcal/mol
-----------------------------------------------------------------------
Total correction                          0.11609071 Eh      72.85 kcal/mol

--------
ENTHALPY
--------

The enthalpy is H = U + kB*T
                kB is Boltzmann's constant
Total thermal energy              ...   -307.36734732 Eh
Thermal Enthalpy correction       ...      0.00094421 Eh       0.59 kcal/mol
-----------------------------------------------------------------------
Total Enthalpy                    ...   -307.36640311 Eh

Note: Rotational entropy computed according to Herzberg
Infrared and Raman Spectra, Chapter V,1, Van Nostrand Reinhold, 1945
Point Group:  Cs, Symmetry Number:   1
Rotational constants in cm-1:     0.181347     0.051878     0.040338

Vibrational entropy computed according to the QRRHO of S. Grimme
Chem.Eur.J. 2012 18 9955 using a reference frequency of 100.0 cm-1

-------
ENTROPY
-------

The entropy contributions are T*S = T*(S(el)+S(vib)+S(rot)+S(trans))
     S(el)   - electronic entropy
     S(vib)  - vibrational entropy
     S(rot)  - rotational entropy
     S(trans)- translational entropy
The entropies will be listed as multiplied by the temperature to get
units of energy

Electronic entropy                ...      0.00065446 Eh      0.41 kcal/mol
Vibrational entropy               ...      0.00605543 Eh      3.80 kcal/mol
Rotational entropy                ...      0.01322931 Eh      8.30 kcal/mol
Translational entropy             ...      0.01890118 Eh     11.86 kcal/mol
-----------------------------------------------------------------------
Final entropy term                ...      0.03884037 Eh     24.37 kcal/mol

In case the symmetry of your molecule has not been determined correctly
or in case you have a reason to use a different symmetry number we print
out the resulting rotational entropy values for sn=1,12:

 non-linear molecules -----------------------------------
|  sn= 1 | S(rot)=       0.01322931 Eh      8.30 kcal/mol|
|  sn= 2 | S(rot)=       0.01257485 Eh      7.89 kcal/mol|
|  sn= 3 | S(rot)=       0.01219202 Eh      7.65 kcal/mol|
|  sn= 4 | S(rot)=       0.01192039 Eh      7.48 kcal/mol|
|  sn= 5 | S(rot)=       0.01170970 Eh      7.35 kcal/mol|
|  sn= 6 | S(rot)=       0.01153756 Eh      7.24 kcal/mol|
|  sn= 7 | S(rot)=       0.01139201 Eh      7.15 kcal/mol|
|  sn= 8 | S(rot)=       0.01126594 Eh      7.07 kcal/mol|
|  sn= 9 | S(rot)=       0.01115473 Eh      7.00 kcal/mol|
|  sn=10 | S(rot)=       0.01105525 Eh      6.94 kcal/mol|
|  sn=11 | S(rot)=       0.01096526 Eh      6.88 kcal/mol|
|  sn=12 | S(rot)=       0.01088310 Eh      6.83 kcal/mol|
 linear molecules ---------------------------------------
|  Dinfh | S(rot)=       0.00835705 Eh      5.24 kcal/mol|
|  Cinfv | S(rot)=       0.00901151 Eh      5.65 kcal/mol|
 --------------------------------------------------------

-------------------
GIBBS FREE ENERGY
-------------------

The Gibbs free energy is G = H - T*S

Total enthalpy                    ...   -307.36640311 Eh
Total entropy correction          ...     -0.03884037 Eh    -24.37 kcal/mol
-----------------------------------------------------------------------
Final Gibbs free energy         ...   -307.40524348 Eh

                             ****ORCA TERMINATED NORMALLY****
TOTAL RUN TIME: 0 days 0 hours 6 minutes 23 seconds 71 msec
