                         Program Version 6.0.0  -   RELEASE  -
|  1> !PBE0 def2-SV(p) Opt Freq d3 TightSCF SlowConv RIJCOSX defgrid2
|  2>
|  3> %pal
|  4> nprocs 4
|  5> end
|  6>
|  7> %scf
|  8> MaxIter 1500
|  9> end
| 10>
| 11> %maxcore 3000
| 12>
| 13>
| 14>
| 15> * xyz 0 1
| 16> C     0.9598074   -1.2860604    0.0000014
| 17> C     2.3172642   -1.0231095   -0.0000115
| 18> C     2.7718827    0.2860194    0.0000003
| 19> C     1.8627189    1.3342555    0.0000206
| 20> C     0.5059571    1.0777975    0.0000306
| 21> C     0.0377828   -0.2384593    0.0000233
| 22> C    -1.3817753   -0.5381215    0.0000349
| 23> N    -2.2513140    0.3868830    0.0000250
| 24> O    -3.5766365   -0.0351658    0.0000273
| 25> H    -4.0924935    0.7875723    0.0000126
| 26> H    -1.6713570   -1.5918409    0.0000619
| 27> H    -0.2121464    1.8818752    0.0000402
| 28> H     2.2167049    2.3543487   -0.0000008
| 29> H     3.8321773    0.4896761   -0.0000302
| 30> H     3.0227289   -1.8407267   -0.0000342
| 31> H     0.6063929   -2.3075419    0.0000060
| 32> *
| 33>
| 34>                          ****END OF INPUT****
 Total Charge           Charge          ....    0
 Multiplicity           Mult            ....    1
 Number of Electrons    NEL             ....   64
Dispersion correction           -0.013882360
FINAL SINGLE POINT ENERGY      -400.110333833633
Dispersion correction             ... done (  0.1 sec)
Dispersion correction           -0.013837302
FINAL SINGLE POINT ENERGY      -400.113032482270
Dispersion correction             ... done (  0.1 sec)
Dispersion correction           -0.013823879
FINAL SINGLE POINT ENERGY      -400.113115270673
Dispersion correction             ... done (  0.1 sec)
Dispersion correction           -0.013821683
FINAL SINGLE POINT ENERGY      -400.113135618723
Dispersion correction             ... done (  0.1 sec)
Dispersion correction           -0.013822783
FINAL SINGLE POINT ENERGY      -400.113139164724
Dispersion correction             ... done (  0.1 sec)
                    ***********************HURRAY********************

CARTESIAN COORDINATES (ANGSTROEM)
---------------------------------
  C      0.949683   -1.279937    0.000007
  C      2.320726   -1.030665   -0.000006
  C      2.790455    0.281263   -0.000006
  C      1.881295    1.343201    0.000006
  C      0.514149    1.096903    0.000020
  C      0.031248   -0.221864    0.000020
  C     -1.401097   -0.518116    0.000028
  N     -2.277226    0.409837    0.000032
  O     -3.549436   -0.078929    0.000036
  H     -4.106996    0.712694    0.000040
  H     -1.720771   -1.572478    0.000026
  H     -0.205180    1.919615    0.000029
  H      2.246658    2.374568    0.000003
  H      3.866372    0.479474   -0.000016
  H      3.025945   -1.867045   -0.000016
  H      0.581870   -2.311120    0.000005

 Multiplicity           Mult            ....    1
 Number of Electrons    NEL             ....   64
 Basis Dimension        Dim             ....  140

ORBITAL ENERGIES
----------------

  NO   OCC          E(Eh)            E(eV)
   0   2.0000     -19.252523      -523.8878
   1   2.0000     -14.440491      -392.9457
   2   2.0000     -10.265870      -279.3485
   3   2.0000     -10.251825      -278.9663
   4   2.0000     -10.243002      -278.7262
   5   2.0000     -10.241398      -278.6826
   6   2.0000     -10.240942      -278.6702
   7   2.0000     -10.240154      -278.6488
   8   2.0000     -10.238122      -278.5935
   9   2.0000      -1.122235       -30.5376
  10   2.0000      -0.899483       -24.4762
  11   2.0000      -0.866841       -23.5879
  12   2.0000      -0.773649       -21.0521
  13   2.0000      -0.765590       -20.8328
  14   2.0000      -0.656953       -17.8766
  15   2.0000      -0.627647       -17.0792
  16   2.0000      -0.587681       -15.9916
  17   2.0000      -0.550932       -14.9916
  18   2.0000      -0.532814       -14.4986
  19   2.0000      -0.487432       -13.2637
  20   2.0000      -0.471650       -12.8342
  21   2.0000      -0.454444       -12.3661
  22   2.0000      -0.443438       -12.0666
  23   2.0000      -0.438587       -11.9345
  24   2.0000      -0.428962       -11.6726
  25   2.0000      -0.392151       -10.6710
  26   2.0000      -0.368235       -10.0202
  27   2.0000      -0.359961        -9.7950
  28   2.0000      -0.311353        -8.4724
  29   2.0000      -0.292263        -7.9529
  30   2.0000      -0.271653        -7.3921
  31   2.0000      -0.240949        -6.5566
  32   0.0000      -0.042063        -1.1446
  33   0.0000      -0.005951        -0.1619
  34   0.0000       0.053405         1.4532
  35   0.0000       0.065935         1.7942
  36   0.0000       0.075913         2.0657

MULLIKEN ATOMIC CHARGES
-----------------------
   0 C :   -0.138254
   1 C :   -0.088658
   2 C :   -0.090814
   3 C :   -0.085686
   4 C :   -0.117413
   5 C :    0.063792
   6 C :   -0.069961
   7 N :   -0.030734
   8 O :   -0.371806
   9 H :    0.339318
  10 H :    0.096318
  11 H :    0.104015
  12 H :    0.099011
  13 H :    0.100158
  14 H :    0.098681
  15 H :    0.092032
Sum of atomic charges:    0.0000000

LOEWDIN ATOMIC CHARGES
----------------------
   0 C :   -0.117461
   1 C :   -0.126864
   2 C :   -0.124801
   3 C :   -0.124461
   4 C :   -0.104079
   5 C :   -0.060279
   6 C :   -0.108332
   7 N :   -0.033048
   8 O :   -0.267488
   9 H :    0.295638
  10 H :    0.114546
  11 H :    0.135801
  12 H :    0.130604
  13 H :    0.130197
  14 H :    0.130663
  15 H :    0.129364

  Mayer bond orders larger than 0.100000
B(  0-C ,  1-C ) :   1.3929 B(  0-C ,  5-C ) :   1.3680 B(  0-C , 15-H ) :   0.9611
B(  1-C ,  2-C ) :   1.4029 B(  1-C , 14-H ) :   0.9622 B(  2-C ,  3-C ) :   1.3695
B(  2-C , 13-H ) :   0.9630 B(  3-C ,  4-C ) :   1.4065 B(  3-C , 12-H ) :   0.9637
B(  4-C ,  5-C ) :   1.3723 B(  4-C , 11-H ) :   0.9532 B(  5-C ,  6-C ) :   1.0512
B(  6-C ,  7-N ) :   1.8915 B(  6-C , 10-H ) :   0.9312 B(  7-N ,  8-O ) :   0.9893
B(  8-O ,  9-H ) :   0.8439

Dispersion correction           -0.013823529
FINAL SINGLE POINT ENERGY      -400.113139610041

DIPOLE MOMENT
-------------

Method             : SCF
Type of density    : Electron Density
Multiplicity       :   1
Irrep              :   0
Energy             :  -400.0993160810607492 Eh
Relativity type    :
Basis              : AO
                                X                 Y                 Z
Electronic contribution:     -3.329482565       0.341739607       0.000033160
Nuclear contribution   :      3.386800554      -0.260850522      -0.000035535
                        -----------------------------------------
Total Dipole Moment    :      0.057317988       0.080889085      -0.000002375
                        -----------------------------------------
Magnitude (a.u.)       :      0.099138267
Magnitude (Debye)      :      0.251989448

VIBRATIONAL FREQUENCIES
-----------------------

Scaling factor for frequencies =  1.000000000  (already applied!)

     0:       0.00 cm**-1
     1:       0.00 cm**-1
     2:       0.00 cm**-1
     3:       0.00 cm**-1
     4:       0.00 cm**-1
     5:       0.00 cm**-1
     6:      92.21 cm**-1
     7:     154.43 cm**-1
     8:     163.92 cm**-1
     9:     314.29 cm**-1
    10:     382.64 cm**-1
    11:     417.52 cm**-1
    12:     444.69 cm**-1
    13:     469.24 cm**-1
    14:     534.58 cm**-1
    15:     630.36 cm**-1
    16:     661.01 cm**-1
    17:     719.03 cm**-1
    18:     787.24 cm**-1
    19:     867.65 cm**-1
    20:     894.25 cm**-1
    21:     943.27 cm**-1
    22:     987.66 cm**-1
    23:    1004.34 cm**-1
    24:    1019.03 cm**-1
    25:    1027.52 cm**-1
    26:    1061.33 cm**-1
    27:    1085.04 cm**-1
    28:    1113.81 cm**-1
    29:    1172.94 cm**-1
    30:    1190.77 cm**-1
    31:    1254.39 cm**-1
    32:    1320.79 cm**-1
    33:    1343.23 cm**-1
    34:    1407.01 cm**-1
    35:    1476.50 cm**-1
    36:    1499.85 cm**-1
    37:    1554.29 cm**-1
    38:    1667.09 cm**-1
    39:    1696.82 cm**-1
    40:    1760.94 cm**-1
    41:    3124.42 cm**-1
    42:    3190.38 cm**-1
    43:    3198.50 cm**-1
    44:    3208.68 cm**-1
    45:    3219.78 cm**-1
    46:    3228.58 cm**-1
    47:    3736.82 cm**-1

IR SPECTRUM
-----------

 Mode   freq       eps      Int      T**2         TX        TY        TZ
       cm**-1   L/(mol*cm) km/mol    a.u.
----------------------------------------------------------------------------
  6:     92.21   0.000158    0.80  0.000535  (-0.000001  0.000002 -0.023141)
  7:    154.43   0.000268    1.36  0.000542  ( 0.021177 -0.009661  0.000001)
  8:    163.92   0.000005    0.03  0.000010  (-0.000001 -0.000000 -0.003177)
  9:    314.29   0.000020    0.10  0.000020  (-0.000000  0.000000  0.004480)
 10:    382.64   0.000213    1.08  0.000174  ( 0.010630  0.007795 -0.000003)
 11:    417.52   0.000276    1.40  0.000206  ( 0.000000 -0.000001  0.014366)
 12:    444.69   0.000476    2.41  0.000334  (-0.015055  0.010363 -0.000006)
 13:    469.24   0.028707  145.07  0.019091  ( 0.000000 -0.000000 -0.138172)
 14:    534.58   0.001279    6.47  0.000747  (-0.000000 -0.000001 -0.027329)
 15:    630.36   0.000004    0.02  0.000002  ( 0.001391 -0.000099  0.000001)
 16:    661.01   0.005021   25.37  0.002370  ( 0.047965  0.008347  0.000000)
 17:    719.03   0.008242   41.65  0.003577  ( 0.000000  0.000000  0.059810)
 18:    787.24   0.004336   21.91  0.001719  ( 0.000001 -0.000001  0.041458)
 19:    867.65   0.000008    0.04  0.000003  ( 0.000000  0.000000 -0.001731)
 20:    894.25   0.003337   16.87  0.001165  (-0.032735 -0.009646  0.000000)
 21:    943.27   0.000016    0.08  0.000005  ( 0.000000  0.000000 -0.002297)
 22:    987.66   0.002269   11.46  0.000717  ( 0.000002 -0.000000  0.026773)
 23:   1004.34   0.000005    0.03  0.000002  (-0.000001 -0.000000  0.001287)
 24:   1019.03   0.000049    0.25  0.000015  ( 0.003802 -0.000740 -0.000000)
 25:   1027.52   0.000119    0.60  0.000036  (-0.000000  0.000000  0.006013)
 26:   1061.33   0.002420   12.23  0.000712  (-0.026671  0.000424  0.000001)
 27:   1085.04   0.037868  191.37  0.010891  (-0.101406  0.024652  0.000001)
 28:   1113.81   0.008667   43.80  0.002428  ( 0.048362  0.009459 -0.000000)
 29:   1172.94   0.000003    0.02  0.000001  ( 0.000905  0.000176 -0.000000)
 30:   1190.77   0.000113    0.57  0.000030  (-0.005435  0.000057  0.000000)
 31:   1254.39   0.005563   28.11  0.001384  ( 0.036427 -0.007552 -0.000000)
 32:   1320.79   0.017343   87.64  0.004098  (-0.059828 -0.022765  0.000000)
 33:   1343.23   0.000443    2.24  0.000103  ( 0.009840 -0.002466 -0.000000)
 34:   1407.01   0.000169    0.85  0.000037  ( 0.005783  0.001984  0.000000)
 35:   1476.50   0.005091   25.73  0.001076  ( 0.032430 -0.004931 -0.000000)
 36:   1499.85   0.002248   11.36  0.000468  (-0.010256 -0.019039 -0.000000)
 37:   1554.29   0.002741   13.85  0.000550  ( 0.023457  0.000385 -0.000000)
 38:   1667.09   0.000113    0.57  0.000021  ( 0.002217 -0.004032  0.000000)
 39:   1696.82   0.000144    0.73  0.000027  (-0.005129  0.000481  0.000000)
 40:   1760.94   0.000468    2.37  0.000083  (-0.007818 -0.004679 -0.000000)
 41:   3124.42   0.003313   16.74  0.000331  (-0.011372 -0.014198  0.000000)
 42:   3190.38   0.000824    4.16  0.000081  ( 0.006693  0.005981 -0.000000)
 43:   3198.50   0.000113    0.57  0.000011  ( 0.003314  0.000008 -0.000000)
 44:   3208.68   0.002792   14.11  0.000272  (-0.003475 -0.016107 -0.000000)
 45:   3219.78   0.002273   11.49  0.000220  (-0.013946  0.005081  0.000000)
 46:   3228.58   0.000711    3.59  0.000069  ( 0.005768  0.005951 -0.000000)
 47:   3736.82   0.031600  159.69  0.002639  ( 0.044785 -0.025163 -0.000000)

--------------------------
THERMOCHEMISTRY AT 298.15K
--------------------------

Temperature         ...   298.15 K
Pressure            ...     1.00 atm
Total Mass          ...   121.14 AMU
Quasi RRHO          ...     True
Cut-Off Frequency   ...     1.00 cm^-1

Throughout the following assumptions are being made:
  (1) The electronic state is orbitally nondegenerate
  (2) There are no thermally accessible electronically excited states
  (3) Hindered rotations indicated by low frequency modes are not
      treated as such but are treated as vibrations and this may
      cause some error
  (4) All equations used are the standard statistical mechanics
      equations for an ideal gas
  (5) All vibrations are strictly harmonic

freq.      92.21  E(vib)   ...       0.47
freq.     154.43  E(vib)   ...       0.40
freq.     163.92  E(vib)   ...       0.39
freq.     314.29  E(vib)   ...       0.25
freq.     382.64  E(vib)   ...       0.20
freq.     417.52  E(vib)   ...       0.18
freq.     444.69  E(vib)   ...       0.17
freq.     469.24  E(vib)   ...       0.16
freq.     534.58  E(vib)   ...       0.13
freq.     630.36  E(vib)   ...       0.09
freq.     661.01  E(vib)   ...       0.08
freq.     719.03  E(vib)   ...       0.07
freq.     787.24  E(vib)   ...       0.05
freq.     867.65  E(vib)   ...       0.04
freq.     894.25  E(vib)   ...       0.03
freq.     943.27  E(vib)   ...       0.03
freq.     987.66  E(vib)   ...       0.02
freq.    1004.34  E(vib)   ...       0.02
freq.    1019.03  E(vib)   ...       0.02
freq.    1027.52  E(vib)   ...       0.02
freq.    1061.33  E(vib)   ...       0.02
freq.    1085.04  E(vib)   ...       0.02
freq.    1113.81  E(vib)   ...       0.01
freq.    1172.94  E(vib)   ...       0.01
freq.    1190.77  E(vib)   ...       0.01
freq.    1254.39  E(vib)   ...       0.01
freq.    1320.79  E(vib)   ...       0.01
freq.    1343.23  E(vib)   ...       0.01
freq.    1407.01  E(vib)   ...       0.00
freq.    1476.50  E(vib)   ...       0.00
freq.    1499.85  E(vib)   ...       0.00
freq.    1554.29  E(vib)   ...       0.00
freq.    1667.09  E(vib)   ...       0.00
freq.    1696.82  E(vib)   ...       0.00
freq.    1760.94  E(vib)   ...       0.00
freq.    3124.42  E(vib)   ...       0.00
freq.    3190.38  E(vib)   ...       0.00
freq.    3198.50  E(vib)   ...       0.00
freq.    3208.68  E(vib)   ...       0.00
freq.    3219.78  E(vib)   ...       0.00
freq.    3228.58  E(vib)   ...       0.00
freq.    3736.82  E(vib)   ...       0.00

------------
INNER ENERGY
------------

The inner energy is: U= E(el) + E(ZPE) + E(vib) + E(rot) + E(trans)
    E(el)   - is the total energy from the electronic structure calculation
              = E(kin-el) + E(nuc-el) + E(el-el) + E(nuc-nuc)
    E(ZPE)  - the the zero temperature vibrational energy from the frequency calculation
    E(vib)  - the the finite temperature correction to E(ZPE) due to population
              of excited vibrational states
    E(rot)  - is the rotational thermal energy
    E(trans)- is the translational thermal energy

Summary of contributions to the inner energy U:
Electronic energy                ...   -400.11313961 Eh
Zero point energy                ...      0.12763852 Eh      80.09 kcal/mol
Thermal vibrational correction   ...      0.00468392 Eh       2.94 kcal/mol
Thermal rotational correction    ...      0.00141627 Eh       0.89 kcal/mol
Thermal translational correction ...      0.00141627 Eh       0.89 kcal/mol
-----------------------------------------------------------------------
Total thermal energy                   -399.97798463 Eh

Summary of corrections to the electronic energy:
(perhaps to be used in another calculation)
Total thermal correction                  0.00751646 Eh       4.72 kcal/mol
Non-thermal (ZPE) correction              0.12763852 Eh      80.09 kcal/mol
-----------------------------------------------------------------------
Total correction                          0.13515498 Eh      84.81 kcal/mol

--------
ENTHALPY
--------

The enthalpy is H = U + kB*T
                kB is Boltzmann's constant
Total thermal energy              ...   -399.97798463 Eh
Thermal Enthalpy correction       ...      0.00094421 Eh       0.59 kcal/mol
-----------------------------------------------------------------------
Total Enthalpy                    ...   -399.97704042 Eh

Note: Rotational entropy computed according to Herzberg
Infrared and Raman Spectra, Chapter V,1, Van Nostrand Reinhold, 1945
Point Group:  Cs, Symmetry Number:   1
Rotational constants in cm-1:     0.173273     0.029980     0.025558

Vibrational entropy computed according to the QRRHO of S. Grimme
Chem.Eur.J. 2012 18 9955 using a reference frequency of 100.0 cm-1

-------
ENTROPY
-------

The entropy contributions are T*S = T*(S(el)+S(vib)+S(rot)+S(trans))
     S(el)   - electronic entropy
     S(vib)  - vibrational entropy
     S(rot)  - rotational entropy
     S(trans)- translational entropy
The entropies will be listed as multiplied by the temperature to get
units of energy

Electronic entropy                ...      0.00000000 Eh      0.00 kcal/mol
Vibrational entropy               ...      0.00768670 Eh      4.82 kcal/mol
Rotational entropy                ...      0.01372512 Eh      8.61 kcal/mol
Translational entropy             ...      0.01914284 Eh     12.01 kcal/mol
-----------------------------------------------------------------------
Final entropy term                ...      0.04055467 Eh     25.45 kcal/mol

In case the symmetry of your molecule has not been determined correctly
or in case you have a reason to use a different symmetry number we print
out the resulting rotational entropy values for sn=1,12:

 non-linear molecules -----------------------------------
|  sn= 1 | S(rot)=       0.01372512 Eh      8.61 kcal/mol|
|  sn= 2 | S(rot)=       0.01307067 Eh      8.20 kcal/mol|
|  sn= 3 | S(rot)=       0.01268784 Eh      7.96 kcal/mol|
|  sn= 4 | S(rot)=       0.01241621 Eh      7.79 kcal/mol|
|  sn= 5 | S(rot)=       0.01220552 Eh      7.66 kcal/mol|
|  sn= 6 | S(rot)=       0.01203338 Eh      7.55 kcal/mol|
|  sn= 7 | S(rot)=       0.01188783 Eh      7.46 kcal/mol|
|  sn= 8 | S(rot)=       0.01176176 Eh      7.38 kcal/mol|
|  sn= 9 | S(rot)=       0.01165055 Eh      7.31 kcal/mol|
|  sn=10 | S(rot)=       0.01155107 Eh      7.25 kcal/mol|
|  sn=11 | S(rot)=       0.01146108 Eh      7.19 kcal/mol|
|  sn=12 | S(rot)=       0.01137892 Eh      7.14 kcal/mol|
 linear molecules ---------------------------------------
|  Dinfh | S(rot)=       0.00878794 Eh      5.51 kcal/mol|
|  Cinfv | S(rot)=       0.00944239 Eh      5.93 kcal/mol|
 --------------------------------------------------------

-------------------
GIBBS FREE ENERGY
-------------------

The Gibbs free energy is G = H - T*S

                             ****ORCA TERMINATED NORMALLY****
TOTAL RUN TIME: 0 days 1 hours 13 minutes 44 seconds 11 msec
