                         Program Version 6.0.0  -   RELEASE  -
|  1> !B3LYP aug-cc-pVTZ d3 TightSCF SlowConv RIJCOSX defgrid2
|  2>
|  3> %pal
|  4> nprocs 4
|  5> end
|  6>
|  7> %scf
|  8> MaxIter 1500
|  9> end
| 10>
| 11> %maxcore 3000
| 12>
| 13> !CPCM
| 14> %cpcm smd true
| 15> SMDsolvent "MeCN"
| 16> surfacetype gepol_ses
| 17> rsolv 2.19
| 18> end
| 19>
| 20> * xyz 1 2
| 21> C           1.23906097821424     -1.40551070901350     -0.00000531617187
| 22> C           2.45015803140750     -0.67322429285633     -0.00000921567554
| 23> C           2.42811091171597      0.71268482354482     -0.00001568112958
| 24> C           1.19571143634270      1.39424054969992     -0.00001075953318
| 25> C          -0.03981045812169      0.67829020396443      0.00000284784769
| 26> N          -1.17332230996389      1.38563715697618      0.00000321346217
| 27> C          -2.32918806881659      0.72347909408816      0.00002389103772
| 28> C          -2.42077579021744     -0.67559967987832      0.00002275899277
| 29> C          -1.24727430719380     -1.42666779167592      0.00001979178345
| 30> C          -0.01202551197153     -0.74717299874334      0.00001126438315
| 31> H          -1.27875276164831     -2.52070410881391      0.00003141451029
| 32> H          -3.39973883027065     -1.16186770315986      0.00002731924985
| 33> H          -3.23745148992936      1.33696404502357      0.00004224395057
| 34> H           1.14599213399064      2.48703198107260     -0.00001815853916
| 35> H           3.36241847162623      1.28070852836563     -0.00003089393792
| 36> H           3.40229793543149     -1.21093180244413     -0.00001262742469
| 37> H           1.27044702940448     -2.50010749615001     -0.00001669280572
| 38> *
| 39>
| 40>                          ****END OF INPUT****

CARTESIAN COORDINATES (ANGSTROEM)
---------------------------------
  C      1.239061   -1.405511   -0.000005
  C      2.450158   -0.673224   -0.000009
  C      2.428111    0.712685   -0.000016
  C      1.195711    1.394241   -0.000011
  C     -0.039810    0.678290    0.000003
  N     -1.173322    1.385637    0.000003
  C     -2.329188    0.723479    0.000024
  C     -2.420776   -0.675600    0.000023
  C     -1.247274   -1.426668    0.000020
  C     -0.012026   -0.747173    0.000011
  H     -1.278753   -2.520704    0.000031
  H     -3.399739   -1.161868    0.000027
  H     -3.237451    1.336964    0.000042
  H      1.145992    2.487032   -0.000018
  H      3.362418    1.280709   -0.000031
  H      3.402298   -1.210932   -0.000013
  H      1.270447   -2.500107   -0.000017

 Total Charge           Charge          ....    1
 Multiplicity           Mult            ....    2
 Number of Electrons    NEL             ....   67
 Basis Dimension        Dim             ....  621

ORBITAL ENERGIES
----------------
                 SPIN UP ORBITALS
  NO   OCC          E(Eh)            E(eV)
   0   1.0000     -14.361337      -390.7918
   1   1.0000     -10.255826      -279.0752
   2   1.0000     -10.254625      -279.0425
   3   1.0000     -10.251240      -278.9504
   4   1.0000     -10.246761      -278.8285
   5   1.0000     -10.238263      -278.5973
   6   1.0000     -10.233346      -278.4635
   7   1.0000     -10.230475      -278.3854
   8   1.0000     -10.229115      -278.3484
   9   1.0000     -10.220620      -278.1172
  10   1.0000      -0.992010       -26.9940
  11   1.0000      -0.898335       -24.4449
  12   1.0000      -0.848557       -23.0904
  13   1.0000      -0.794994       -21.6329
  14   1.0000      -0.786461       -21.4007
  15   1.0000      -0.685733       -18.6597
  16   1.0000      -0.668704       -18.1964
  17   1.0000      -0.643792       -17.5185
  18   1.0000      -0.565468       -15.3872
  19   1.0000      -0.551257       -15.0005
  20   1.0000      -0.543065       -14.7775
  21   1.0000      -0.491443       -13.3728
  22   1.0000      -0.478847       -13.0301
  23   1.0000      -0.468394       -12.7457
  24   1.0000      -0.459831       -12.5126
  25   1.0000      -0.439124       -11.9492
  26   1.0000      -0.434696       -11.8287
  27   1.0000      -0.401432       -10.9235
  28   1.0000      -0.392090       -10.6693
  29   1.0000      -0.386956       -10.5296
  30   1.0000      -0.355158        -9.6643
  31   1.0000      -0.301618        -8.2074
  32   1.0000      -0.293982        -7.9997
  33   1.0000      -0.287284        -7.8174
  34   0.0000      -0.112521        -3.0619
  35   0.0000      -0.056867        -1.5474
  36   0.0000      -0.040237        -1.0949
  37   0.0000      -0.006716        -0.1828
  38   0.0000       0.004700         0.1279

                 SPIN DOWN ORBITALS
  NO   OCC          E(Eh)            E(eV)
   0   1.0000     -14.358426      -390.7126
   1   1.0000     -10.255273      -279.0602
   2   1.0000     -10.250862      -278.9401
   3   1.0000     -10.246942      -278.8335
   4   1.0000     -10.245758      -278.8012
   5   1.0000     -10.236455      -278.5481
   6   1.0000     -10.232089      -278.4293
   7   1.0000     -10.231259      -278.4067
   8   1.0000     -10.229081      -278.3475
   9   1.0000     -10.219748      -278.0935
  10   1.0000      -0.987234       -26.8640
  11   1.0000      -0.890448       -24.2303
  12   1.0000      -0.842832       -22.9346
  13   1.0000      -0.793384       -21.5891
  14   1.0000      -0.773345       -21.0438
  15   1.0000      -0.682026       -18.5589
  16   1.0000      -0.665040       -18.0967
  17   1.0000      -0.638997       -17.3880
  18   1.0000      -0.561921       -15.2906
  19   1.0000      -0.548470       -14.9246
  20   1.0000      -0.540803       -14.7160
  21   1.0000      -0.490831       -13.3562
  22   1.0000      -0.475598       -12.9417
  23   1.0000      -0.465455       -12.6657
  24   1.0000      -0.447592       -12.1796
  25   1.0000      -0.436819       -11.8865
  26   1.0000      -0.433547       -11.7974
  27   1.0000      -0.399733       -10.8773
  28   1.0000      -0.384591       -10.4652
  29   1.0000      -0.370479       -10.0812
  30   1.0000      -0.332302        -9.0424
  31   1.0000      -0.298763        -8.1297
  32   1.0000      -0.292703        -7.9648
  33   0.0000      -0.213657        -5.8139
  34   0.0000      -0.089158        -2.4261
  35   0.0000      -0.049017        -1.3338
  36   0.0000      -0.023016        -0.6263
  37   0.0000      -0.006466        -0.1759

MULLIKEN ATOMIC CHARGES AND SPIN POPULATIONS
--------------------------------------------
   0 C :   -0.806258    0.336858
   1 C :   -0.420523    0.078200
   2 C :   -0.154327   -0.000924
   3 C :   -0.815378    0.364355
   4 C :    0.686524   -0.019032
   5 N :   -0.686164    0.137084
   6 C :   -0.421072   -0.024084
   7 C :   -0.252279    0.056985
   8 C :   -0.863189    0.127346
   9 C :    1.695258   -0.049954
  10 H :    0.475434   -0.001155
  11 H :    0.266886   -0.000238
  12 H :    0.588762    0.004612
  13 H :    0.459333   -0.005305
  14 H :    0.493354   -0.001905
  15 H :    0.632514    0.000608
  16 H :    0.121123   -0.003449
Sum of atomic charges         :    1.0000000

LOEWDIN ATOMIC CHARGES AND SPIN POPULATIONS
-------------------------------------------
   0 C :    0.326240    0.186302
   1 C :    0.294931    0.105075
   2 C :    0.287537    0.079337
   3 C :    0.312986    0.193977
   4 C :   -0.278956    0.048710
   5 N :    0.420806    0.092294
   6 C :    0.081389    0.026529
   7 C :    0.279296    0.052028
   8 C :    0.292252    0.069839
   9 C :   -0.079162    0.038099
  10 H :   -0.122383    0.011535
  11 H :   -0.142465    0.007508
  12 H :   -0.156843   -0.000187
  13 H :   -0.128706    0.037920
  14 H :   -0.136824    0.003450
  15 H :   -0.134129    0.012219
  16 H :   -0.115969    0.035366

  Mayer bond orders larger than 0.100000
B(  0-C ,  1-C ) :   1.0796 B(  0-C ,  2-C ) :  -0.2063 B(  0-C ,  4-C ) :  -0.6246
B(  0-C ,  8-C ) :   0.3702 B(  0-C ,  9-C ) :   0.3553 B(  0-C , 15-H ) :  -0.1579
B(  0-C , 16-H ) :   1.3795 B(  1-C ,  2-C ) :   1.1528 B(  1-C ,  3-C ) :   0.1364
B(  1-C ,  9-C ) :   0.1221 B(  1-C , 15-H ) :   0.3473 B(  2-C ,  3-C ) :   1.1420
B(  2-C ,  4-C ) :  -0.1755 B(  2-C ,  7-C ) :   0.1129 B(  2-C ,  8-C ) :   0.1585
B(  2-C ,  9-C ) :  -0.1624 B(  2-C , 14-H ) :   0.6104 B(  3-C ,  4-C ) :   0.6959
B(  3-C ,  5-N ) :   0.2495 B(  3-C ,  9-C ) :   0.2814 B(  3-C , 13-H ) :   0.4519
B(  4-C ,  6-C ) :   0.2603 B(  4-C ,  8-C ) :   0.6373 B(  4-C ,  9-C ) :   0.7039
B(  5-N ,  6-C ) :   1.5857 B(  6-C ,  7-C ) :   0.8790 B(  6-C ,  8-C ) :   0.2966
B(  6-C ,  9-C ) :  -0.4539 B(  6-C , 12-H ) :   0.4304 B(  7-C ,  8-C ) :   1.1106
B(  7-C ,  9-C ) :  -0.3092 B(  7-C , 11-H ) :   1.0003 B(  8-C ,  9-C ) :  -0.1271
B(  8-C , 10-H ) :   0.5920 B(  9-C , 10-H ) :   0.1107 B(  9-C , 12-H ) :   0.1146

Dispersion correction           -0.034306116
FINAL SINGLE POINT ENERGY      -401.641553292746

DIPOLE MOMENT
-------------

Method             : SCF
Type of density    : Electron Density
Multiplicity       :   2
Irrep              :   0
Energy             :  -401.6072471766402714 Eh
Relativity type    :
Basis              : AO
                                X                 Y                 Z
Electronic contribution:     -0.252304580       0.725471995      -0.000163034
Nuclear contribution   :      1.179405862      -2.142414994      -0.000006417
                        -----------------------------------------
Total Dipole Moment    :      0.927101282      -1.416942999      -0.000169451
                        -----------------------------------------
Magnitude (a.u.)       :      1.693293914
Magnitude (Debye)      :      4.304011084

Rotational constants in cm-1:             0.105894             0.041940             0.030042
Rotational constants in MHz :          3174.630600          1257.322564           900.626549

                             ****ORCA TERMINATED NORMALLY****
TOTAL RUN TIME: 0 days 0 hours 7 minutes 23 seconds 915 msec
