                         Program Version 6.0.0  -   RELEASE  -
|  1> !r2SCAN freq aug-cc-pVTZ d3 TightSCF SlowConv RIJCOSX defgrid2
|  2>
|  3> %pal
|  4> nprocs 12
|  5> end
|  6>
|  7> %scf
|  8> MaxIter 1500
|  9> end
| 10>
| 11> %maxcore 5000
| 12>
| 13> !CPCM
| 14> %cpcm smd true
| 15> SMDsolvent "MeCN"
| 16> surfacetype gepol_ses
| 17> rsolv 2.19
| 18> end
| 19>
| 20> * xyz 0 1
| 21>   C          -0.32987278842760      0.79830267427866      0.00081839026524
| 22>   C          -1.62055917908104      0.26314339989446     -0.00016380319915
| 23>   C          -1.80322407439920     -1.11927398865001      0.00064025791572
| 24>   C          -0.67535688345481     -1.94232972967717      0.00284584833516
| 25>   C           0.60567690015529     -1.41959378211321      0.00387673526415
| 26>   C           0.79691591997142     -0.02570839675581      0.00247250865607
| 27>   C           2.11719101143251      0.60547665441997      0.00298362409041
| 28>   C           3.30469640396330     -0.01249832033419     -0.00289059214141
| 29>   C           4.61664826036234      0.68911379399660     -0.00177774205338
| 30>   H           5.20855546092013      0.41172839894732     -0.88024534788406
| 31>   H           5.21362878816700      0.39848577451481      0.86895533716678
| 32>   H           4.49678436363597      1.77356771415288      0.00665679363807
| 33>   H           3.34841623785307     -1.09918004156649     -0.00934198618924
| 34>   H           2.10487292602547      1.69427457590357      0.00809219523073
| 35>   H           1.45504531282964     -2.09087816885837      0.00652815048029
| 36>   H          -0.81428646415558     -3.01768651776413      0.00425860224160
| 37>   H          -2.79084833075003     -1.55821763854730     -0.00056750462947
| 38>   O          -2.63198821888867      1.17019481891093     -0.00184369381849
| 39>   C          -3.96635037828972      0.66253132544297     -0.00232564571620
| 40>   H          -4.61496661283847      1.53532726794642     -0.00317330230806
| 41>   H          -4.15967102950254      0.06416507592397      0.89166548672298
| 42>   H          -4.15851465592430      0.06343448355595     -0.89601426782759
| 43>   H          -0.21562876960417      1.87698362637817     -0.00019544424014
| 44> *
| 45>
| 46>                          ****END OF INPUT****

CARTESIAN COORDINATES (ANGSTROEM)
---------------------------------
  C     -0.329873    0.798303    0.000818
  C     -1.620559    0.263143   -0.000164
  C     -1.803224   -1.119274    0.000640
  C     -0.675357   -1.942330    0.002846
  C      0.605677   -1.419594    0.003877
  C      0.796916   -0.025708    0.002473
  C      2.117191    0.605477    0.002984
  C      3.304696   -0.012498   -0.002891
  C      4.616648    0.689114   -0.001778
  H      5.208555    0.411728   -0.880245
  H      5.213629    0.398486    0.868955
  H      4.496784    1.773568    0.006657
  H      3.348416   -1.099180   -0.009342
  H      2.104873    1.694275    0.008092
  H      1.455045   -2.090878    0.006528
  H     -0.814286   -3.017687    0.004259
  H     -2.790848   -1.558218   -0.000568
  O     -2.631988    1.170195   -0.001844
  C     -3.966350    0.662531   -0.002326
  H     -4.614967    1.535327   -0.003173
  H     -4.159671    0.064165    0.891665
  H     -4.158515    0.063434   -0.896014
  H     -0.215629    1.876984   -0.000195

 Total Charge           Charge          ....    0
 Multiplicity           Mult            ....    1
 Number of Electrons    NEL             ....   80
 Basis Dimension        Dim             ....  782

ORBITAL ENERGIES
----------------

  NO   OCC          E(Eh)            E(eV)
   0   2.0000     -18.989527      -516.7313
   1   2.0000     -10.098047      -274.7818
   2   2.0000     -10.074813      -274.1496
   3   2.0000     -10.051718      -273.5211
   4   2.0000     -10.039443      -273.1871
   5   2.0000     -10.038475      -273.1608
   6   2.0000     -10.033042      -273.0130
   7   2.0000     -10.032861      -273.0080
   8   2.0000     -10.032204      -272.9902
   9   2.0000     -10.029518      -272.9171
  10   2.0000     -10.023638      -272.7571
  11   2.0000      -1.030869       -28.0514
  12   2.0000      -0.825436       -22.4613
  13   2.0000      -0.766858       -20.8673
  14   2.0000      -0.723101       -19.6766
  15   2.0000      -0.716897       -19.5078
  16   2.0000      -0.658847       -17.9281
  17   2.0000      -0.646495       -17.5920
  18   2.0000      -0.572888       -15.5891
  19   2.0000      -0.567048       -15.4302
  20   2.0000      -0.516425       -14.0527
  21   2.0000      -0.490048       -13.3349
  22   2.0000      -0.453419       -12.3382
  23   2.0000      -0.446467       -12.1490
  24   2.0000      -0.430729       -11.7207
  25   2.0000      -0.427452       -11.6315
  26   2.0000      -0.398714       -10.8496
  27   2.0000      -0.385695       -10.4953
  28   2.0000      -0.378936       -10.3114
  29   2.0000      -0.365827        -9.9547
  30   2.0000      -0.357124        -9.7178
  31   2.0000      -0.352732        -9.5983
  32   2.0000      -0.335953        -9.1417
  33   2.0000      -0.320279        -8.7152
  34   2.0000      -0.311797        -8.4844
  35   2.0000      -0.304665        -8.2904
  36   2.0000      -0.292676        -7.9641
  37   2.0000      -0.269213        -7.3257
  38   2.0000      -0.212528        -5.7832
  39   2.0000      -0.199304        -5.4233
  40   0.0000      -0.058710        -1.5976
  41   0.0000      -0.030379        -0.8266
  42   0.0000       0.007187         0.1956
  43   0.0000       0.018532         0.5043
  44   0.0000       0.020962         0.5704

MULLIKEN ATOMIC CHARGES
-----------------------
   0 C :   -1.185587
   1 C :    0.881096
   2 C :    0.006659
   3 C :   -0.951318
   4 C :   -0.544911
   5 C :    2.089004
   6 C :   -0.133310
   7 C :   -0.192955
   8 C :   -0.788565
   9 H :    0.154900
  10 H :    0.156815
  11 H :    0.246241
  12 H :    0.066401
  13 H :   -0.133151
  14 H :    0.114067
  15 H :    0.437095
  16 H :    0.222037
  17 O :   -0.609767
  18 C :   -0.619838
  19 H :    0.218607
  20 H :    0.249442
  21 H :    0.248553
  22 H :    0.068487
Sum of atomic charges:   -0.0000000

LOEWDIN ATOMIC CHARGES
----------------------
   0 C :    0.208417
   1 C :   -0.402117
   2 C :    0.202789
   3 C :    0.189575
   4 C :    0.200459
   5 C :   -0.159728
   6 C :    0.205207
   7 C :    0.208435
   8 C :    0.566476
   9 H :   -0.169603
  10 H :   -0.169673
  11 H :   -0.179102
  12 H :   -0.189774
  13 H :   -0.190400
  14 H :   -0.196088
  15 H :   -0.176739
  16 H :   -0.202475
  17 O :    0.596090
  18 C :    0.358787
  19 H :   -0.179333
  20 H :   -0.171639
  21 H :   -0.171680
  22 H :   -0.177883

  Mayer bond orders larger than 0.100000
B(  0-C ,  1-C ) :   0.5397 B(  0-C ,  4-C ) :  -0.2832 B(  0-C ,  5-C ) :  -0.1948
B(  0-C ,  6-C ) :  -0.1709 B(  0-C ,  7-C ) :   0.2283 B(  0-C , 17-O ) :   0.3174
B(  0-C , 22-H ) :   1.2734 B(  1-C ,  2-C ) :   0.9563 B(  1-C ,  4-C ) :  -0.2389
B(  1-C , 17-O ) :   0.1708 B(  1-C , 18-C ) :   0.1163 B(  1-C , 22-H ) :  -0.1229
B(  2-C ,  3-C ) :   0.8107 B(  2-C , 16-H ) :   0.9779 B(  2-C , 17-O ) :  -0.2226
B(  2-C , 18-C ) :  -0.1805 B(  3-C ,  4-C ) :   0.8830 B(  3-C ,  5-C ) :  -0.1593
B(  3-C ,  6-C ) :   0.1200 B(  3-C ,  7-C ) :  -0.1414 B(  3-C , 14-H ) :  -0.1557
B(  3-C , 15-H ) :   0.5512 B(  4-C ,  5-C ) :   0.2930 B(  4-C , 14-H ) :   1.1501
B(  5-C ,  7-C ) :  -0.1868 B(  5-C ,  8-C ) :   0.1181 B(  5-C , 12-H ) :  -0.2188
B(  5-C , 13-H ) :  -0.1375 B(  5-C , 14-H ) :  -0.1405 B(  5-C , 17-O ) :   0.1299
B(  5-C , 22-H ) :  -0.1550 B(  6-C ,  7-C ) :   0.9217 B(  6-C , 13-H ) :   1.4331
B(  6-C , 22-H ) :  -0.1024 B(  7-C ,  8-C ) :   0.4796 B(  7-C , 12-H ) :   1.4883
B(  7-C , 13-H ) :  -0.1952 B(  8-C ,  9-H ) :   1.0793 B(  8-C , 10-H ) :   1.0768
B(  8-C , 11-H ) :   0.9444 B(  8-C , 12-H ) :  -0.1754 B( 16-H , 18-C ) :  -0.1495
B( 17-O , 18-C ) :   0.9795 B( 18-C , 19-H ) :   0.9836 B( 18-C , 20-H ) :   0.9340
B( 18-C , 21-H ) :   0.9348

Dispersion correction           -0.006994420
FINAL SINGLE POINT ENERGY      -463.406384556927

DIPOLE MOMENT
-------------

Method             : SCF
Type of density    : Electron Density
Multiplicity       :   1
Irrep              :   0
Energy             :  -463.3993901366292789 Eh
Relativity type    :
Basis              : AO
                                X                 Y                 Z
Electronic contribution:     -5.071050733      -0.339516983       0.005191165
Nuclear contribution   :      4.752184428       0.009214282      -0.006616308
                        -----------------------------------------
Total Dipole Moment    :     -0.318866305      -0.330302701      -0.001425143
                        -----------------------------------------
Magnitude (a.u.)       :      0.459105245
Magnitude (Debye)      :      1.166952793

VIBRATIONAL FREQUENCIES
-----------------------

Scaling factor for frequencies =  1.000000000  (already applied!)

     0:       0.00 cm**-1
     1:       0.00 cm**-1
     2:       0.00 cm**-1
     3:       0.00 cm**-1
     4:       0.00 cm**-1
     5:       0.00 cm**-1
     6:     -35.20 cm**-1 ***imaginary mode***
     7:      80.37 cm**-1
     8:     124.36 cm**-1
     9:     127.36 cm**-1
    10:     197.81 cm**-1
    11:     205.25 cm**-1
    12:     257.87 cm**-1
    13:     265.77 cm**-1
    14:     295.80 cm**-1
    15:     333.74 cm**-1
    16:     366.24 cm**-1
    17:     459.58 cm**-1
    18:     481.38 cm**-1
    19:     578.37 cm**-1
    20:     607.77 cm**-1
    21:     635.53 cm**-1
    22:     697.98 cm**-1
    23:     768.53 cm**-1
    24:     775.73 cm**-1
    25:     816.41 cm**-1
    26:     871.08 cm**-1
    27:     886.53 cm**-1
    28:     894.53 cm**-1
    29:     965.24 cm**-1
    30:     978.58 cm**-1
    31:     994.64 cm**-1
    32:    1005.60 cm**-1
    33:    1053.91 cm**-1
    34:    1054.86 cm**-1
    35:    1109.59 cm**-1
    36:    1123.30 cm**-1
    37:    1159.99 cm**-1
    38:    1168.61 cm**-1
    39:    1188.05 cm**-1
    40:    1207.76 cm**-1
    41:    1279.71 cm**-1
    42:    1308.59 cm**-1
    43:    1316.75 cm**-1
    44:    1336.07 cm**-1
    45:    1381.51 cm**-1
    46:    1385.02 cm**-1
    47:    1445.59 cm**-1
    48:    1446.51 cm**-1
    49:    1459.16 cm**-1
    50:    1467.41 cm**-1
    51:    1471.44 cm**-1
    52:    1479.53 cm**-1
    53:    1514.42 cm**-1
    54:    1601.45 cm**-1
    55:    1632.71 cm**-1
    56:    1692.58 cm**-1
    57:    3003.68 cm**-1
    58:    3012.00 cm**-1
    59:    3052.42 cm**-1
    60:    3083.09 cm**-1
    61:    3097.22 cm**-1
    62:    3108.27 cm**-1
    63:    3128.41 cm**-1
    64:    3143.16 cm**-1
    65:    3160.60 cm**-1
    66:    3162.58 cm**-1
    67:    3182.85 cm**-1
    68:    3205.83 cm**-1

IR SPECTRUM
-----------

 Mode   freq       eps      Int      T**2         TX        TY        TZ
       cm**-1   L/(mol*cm) km/mol    a.u.
----------------------------------------------------------------------------
  7:     80.37   0.001714    8.66  0.006655  (-0.000292 -0.000551 -0.081573)
  8:    124.36   0.000475    2.40  0.001193  (-0.023544  0.025269 -0.000189)
  9:    127.36   0.000129    0.65  0.000317  (-0.000299  0.000176 -0.017795)
 10:    197.81   0.000143    0.72  0.000226  (-0.000213 -0.000081  0.015017)
 11:    205.25   0.000281    1.42  0.000428  (-0.000397  0.000505 -0.020677)
 12:    257.87   0.000615    3.11  0.000744  (-0.005151 -0.026771 -0.000743)
 13:    265.77   0.000120    0.60  0.000140  ( 0.000343  0.001478 -0.011753)
 14:    295.80   0.000020    0.10  0.000022  (-0.000222 -0.000045  0.004636)
 15:    333.74   0.000088    0.44  0.000082  ( 0.008068  0.004092 -0.000007)
 16:    366.24   0.000300    1.51  0.000255  ( 0.015606 -0.003433  0.000110)
 17:    459.58   0.001443    7.29  0.000980  ( 0.000030  0.000118 -0.031301)
 18:    481.38   0.000297    1.50  0.000192  (-0.008976 -0.010563  0.000246)
 19:    578.37   0.003087   15.60  0.001666  ( 0.025882 -0.031554 -0.000222)
 20:    607.77   0.000110    0.55  0.000056  ( 0.000164 -0.000019  0.007506)
 21:    635.53   0.000351    1.77  0.000172  (-0.007876 -0.010501 -0.000042)
 22:    697.98   0.009260   46.80  0.004140  ( 0.000207  0.000083  0.064345)
 23:    768.53   0.002504   12.66  0.001017  (-0.028849  0.013527 -0.001270)
 24:    775.73   0.017240   87.13  0.006935  (-0.000287  0.000546  0.083277)
 25:    816.41   0.000464    2.35  0.000178  (-0.000010 -0.000150  0.013323)
 26:    871.08   0.001849    9.34  0.000662  ( 0.000706  0.000037  0.025728)
 27:    886.53   0.004704   23.77  0.001656  ( 0.000590  0.000193 -0.040689)
 28:    894.53   0.010100   51.04  0.003523  (-0.050013  0.031969 -0.000179)
 29:    965.24   0.011509   58.16  0.003721  (-0.060679 -0.006207  0.000460)
 30:    978.58   0.000954    4.82  0.000304  (-0.000705 -0.000308  0.017422)
 31:    994.64   0.017176   86.80  0.005389  ( 0.000445 -0.000555  0.073407)
 32:   1005.60   0.000601    3.04  0.000187  ( 0.003072 -0.013305 -0.000315)
 33:   1053.91   0.000084    0.42  0.000025  ( 0.001080 -0.000068 -0.004858)
 34:   1054.86   0.025500  128.87  0.007544  ( 0.086564  0.007091  0.000053)
 35:   1109.59   0.002433   12.30  0.000684  ( 0.006169  0.025420  0.000171)
 36:   1123.30   0.000417    2.11  0.000116  ( 0.007489 -0.007732  0.000105)
 37:   1159.99   0.000194    0.98  0.000052  ( 0.001972 -0.000850  0.006907)
 38:   1168.61   0.021260  107.44  0.005677  (-0.071741  0.023033  0.000182)
 39:   1188.05   0.001658    8.38  0.000435  ( 0.019671 -0.006960 -0.000052)
 40:   1207.76   0.003737   18.88  0.000966  ( 0.026387 -0.016409  0.000123)
 41:   1279.71   0.062975  318.25  0.015357  ( 0.111264 -0.054560  0.000080)
 42:   1308.59   0.003400   17.18  0.000811  (-0.027233  0.008318 -0.000094)
 43:   1316.75   0.001396    7.05  0.000331  (-0.012917  0.012806 -0.000077)
 44:   1336.07   0.001488    7.52  0.000348  ( 0.016347 -0.008965 -0.000032)
 45:   1381.51   0.004393   22.20  0.000992  (-0.029789  0.010239 -0.000250)
 46:   1385.02   0.003833   19.37  0.000864  (-0.029387  0.000148  0.000227)
 47:   1445.59   0.017655   89.22  0.003811  (-0.051787  0.032634 -0.008022)
 48:   1446.51   0.004891   24.72  0.001055  (-0.017703  0.010652  0.025065)
 49:   1459.16   0.000189    0.96  0.000040  ( 0.005906 -0.002268  0.000660)
 50:   1467.41   0.002874   14.53  0.000611  ( 0.002954 -0.000959  0.024528)
 51:   1471.44   0.000683    3.45  0.000145  ( 0.011413 -0.000605 -0.003766)
 52:   1479.53   0.003620   18.30  0.000764  (-0.018549  0.020481  0.000241)
 53:   1514.42   0.019973  100.94  0.004116  (-0.060552  0.021195  0.000057)
 54:   1601.45   0.032724  165.38  0.006377  ( 0.053705 -0.059097  0.000028)
 55:   1632.71   0.034907  176.41  0.006672  (-0.081648 -0.002350 -0.000003)
 56:   1692.58   0.004458   22.53  0.000822  (-0.028502 -0.003107 -0.000004)
 57:   3003.68   0.010118   51.13  0.001051  ( 0.031702  0.006795  0.000049)
 58:   3012.00   0.015943   80.57  0.001652  (-0.039623 -0.009041  0.000039)
 59:   3052.42   0.004743   23.97  0.000485  ( 0.000130 -0.000088  0.022020)
 60:   3083.09   0.010501   53.07  0.001063  (-0.000096 -0.000155 -0.032601)
 61:   3097.22   0.004431   22.39  0.000446  (-0.002688  0.020957  0.000176)
 62:   3108.27   0.005150   26.03  0.000517  ( 0.011575  0.019572  0.000108)
 63:   3128.41   0.010399   52.55  0.001037  (-0.002665 -0.032097 -0.000157)
 64:   3143.16   0.005603   28.32  0.000556  (-0.012284  0.020135 -0.000001)
 65:   3160.60   0.004465   22.56  0.000441  ( 0.005826  0.020172  0.000033)
 66:   3162.58   0.001161    5.87  0.000115  ( 0.005763 -0.009019 -0.000052)
 67:   3182.85   0.004516   22.82  0.000443  (-0.009513  0.018770  0.000000)
 68:   3205.83   0.000851    4.30  0.000083  ( 0.007881  0.004549 -0.000043)

--------------------------
THERMOCHEMISTRY AT 298.15K
--------------------------

Temperature         ...   298.15 K
Pressure            ...     1.00 atm
Total Mass          ...   148.21 AMU
Quasi RRHO          ...     True
Cut-Off Frequency   ...     1.00 cm^-1

Throughout the following assumptions are being made:
  (1) The electronic state is orbitally nondegenerate
  (2) There are no thermally accessible electronically excited states
  (3) Hindered rotations indicated by low frequency modes are not
      treated as such but are treated as vibrations and this may
      cause some error
  (4) All equations used are the standard statistical mechanics
      equations for an ideal gas
  (5) All vibrations are strictly harmonic

freq.      80.37  E(vib)   ...       0.49
freq.     124.36  E(vib)   ...       0.43
freq.     127.36  E(vib)   ...       0.43
freq.     197.81  E(vib)   ...       0.35
freq.     205.25  E(vib)   ...       0.35
freq.     257.87  E(vib)   ...       0.30
freq.     265.77  E(vib)   ...       0.29
freq.     295.80  E(vib)   ...       0.27
freq.     333.74  E(vib)   ...       0.24
freq.     366.24  E(vib)   ...       0.22
freq.     459.58  E(vib)   ...       0.16
freq.     481.38  E(vib)   ...       0.15
freq.     578.37  E(vib)   ...       0.11
freq.     607.77  E(vib)   ...       0.10
freq.     635.53  E(vib)   ...       0.09
freq.     697.98  E(vib)   ...       0.07
freq.     768.53  E(vib)   ...       0.06
freq.     775.73  E(vib)   ...       0.05
freq.     816.41  E(vib)   ...       0.05
freq.     871.08  E(vib)   ...       0.04
freq.     886.53  E(vib)   ...       0.04
freq.     894.53  E(vib)   ...       0.03
freq.     965.24  E(vib)   ...       0.03
freq.     978.58  E(vib)   ...       0.03
freq.     994.64  E(vib)   ...       0.02
freq.    1005.60  E(vib)   ...       0.02
freq.    1053.91  E(vib)   ...       0.02
freq.    1054.86  E(vib)   ...       0.02
freq.    1109.59  E(vib)   ...       0.02
freq.    1123.30  E(vib)   ...       0.01
freq.    1159.99  E(vib)   ...       0.01
freq.    1168.61  E(vib)   ...       0.01
freq.    1188.05  E(vib)   ...       0.01
freq.    1207.76  E(vib)   ...       0.01
freq.    1279.71  E(vib)   ...       0.01
freq.    1308.59  E(vib)   ...       0.01
freq.    1316.75  E(vib)   ...       0.01
freq.    1336.07  E(vib)   ...       0.01
freq.    1381.51  E(vib)   ...       0.01
freq.    1385.02  E(vib)   ...       0.00
freq.    1445.59  E(vib)   ...       0.00
freq.    1446.51  E(vib)   ...       0.00
freq.    1459.16  E(vib)   ...       0.00
freq.    1467.41  E(vib)   ...       0.00
freq.    1471.44  E(vib)   ...       0.00
freq.    1479.53  E(vib)   ...       0.00
freq.    1514.42  E(vib)   ...       0.00
freq.    1601.45  E(vib)   ...       0.00
freq.    1632.71  E(vib)   ...       0.00
freq.    1692.58  E(vib)   ...       0.00
freq.    3003.68  E(vib)   ...       0.00
freq.    3012.00  E(vib)   ...       0.00
freq.    3052.42  E(vib)   ...       0.00
freq.    3083.09  E(vib)   ...       0.00
freq.    3097.22  E(vib)   ...       0.00
freq.    3108.27  E(vib)   ...       0.00
freq.    3128.41  E(vib)   ...       0.00
freq.    3143.16  E(vib)   ...       0.00
freq.    3160.60  E(vib)   ...       0.00
freq.    3162.58  E(vib)   ...       0.00
freq.    3182.85  E(vib)   ...       0.00
freq.    3205.83  E(vib)   ...       0.00

------------
INNER ENERGY
------------

The inner energy is: U= E(el) + E(ZPE) + E(vib) + E(rot) + E(trans)
    E(el)   - is the total energy from the electronic structure calculation
              = E(kin-el) + E(nuc-el) + E(el-el) + E(nuc-nuc)
    E(ZPE)  - the the zero temperature vibrational energy from the frequency calculation
    E(vib)  - the the finite temperature correction to E(ZPE) due to population
              of excited vibrational states
    E(rot)  - is the rotational thermal energy
    E(trans)- is the translational thermal energy

Summary of contributions to the inner energy U:
Electronic energy                ...   -463.40638456 Eh
Zero point energy                ...      0.19204201 Eh     120.51 kcal/mol
Thermal vibrational correction   ...      0.00728936 Eh       4.57 kcal/mol
Thermal rotational correction    ...      0.00141627 Eh       0.89 kcal/mol
Thermal translational correction ...      0.00141627 Eh       0.89 kcal/mol
-----------------------------------------------------------------------
Total thermal energy                   -463.20422064 Eh

Summary of corrections to the electronic energy:
(perhaps to be used in another calculation)
Total thermal correction                  0.01012190 Eh       6.35 kcal/mol
Non-thermal (ZPE) correction              0.19204201 Eh     120.51 kcal/mol
-----------------------------------------------------------------------
Total correction                          0.20216391 Eh     126.86 kcal/mol

--------
ENTHALPY
--------

The enthalpy is H = U + kB*T
                kB is Boltzmann's constant
Total thermal energy              ...   -463.20422064 Eh
Thermal Enthalpy correction       ...      0.00094421 Eh       0.59 kcal/mol
-----------------------------------------------------------------------
Total Enthalpy                    ...   -463.20327644 Eh

Note: Only C1 symmetry has been detected, increase convergence thresholds
      if your molecule has a higher symmetry. Symmetry factor of 1.0 is
      used for the rotational entropy correction.

Note: Rotational entropy computed according to Herzberg
Infrared and Raman Spectra, Chapter V,1, Van Nostrand Reinhold, 1945
Point Group:  C1, Symmetry Number:   1
Rotational constants in cm-1:     0.103371     0.017006     0.014683

Vibrational entropy computed according to the QRRHO of S. Grimme
Chem.Eur.J. 2012 18 9955 using a reference frequency of 100.0 cm-1

-------
ENTROPY
-------

The entropy contributions are T*S = T*(S(el)+S(vib)+S(rot)+S(trans))
     S(el)   - electronic entropy
     S(vib)  - vibrational entropy
     S(rot)  - rotational entropy
     S(trans)- translational entropy
The entropies will be listed as multiplied by the temperature to get
units of energy

Electronic entropy                ...      0.00000000 Eh      0.00 kcal/mol
Vibrational entropy               ...      0.01223941 Eh      7.68 kcal/mol
Rotational entropy                ...      0.01449830 Eh      9.10 kcal/mol
Translational entropy             ...      0.01942844 Eh     12.19 kcal/mol
-----------------------------------------------------------------------
Final entropy term                ...      0.04616615 Eh     28.97 kcal/mol

In case the symmetry of your molecule has not been determined correctly
or in case you have a reason to use a different symmetry number we print
out the resulting rotational entropy values for sn=1,12:

                             ****ORCA TERMINATED NORMALLY****
TOTAL RUN TIME: 0 days 0 hours 59 minutes 5 seconds 815 msec
