                         Program Version 6.0.0  -   RELEASE  -
|  1> !PBE0 def2-SV(p) Opt Freq d3 TightSCF SlowConv RIJCOSX defgrid2
|  2>
|  3> %pal
|  4> nprocs 4
|  5> end
|  6>
|  7> %scf
|  8> MaxIter 1500
|  9> end
| 10>
| 11> %maxcore 3000
| 12>
| 13>
| 14>
| 15> * xyz 1 2
| 16> C    -0.2219828   -1.2316154   -0.0396472
| 17> C     1.1469905   -1.2180563    0.0023081
| 18> C     1.8428378   -0.0000400    0.0234615
| 19> C     1.1470316    1.2180031    0.0023286
| 20> C    -0.2219356    1.2316049   -0.0396238
| 21> C    -0.9488081    0.0000069   -0.0613018
| 22> N    -2.2724318    0.0000702   -0.0991327
| 23> H    -2.7952623    0.8704387   -0.1145832
| 24> H    -2.7953392   -0.8703857   -0.1142745
| 25> H    -0.7646467    2.1645660   -0.0557144
| 26> H     1.6972366    2.1456883    0.0190441
| 27> H     2.9214271   -0.0000576    0.0560089
| 28> H     1.6971675   -2.1457588    0.0190044
| 29> H    -0.7647163   -2.1645643   -0.0557532
| 30> *
| 31>
| 32>                          ****END OF INPUT****
 Total Charge           Charge          ....    1
 Multiplicity           Mult            ....    2
 Number of Electrons    NEL             ....   49
Dispersion correction           -0.011467026
FINAL SINGLE POINT ENERGY      -286.775837952102
Dispersion correction             ... done (  0.1 sec)
Dispersion correction           -0.011429351
FINAL SINGLE POINT ENERGY      -286.776942816074
Dispersion correction             ... done (  0.1 sec)
Dispersion correction           -0.011427632
FINAL SINGLE POINT ENERGY      -286.776972290199
Dispersion correction             ... done (  0.1 sec)
Dispersion correction           -0.011427914
FINAL SINGLE POINT ENERGY      -286.776979977110
Dispersion correction             ... done (  0.1 sec)
Dispersion correction           -0.011428223
FINAL SINGLE POINT ENERGY      -286.776980582203
Dispersion correction             ... done (  0.1 sec)
                    ***********************HURRAY********************

CARTESIAN COORDINATES (ANGSTROEM)
---------------------------------
  C     -0.224285   -1.242134   -0.038500
  C      1.148008   -1.228701    0.002273
  C      1.845662   -0.000040    0.022970
  C      1.148050    1.228644    0.002271
  C     -0.224242    1.242130   -0.038509
  C     -0.940849    0.000010   -0.059893
  N     -2.269853    0.000031   -0.099793
  H     -2.801655    0.869975   -0.115912
  H     -2.801675   -0.869901   -0.115908
  H     -0.778902    2.184886   -0.055045
  H      1.703737    2.169806    0.018852
  H      2.938899   -0.000060    0.055501
  H      1.703659   -2.169881    0.018853
  H     -0.778986   -2.184864   -0.055034

 Multiplicity           Mult            ....    2
 Number of Electrons    NEL             ....   49
 Basis Dimension        Dim             ....  112

ORBITAL ENERGIES
----------------
                 SPIN UP ORBITALS
  NO   OCC          E(Eh)            E(eV)
   0   1.0000     -14.657747      -398.8576
   1   1.0000     -10.513509      -286.0871
   2   1.0000     -10.449227      -284.3379
   3   1.0000     -10.446781      -284.2714
   4   1.0000     -10.446772      -284.2711
   5   1.0000     -10.432150      -283.8732
   6   1.0000     -10.432142      -283.8730
   7   1.0000      -1.194188       -32.4955
   8   1.0000      -1.069519       -29.1031
   9   1.0000      -0.971647       -26.4399
  10   1.0000      -0.955027       -25.9876
  11   1.0000      -0.840821       -22.8799
  12   1.0000      -0.838439       -22.8151
  13   1.0000      -0.758384       -20.6367
  14   1.0000      -0.756708       -20.5911
  15   1.0000      -0.702271       -19.1098
  16   1.0000      -0.657872       -17.9016
  17   1.0000      -0.641681       -17.4610
  18   1.0000      -0.641408       -17.4536
  19   1.0000      -0.636702       -17.3255
  20   1.0000      -0.572764       -15.5857
  21   1.0000      -0.556208       -15.1352
  22   1.0000      -0.553220       -15.0539
  23   1.0000      -0.474634       -12.9155
  24   1.0000      -0.442675       -12.0458
  25   0.0000      -0.202787        -5.5181
  26   0.0000      -0.199052        -5.4165
  27   0.0000      -0.115856        -3.1526
  28   0.0000      -0.082564        -2.2467
  29   0.0000      -0.082211        -2.2371

                 SPIN DOWN ORBITALS
  NO   OCC          E(Eh)            E(eV)
   0   1.0000     -14.649312      -398.6280
   1   1.0000     -10.512610      -286.0627
   2   1.0000     -10.443248      -284.1752
   3   1.0000     -10.443238      -284.1749
   4   1.0000     -10.442395      -284.1520
   5   1.0000     -10.434099      -283.9263
   6   1.0000     -10.434095      -283.9262
   7   1.0000      -1.179792       -32.1038
   8   1.0000      -1.060500       -28.8577
   9   1.0000      -0.968002       -26.3407
  10   1.0000      -0.940083       -25.5809
  11   1.0000      -0.837341       -22.7852
  12   1.0000      -0.831114       -22.6158
  13   1.0000      -0.755504       -20.5583
  14   1.0000      -0.751332       -20.4448
  15   1.0000      -0.697268       -18.9736
  16   1.0000      -0.654247       -17.8030
  17   1.0000      -0.638737       -17.3809
  18   1.0000      -0.635937       -17.3047
  19   1.0000      -0.608385       -16.5550
  20   1.0000      -0.570344       -15.5198
  21   1.0000      -0.551390       -15.0041
  22   1.0000      -0.519444       -14.1348
  23   1.0000      -0.465212       -12.6591
  24   0.0000      -0.338449        -9.2097
  25   0.0000      -0.185740        -5.0542
  26   0.0000      -0.170477        -4.6389
  27   0.0000      -0.112018        -3.0482
  28   0.0000      -0.081187        -2.2092

MULLIKEN ATOMIC CHARGES AND SPIN POPULATIONS
--------------------------------------------
   0 C :   -0.066660    0.238705
   1 C :   -0.085449   -0.158265
   2 C :   -0.018405    0.472875
   3 C :   -0.085452   -0.158265
   4 C :   -0.066660    0.238704
   5 C :    0.127128    0.067421
   6 N :   -0.281795    0.367591
   7 H :    0.322469   -0.015924
   8 H :    0.322469   -0.015924
   9 H :    0.152614   -0.012196
  10 H :    0.173543    0.005221
  11 H :    0.180044   -0.022967
  12 H :    0.173542    0.005221
  13 H :    0.152612   -0.012196
Sum of atomic charges         :    1.0000000

LOEWDIN ATOMIC CHARGES AND SPIN POPULATIONS
-------------------------------------------
   0 C :   -0.084464    0.197429
   1 C :   -0.078412   -0.083164
   2 C :   -0.009632    0.374810
   3 C :   -0.078412   -0.083163
   4 C :   -0.084464    0.197428
   5 C :    0.060418    0.086768
   6 N :   -0.128608    0.349317
   7 H :    0.283032   -0.010006
   8 H :    0.283031   -0.010006
   9 H :    0.163846   -0.006520
  10 H :    0.169771    0.002553
  11 H :    0.170276   -0.011478
  12 H :    0.169771    0.002553
  13 H :    0.163846   -0.006520

  Mayer bond orders larger than 0.100000
B(  0-C ,  1-C ) :   1.5298 B(  0-C ,  5-C ) :   1.1644 B(  0-C , 13-H ) :   0.9506
B(  1-C ,  2-C ) :   1.2711 B(  1-C , 12-H ) :   0.9467 B(  2-C ,  3-C ) :   1.2711
B(  2-C , 11-H ) :   0.9467 B(  3-C ,  4-C ) :   1.5298 B(  3-C , 10-H ) :   0.9467
B(  4-C ,  5-C ) :   1.1644 B(  4-C ,  9-H ) :   0.9506 B(  5-C ,  6-N ) :   1.4868
B(  6-N ,  7-H ) :   0.8414 B(  6-N ,  8-H ) :   0.8414

Dispersion correction           -0.011428278
FINAL SINGLE POINT ENERGY      -286.776980686880

DIPOLE MOMENT
-------------

Method             : SCF
Type of density    : Electron Density
Multiplicity       :   2
Irrep              :   0
Energy             :  -286.7655524090535550 Eh
Relativity type    :
Basis              : AO
                                X                 Y                 Z
Electronic contribution:     -0.390877269       0.000007479      -0.011336905
Nuclear contribution   :     -0.808315718       0.000012771      -0.024795382
                        -----------------------------------------
Total Dipole Moment    :     -1.199192987       0.000020250      -0.036132287
                        -----------------------------------------
Magnitude (a.u.)       :      1.199737205
Magnitude (Debye)      :      3.049489629

VIBRATIONAL FREQUENCIES
-----------------------

Scaling factor for frequencies =  1.000000000  (already applied!)

     0:       0.00 cm**-1
     1:       0.00 cm**-1
     2:       0.00 cm**-1
     3:       0.00 cm**-1
     4:       0.00 cm**-1
     5:       0.00 cm**-1
     6:     186.74 cm**-1
     7:     372.24 cm**-1
     8:     390.64 cm**-1
     9:     461.96 cm**-1
    10:     531.33 cm**-1
    11:     578.41 cm**-1
    12:     592.38 cm**-1
    13:     647.19 cm**-1
    14:     662.47 cm**-1
    15:     810.44 cm**-1
    16:     817.63 cm**-1
    17:     838.31 cm**-1
    18:     943.86 cm**-1
    19:     994.63 cm**-1
    20:    1012.24 cm**-1
    21:    1024.40 cm**-1
    22:    1031.61 cm**-1
    23:    1036.34 cm**-1
    24:    1133.47 cm**-1
    25:    1176.37 cm**-1
    26:    1200.36 cm**-1
    27:    1358.71 cm**-1
    28:    1413.96 cm**-1
    29:    1439.37 cm**-1
    30:    1498.34 cm**-1
    31:    1542.46 cm**-1
    32:    1579.05 cm**-1
    33:    1663.81 cm**-1
    34:    1691.27 cm**-1
    35:    3216.02 cm**-1
    36:    3216.40 cm**-1
    37:    3229.64 cm**-1
    38:    3238.18 cm**-1
    39:    3243.91 cm**-1
    40:    3503.91 cm**-1
    41:    3604.45 cm**-1

IR SPECTRUM
-----------

 Mode   freq       eps      Int      T**2         TX        TY        TZ
       cm**-1   L/(mol*cm) km/mol    a.u.
----------------------------------------------------------------------------
  6:    186.74   0.001582    7.99  0.002643  (-0.001578  0.000000  0.051387)
  7:    372.24   0.000000    0.00  0.000000  (-0.000000 -0.000153  0.000001)
  8:    390.64   0.000594    3.00  0.000474  ( 0.000001  0.021782 -0.000003)
  9:    461.96   0.002151   10.87  0.001453  ( 0.001127  0.000000 -0.038101)
 10:    531.33   0.000244    1.23  0.000143  ( 0.011956  0.000001  0.000431)
 11:    578.41   0.000000    0.00  0.000000  (-0.000001 -0.000008  0.000002)
 12:    592.38   0.000082    0.41  0.000043  (-0.000001  0.006576 -0.000002)
 13:    647.19   0.023682  119.68  0.011419  (-0.003275  0.000000  0.106810)
 14:    662.47   0.018074   91.34  0.008514  ( 0.002861 -0.000001 -0.092226)
 15:    810.44   0.010579   53.46  0.004073  (-0.001877 -0.000000  0.063796)
 16:    817.63   0.000000    0.00  0.000000  (-0.000000 -0.000016 -0.000003)
 17:    838.31   0.000031    0.15  0.000011  (-0.003367  0.000000 -0.000151)
 18:    943.86   0.001409    7.12  0.000466  ( 0.000652  0.000001 -0.021574)
 19:    994.63   0.000001    0.00  0.000000  ( 0.000458  0.000000  0.000023)
 20:   1012.24   0.000000    0.00  0.000000  (-0.000001 -0.000018 -0.000002)
 21:   1024.40   0.001249    6.31  0.000381  (-0.019501  0.000001 -0.000570)
 22:   1031.61   0.000086    0.43  0.000026  ( 0.000078  0.000000 -0.005095)
 23:   1036.34   0.000017    0.08  0.000005  (-0.000005 -0.002238 -0.000002)
 24:   1133.47   0.002560   12.94  0.000705  ( 0.000000 -0.026550 -0.000000)
 25:   1176.37   0.000023    0.11  0.000006  ( 0.000002  0.002453 -0.000000)
 26:   1200.36   0.000047    0.24  0.000012  ( 0.003506  0.000001  0.000103)
 27:   1358.71   0.000011    0.05  0.000002  ( 0.000000  0.001570 -0.000000)
 28:   1413.96   0.003646   18.43  0.000805  ( 0.028355 -0.000000  0.000841)
 29:   1439.37   0.001721    8.70  0.000373  (-0.000001 -0.019314 -0.000000)
 30:   1498.34   0.002159   10.91  0.000450  ( 0.000003  0.021207 -0.000000)
 31:   1542.46   0.007149   36.13  0.001446  ( 0.038014 -0.000001  0.001127)
 32:   1579.05   0.002512   12.69  0.000496  ( 0.000001 -0.022279 -0.000000)
 33:   1663.81   0.023785  120.20  0.004461  (-0.066762  0.000001 -0.002002)
 34:   1691.27   0.009918   50.12  0.001830  (-0.042760  0.000000 -0.001294)
 35:   3216.02   0.000008    0.04  0.000001  ( 0.000849 -0.000197  0.000030)
 36:   3216.40   0.000490    2.47  0.000048  (-0.000024 -0.006893 -0.000001)
 37:   3229.64   0.000035    0.18  0.000003  ( 0.001845 -0.000006  0.000064)
 38:   3238.18   0.001528    7.72  0.000147  (-0.000018 -0.012134 -0.000001)
 39:   3243.91   0.000999    5.05  0.000096  (-0.009797  0.000021 -0.000307)
 40:   3503.91   0.058101  293.62  0.005175  (-0.071902  0.000003 -0.002165)
 41:   3604.45   0.022027  111.32  0.001907  (-0.000003 -0.043670  0.000000)

--------------------------
THERMOCHEMISTRY AT 298.15K
--------------------------

Temperature         ...   298.15 K
Pressure            ...     1.00 atm
Total Mass          ...    93.13 AMU
Quasi RRHO          ...     True
Cut-Off Frequency   ...     1.00 cm^-1

Throughout the following assumptions are being made:
  (1) The electronic state is orbitally nondegenerate
      but the spin degeneracy is treated
  (2) There are no thermally accessible electronically excited states
  (3) Hindered rotations indicated by low frequency modes are not
      treated as such but are treated as vibrations and this may
      cause some error
  (4) All equations used are the standard statistical mechanics
      equations for an ideal gas
  (5) All vibrations are strictly harmonic

freq.     186.74  E(vib)   ...       0.37
freq.     372.24  E(vib)   ...       0.21
freq.     390.64  E(vib)   ...       0.20
freq.     461.96  E(vib)   ...       0.16
freq.     531.33  E(vib)   ...       0.13
freq.     578.41  E(vib)   ...       0.11
freq.     592.38  E(vib)   ...       0.10
freq.     647.19  E(vib)   ...       0.09
freq.     662.47  E(vib)   ...       0.08
freq.     810.44  E(vib)   ...       0.05
freq.     817.63  E(vib)   ...       0.05
freq.     838.31  E(vib)   ...       0.04
freq.     943.86  E(vib)   ...       0.03
freq.     994.63  E(vib)   ...       0.02
freq.    1012.24  E(vib)   ...       0.02
freq.    1024.40  E(vib)   ...       0.02
freq.    1031.61  E(vib)   ...       0.02
freq.    1036.34  E(vib)   ...       0.02
freq.    1133.47  E(vib)   ...       0.01
freq.    1176.37  E(vib)   ...       0.01
freq.    1200.36  E(vib)   ...       0.01
freq.    1358.71  E(vib)   ...       0.01
freq.    1413.96  E(vib)   ...       0.00
freq.    1439.37  E(vib)   ...       0.00
freq.    1498.34  E(vib)   ...       0.00
freq.    1542.46  E(vib)   ...       0.00
freq.    1579.05  E(vib)   ...       0.00
freq.    1663.81  E(vib)   ...       0.00
freq.    1691.27  E(vib)   ...       0.00
freq.    3216.02  E(vib)   ...       0.00
freq.    3216.40  E(vib)   ...       0.00
freq.    3229.64  E(vib)   ...       0.00
freq.    3238.18  E(vib)   ...       0.00
freq.    3243.91  E(vib)   ...       0.00
freq.    3503.91  E(vib)   ...       0.00
freq.    3604.45  E(vib)   ...       0.00

------------
INNER ENERGY
------------

The inner energy is: U= E(el) + E(ZPE) + E(vib) + E(rot) + E(trans)
    E(el)   - is the total energy from the electronic structure calculation
              = E(kin-el) + E(nuc-el) + E(el-el) + E(nuc-nuc)
    E(ZPE)  - the the zero temperature vibrational energy from the frequency calculation
    E(vib)  - the the finite temperature correction to E(ZPE) due to population
              of excited vibrational states
    E(rot)  - is the rotational thermal energy
    E(trans)- is the translational thermal energy

Summary of contributions to the inner energy U:
Electronic energy                ...   -286.77698069 Eh
Zero point energy                ...      0.11819709 Eh      74.17 kcal/mol
Thermal vibrational correction   ...      0.00282454 Eh       1.77 kcal/mol
Thermal rotational correction    ...      0.00141627 Eh       0.89 kcal/mol
Thermal translational correction ...      0.00141627 Eh       0.89 kcal/mol
-----------------------------------------------------------------------
Total thermal energy                   -286.65312652 Eh

Summary of corrections to the electronic energy:
(perhaps to be used in another calculation)
Total thermal correction                  0.00565708 Eh       3.55 kcal/mol
Non-thermal (ZPE) correction              0.11819709 Eh      74.17 kcal/mol
-----------------------------------------------------------------------
Total correction                          0.12385417 Eh      77.72 kcal/mol

--------
ENTHALPY
--------

The enthalpy is H = U + kB*T
                kB is Boltzmann's constant
Total thermal energy              ...   -286.65312652 Eh
Thermal Enthalpy correction       ...      0.00094421 Eh       0.59 kcal/mol
-----------------------------------------------------------------------
Total Enthalpy                    ...   -286.65218231 Eh

Note: Rotational entropy computed according to Herzberg
Infrared and Raman Spectra, Chapter V,1, Van Nostrand Reinhold, 1945
Point Group:  Cs, Symmetry Number:   1
Rotational constants in cm-1:     0.179396     0.089500     0.059711

Vibrational entropy computed according to the QRRHO of S. Grimme
Chem.Eur.J. 2012 18 9955 using a reference frequency of 100.0 cm-1

-------
ENTROPY
-------

The entropy contributions are T*S = T*(S(el)+S(vib)+S(rot)+S(trans))
     S(el)   - electronic entropy
     S(vib)  - vibrational entropy
     S(rot)  - rotational entropy
     S(trans)- translational entropy
The entropies will be listed as multiplied by the temperature to get
units of energy

Electronic entropy                ...      0.00065446 Eh      0.41 kcal/mol
Vibrational entropy               ...      0.00414171 Eh      2.60 kcal/mol
Rotational entropy                ...      0.01279180 Eh      8.03 kcal/mol
Translational entropy             ...      0.01877043 Eh     11.78 kcal/mol
-----------------------------------------------------------------------
Final entropy term                ...      0.03635840 Eh     22.82 kcal/mol

In case the symmetry of your molecule has not been determined correctly
or in case you have a reason to use a different symmetry number we print
out the resulting rotational entropy values for sn=1,12:

 non-linear molecules -----------------------------------
|  sn= 1 | S(rot)=       0.01279180 Eh      8.03 kcal/mol|
|  sn= 2 | S(rot)=       0.01213735 Eh      7.62 kcal/mol|
|  sn= 3 | S(rot)=       0.01175451 Eh      7.38 kcal/mol|
|  sn= 4 | S(rot)=       0.01148289 Eh      7.21 kcal/mol|
|  sn= 5 | S(rot)=       0.01127220 Eh      7.07 kcal/mol|
|  sn= 6 | S(rot)=       0.01110006 Eh      6.97 kcal/mol|
|  sn= 7 | S(rot)=       0.01095451 Eh      6.87 kcal/mol|
|  sn= 8 | S(rot)=       0.01082843 Eh      6.79 kcal/mol|
|  sn= 9 | S(rot)=       0.01071723 Eh      6.73 kcal/mol|
|  sn=10 | S(rot)=       0.01061775 Eh      6.66 kcal/mol|
|  sn=11 | S(rot)=       0.01052776 Eh      6.61 kcal/mol|
|  sn=12 | S(rot)=       0.01044560 Eh      6.55 kcal/mol|
 linear molecules ---------------------------------------
|  Dinfh | S(rot)=       0.00798674 Eh      5.01 kcal/mol|
|  Cinfv | S(rot)=       0.00864120 Eh      5.42 kcal/mol|
 --------------------------------------------------------

-------------------
GIBBS FREE ENERGY
-------------------

The Gibbs free energy is G = H - T*S

Total enthalpy                    ...   -286.65218231 Eh
Total entropy correction          ...     -0.03635840 Eh    -22.82 kcal/mol
-----------------------------------------------------------------------
Final Gibbs free energy         ...   -286.68854071 Eh

                             ****ORCA TERMINATED NORMALLY****
TOTAL RUN TIME: 0 days 0 hours 6 minutes 52 seconds 260 msec
