                         Program Version 6.0.0  -   RELEASE  -
|  1> !r2SCANh opt aug-cc-pVTZ d3 TightSCF SlowConv RIJCOSX defgrid2
|  2>
|  3> %pal
|  4> nprocs 8
|  5> end
|  6>
|  7> %scf
|  8> MaxIter 1500
|  9> end
| 10>
| 11> %maxcore 3500
| 12>
| 13> !CPCM
| 14> %cpcm smd true
| 15> SMDsolvent "MeCN"
| 16> surfacetype gepol_ses
| 17> rsolv 2.19
| 18> end
| 19>
| 20> * xyz 0 1
| 21> C           0.89625463995169     -1.41558669005642      0.00000212581931
| 22> C           2.11505403593339     -0.74430991173074     -0.00000149555587
| 23> C           2.17542044953981      0.66118914619392      0.00000118790347
| 24> C           1.02073349490689      1.43411488081899      0.00000740816991
| 25> C          -0.21978579987357      0.78024255664200      0.00000882693723
| 26> C          -0.24734548849214     -0.62587635066739      0.00000530658827
| 27> O          -1.52601546021974     -1.07032389872869      0.00001342203642
| 28> C          -2.31826979056253      0.02952741578344      0.00002075604744
| 29> C          -1.60215379632981      1.18293934552638      0.00000260268759
| 30> H          -2.00251324968155      2.19537072670951     -0.00000431996804
| 31> H          -3.38877681335679     -0.16931307117016      0.00002936397660
| 32> H           1.07767380530056      2.52621447644394      0.00000712336235
| 33> H           3.15304280126425      1.15182904763925     -0.00000361572869
| 34> H           3.04441141911605     -1.32116718166862     -0.00000606251848
| 35> H           0.83131985250349     -2.50587419173540      0.00000217024247
| 36> *
| 37>
| 38>                          ****END OF INPUT****
 Total Charge           Charge          ....    0
 Multiplicity           Mult            ....    1
 Number of Electrons    NEL             ....   62
Dispersion correction           -0.004775083
FINAL SINGLE POINT ENERGY      -383.593786976504
Dispersion correction             ... done (  0.1 sec)
Dispersion correction           -0.004781775
FINAL SINGLE POINT ENERGY      -383.594710907371
Dispersion correction             ... done (  0.0 sec)
Dispersion correction           -0.004783154
FINAL SINGLE POINT ENERGY      -383.594761303814
Dispersion correction             ... done (  0.0 sec)
Dispersion correction           -0.004783741
FINAL SINGLE POINT ENERGY      -383.594773712975
Dispersion correction             ... done (  0.1 sec)
                    ***********************HURRAY********************

CARTESIAN COORDINATES (ANGSTROEM)
---------------------------------
  C      0.896536   -1.412819   -0.000392
  C      2.110336   -0.739968    0.000017
  C      2.167309    0.659165   -0.000086
  C      1.016256    1.429274   -0.000467
  C     -0.217021    0.775081   -0.000699
  C     -0.237512   -0.625413   -0.000773
  O     -1.523282   -1.075831   -0.000552
  C     -2.316174    0.038750   -0.000055
  C     -1.595218    1.178280   -0.000272
  H     -1.990430    2.179728    0.000915
  H     -3.375301   -0.151668    0.001194
  H      1.071800    2.509543   -0.000456
  H      3.133441    1.145555    0.000612
  H      3.030129   -1.308658    0.001165
  H      0.838181   -2.492043   -0.000064

 Multiplicity           Mult            ....    1
 Number of Electrons    NEL             ....   62
 Basis Dimension        Dim             ....  552

ORBITAL ENERGIES
----------------

  NO   OCC          E(Eh)            E(eV)
   0   2.0000     -19.187247      -522.1115
   1   2.0000     -10.214564      -277.9524
   2   2.0000     -10.213059      -277.9115
   3   2.0000     -10.168492      -276.6987
   4   2.0000     -10.163623      -276.5662
   5   2.0000     -10.162089      -276.5245
   6   2.0000     -10.160017      -276.4681
   7   2.0000     -10.157883      -276.4101
   8   2.0000     -10.156379      -276.3691
   9   2.0000      -1.120165       -30.4813
  10   2.0000      -0.863475       -23.4963
  11   2.0000      -0.803645       -21.8683
  12   2.0000      -0.751763       -20.4565
  13   2.0000      -0.730948       -19.8901
  14   2.0000      -0.630860       -17.1666
  15   2.0000      -0.597843       -16.2681
  16   2.0000      -0.581310       -15.8183
  17   2.0000      -0.514943       -14.0123
  18   2.0000      -0.487102       -13.2547
  19   2.0000      -0.471341       -12.8259
  20   2.0000      -0.457641       -12.4530
  21   2.0000      -0.430975       -11.7274
  22   2.0000      -0.415215       -11.2986
  23   2.0000      -0.396443       -10.7878
  24   2.0000      -0.379120       -10.3164
  25   2.0000      -0.354852        -9.6560
  26   2.0000      -0.353763        -9.6264
  27   2.0000      -0.328656        -8.9432
  28   2.0000      -0.296665        -8.0727
  29   2.0000      -0.242062        -6.5869
  30   2.0000      -0.223738        -6.0882
  31   0.0000      -0.040272        -1.0958
  32   0.0000      -0.009850        -0.2680
  33   0.0000       0.011612         0.3160
  34   0.0000       0.023857         0.6492
  35   0.0000       0.027470         0.7475

MULLIKEN ATOMIC CHARGES
-----------------------
   0 C :   -1.104923
   1 C :   -0.176015
   2 C :   -0.560238
   3 C :   -0.648011
   4 C :    1.174752
   5 C :    0.336490
   6 O :   -0.527541
   7 C :   -0.555631
   8 C :   -0.676482
   9 H :    0.404323
  10 H :    0.639194
  11 H :    0.065476
  12 H :    0.640775
  13 H :    0.366544
  14 H :    0.621286
Sum of atomic charges:    0.0000000

LOEWDIN ATOMIC CHARGES
----------------------
   0 C :    0.225095
   1 C :    0.181831
   2 C :    0.182687
   3 C :    0.220253
   4 C :   -0.168940
   5 C :   -0.403465
   6 O :    0.615923
   7 C :   -0.004970
   8 C :    0.225676
   9 H :   -0.177043
  10 H :   -0.181546
  11 H :   -0.172988
  12 H :   -0.185954
  13 H :   -0.184042
  14 H :   -0.172517

  Mayer bond orders larger than 0.100000
B(  0-C ,  1-C ) :   1.2462 B(  0-C ,  2-C ) :   0.4791 B(  0-C ,  4-C ) :   0.1235
B(  0-C ,  5-C ) :   1.1499 B(  0-C , 12-H ) :  -0.1077 B(  1-C ,  2-C ) :   1.0255
B(  1-C ,  3-C ) :  -0.4657 B(  1-C ,  5-C ) :  -0.7429 B(  1-C ,  7-C ) :   0.1070
B(  1-C , 12-H ) :   0.1665 B(  1-C , 13-H ) :   0.7916 B(  1-C , 14-H ) :   0.1855
B(  2-C ,  3-C ) :   0.9632 B(  2-C ,  5-C ) :   0.1254 B(  2-C ,  8-C ) :   0.2327
B(  2-C , 12-H ) :   0.2584 B(  2-C , 13-H ) :  -0.1457 B(  3-C ,  4-C ) :   0.7230
B(  3-C ,  5-C ) :  -0.8261 B(  3-C ,  8-C ) :   0.1106 B(  3-C ,  9-H ) :   0.1863
B(  3-C , 11-H ) :   1.4758 B(  3-C , 12-H ) :  -0.1210 B(  3-C , 14-H ) :   0.1391
B(  4-C ,  5-C ) :   1.2065 B(  4-C ,  6-O ) :  -0.1332 B(  4-C ,  7-C ) :  -0.3359
B(  4-C ,  8-C ) :   0.3884 B(  4-C , 11-H ) :  -0.1970 B(  4-C , 13-H ) :  -0.1631
B(  5-C ,  6-O ) :   0.5584 B(  5-C ,  8-C ) :   0.2534 B(  5-C , 11-H ) :   0.2302
B(  5-C , 13-H ) :   0.1746 B(  6-O ,  7-C ) :   1.1977 B(  7-C ,  8-C ) :   1.1470
B(  7-C , 10-H ) :   0.4497 B(  8-C ,  9-H ) :   0.8203 B(  8-C , 11-H ) :  -0.1030

Dispersion correction           -0.004783746
FINAL SINGLE POINT ENERGY      -383.594774752944

DIPOLE MOMENT
-------------

Method             : SCF
Type of density    : Electron Density
Multiplicity       :   1
Irrep              :   0
Energy             :  -383.5899910069915677 Eh
Relativity type    :
Basis              : AO
                                X                 Y                 Z
Electronic contribution:     -2.695393491      -1.396052431      -0.002508446
Nuclear contribution   :      2.504856821       1.734504149       0.004974195
                        -----------------------------------------
Total Dipole Moment    :     -0.190536670       0.338451718       0.002465749
                        -----------------------------------------
Magnitude (a.u.)       :      0.388406833
Magnitude (Debye)      :      0.987251712

Rotational constants in cm-1:             0.131806             0.055851             0.039228
Rotational constants in MHz :          3951.452642          1674.369761          1176.040194

                             ****ORCA TERMINATED NORMALLY****
TOTAL RUN TIME: 0 days 0 hours 15 minutes 9 seconds 205 msec
