                         Program Version 6.0.0  -   RELEASE  -
|  1> !TPSSh aug-cc-pVTZ d3 TightSCF SlowConv RIJCOSX defgrid2
|  2>
|  3> %pal
|  4> nprocs 4
|  5> end
|  6>
|  7> %scf
|  8> MaxIter 1500
|  9> end
| 10>
| 11> %maxcore 3000
| 12>
| 13> !CPCM
| 14> %cpcm smd true
| 15> SMDsolvent "MeCN"
| 16> surfacetype gepol_ses
| 17> rsolv 2.19
| 18> end
| 19>
| 20> * xyz 1 2
| 21> C           1.23906097821424     -1.40551070901350     -0.00000531617187
| 22> C           2.45015803140750     -0.67322429285633     -0.00000921567554
| 23> C           2.42811091171597      0.71268482354482     -0.00001568112958
| 24> C           1.19571143634270      1.39424054969992     -0.00001075953318
| 25> C          -0.03981045812169      0.67829020396443      0.00000284784769
| 26> N          -1.17332230996389      1.38563715697618      0.00000321346217
| 27> C          -2.32918806881659      0.72347909408816      0.00002389103772
| 28> C          -2.42077579021744     -0.67559967987832      0.00002275899277
| 29> C          -1.24727430719380     -1.42666779167592      0.00001979178345
| 30> C          -0.01202551197153     -0.74717299874334      0.00001126438315
| 31> H          -1.27875276164831     -2.52070410881391      0.00003141451029
| 32> H          -3.39973883027065     -1.16186770315986      0.00002731924985
| 33> H          -3.23745148992936      1.33696404502357      0.00004224395057
| 34> H           1.14599213399064      2.48703198107260     -0.00001815853916
| 35> H           3.36241847162623      1.28070852836563     -0.00003089393792
| 36> H           3.40229793543149     -1.21093180244413     -0.00001262742469
| 37> H           1.27044702940448     -2.50010749615001     -0.00001669280572
| 38> *
| 39>
| 40>                          ****END OF INPUT****

CARTESIAN COORDINATES (ANGSTROEM)
---------------------------------
  C      1.239061   -1.405511   -0.000005
  C      2.450158   -0.673224   -0.000009
  C      2.428111    0.712685   -0.000016
  C      1.195711    1.394241   -0.000011
  C     -0.039810    0.678290    0.000003
  N     -1.173322    1.385637    0.000003
  C     -2.329188    0.723479    0.000024
  C     -2.420776   -0.675600    0.000023
  C     -1.247274   -1.426668    0.000020
  C     -0.012026   -0.747173    0.000011
  H     -1.278753   -2.520704    0.000031
  H     -3.399739   -1.161868    0.000027
  H     -3.237451    1.336964    0.000042
  H      1.145992    2.487032   -0.000018
  H      3.362418    1.280709   -0.000031
  H      3.402298   -1.210932   -0.000013
  H      1.270447   -2.500107   -0.000017

 Total Charge           Charge          ....    1
 Multiplicity           Mult            ....    2
 Number of Electrons    NEL             ....   67
 Basis Dimension        Dim             ....  621

ORBITAL ENERGIES
----------------
                 SPIN UP ORBITALS
  NO   OCC          E(Eh)            E(eV)
   0   1.0000     -14.294376      -388.9698
   1   1.0000     -10.196262      -277.4544
   2   1.0000     -10.193973      -277.3921
   3   1.0000     -10.191740      -277.3314
   4   1.0000     -10.186955      -277.2011
   5   1.0000     -10.179242      -276.9913
   6   1.0000     -10.174147      -276.8526
   7   1.0000     -10.170766      -276.7606
   8   1.0000     -10.170381      -276.7501
   9   1.0000     -10.162187      -276.5272
  10   1.0000      -0.969600       -26.3842
  11   1.0000      -0.878016       -23.8920
  12   1.0000      -0.829099       -22.5609
  13   1.0000      -0.775438       -21.1007
  14   1.0000      -0.767802       -20.8929
  15   1.0000      -0.667811       -18.1721
  16   1.0000      -0.649325       -17.6690
  17   1.0000      -0.625817       -17.0294
  18   1.0000      -0.547898       -14.9091
  19   1.0000      -0.533720       -14.5233
  20   1.0000      -0.523800       -14.2533
  21   1.0000      -0.472778       -12.8649
  22   1.0000      -0.461845       -12.5674
  23   1.0000      -0.448798       -12.2124
  24   1.0000      -0.445127       -12.1125
  25   1.0000      -0.422962       -11.5094
  26   1.0000      -0.417138       -11.3509
  27   1.0000      -0.383793       -10.4435
  28   1.0000      -0.379487       -10.3264
  29   1.0000      -0.368676       -10.0322
  30   1.0000      -0.344178        -9.3656
  31   1.0000      -0.285340        -7.7645
  32   1.0000      -0.283517        -7.7149
  33   1.0000      -0.279038        -7.5930
  34   0.0000      -0.124638        -3.3916
  35   0.0000      -0.068463        -1.8630
  36   0.0000      -0.052868        -1.4386
  37   0.0000      -0.006727        -0.1831
  38   0.0000       0.005053         0.1375

                 SPIN DOWN ORBITALS
  NO   OCC          E(Eh)            E(eV)
   0   1.0000     -14.291346      -388.8873
   1   1.0000     -10.194738      -277.4129
   2   1.0000     -10.190822      -277.3064
   3   1.0000     -10.187169      -277.2070
   4   1.0000     -10.185790      -277.1694
   5   1.0000     -10.177227      -276.9364
   6   1.0000     -10.172889      -276.8184
   7   1.0000     -10.171672      -276.7853
   8   1.0000     -10.170361      -276.7496
   9   1.0000     -10.161226      -276.5010
  10   1.0000      -0.965125       -26.2624
  11   1.0000      -0.870429       -23.6856
  12   1.0000      -0.823457       -22.4074
  13   1.0000      -0.774266       -21.0688
  14   1.0000      -0.755002       -20.5447
  15   1.0000      -0.663963       -18.0674
  16   1.0000      -0.646166       -17.5831
  17   1.0000      -0.620844       -16.8940
  18   1.0000      -0.544300       -14.8112
  19   1.0000      -0.531076       -14.4513
  20   1.0000      -0.521853       -14.2003
  21   1.0000      -0.472143       -12.8477
  22   1.0000      -0.459131       -12.4936
  23   1.0000      -0.446338       -12.1455
  24   1.0000      -0.433027       -11.7833
  25   1.0000      -0.420754       -11.4493
  26   1.0000      -0.416191       -11.3251
  27   1.0000      -0.382550       -10.4097
  28   1.0000      -0.366602        -9.9757
  29   1.0000      -0.359001        -9.7689
  30   1.0000      -0.322196        -8.7674
  31   1.0000      -0.283619        -7.7177
  32   1.0000      -0.281001        -7.6464
  33   0.0000      -0.223216        -6.0740
  34   0.0000      -0.100511        -2.7351
  35   0.0000      -0.061398        -1.6707
  36   0.0000      -0.033128        -0.9015
  37   0.0000      -0.005847        -0.1591

MULLIKEN ATOMIC CHARGES AND SPIN POPULATIONS
--------------------------------------------
   0 C :   -0.547159    0.347336
   1 C :   -0.334504    0.066812
   2 C :   -0.138219   -0.011784
   3 C :   -0.645756    0.370685
   4 C :    0.761633   -0.015829
   5 N :   -0.820524    0.136100
   6 C :   -0.180340   -0.031482
   7 C :   -0.170565    0.053679
   8 C :   -0.582841    0.141392
   9 C :    1.169196   -0.074138
  10 H :    0.424893    0.000555
  11 H :    0.203202   -0.000650
  12 H :    0.345395    0.004327
  13 H :    0.404561    0.004209
  14 H :    0.427309   -0.005008
  15 H :    0.571081   -0.001844
  16 H :    0.112639    0.015641
Sum of atomic charges         :    1.0000000

LOEWDIN ATOMIC CHARGES AND SPIN POPULATIONS
-------------------------------------------
   0 C :    0.326969    0.188840
   1 C :    0.296925    0.102613
   2 C :    0.289799    0.078284
   3 C :    0.314598    0.195615
   4 C :   -0.279842    0.046857
   5 N :    0.422684    0.091275
   6 C :    0.083039    0.026343
   7 C :    0.282634    0.053546
   8 C :    0.294468    0.072490
   9 C :   -0.079365    0.037266
  10 H :   -0.124793    0.011904
  11 H :   -0.143992    0.007666
  12 H :   -0.158476   -0.000344
  13 H :   -0.131071    0.037590
  14 H :   -0.138591    0.003317
  15 H :   -0.136268    0.011383
  16 H :   -0.118718    0.035356

  Mayer bond orders larger than 0.100000
B(  0-C ,  1-C ) :   1.3263 B(  0-C ,  2-C ) :  -0.1150 B(  0-C ,  4-C ) :  -0.4964
B(  0-C ,  5-N ) :   0.1048 B(  0-C ,  8-C ) :   0.1974 B(  0-C ,  9-C ) :   0.7003
B(  0-C , 15-H ) :  -0.1056 B(  0-C , 16-H ) :   1.1137 B(  1-C ,  2-C ) :   1.3744
B(  1-C ,  3-C ) :   0.1121 B(  1-C , 15-H ) :   0.3266 B(  2-C ,  3-C ) :   1.3695
B(  2-C ,  8-C ) :   0.1399 B(  2-C ,  9-C ) :  -0.1978 B(  2-C , 13-H ) :   0.1275
B(  2-C , 14-H ) :   0.5598 B(  2-C , 15-H ) :   0.1444 B(  3-C ,  4-C ) :   0.9568
B(  3-C ,  5-N ) :   0.3138 B(  3-C ,  9-C ) :   0.1775 B(  3-C , 13-H ) :   0.4146
B(  4-C ,  5-N ) :  -0.3277 B(  4-C ,  6-C ) :   0.1858 B(  4-C ,  8-C ) :   0.5511
B(  4-C ,  9-C ) :   0.8054 B(  5-N ,  6-C ) :   1.5663 B(  6-C ,  7-C ) :   1.0060
B(  6-C ,  8-C ) :   0.2386 B(  6-C ,  9-C ) :  -0.3059 B(  6-C , 12-H ) :   0.6947
B(  7-C ,  8-C ) :   1.3249 B(  7-C ,  9-C ) :  -0.2547 B(  7-C , 11-H ) :   0.9674
B(  8-C ,  9-C ) :   0.3166 B(  8-C , 10-H ) :   0.5394 B(  9-C , 10-H ) :   0.2354
B(  9-C , 16-H ) :   0.1211

Dispersion correction           -0.023190362
FINAL SINGLE POINT ENERGY      -401.903619662212

DIPOLE MOMENT
-------------

Method             : SCF
Type of density    : Electron Density
Multiplicity       :   2
Irrep              :   0
Energy             :  -401.8804293002704071 Eh
Relativity type    :
Basis              : AO
                                X                 Y                 Z
Electronic contribution:     -0.276443857       0.744722389      -0.000165156
Nuclear contribution   :      1.179405862      -2.142414994      -0.000006417
                        -----------------------------------------
Total Dipole Moment    :      0.902962006      -1.397692605      -0.000171573
                        -----------------------------------------
Magnitude (a.u.)       :      1.663996704
Magnitude (Debye)      :      4.229543495

Rotational constants in cm-1:             0.105894             0.041940             0.030042
Rotational constants in MHz :          3174.630600          1257.322564           900.626549

                             ****ORCA TERMINATED NORMALLY****
TOTAL RUN TIME: 0 days 0 hours 9 minutes 1 seconds 356 msec
