                         Program Version 6.0.0  -   RELEASE  -
|  1> !r2SCAN aug-cc-pVTZ d3 TightSCF SlowConv RIJCOSX defgrid2
|  2>
|  3> %pal
|  4> nprocs 4
|  5> end
|  6>
|  7> %scf
|  8> MaxIter 1500
|  9> end
| 10>
| 11> %maxcore 3000
| 12>
| 13> !CPCM
| 14> %cpcm smd true
| 15> SMDsolvent "MeCN"
| 16> surfacetype gepol_ses
| 17> rsolv 2.19
| 18> end
| 19>
| 20> * xyz 1 2
| 21> C          -0.34387230731091     -1.07485258731093      0.00001401455947
| 22> C           1.01873873128556     -0.69031657008063      0.00000558569428
| 23> C           1.01870490582575      0.69036389318440     -0.00000682964124
| 24> C          -0.34392442171075      1.07483366235896      0.00001800846145
| 25> O          -1.13547856663301     -0.00002908301850      0.00002620600599
| 26> H          -0.83940000391177      2.04941022022650      0.00001956675718
| 27> H           1.87273127254573      1.37048388860066     -0.00002227053780
| 28> H           1.87279848731196     -1.37039565302222     -0.00000085844917
| 29> H          -0.83930199740254     -2.04945297093823      0.00002127714986
| 30> *
| 31>
| 32>                          ****END OF INPUT****

CARTESIAN COORDINATES (ANGSTROEM)
---------------------------------
  C     -0.343872   -1.074853    0.000014
  C      1.018739   -0.690317    0.000006
  C      1.018705    0.690364   -0.000007
  C     -0.343924    1.074834    0.000018
  O     -1.135479   -0.000029    0.000026
  H     -0.839400    2.049410    0.000020
  H      1.872731    1.370484   -0.000022
  H      1.872798   -1.370396   -0.000001
  H     -0.839302   -2.049453    0.000021

 Total Charge           Charge          ....    1
 Multiplicity           Mult            ....    2
 Number of Electrons    NEL             ....   35
 Basis Dimension        Dim             ....  322

ORBITAL ENERGIES
----------------
                 SPIN UP ORBITALS
  NO   OCC          E(Eh)            E(eV)
   0   1.0000     -19.102077      -519.7940
   1   1.0000     -10.191786      -277.3326
   2   1.0000     -10.191764      -277.3320
   3   1.0000     -10.111571      -275.1498
   4   1.0000     -10.111064      -275.1360
   5   1.0000      -1.172025       -31.8924
   6   1.0000      -0.841901       -22.9093
   7   1.0000      -0.795110       -21.6360
   8   1.0000      -0.633259       -17.2319
   9   1.0000      -0.604003       -16.4358
  10   1.0000      -0.567268       -15.4362
  11   1.0000      -0.511477       -13.9180
  12   1.0000      -0.473237       -12.8774
  13   1.0000      -0.433015       -11.7829
  14   1.0000      -0.422714       -11.5026
  15   1.0000      -0.405276       -11.0281
  16   1.0000      -0.330820        -9.0021
  17   1.0000      -0.304330        -8.2812
  18   0.0000      -0.112051        -3.0491
  19   0.0000      -0.033887        -0.9221
  20   0.0000       0.009176         0.2497
  21   0.0000       0.028333         0.7710
  22   0.0000       0.030289         0.8242

                 SPIN DOWN ORBITALS
  NO   OCC          E(Eh)            E(eV)
   0   1.0000     -19.104291      -519.8542
   1   1.0000     -10.182047      -277.0676
   2   1.0000     -10.182028      -277.0671
   3   1.0000     -10.110822      -275.1294
   4   1.0000     -10.110316      -275.1157
   5   1.0000      -1.168966       -31.8092
   6   1.0000      -0.836032       -22.7496
   7   1.0000      -0.769582       -20.9414
   8   1.0000      -0.627697       -17.0805
   9   1.0000      -0.588629       -16.0174
  10   1.0000      -0.565812       -15.3965
  11   1.0000      -0.488247       -13.2859
  12   1.0000      -0.468689       -12.7537
  13   1.0000      -0.433639       -11.7999
  14   1.0000      -0.417621       -11.3641
  15   1.0000      -0.403029       -10.9670
  16   1.0000      -0.322633        -8.7793
  17   0.0000      -0.225638        -6.1399
  18   0.0000      -0.054405        -1.4804
  19   0.0000      -0.002036        -0.0554
  20   0.0000       0.013217         0.3597
  21   0.0000       0.032606         0.8872

MULLIKEN ATOMIC CHARGES AND SPIN POPULATIONS
--------------------------------------------
   0 C :   -0.218212    0.451499
   1 C :   -0.210264    0.058773
   2 C :   -0.212120    0.057920
   3 C :   -0.218747    0.451525
   4 O :   -0.147386   -0.062616
   5 H :    0.612973    0.021365
   6 H :    0.390268    0.000090
   7 H :    0.390627    0.000099
   8 H :    0.612860    0.021344
Sum of atomic charges         :    1.0000000

LOEWDIN ATOMIC CHARGES AND SPIN POPULATIONS
-------------------------------------------
   0 C :    0.117774    0.295590
   1 C :    0.299237    0.112668
   2 C :    0.299130    0.112417
   3 C :    0.117598    0.295443
   4 O :    0.640961    0.059432
   5 H :   -0.110809    0.054318
   6 H :   -0.126589    0.007869
   7 H :   -0.126529    0.007936
   8 H :   -0.110772    0.054328

  Mayer bond orders larger than 0.100000
B(  0-C ,  1-C ) :   0.8698 B(  0-C ,  2-C ) :   0.1021 B(  0-C ,  4-O ) :   1.0111
B(  0-C ,  8-H ) :   0.5271 B(  1-C ,  2-C ) :   1.2660 B(  1-C ,  3-C ) :   0.1020
B(  1-C ,  7-H ) :   0.8922 B(  2-C ,  3-C ) :   0.8703 B(  2-C ,  6-H ) :   0.8924
B(  3-C ,  4-O ) :   1.0110 B(  3-C ,  5-H ) :   0.5266

Dispersion correction           -0.001666147
FINAL SINGLE POINT ENERGY      -229.766565298245

DIPOLE MOMENT
-------------

Method             : SCF
Type of density    : Electron Density
Multiplicity       :   2
Irrep              :   0
Energy             :  -229.7648991513862313 Eh
Relativity type    :
Basis              : AO
                                X                 Y                 Z
Electronic contribution:     -1.383332096      -0.001092588      -0.000368388
Nuclear contribution   :      1.915202636       0.000046579      -0.000027644
                        -----------------------------------------
Total Dipole Moment    :      0.531870541      -0.001046008      -0.000396032
                        -----------------------------------------
Magnitude (a.u.)       :      0.531871717
Magnitude (Debye)      :      1.351910466

Rotational constants in cm-1:             0.327624             0.296324             0.155594
Rotational constants in MHz :          9821.913267          8883.568671          4664.602670

                             ****ORCA TERMINATED NORMALLY****
TOTAL RUN TIME: 0 days 0 hours 1 minutes 9 seconds 172 msec
