                         Program Version 6.0.0  -   RELEASE  -
|  1> !PBE0 aug-cc-pVTZ d3 TightSCF SlowConv RIJCOSX defgrid2
|  2>
|  3> %pal
|  4> nprocs 4
|  5> end
|  6>
|  7> %scf
|  8> MaxIter 1500
|  9> end
| 10>
| 11> %maxcore 3000
| 12>
| 13> !CPCM
| 14> %cpcm smd true
| 15> SMDsolvent "MeCN"
| 16> surfacetype gepol_ses
| 17> rsolv 2.19
| 18> end
| 19>
| 20> * xyz 0 1
| 21> C           1.90204149518375      0.85175069124874      0.29746003083239
| 22> C           1.67806327505735     -0.18007693267996     -0.61991983305632
| 23> C           2.67766384874709     -1.10217971745057     -0.88998783092066
| 24> C           3.91971539346518     -1.02243656774625     -0.24487905563433
| 25> C           4.14595550737713      0.01017707113018      0.67131493503817
| 26> C           3.14165845010563      0.94339092100850      0.92991610789907
| 27> H           3.33764385584375      1.75629242798997      1.63640783818954
| 28> H           5.10426353496277      0.11113790522407      1.18399893458188
| 29> O           4.82437427008133     -1.96808561528419     -0.57026671296603
| 30> C           6.08212467193582     -1.93604150499656      0.03937910976531
| 31> H           6.00811550930605     -2.04413775152094      1.13899316949653
| 32> H           6.62762267171733     -1.00092757885139     -0.19326138302289
| 33> H           6.64748938028465     -2.78866496010233     -0.36556594059567
| 34> H           2.51725803302919     -1.91024479956558     -1.60812631160203
| 35> H           0.71655401167501     -0.25011710230323     -1.13625291311173
| 36> S           0.67299496253335      2.05264998729490      0.77228191902236
| 37> S          -0.67289432342165      2.05290943519487     -0.77138488347598
| 38> C          -1.90204031262548      0.85198738280173     -0.29688616793200
| 39> C          -1.67813191920431     -0.18013245127198      0.62018473712761
| 40> C          -2.67779582841691     -1.10225027982985      0.88996766430274
| 41> C          -3.91983449465123     -1.02224023963496      0.24486384046698
| 42> C          -4.14600620480715      0.01066778938885     -0.67101420394572
| 43> C          -3.14164941952594      0.94389970179356     -0.92931828009062
| 44> H          -3.33757462896756      1.75703373795364     -1.63555895862120
| 45> H          -5.10430366539882      0.11184879268910     -1.18367603270811
| 46> O          -4.82454925075659     -1.96793934833253      0.56994794546651
| 47> C          -6.08228086565604     -1.93565869569194     -0.03972588010912
| 48> H          -6.00824247611482     -2.04342740943553     -1.13936995580242
| 49> H          -6.64769241955313     -2.78837951769747      0.36494669506615
| 50> H          -6.62774680598541     -1.00059156129990      0.19317765994923
| 51> H          -2.51744986321001     -1.91054439699301      1.60786208700731
| 52> H          -0.71663329301036     -0.25039391302994      1.13650706938306
| 53> *
| 54>
| 55>                          ****END OF INPUT****

CARTESIAN COORDINATES (ANGSTROEM)
---------------------------------
  C      1.902041    0.851751    0.297460
  C      1.678063   -0.180077   -0.619920
  C      2.677664   -1.102180   -0.889988
  C      3.919715   -1.022437   -0.244879
  C      4.145956    0.010177    0.671315
  C      3.141658    0.943391    0.929916
  H      3.337644    1.756292    1.636408
  H      5.104264    0.111138    1.183999
  O      4.824374   -1.968086   -0.570267
  C      6.082125   -1.936042    0.039379
  H      6.008116   -2.044138    1.138993
  H      6.627623   -1.000928   -0.193261
  H      6.647489   -2.788665   -0.365566
  H      2.517258   -1.910245   -1.608126
  H      0.716554   -0.250117   -1.136253
  S      0.672995    2.052650    0.772282
  S     -0.672894    2.052909   -0.771385
  C     -1.902040    0.851987   -0.296886
  C     -1.678132   -0.180132    0.620185
  C     -2.677796   -1.102250    0.889968
  C     -3.919834   -1.022240    0.244864
  C     -4.146006    0.010668   -0.671014
  C     -3.141649    0.943900   -0.929318
  H     -3.337575    1.757034   -1.635559
  H     -5.104304    0.111849   -1.183676
  O     -4.824549   -1.967939    0.569948
  C     -6.082281   -1.935659   -0.039726
  H     -6.008242   -2.043427   -1.139370
  H     -6.647692   -2.788380    0.364947
  H     -6.627747   -1.000592    0.193178
  H     -2.517450   -1.910544    1.607862
  H     -0.716633   -0.250394    1.136507

 Total Charge           Charge          ....    0
 Multiplicity           Mult            ....    1
 Number of Electrons    NEL             ....  146
 Basis Dimension        Dim             .... 1158

ORBITAL ENERGIES
----------------

  NO   OCC          E(Eh)            E(eV)
   0   2.0000     -89.086001     -2424.1533
   1   2.0000     -89.085999     -2424.1533
   2   2.0000     -19.246915      -523.7352
   3   2.0000     -19.246914      -523.7352
   4   2.0000     -10.294449      -280.1262
   5   2.0000     -10.294445      -280.1261
   6   2.0000     -10.266935      -279.3775
   7   2.0000     -10.266935      -279.3775
   8   2.0000     -10.265879      -279.3488
   9   2.0000     -10.265875      -279.3487
  10   2.0000     -10.242103      -278.7018
  11   2.0000     -10.242102      -278.7018
  12   2.0000     -10.240760      -278.6653
  13   2.0000     -10.240760      -278.6652
  14   2.0000     -10.234625      -278.4983
  15   2.0000     -10.234622      -278.4982
  16   2.0000     -10.233360      -278.4639
  17   2.0000     -10.233359      -278.4639
  18   2.0000      -8.040404      -218.7905
  19   2.0000      -8.040313      -218.7880
  20   2.0000      -5.978721      -162.6893
  21   2.0000      -5.978446      -162.6818
  22   2.0000      -5.974326      -162.5697
  23   2.0000      -5.974282      -162.5685
  24   2.0000      -5.969186      -162.4298
  25   2.0000      -5.969186      -162.4298
  26   2.0000      -1.109585       -30.1933
  27   2.0000      -1.109584       -30.1933
  28   2.0000      -0.902445       -24.5568
  29   2.0000      -0.893326       -24.3086
  30   2.0000      -0.844617       -22.9832
  31   2.0000      -0.802175       -21.8283
  32   2.0000      -0.783292       -21.3144
  33   2.0000      -0.778546       -21.1853
  34   2.0000      -0.765389       -20.8273
  35   2.0000      -0.732948       -19.9445
  36   2.0000      -0.708149       -19.2697
  37   2.0000      -0.665755       -18.1161
  38   2.0000      -0.640525       -17.4296
  39   2.0000      -0.637011       -17.3339
  40   2.0000      -0.607877       -16.5412
  41   2.0000      -0.590425       -16.0663
  42   2.0000      -0.556188       -15.1346
  43   2.0000      -0.552077       -15.0228
  44   2.0000      -0.515293       -14.0218
  45   2.0000      -0.506424       -13.7805
  46   2.0000      -0.495699       -13.4887
  47   2.0000      -0.485468       -13.2103
  48   2.0000      -0.485423       -13.2090
  49   2.0000      -0.468969       -12.7613
  50   2.0000      -0.465280       -12.6609
  51   2.0000      -0.460551       -12.5322
  52   2.0000      -0.440415       -11.9843
  53   2.0000      -0.440077       -11.9751
  54   2.0000      -0.434327       -11.8186
  55   2.0000      -0.427217       -11.6252
  56   2.0000      -0.408612       -11.1189
  57   2.0000      -0.406161       -11.0522
  58   2.0000      -0.393918       -10.7191
  59   2.0000      -0.380577       -10.3560
  60   2.0000      -0.374223       -10.1831
  61   2.0000      -0.373006       -10.1500
  62   2.0000      -0.352759        -9.5991
  63   2.0000      -0.349917        -9.5217
  64   2.0000      -0.349828        -9.5193
  65   2.0000      -0.340769        -9.2728
  66   2.0000      -0.339784        -9.2460
  67   2.0000      -0.290133        -7.8949
  68   2.0000      -0.289172        -7.8688
  69   2.0000      -0.278952        -7.5907
  70   2.0000      -0.275420        -7.4946
  71   2.0000      -0.227745        -6.1972
  72   2.0000      -0.219821        -5.9816
  73   0.0000      -0.033508        -0.9118
  74   0.0000      -0.023233        -0.6322
  75   0.0000      -0.015095        -0.4108
  76   0.0000      -0.008264        -0.2249
  77   0.0000       0.000265         0.0072

MULLIKEN ATOMIC CHARGES
-----------------------
   0 C :    0.895594
   1 C :   -0.383764
   2 C :   -1.304229
   3 C :    1.017492
   4 C :   -0.356562
   5 C :   -1.154923
   6 H :    0.512820
   7 H :    0.522056
   8 O :   -0.615628
   9 C :   -0.731475
  10 H :    0.307675
  11 H :    0.306843
  12 H :    0.245039
  13 H :    0.486883
  14 H :    0.637140
  15 S :   -0.383972
  16 S :   -0.382154
  17 C :    0.892167
  18 C :   -0.375370
  19 C :   -1.293309
  20 C :    1.020722
  21 C :   -0.363219
  22 C :   -1.160743
  23 H :    0.519799
  24 H :    0.514686
  25 O :   -0.614810
  26 C :   -0.733822
  27 H :    0.309120
  28 H :    0.243135
  29 H :    0.308544
  30 H :    0.485205
  31 H :    0.629058
Sum of atomic charges:   -0.0000000

LOEWDIN ATOMIC CHARGES
----------------------
   0 C :   -0.595105
   1 C :    0.082661
   2 C :    0.197385
   3 C :   -0.408761
   4 C :    0.195029
   5 C :    0.092322
   6 H :   -0.181861
   7 H :   -0.184097
   8 O :    0.593872
   9 C :    0.313721
  10 H :   -0.158129
  11 H :   -0.158070
  12 H :   -0.167135
  13 H :   -0.165050
  14 H :   -0.229454
  15 S :    0.772666
  16 S :    0.772679
  17 C :   -0.595111
  18 C :    0.082667
  19 C :    0.197391
  20 C :   -0.408761
  21 C :    0.195026
  22 C :    0.092309
  23 H :   -0.181858
  24 H :   -0.184101
  25 O :    0.593875
  26 C :    0.313720
  27 H :   -0.158127
  28 H :   -0.167138
  29 H :   -0.158070
  30 H :   -0.165049
  31 H :   -0.229447

  Mayer bond orders larger than 0.100000
B(  0-C ,  1-C ) :   0.7687 B(  0-C ,  5-C ) :   1.0115 B(  0-C , 15-S ) :   0.6047
B(  0-C , 17-C ) :   0.1252 B(  1-C ,  2-C ) :   1.0178 B(  1-C ,  3-C ) :  -0.1074
B(  1-C ,  4-C ) :  -0.1609 B(  1-C ,  5-C ) :  -0.1600 B(  1-C ,  8-O ) :   0.1179
B(  1-C , 13-H ) :   0.1305 B(  1-C , 14-H ) :   0.4769 B(  2-C ,  3-C ) :   0.8862
B(  2-C ,  4-C ) :   0.1229 B(  2-C ,  5-C ) :   0.1517 B(  2-C ,  8-O ) :   0.2895
B(  2-C , 13-H ) :   0.5005 B(  3-C ,  4-C ) :   0.9909 B(  3-C ,  5-C ) :  -0.1434
B(  3-C ,  7-H ) :   0.1257 B(  3-C ,  8-O ) :   0.3541 B(  3-C ,  9-C ) :   0.1042
B(  4-C ,  5-C ) :   1.2091 B(  4-C ,  7-H ) :   0.4333 B(  4-C ,  8-O ) :  -0.1668
B(  4-C ,  9-C ) :  -0.1192 B(  5-C ,  6-H ) :   0.4706 B(  8-O ,  9-C ) :   1.0271
B(  9-C , 10-H ) :   0.8870 B(  9-C , 11-H ) :   0.8872 B(  9-C , 12-H ) :   0.9715
B( 14-H , 16-S ) :  -0.1130 B( 15-S , 16-S ) :   1.0433 B( 15-S , 31-H ) :  -0.1083
B( 16-S , 17-C ) :   0.6142 B( 17-C , 18-C ) :   0.7818 B( 17-C , 22-C ) :   1.0076
B( 18-C , 19-C ) :   1.0141 B( 18-C , 20-C ) :  -0.1090 B( 18-C , 21-C ) :  -0.1604
B( 18-C , 22-C ) :  -0.1645 B( 18-C , 25-O ) :   0.1146 B( 18-C , 30-H ) :   0.1303
B( 18-C , 31-H ) :   0.4833 B( 19-C , 20-C ) :   0.8844 B( 19-C , 21-C ) :   0.1232
B( 19-C , 22-C ) :   0.1464 B( 19-C , 25-O ) :   0.2801 B( 19-C , 30-H ) :   0.5006
B( 20-C , 21-C ) :   0.9937 B( 20-C , 22-C ) :  -0.1381 B( 20-C , 24-H ) :   0.1219
B( 20-C , 25-O ) :   0.3516 B( 21-C , 22-C ) :   1.2121 B( 21-C , 24-H ) :   0.4404
B( 21-C , 25-O ) :  -0.1611 B( 21-C , 26-C ) :  -0.1198 B( 22-C , 23-H ) :   0.4582
B( 25-O , 26-C ) :   1.0265 B( 26-C , 27-H ) :   0.8854 B( 26-C , 28-H ) :   0.9746
B( 26-C , 29-H ) :   0.8846

Dispersion correction           -0.037448108
FINAL SINGLE POINT ENERGY     -1487.985522295305

DIPOLE MOMENT
-------------

Method             : SCF
Type of density    : Electron Density
Multiplicity       :   1
Irrep              :   0
Energy             : -1487.9480741875213425 Eh
Relativity type    :
Basis              : AO
                                X                 Y                 Z
Electronic contribution:      0.000352704      10.723039062       0.001717530
Nuclear contribution   :     -0.000353672     -11.568109553      -0.001837843
                        -----------------------------------------
Total Dipole Moment    :     -0.000000968      -0.845070491      -0.000120313
                        -----------------------------------------
Magnitude (a.u.)       :      0.845070499
Magnitude (Debye)      :      2.147998505

Rotational constants in cm-1:             0.022512             0.004846             0.004251
Rotational constants in MHz :           674.890480           145.282347           127.443489

                             ****ORCA TERMINATED NORMALLY****
TOTAL RUN TIME: 0 days 0 hours 14 minutes 48 seconds 925 msec
