                         Program Version 6.0.0  -   RELEASE  -
|  1> !TPSSh aug-cc-pVTZ d3 TightSCF SlowConv RIJCOSX defgrid2
|  2>
|  3> %pal
|  4> nprocs 4
|  5> end
|  6>
|  7> %scf
|  8> MaxIter 1500
|  9> end
| 10>
| 11> %maxcore 3000
| 12>
| 13> !CPCM
| 14> %cpcm smd true
| 15> SMDsolvent "MeCN"
| 16> surfacetype gepol_ses
| 17> rsolv 2.19
| 18> end
| 19>
| 20> * xyz -1 2
| 21> C          -0.01331421056281      1.21015152275559     -0.00003912841012
| 22> C           1.37407426915828      1.22077182581697      0.00009471803504
| 23> C           2.08268728216500      0.01623593632828      0.00008078293558
| 24> C           1.39800867624770     -1.21018542596672     -0.00005492668248
| 25> C           0.01763373542032     -1.22524409629627     -0.00018246787257
| 26> C          -0.75988843497050     -0.01763719993150     -0.00018385015586
| 27> C          -2.18998893121825     -0.10468719257966     -0.00029823993913
| 28> O          -2.82191384294989     -1.19348424477804     -0.00032077578394
| 29> C          -2.98040993394950      1.20193760901241     -0.00023396308602
| 30> H          -2.77113925068928      1.83311429650402      0.88831166373856
| 31> H          -2.77095660989795      1.83331313895105     -0.88859326031545
| 32> H          -4.05230547218906      0.94280281896802     -0.00037251615162
| 33> H          -0.53955758793286     -2.16627118900373     -0.00028423650614
| 34> H           1.97817281356228     -2.14018774357936     -0.00004958149680
| 35> F           3.44427090335711      0.03016813897025      0.00021925839865
| 36> H           1.93269491180525      2.16366570442592      0.00021265957610
| 37> H          -0.54367651735585      2.16766590040277     -0.00001523628380
| 38> *
| 39>
| 40>                          ****END OF INPUT****

CARTESIAN COORDINATES (ANGSTROEM)
---------------------------------
  C     -0.013314    1.210152   -0.000039
  C      1.374074    1.220772    0.000095
  C      2.082687    0.016236    0.000081
  C      1.398009   -1.210185   -0.000055
  C      0.017634   -1.225244   -0.000182
  C     -0.759888   -0.017637   -0.000184
  C     -2.189989   -0.104687   -0.000298
  O     -2.821914   -1.193484   -0.000321
  C     -2.980410    1.201938   -0.000234
  H     -2.771139    1.833114    0.888312
  H     -2.770957    1.833313   -0.888593
  H     -4.052305    0.942803   -0.000373
  H     -0.539558   -2.166271   -0.000284
  H      1.978173   -2.140188   -0.000050
  F      3.444271    0.030168    0.000219
  H      1.932695    2.163666    0.000213
  H     -0.543677    2.167666   -0.000015

 Total Charge           Charge          ....   -1
 Multiplicity           Mult            ....    2
 Number of Electrons    NEL             ....   73
 Basis Dimension        Dim             ....  621

ORBITAL ENERGIES
----------------
                 SPIN UP ORBITALS
  NO   OCC          E(Eh)            E(eV)
   0   1.0000     -24.596230      -669.2974
   1   1.0000     -18.972400      -516.2652
   2   1.0000     -10.162440      -276.5340
   3   1.0000     -10.122782      -275.4549
   4   1.0000     -10.100535      -274.8495
   5   1.0000     -10.100440      -274.8470
   6   1.0000     -10.097130      -274.7569
   7   1.0000     -10.091659      -274.6080
   8   1.0000     -10.084657      -274.4175
   9   1.0000     -10.082135      -274.3488
  10   1.0000      -1.181833       -32.1593
  11   1.0000      -0.938602       -25.5407
  12   1.0000      -0.810730       -22.0611
  13   1.0000      -0.718126       -19.5412
  14   1.0000      -0.710062       -19.3218
  15   1.0000      -0.669539       -18.2191
  16   1.0000      -0.588685       -16.0189
  17   1.0000      -0.571504       -15.5514
  18   1.0000      -0.504463       -13.7271
  19   1.0000      -0.501452       -13.6452
  20   1.0000      -0.443849       -12.0777
  21   1.0000      -0.431615       -11.7448
  22   1.0000      -0.420390       -11.4394
  23   1.0000      -0.404142       -10.9973
  24   1.0000      -0.387133       -10.5344
  25   1.0000      -0.385740       -10.4965
  26   1.0000      -0.370067       -10.0700
  27   1.0000      -0.360703        -9.8152
  28   1.0000      -0.336644        -9.1605
  29   1.0000      -0.332200        -9.0396
  30   1.0000      -0.322563        -8.7774
  31   1.0000      -0.296965        -8.0808
  32   1.0000      -0.291254        -7.9254
  33   1.0000      -0.237410        -6.4603
  34   1.0000      -0.217915        -5.9298
  35   1.0000      -0.187261        -5.0956
  36   1.0000      -0.081492        -2.2175
  37   0.0000      -0.010410        -0.2833
  38   0.0000      -0.002524        -0.0687
  39   0.0000       0.010799         0.2939
  40   0.0000       0.014099         0.3837
  41   0.0000       0.024860         0.6765

                 SPIN DOWN ORBITALS
  NO   OCC          E(Eh)            E(eV)
   0   1.0000     -24.595320      -669.2727
   1   1.0000     -18.966708      -516.1104
   2   1.0000     -10.157436      -276.3979
   3   1.0000     -10.118287      -275.3326
   4   1.0000     -10.101917      -274.8871
   5   1.0000     -10.101779      -274.8834
   6   1.0000     -10.094546      -274.6866
   7   1.0000     -10.088995      -274.5355
   8   1.0000     -10.085067      -274.4286
   9   1.0000     -10.081054      -274.3194
  10   1.0000      -1.179885       -32.1063
  11   1.0000      -0.928675       -25.2705
  12   1.0000      -0.807203       -21.9651
  13   1.0000      -0.712519       -19.3886
  14   1.0000      -0.706781       -19.2325
  15   1.0000      -0.667025       -18.1507
  16   1.0000      -0.581489       -15.8231
  17   1.0000      -0.569426       -15.4949
  18   1.0000      -0.501259       -13.6399
  19   1.0000      -0.497813       -13.5462
  20   1.0000      -0.442536       -12.0420
  21   1.0000      -0.422626       -11.5002
  22   1.0000      -0.416523       -11.3342
  23   1.0000      -0.402547       -10.9539
  24   1.0000      -0.385275       -10.4839
  25   1.0000      -0.376942       -10.2571
  26   1.0000      -0.368009       -10.0140
  27   1.0000      -0.359331        -9.7779
  28   1.0000      -0.333883        -9.0854
  29   1.0000      -0.322931        -8.7874
  30   1.0000      -0.320490        -8.7210
  31   1.0000      -0.290248        -7.8980
  32   1.0000      -0.274697        -7.4749
  33   1.0000      -0.229196        -6.2367
  34   1.0000      -0.198612        -5.4045
  35   1.0000      -0.183448        -4.9919
  36   0.0000      -0.027948        -0.7605
  37   0.0000      -0.004936        -0.1343
  38   0.0000      -0.000231        -0.0063
  39   0.0000       0.011988         0.3262
  40   0.0000       0.016419         0.4468

MULLIKEN ATOMIC CHARGES AND SPIN POPULATIONS
--------------------------------------------
   0 C :   -0.441649    0.227459
   1 C :   -0.695622   -0.083794
   2 C :    0.558352    0.244919
   3 C :   -0.558263   -0.079224
   4 C :   -0.724254    0.232286
   5 C :    1.256678    0.018481
   6 C :    0.658950    0.240478
   7 O :   -1.189626    0.219256
   8 C :   -0.326368   -0.027084
   9 H :    0.169764    0.010166
  10 H :    0.170744    0.010138
  11 H :   -0.054147   -0.000079
  12 H :    0.085168   -0.017804
  13 H :    0.273314   -0.005093
  14 F :   -0.555308    0.015639
  15 H :    0.261049   -0.002562
  16 H :    0.111216   -0.003183
Sum of atomic charges         :   -1.0000000

LOEWDIN ATOMIC CHARGES AND SPIN POPULATIONS
-------------------------------------------
   0 C :    0.146015    0.092386
   1 C :    0.129755    0.026261
   2 C :   -0.578311    0.131724
   3 C :    0.128986    0.025506
   4 C :    0.130134    0.091660
   5 C :   -0.212094    0.118916
   6 C :   -0.677759    0.190807
   7 O :    0.334455    0.198770
   8 C :    0.489937    0.036279
   9 H :   -0.180141    0.009564
  10 H :   -0.180183    0.009560
  11 H :   -0.205330   -0.000794
  12 H :   -0.217035    0.020517
  13 H :   -0.190453   -0.004986
  14 F :    0.475793    0.038423
  15 H :   -0.189225   -0.004625
  16 H :   -0.204545    0.020033

  Mayer bond orders larger than 0.100000
B(  0-C ,  1-C ) :   1.2369 B(  0-C ,  2-C ) :  -0.1558 B(  0-C ,  4-C ) :  -0.2349
B(  0-C ,  5-C ) :   0.3699 B(  0-C ,  6-C ) :   0.1695 B(  0-C , 16-H ) :   1.1013
B(  1-C ,  2-C ) :   1.3538 B(  1-C ,  3-C ) :   0.2465 B(  1-C , 14-F ) :   0.2135
B(  1-C , 15-H ) :   0.6278 B(  2-C ,  3-C ) :   1.3584 B(  2-C ,  4-C ) :  -0.2036
B(  3-C ,  4-C ) :   1.5068 B(  3-C , 13-H ) :   0.6351 B(  3-C , 14-F ) :   0.2001
B(  4-C ,  5-C ) :   0.3147 B(  4-C ,  6-C ) :   0.2627 B(  4-C , 12-H ) :   0.9585
B(  5-C ,  6-C ) :   0.5632 B(  5-C ,  7-O ) :   0.2511 B(  6-C ,  7-O ) :   0.2286
B(  6-C ,  8-C ) :   1.0456 B(  7-O , 12-H ) :   0.1625 B(  8-C ,  9-H ) :   0.9508
B(  8-C , 10-H ) :   0.9505 B(  8-C , 11-H ) :   1.0571 B( 12-H , 16-H ) :   0.1164
B( 13-H , 14-F ) :   0.1470 B( 14-F , 15-H ) :   0.1322

Dispersion correction           -0.020384462
FINAL SINGLE POINT ENERGY      -484.439732146538

DIPOLE MOMENT
-------------

Method             : SCF
Type of density    : Electron Density
Multiplicity       :   2
Irrep              :   0
Energy             :  -484.4193476843364579 Eh
Relativity type    :
Basis              : AO
                                X                 Y                 Z
Electronic contribution:     11.367323442      -2.906161668       0.001160280
Nuclear contribution   :     -9.605928906       4.332386022      -0.000475554
                        -----------------------------------------
Total Dipole Moment    :      1.761394536       1.426224355       0.000684726
                        -----------------------------------------
Magnitude (a.u.)       :      2.266412824
Magnitude (Debye)      :      5.760763584

Rotational constants in cm-1:             0.120873             0.025381             0.021060
Rotational constants in MHz :          3623.689684           760.893162           631.349310

                             ****ORCA TERMINATED NORMALLY****
TOTAL RUN TIME: 0 days 0 hours 7 minutes 53 seconds 506 msec
