                         Program Version 6.0.0  -   RELEASE  -
|  1> !r2SCANh aug-cc-pVTZ d3 TightSCF SlowConv RIJCOSX defgrid2
|  2>
|  3> %pal
|  4> nprocs 4
|  5> end
|  6>
|  7> %scf
|  8> MaxIter 1500
|  9> end
| 10>
| 11> %maxcore 3000
| 12>
| 13> !CPCM
| 14> %cpcm smd true
| 15> SMDsolvent "MeCN"
| 16> surfacetype gepol_ses
| 17> rsolv 2.19
| 18> end
| 19>
| 20> * xyz 0 1
| 21> C          -1.45296729722658     -1.28151002156026      0.14194546330159
| 22> C          -0.60306064093871     -0.04446072545809      0.33193281816932
| 23> C          -1.12567582222179      1.18572814043815      0.12630733698000
| 24> C          -2.55837598067552      1.44742458580996     -0.24068448507496
| 25> C          -3.28245282065203      0.19560476706937     -0.72004405890606
| 26> C          -2.94627665247128     -0.98032771771694      0.18458848750905
| 27> H          -3.24213594686381     -0.73932071348069      1.22299729825620
| 28> H          -3.51449794303560     -1.88061999821498     -0.10780941455212
| 29> H          -2.96673003571617     -0.04268032662380     -1.75366325316112
| 30> H          -4.37226581908345      0.36951687899438     -0.75213967938313
| 31> H          -3.09908269921816      1.87422825597419      0.63030428128422
| 32> H          -2.60322712915400      2.23069777526909     -1.02025270689355
| 33> H          -0.49994736161941      2.07353459912717      0.25424693160649
| 34> N           0.69303529191099     -0.28438264709477      0.79958397475949
| 35> C           1.57818723018607      0.82467461252518      1.08644856048943
| 36> H           1.00739506236315      1.66619965765170      1.50706427051622
| 37> C           2.37028080978361      1.23291703973064     -0.15041034302315
| 38> H           3.11077065191675      2.01322480282712      0.09126019237819
| 39> H           1.68417673001968      1.63130127074136     -0.92725467919408
| 40> O           3.09036409417407      0.13568205210303     -0.65709465576006
| 41> C           2.25560936007911     -0.95058613299193     -0.96380125980268
| 42> H           1.55178445834774     -0.67753645106666     -1.78072161009415
| 43> C           1.45943271566799     -1.39404343918770      0.25851152105089
| 44> H           2.16510802761640     -1.74198715640152      1.03622997878760
| 45> H           0.80313522562159     -2.23935561078539      0.00674701884856
| 46> H           2.90949410693522     -1.76130630349583     -1.32634069968529
| 47> H           2.29502525894536      0.49140375143543      1.86065453402124
| 48> H          -1.20950686050662     -1.76150886737077     -0.82651158365816
| 49> H          -1.19559941418460     -2.01612497824744      0.92558666123002
| 50> *
| 51>
| 52>                          ****END OF INPUT****

CARTESIAN COORDINATES (ANGSTROEM)
---------------------------------
  C     -1.452967   -1.281510    0.141945
  C     -0.603061   -0.044461    0.331933
  C     -1.125676    1.185728    0.126307
  C     -2.558376    1.447425   -0.240684
  C     -3.282453    0.195605   -0.720044
  C     -2.946277   -0.980328    0.184588
  H     -3.242136   -0.739321    1.222997
  H     -3.514498   -1.880620   -0.107809
  H     -2.966730   -0.042680   -1.753663
  H     -4.372266    0.369517   -0.752140
  H     -3.099083    1.874228    0.630304
  H     -2.603227    2.230698   -1.020253
  H     -0.499947    2.073535    0.254247
  N      0.693035   -0.284383    0.799584
  C      1.578187    0.824675    1.086449
  H      1.007395    1.666200    1.507064
  C      2.370281    1.232917   -0.150410
  H      3.110771    2.013225    0.091260
  H      1.684177    1.631301   -0.927255
  O      3.090364    0.135682   -0.657095
  C      2.255609   -0.950586   -0.963801
  H      1.551784   -0.677536   -1.780722
  C      1.459433   -1.394043    0.258512
  H      2.165108   -1.741987    1.036230
  H      0.803135   -2.239356    0.006747
  H      2.909494   -1.761306   -1.326341
  H      2.295025    0.491404    1.860655
  H     -1.209507   -1.761509   -0.826512
  H     -1.195599   -2.016125    0.925587

 Total Charge           Charge          ....    0
 Multiplicity           Mult            ....    1
 Number of Electrons    NEL             ....   92
 Basis Dimension        Dim             ....  943

ORBITAL ENERGIES
----------------

  NO   OCC          E(Eh)            E(eV)
   0   2.0000     -19.119361      -520.2643
   1   2.0000     -14.311024      -389.4228
   2   2.0000     -10.193166      -277.3701
   3   2.0000     -10.192713      -277.3578
   4   2.0000     -10.181919      -277.0641
   5   2.0000     -10.176073      -276.9050
   6   2.0000     -10.174075      -276.8507
   7   2.0000     -10.149164      -276.1728
   8   2.0000     -10.144522      -276.0465
   9   2.0000     -10.143689      -276.0238
  10   2.0000     -10.140942      -275.9491
  11   2.0000     -10.126550      -275.5574
  12   2.0000      -1.048454       -28.5299
  13   2.0000      -0.941171       -25.6106
  14   2.0000      -0.821170       -22.3452
  15   2.0000      -0.767194       -20.8764
  16   2.0000      -0.740041       -20.1375
  17   2.0000      -0.730077       -19.8664
  18   2.0000      -0.669032       -18.2053
  19   2.0000      -0.650829       -17.7100
  20   2.0000      -0.604473       -16.4485
  21   2.0000      -0.591129       -16.0854
  22   2.0000      -0.556105       -15.1324
  23   2.0000      -0.510588       -13.8938
  24   2.0000      -0.491155       -13.3650
  25   2.0000      -0.464477       -12.6391
  26   2.0000      -0.461973       -12.5709
  27   2.0000      -0.450846       -12.2681
  28   2.0000      -0.447919       -12.1885
  29   2.0000      -0.432854       -11.7786
  30   2.0000      -0.411378       -11.1942
  31   2.0000      -0.406102       -11.0506
  32   2.0000      -0.392828       -10.6894
  33   2.0000      -0.381121       -10.3708
  34   2.0000      -0.372148       -10.1267
  35   2.0000      -0.359233        -9.7752
  36   2.0000      -0.356258        -9.6943
  37   2.0000      -0.338828        -9.2200
  38   2.0000      -0.334073        -9.0906
  39   2.0000      -0.312479        -8.5030
  40   2.0000      -0.306672        -8.3450
  41   2.0000      -0.301287        -8.1984
  42   2.0000      -0.288153        -7.8410
  43   2.0000      -0.272855        -7.4247
  44   2.0000      -0.243374        -6.6225
  45   2.0000      -0.173789        -4.7290
  46   0.0000       0.007422         0.2020
  47   0.0000       0.017342         0.4719
  48   0.0000       0.022517         0.6127
  49   0.0000       0.023895         0.6502
  50   0.0000       0.029008         0.7894

MULLIKEN ATOMIC CHARGES
-----------------------
   0 C :   -0.092252
   1 C :    1.709988
   2 C :   -0.687440
   3 C :   -0.306221
   4 C :   -0.308341
   5 C :   -0.569873
   6 H :    0.074531
   7 H :    0.205524
   8 H :    0.117601
   9 H :    0.211248
  10 H :    0.140739
  11 H :    0.166252
  12 H :   -0.341567
  13 N :   -0.090243
  14 C :   -0.696498
  15 H :    0.108217
  16 C :   -0.057623
  17 H :    0.300427
  18 H :    0.226577
  19 O :   -0.712559
  20 C :   -0.112586
  21 H :    0.249791
  22 C :   -0.603380
  23 H :    0.222396
  24 H :    0.147346
  25 H :    0.261705
  26 H :    0.148881
  27 H :    0.156560
  28 H :    0.130798
Sum of atomic charges:    0.0000000

LOEWDIN ATOMIC CHARGES
----------------------
   0 C :    0.268079
   1 C :   -0.195419
   2 C :    0.240598
   3 C :    0.240837
   4 C :    0.263100
   5 C :    0.274879
   6 H :   -0.126331
   7 H :   -0.127736
   8 H :   -0.129673
   9 H :   -0.131245
  10 H :   -0.138202
  11 H :   -0.142910
  12 H :   -0.201857
  13 N :    0.274198
  14 C :    0.172305
  15 H :   -0.152272
  16 C :    0.034929
  17 H :   -0.141391
  18 H :   -0.142703
  19 O :    0.589222
  20 C :    0.034788
  21 H :   -0.133058
  22 C :    0.179601
  23 H :   -0.123078
  24 H :   -0.159083
  25 H :   -0.141980
  26 H :   -0.126225
  27 H :   -0.125399
  28 H :   -0.133975

  Mayer bond orders larger than 0.100000
B(  0-C ,  1-C ) :   0.6746 B(  0-C ,  2-C ) :  -0.1995 B(  0-C ,  5-C ) :   0.8023
B(  0-C , 27-H ) :   1.0357 B(  0-C , 28-H ) :   1.0269 B(  1-C ,  4-C ) :  -0.1312
B(  1-C , 12-H ) :  -0.3513 B(  1-C , 13-N ) :   0.1636 B(  1-C , 14-C ) :  -0.1783
B(  2-C ,  3-C ) :   0.5050 B(  2-C ,  4-C ) :   0.1658 B(  2-C , 11-H ) :  -0.1042
B(  2-C , 12-H ) :   1.7780 B(  2-C , 13-N ) :  -0.2325 B(  2-C , 14-C ) :  -0.1029
B(  3-C ,  4-C ) :   0.9146 B(  3-C , 10-H ) :   1.0324 B(  3-C , 11-H ) :   1.0051
B(  3-C , 12-H ) :  -0.1466 B(  4-C ,  5-C ) :   0.9267 B(  4-C ,  8-H ) :   1.0361
B(  4-C ,  9-H ) :   0.9353 B(  5-C ,  6-H ) :   1.1117 B(  5-C ,  7-H ) :   0.9250
B( 12-H , 14-C ) :  -0.1350 B( 13-N , 14-C ) :   1.0961 B( 13-N , 22-C ) :   0.9034
B( 14-C , 15-H ) :   1.0875 B( 14-C , 16-C ) :   0.7700 B( 14-C , 19-O ) :   0.1079
B( 14-C , 22-C ) :   0.2850 B( 14-C , 26-H ) :   0.9680 B( 16-C , 17-H ) :   0.8958
B( 16-C , 18-H ) :   0.9780 B( 16-C , 19-O ) :   0.7635 B( 19-O , 20-C ) :   0.8036
B( 20-C , 21-H ) :   0.9607 B( 20-C , 22-C ) :   0.8798 B( 20-C , 25-H ) :   0.9157
B( 22-C , 23-H ) :   0.9627 B( 22-C , 24-H ) :   0.9851

Dispersion correction           -0.010315068
FINAL SINGLE POINT ENERGY      -521.128163254851

DIPOLE MOMENT
-------------

Method             : SCF
Type of density    : Electron Density
Multiplicity       :   1
Irrep              :   0
Energy             :  -521.1178481865188132 Eh
Relativity type    :
Basis              : AO
                                X                 Y                 Z
Electronic contribution:      6.429303811       0.161657922       0.924746616
Nuclear contribution   :     -6.702563356      -0.526145010      -0.941660721
                        -----------------------------------------
Total Dipole Moment    :     -0.273259545      -0.364487088      -0.016914104
                        -----------------------------------------
Magnitude (a.u.)       :      0.455859302
Magnitude (Debye)      :      1.158702261

Rotational constants in cm-1:             0.066375             0.019173             0.017047
Rotational constants in MHz :          1989.867281           574.782651           511.066485

                             ****ORCA TERMINATED NORMALLY****
TOTAL RUN TIME: 0 days 0 hours 16 minutes 8 seconds 219 msec
