                         Program Version 6.0.0  -   RELEASE  -
|  1> !r2SCANh freq aug-cc-pVTZ d3 TightSCF SlowConv RIJCOSX defgrid2
|  2>
|  3> %pal
|  4> nprocs 12
|  5> end
|  6>
|  7> %scf
|  8> MaxIter 1500
|  9> end
| 10>
| 11> %maxcore 5000
| 12>
| 13> !CPCM
| 14> %cpcm smd true
| 15> SMDsolvent "MeCN"
| 16> surfacetype gepol_ses
| 17> rsolv 2.19
| 18> end
| 19>
| 20> * xyz 0 1
| 21>   C          -0.32910924583275      0.79566138805732      0.00105412390614
| 22>   C          -1.61773399869673      0.26221647872042     -0.00011241609275
| 23>   C          -1.79936794380523     -1.11707068506011      0.00069571977931
| 24>   C          -0.67371428727960     -1.93859046250061      0.00317712050224
| 25>   C           0.60469123546285     -1.41695310610432      0.00441958010168
| 26>   C           0.79471733551394     -0.02622626245023      0.00291031002148
| 27>   C           2.11430397433998      0.60500411846974      0.00348256025569
| 28>   C           3.29812108866340     -0.01211089048318     -0.00324856128071
| 29>   C           4.60898784417161      0.68811550241639     -0.00211080001870
| 30>   H           5.19887926867226      0.41184744182150     -0.87976826924523
| 31>   H           5.20460121977467      0.39734357362095      0.86697008782213
| 32>   H           4.48944661863695      1.77069633649110      0.00715431048812
| 33>   H           3.34072046192546     -1.09681263307506     -0.01051561804695
| 34>   H           2.10230769489580      1.69165280072256      0.00929496922486
| 35>   H           1.45234372875723     -2.08715253727964      0.00738786718307
| 36>   H          -0.81212390743979     -3.01199285457522      0.00465768316119
| 37>   H          -2.78512205644795     -1.55555625192315     -0.00066823318032
| 38>   O          -2.62679132271599      1.16489750581779     -0.00195771226351
| 39>   C          -3.95627361472459      0.66213039518484     -0.00270572185563
| 40>   H          -4.60455193001439      1.53297183321914     -0.00361551545497
| 41>   H          -4.15164199010305      0.06475977777623      0.88929267316872
| 42>   H          -4.15015671517176      0.06413076898192     -0.89454929523295
| 43>   H          -0.21536925858231      1.87240076215162      0.00000973705708
| 44> *
| 45>
| 46>                          ****END OF INPUT****

CARTESIAN COORDINATES (ANGSTROEM)
---------------------------------
  C     -0.329109    0.795661    0.001054
  C     -1.617734    0.262216   -0.000112
  C     -1.799368   -1.117071    0.000696
  C     -0.673714   -1.938590    0.003177
  C      0.604691   -1.416953    0.004420
  C      0.794717   -0.026226    0.002910
  C      2.114304    0.605004    0.003483
  C      3.298121   -0.012111   -0.003249
  C      4.608988    0.688116   -0.002111
  H      5.198879    0.411847   -0.879768
  H      5.204601    0.397344    0.866970
  H      4.489447    1.770696    0.007154
  H      3.340720   -1.096813   -0.010516
  H      2.102308    1.691653    0.009295
  H      1.452344   -2.087153    0.007388
  H     -0.812124   -3.011993    0.004658
  H     -2.785122   -1.555556   -0.000668
  O     -2.626791    1.164898   -0.001958
  C     -3.956274    0.662130   -0.002706
  H     -4.604552    1.532972   -0.003616
  H     -4.151642    0.064760    0.889293
  H     -4.150157    0.064131   -0.894549
  H     -0.215369    1.872401    0.000010

 Total Charge           Charge          ....    0
 Multiplicity           Mult            ....    1
 Number of Electrons    NEL             ....   80
 Basis Dimension        Dim             ....  782

ORBITAL ENERGIES
----------------

  NO   OCC          E(Eh)            E(eV)
   0   2.0000     -19.150209      -521.1037
   1   2.0000     -10.218603      -278.0623
   2   2.0000     -10.193907      -277.3903
   3   2.0000     -10.171571      -276.7825
   4   2.0000     -10.159202      -276.4459
   5   2.0000     -10.158154      -276.4174
   6   2.0000     -10.152390      -276.2606
   7   2.0000     -10.152237      -276.2564
   8   2.0000     -10.151559      -276.2380
   9   2.0000     -10.148936      -276.1666
  10   2.0000     -10.142334      -275.9869
  11   2.0000      -1.073331       -29.2068
  12   2.0000      -0.862036       -23.4572
  13   2.0000      -0.801412       -21.8075
  14   2.0000      -0.756299       -20.5799
  15   2.0000      -0.749748       -20.4017
  16   2.0000      -0.689801       -18.7704
  17   2.0000      -0.677125       -18.4255
  18   2.0000      -0.601484       -16.3672
  19   2.0000      -0.594900       -16.1881
  20   2.0000      -0.542815       -14.7707
  21   2.0000      -0.515750       -14.0343
  22   2.0000      -0.478262       -13.0142
  23   2.0000      -0.471418       -12.8279
  24   2.0000      -0.456684       -12.4270
  25   2.0000      -0.451036       -12.2733
  26   2.0000      -0.421796       -11.4777
  27   2.0000      -0.408179       -11.1071
  28   2.0000      -0.400470       -10.8973
  29   2.0000      -0.387780       -10.5520
  30   2.0000      -0.378194       -10.2912
  31   2.0000      -0.374088       -10.1794
  32   2.0000      -0.356953        -9.7132
  33   2.0000      -0.340889        -9.2761
  34   2.0000      -0.332206        -9.0398
  35   2.0000      -0.324749        -8.8369
  36   2.0000      -0.312993        -8.5170
  37   2.0000      -0.286319        -7.7911
  38   2.0000      -0.227239        -6.1835
  39   2.0000      -0.213062        -5.7977
  40   0.0000      -0.046798        -1.2734
  41   0.0000      -0.018054        -0.4913
  42   0.0000       0.010190         0.2773
  43   0.0000       0.020817         0.5665
  44   0.0000       0.023185         0.6309

MULLIKEN ATOMIC CHARGES
-----------------------
   0 C :   -1.171922
   1 C :    0.882144
   2 C :   -0.000612
   3 C :   -0.965269
   4 C :   -0.548001
   5 C :    2.034851
   6 C :   -0.144217
   7 C :   -0.222827
   8 C :   -0.838447
   9 H :    0.176448
  10 H :    0.178901
  11 H :    0.258362
  12 H :    0.084799
  13 H :   -0.106715
  14 H :    0.122519
  15 H :    0.470772
  16 H :    0.215410
  17 O :   -0.626281
  18 C :   -0.669652
  19 H :    0.240128
  20 H :    0.266262
  21 H :    0.266101
  22 H :    0.097247
Sum of atomic charges:    0.0000000

LOEWDIN ATOMIC CHARGES
----------------------
   0 C :    0.209396
   1 C :   -0.404074
   2 C :    0.203828
   3 C :    0.190353
   4 C :    0.200825
   5 C :   -0.160022
   6 C :    0.206152
   7 C :    0.208684
   8 C :    0.567609
   9 H :   -0.170152
  10 H :   -0.170221
  11 H :   -0.179601
  12 H :   -0.189919
  13 H :   -0.190629
  14 H :   -0.196109
  15 H :   -0.176397
  16 H :   -0.202317
  17 O :    0.595846
  18 C :    0.356151
  19 H :   -0.178945
  20 H :   -0.171404
  21 H :   -0.171434
  22 H :   -0.177619

  Mayer bond orders larger than 0.100000
B(  0-C ,  1-C ) :   0.5431 B(  0-C ,  4-C ) :  -0.2947 B(  0-C ,  5-C ) :  -0.1468
B(  0-C ,  6-C ) :  -0.1958 B(  0-C ,  7-C ) :   0.2200 B(  0-C , 17-O ) :   0.3065
B(  0-C , 22-H ) :   1.2726 B(  1-C ,  2-C ) :   0.9983 B(  1-C ,  4-C ) :  -0.2396
B(  1-C , 17-O ) :   0.1850 B(  1-C , 18-C ) :   0.1189 B(  1-C , 22-H ) :  -0.1232
B(  2-C ,  3-C ) :   0.8375 B(  2-C , 16-H ) :   1.0694 B(  2-C , 17-O ) :  -0.2560
B(  2-C , 18-C ) :  -0.1883 B(  3-C ,  4-C ) :   0.8976 B(  3-C ,  5-C ) :  -0.1470
B(  3-C ,  6-C ) :   0.1146 B(  3-C ,  7-C ) :  -0.1398 B(  3-C , 14-H ) :  -0.1593
B(  3-C , 15-H ) :   0.4984 B(  3-C , 16-H ) :  -0.1014 B(  4-C ,  5-C ) :   0.2982
B(  4-C , 14-H ) :   1.1950 B(  5-C ,  7-C ) :  -0.1605 B(  5-C ,  8-C ) :   0.1221
B(  5-C , 12-H ) :  -0.2096 B(  5-C , 13-H ) :  -0.1353 B(  5-C , 14-H ) :  -0.1610
B(  5-C , 16-H ) :  -0.1018 B(  5-C , 17-O ) :   0.1329 B(  5-C , 22-H ) :  -0.1521
B(  6-C ,  7-C ) :   0.8765 B(  6-C , 13-H ) :   1.4323 B(  6-C , 22-H ) :  -0.1068
B(  7-C ,  8-C ) :   0.4815 B(  7-C , 12-H ) :   1.5137 B(  7-C , 13-H ) :  -0.1786
B(  8-C ,  9-H ) :   1.0688 B(  8-C , 10-H ) :   1.0664 B(  8-C , 11-H ) :   0.9475
B(  8-C , 12-H ) :  -0.1614 B( 16-H , 18-C ) :  -0.1570 B( 17-O , 18-C ) :   0.9959
B( 18-C , 19-H ) :   0.9755 B( 18-C , 20-H ) :   0.9292 B( 18-C , 21-H ) :   0.9299

Dispersion correction           -0.007273785
FINAL SINGLE POINT ENERGY      -463.384377295547

DIPOLE MOMENT
-------------

Method             : SCF
Type of density    : Electron Density
Multiplicity       :   1
Irrep              :   0
Energy             :  -463.3771035104103362 Eh
Relativity type    :
Basis              : AO
                                X                 Y                 Z
Electronic contribution:     -5.053645107      -0.357779459       0.006568422
Nuclear contribution   :      4.743488460       0.014797971      -0.008302262
                        -----------------------------------------
Total Dipole Moment    :     -0.310156647      -0.342981488      -0.001733839
                        -----------------------------------------
Magnitude (a.u.)       :      0.462424538
Magnitude (Debye)      :      1.175389765

VIBRATIONAL FREQUENCIES
-----------------------

Scaling factor for frequencies =  1.000000000  (already applied!)

     0:       0.00 cm**-1
     1:       0.00 cm**-1
     2:       0.00 cm**-1
     3:       0.00 cm**-1
     4:       0.00 cm**-1
     5:       0.00 cm**-1
     6:     -35.87 cm**-1 ***imaginary mode***
     7:      80.17 cm**-1
     8:     123.96 cm**-1
     9:     129.11 cm**-1
    10:     200.51 cm**-1
    11:     207.37 cm**-1
    12:     258.93 cm**-1
    13:     269.06 cm**-1
    14:     298.95 cm**-1
    15:     336.14 cm**-1
    16:     367.93 cm**-1
    17:     466.16 cm**-1
    18:     484.40 cm**-1
    19:     583.33 cm**-1
    20:     615.86 cm**-1
    21:     638.83 cm**-1
    22:     706.16 cm**-1
    23:     775.45 cm**-1
    24:     786.80 cm**-1
    25:     827.57 cm**-1
    26:     885.22 cm**-1
    27:     900.27 cm**-1
    28:     903.24 cm**-1
    29:     974.64 cm**-1
    30:     993.44 cm**-1
    31:    1005.97 cm**-1
    32:    1014.03 cm**-1
    33:    1065.23 cm**-1
    34:    1072.35 cm**-1
    35:    1118.17 cm**-1
    36:    1132.42 cm**-1
    37:    1173.01 cm**-1
    38:    1178.71 cm**-1
    39:    1198.12 cm**-1
    40:    1218.48 cm**-1
    41:    1296.64 cm**-1
    42:    1318.50 cm**-1
    43:    1326.75 cm**-1
    44:    1346.16 cm**-1
    45:    1389.54 cm**-1
    46:    1396.24 cm**-1
    47:    1457.55 cm**-1
    48:    1459.35 cm**-1
    49:    1471.30 cm**-1
    50:    1480.03 cm**-1
    51:    1485.82 cm**-1
    52:    1492.23 cm**-1
    53:    1529.92 cm**-1
    54:    1623.16 cm**-1
    55:    1654.35 cm**-1
    56:    1715.12 cm**-1
    57:    3026.90 cm**-1
    58:    3034.64 cm**-1
    59:    3077.55 cm**-1
    60:    3106.17 cm**-1
    61:    3121.04 cm**-1
    62:    3135.18 cm**-1
    63:    3153.79 cm**-1
    64:    3165.44 cm**-1
    65:    3185.97 cm**-1
    66:    3187.74 cm**-1
    67:    3207.77 cm**-1
    68:    3230.30 cm**-1

IR SPECTRUM
-----------

 Mode   freq       eps      Int      T**2         TX        TY        TZ
       cm**-1   L/(mol*cm) km/mol    a.u.
----------------------------------------------------------------------------
  7:     80.17   0.001730    8.74  0.006732  (-0.000301 -0.000530 -0.082045)
  8:    123.96   0.000469    2.37  0.001181  (-0.023642  0.024943 -0.000226)
  9:    129.11   0.000137    0.69  0.000331  (-0.000174  0.000053 -0.018179)
 10:    200.51   0.000179    0.90  0.000278  (-0.000188 -0.000078  0.016667)
 11:    207.37   0.000228    1.15  0.000343  (-0.000414  0.000496 -0.018522)
 12:    258.93   0.000613    3.10  0.000739  ( 0.005102  0.026687  0.000616)
 13:    269.06   0.000132    0.67  0.000153  ( 0.000273  0.001137 -0.012320)
 14:    298.95   0.000021    0.11  0.000022  (-0.000234 -0.000057  0.004711)
 15:    336.14   0.000083    0.42  0.000077  ( 0.007806  0.003994  0.000010)
 16:    367.93   0.000298    1.51  0.000253  ( 0.015498 -0.003571  0.000128)
 17:    466.16   0.001448    7.32  0.000969  ( 0.000049  0.000106 -0.031131)
 18:    484.40   0.000296    1.50  0.000191  (-0.009169 -0.010331  0.000228)
 19:    583.33   0.003032   15.32  0.001622  ( 0.024999 -0.031577 -0.000198)
 20:    615.86   0.000108    0.54  0.000055  ( 0.000143 -0.000009  0.007390)
 21:    638.83   0.000348    1.76  0.000170  (-0.007434 -0.010716 -0.000036)
 22:    706.16   0.009436   47.68  0.004170  ( 0.000180  0.000085  0.064574)
 23:    775.45   0.002383   12.04  0.000959  (-0.027950  0.013285 -0.001048)
 24:    786.80   0.017305   87.45  0.006864  (-0.000240  0.000475  0.082846)
 25:    827.57   0.000375    1.90  0.000141  ( 0.000070 -0.000161  0.011890)
 26:    885.22   0.001845    9.33  0.000651  ( 0.000736  0.000004  0.025495)
 27:    900.27   0.004915   24.84  0.001704  ( 0.001217 -0.000215 -0.041259)
 28:    903.24   0.010414   52.63  0.003598  (-0.050580  0.032235 -0.000625)
 29:    974.64   0.009403   47.52  0.003011  (-0.054521 -0.006166  0.000447)
 30:    993.44   0.001611    8.14  0.000506  (-0.000553 -0.000344  0.022488)
 31:   1005.97   0.016782   84.81  0.005206  ( 0.000415 -0.000611  0.072148)
 32:   1014.03   0.000560    2.83  0.000172  ( 0.003214 -0.012725 -0.000412)
 33:   1065.23   0.000110    0.56  0.000032  ( 0.000429 -0.000110 -0.005659)
 34:   1072.35   0.024880  125.73  0.007240  ( 0.084543  0.009628  0.000029)
 35:   1118.17   0.002517   12.72  0.000703  ( 0.006749  0.025631  0.000171)
 36:   1132.42   0.000384    1.94  0.000106  ( 0.008267 -0.006131  0.000109)
 37:   1173.01   0.000239    1.21  0.000063  ( 0.002867 -0.001035  0.007359)
 38:   1178.71   0.017740   89.65  0.004697  (-0.065718  0.019434  0.000288)
 39:   1198.12   0.003495   17.66  0.000910  ( 0.028753 -0.009140 -0.000037)
 40:   1218.48   0.003122   15.78  0.000800  ( 0.023995 -0.014961  0.000139)
 41:   1296.64   0.061930  312.97  0.014905  ( 0.109669 -0.053642  0.000085)
 42:   1318.50   0.004140   20.92  0.000980  (-0.029858  0.009402 -0.000098)
 43:   1326.75   0.003267   16.51  0.000768  (-0.021790  0.017135 -0.000104)
 44:   1346.16   0.001681    8.49  0.000390  (-0.017161  0.009753  0.000039)
 45:   1389.54   0.008554   43.23  0.001921  (-0.042817  0.009369 -0.000113)
 46:   1396.24   0.000578    2.92  0.000129  (-0.009965 -0.005450  0.000322)
 47:   1457.55   0.003755   18.97  0.000804  (-0.009617  0.006831 -0.025782)
 48:   1459.35   0.019984  100.99  0.004273  (-0.054556  0.035635  0.005195)
 49:   1471.30   0.000001    0.01  0.000000  ( 0.000001 -0.000197  0.000505)
 50:   1480.03   0.002999   15.15  0.000632  (-0.003520  0.001596 -0.024846)
 51:   1485.82   0.001763    8.91  0.000370  ( 0.018207 -0.005604 -0.002698)
 52:   1492.23   0.002796   14.13  0.000585  (-0.014799  0.019124  0.000116)
 53:   1529.92   0.021755  109.94  0.004437  (-0.062689  0.022529  0.000047)
 54:   1623.16   0.032936  166.44  0.006332  ( 0.052314 -0.059962  0.000052)
 55:   1654.35   0.036106  182.46  0.006811  (-0.082523 -0.000871 -0.000006)
 56:   1715.12   0.005092   25.73  0.000927  (-0.030327 -0.002604  0.000008)
 57:   3026.90   0.009511   48.06  0.000981  ( 0.030607  0.006614  0.000044)
 58:   3034.64   0.015209   76.86  0.001564  (-0.038506 -0.009015  0.000023)
 59:   3077.55   0.004587   23.18  0.000465  (-0.000133  0.000101 -0.021567)
 60:   3106.17   0.010224   51.67  0.001027  (-0.000075 -0.000157 -0.032050)
 61:   3121.04   0.004278   21.62  0.000428  (-0.003159  0.020438  0.000189)
 62:   3135.18   0.004771   24.11  0.000475  ( 0.011382  0.018583  0.000115)
 63:   3153.79   0.009469   47.85  0.000937  (-0.002905 -0.030472 -0.000172)
 64:   3165.44   0.005554   28.07  0.000547  (-0.012377  0.019857 -0.000005)
 65:   3185.97   0.004117   20.81  0.000403  ( 0.005073  0.019431  0.000034)
 66:   3187.74   0.000830    4.19  0.000081  ( 0.006045 -0.006684 -0.000048)
 67:   3207.77   0.004131   20.87  0.000402  (-0.008808  0.018007 -0.000000)
 68:   3230.30   0.000667    3.37  0.000064  ( 0.007016  0.003896 -0.000042)

--------------------------
THERMOCHEMISTRY AT 298.15K
--------------------------

Temperature         ...   298.15 K
Pressure            ...     1.00 atm
Total Mass          ...   148.21 AMU
Quasi RRHO          ...     True
Cut-Off Frequency   ...     1.00 cm^-1

Throughout the following assumptions are being made:
  (1) The electronic state is orbitally nondegenerate
  (2) There are no thermally accessible electronically excited states
  (3) Hindered rotations indicated by low frequency modes are not
      treated as such but are treated as vibrations and this may
      cause some error
  (4) All equations used are the standard statistical mechanics
      equations for an ideal gas
  (5) All vibrations are strictly harmonic

freq.      80.17  E(vib)   ...       0.49
freq.     123.96  E(vib)   ...       0.43
freq.     129.11  E(vib)   ...       0.43
freq.     200.51  E(vib)   ...       0.35
freq.     207.37  E(vib)   ...       0.34
freq.     258.93  E(vib)   ...       0.30
freq.     269.06  E(vib)   ...       0.29
freq.     298.95  E(vib)   ...       0.26
freq.     336.14  E(vib)   ...       0.24
freq.     367.93  E(vib)   ...       0.21
freq.     466.16  E(vib)   ...       0.16
freq.     484.40  E(vib)   ...       0.15
freq.     583.33  E(vib)   ...       0.11
freq.     615.86  E(vib)   ...       0.10
freq.     638.83  E(vib)   ...       0.09
freq.     706.16  E(vib)   ...       0.07
freq.     775.45  E(vib)   ...       0.05
freq.     786.80  E(vib)   ...       0.05
freq.     827.57  E(vib)   ...       0.04
freq.     885.22  E(vib)   ...       0.04
freq.     900.27  E(vib)   ...       0.03
freq.     903.24  E(vib)   ...       0.03
freq.     974.64  E(vib)   ...       0.03
freq.     993.44  E(vib)   ...       0.02
freq.    1005.97  E(vib)   ...       0.02
freq.    1014.03  E(vib)   ...       0.02
freq.    1065.23  E(vib)   ...       0.02
freq.    1072.35  E(vib)   ...       0.02
freq.    1118.17  E(vib)   ...       0.01
freq.    1132.42  E(vib)   ...       0.01
freq.    1173.01  E(vib)   ...       0.01
freq.    1178.71  E(vib)   ...       0.01
freq.    1198.12  E(vib)   ...       0.01
freq.    1218.48  E(vib)   ...       0.01
freq.    1296.64  E(vib)   ...       0.01
freq.    1318.50  E(vib)   ...       0.01
freq.    1326.75  E(vib)   ...       0.01
freq.    1346.16  E(vib)   ...       0.01
freq.    1389.54  E(vib)   ...       0.00
freq.    1396.24  E(vib)   ...       0.00
freq.    1457.55  E(vib)   ...       0.00
freq.    1459.35  E(vib)   ...       0.00
freq.    1471.30  E(vib)   ...       0.00
freq.    1480.03  E(vib)   ...       0.00
freq.    1485.82  E(vib)   ...       0.00
freq.    1492.23  E(vib)   ...       0.00
freq.    1529.92  E(vib)   ...       0.00
freq.    1623.16  E(vib)   ...       0.00
freq.    1654.35  E(vib)   ...       0.00
freq.    1715.12  E(vib)   ...       0.00
freq.    3026.90  E(vib)   ...       0.00
freq.    3034.64  E(vib)   ...       0.00
freq.    3077.55  E(vib)   ...       0.00
freq.    3106.17  E(vib)   ...       0.00
freq.    3121.04  E(vib)   ...       0.00
freq.    3135.18  E(vib)   ...       0.00
freq.    3153.79  E(vib)   ...       0.00
freq.    3165.44  E(vib)   ...       0.00
freq.    3185.97  E(vib)   ...       0.00
freq.    3187.74  E(vib)   ...       0.00
freq.    3207.77  E(vib)   ...       0.00
freq.    3230.30  E(vib)   ...       0.00

------------
INNER ENERGY
------------

The inner energy is: U= E(el) + E(ZPE) + E(vib) + E(rot) + E(trans)
    E(el)   - is the total energy from the electronic structure calculation
              = E(kin-el) + E(nuc-el) + E(el-el) + E(nuc-nuc)
    E(ZPE)  - the the zero temperature vibrational energy from the frequency calculation
    E(vib)  - the the finite temperature correction to E(ZPE) due to population
              of excited vibrational states
    E(rot)  - is the rotational thermal energy
    E(trans)- is the translational thermal energy

Summary of contributions to the inner energy U:
Electronic energy                ...   -463.38437730 Eh
Zero point energy                ...      0.19379259 Eh     121.61 kcal/mol
Thermal vibrational correction   ...      0.00720926 Eh       4.52 kcal/mol
Thermal rotational correction    ...      0.00141627 Eh       0.89 kcal/mol
Thermal translational correction ...      0.00141627 Eh       0.89 kcal/mol
-----------------------------------------------------------------------
Total thermal energy                   -463.18054290 Eh

Summary of corrections to the electronic energy:
(perhaps to be used in another calculation)
Total thermal correction                  0.01004181 Eh       6.30 kcal/mol
Non-thermal (ZPE) correction              0.19379259 Eh     121.61 kcal/mol
-----------------------------------------------------------------------
Total correction                          0.20383439 Eh     127.91 kcal/mol

--------
ENTHALPY
--------

The enthalpy is H = U + kB*T
                kB is Boltzmann's constant
Total thermal energy              ...   -463.18054290 Eh
Thermal Enthalpy correction       ...      0.00094421 Eh       0.59 kcal/mol
-----------------------------------------------------------------------
Total Enthalpy                    ...   -463.17959869 Eh

Note: Only C1 symmetry has been detected, increase convergence thresholds
      if your molecule has a higher symmetry. Symmetry factor of 1.0 is
      used for the rotational entropy correction.

Note: Rotational entropy computed according to Herzberg
Infrared and Raman Spectra, Chapter V,1, Van Nostrand Reinhold, 1945
Point Group:  C1, Symmetry Number:   1
Rotational constants in cm-1:     0.103834     0.017073     0.014742

Vibrational entropy computed according to the QRRHO of S. Grimme
Chem.Eur.J. 2012 18 9955 using a reference frequency of 100.0 cm-1

-------
ENTROPY
-------

The entropy contributions are T*S = T*(S(el)+S(vib)+S(rot)+S(trans))
     S(el)   - electronic entropy
     S(vib)  - vibrational entropy
     S(rot)  - rotational entropy
     S(trans)- translational entropy
The entropies will be listed as multiplied by the temperature to get
units of energy

Electronic entropy                ...      0.00000000 Eh      0.00 kcal/mol
Vibrational entropy               ...      0.01210532 Eh      7.60 kcal/mol
Rotational entropy                ...      0.01449244 Eh      9.09 kcal/mol
Translational entropy             ...      0.01942844 Eh     12.19 kcal/mol
-----------------------------------------------------------------------
Final entropy term                ...      0.04602620 Eh     28.88 kcal/mol

In case the symmetry of your molecule has not been determined correctly
or in case you have a reason to use a different symmetry number we print
out the resulting rotational entropy values for sn=1,12:

                             ****ORCA TERMINATED NORMALLY****
TOTAL RUN TIME: 0 days 1 hours 0 minutes 19 seconds 189 msec
