                         Program Version 6.0.0  -   RELEASE  -
|  1> !r2SCAN opt aug-cc-pVTZ d3 TightSCF SlowConv RIJCOSX defgrid2
|  2>
|  3> %pal
|  4> nprocs 8
|  5> end
|  6>
|  7> %scf
|  8> MaxIter 1500
|  9> end
| 10>
| 11> %maxcore 3500
| 12>
| 13> !CPCM
| 14> %cpcm smd true
| 15> SMDsolvent "MeCN"
| 16> surfacetype gepol_ses
| 17> rsolv 2.19
| 18> end
| 19>
| 20> * xyz 1 2
| 21> C           0.87744843065952     -1.21883020305656     -0.00000377931808
| 22> C           1.23614385256415      0.16954678831828     -0.00005753568123
| 23> C           0.19424149048169      1.13860709962105     -0.00010423188513
| 24> C          -1.13871229830849      0.78765011017298     -0.00010761886515
| 25> C          -1.47639805753200     -0.61212175919558     -0.00004559988331
| 26> C          -0.44313247207265     -1.58385318757954     -0.00000224391858
| 27> H          -0.71685810144297     -2.64212602539406      0.00003056402544
| 28> C          -2.89571606376255     -1.03893857261662      0.00008867922043
| 29> H          -3.00213765434000     -2.13324643661373     -0.00058232712929
| 30> H          -3.42610981706820     -0.62983884560970     -0.88112182092760
| 31> H          -3.42539618531857     -0.63109402296886      0.88234176195400
| 32> C          -2.21290888782919      1.82515453001126     -0.00014347524999
| 33> H          -2.86411247883622      1.72648441322314      0.88680265880356
| 34> H          -2.86402349010390      1.72654581117049     -0.88716064088710
| 35> H          -1.78890328618740      2.84026297434392     -0.00008728403417
| 36> H           0.46977060139751      2.19725330423840     -0.00014030748002
| 37> C           2.58814654556121      0.62001515372005     -0.00006319236512
| 38> C           3.70337676945614     -0.17841322402212     -0.00002927580579
| 39> H           3.65253331490638     -1.27227115038024      0.00001025225905
| 40> H           4.70281234102144      0.26973736826902     -0.00003315173613
| 41> H           2.73668489690756      1.70605493317894     -0.00009332036310
| 42> H           1.65048734984656     -1.99000785883051      0.00003538926729
| 43> *
| 44>
| 45>                          ****END OF INPUT****
 Total Charge           Charge          ....    1
 Multiplicity           Mult            ....    2
 Number of Electrons    NEL             ....   71
Dispersion correction           -0.007095594
FINAL SINGLE POINT ENERGY      -387.989777045022
Dispersion correction             ... done (  0.1 sec)
Dispersion correction           -0.007124752
FINAL SINGLE POINT ENERGY      -387.991035572566
Dispersion correction             ... done (  0.1 sec)
Dispersion correction           -0.007129368
FINAL SINGLE POINT ENERGY      -387.991049602654
Dispersion correction             ... done (  0.1 sec)
Dispersion correction           -0.007130821
FINAL SINGLE POINT ENERGY      -387.991051798018
Dispersion correction             ... done (  0.1 sec)
                    ***********************HURRAY********************

CARTESIAN COORDINATES (ANGSTROEM)
---------------------------------
  C      0.877220   -1.209962   -0.001143
  C      1.228671    0.175903   -0.000925
  C      0.194293    1.142818   -0.001022
  C     -1.131972    0.786815   -0.000638
  C     -1.466646   -0.609579   -0.000364
  C     -0.437652   -1.576907   -0.000900
  H     -0.709447   -2.624844   -0.000708
  C     -2.880597   -1.033070    0.000757
  H     -2.981324   -2.115481   -0.000789
  H     -3.404733   -0.621247   -0.868564
  H     -3.401811   -0.624457    0.873441
  C     -2.208226    1.815003   -0.000372
  H     -2.852057    1.707590    0.876837
  H     -2.853904    1.705841   -0.875977
  H     -1.788820    2.819074   -0.001884
  H      0.470687    2.190713   -0.001451
  C      2.576146    0.622474    0.000334
  C      3.676106   -0.186469    0.001190
  H      3.609791   -1.266297   -0.000037
  H      4.666239    0.249460    0.002938
  H      2.727172    1.696911    0.000529
  H      1.648101   -1.967719   -0.001720

 Multiplicity           Mult            ....    2
 Number of Electrons    NEL             ....   71
 Basis Dimension        Dim             ....  736

ORBITAL ENERGIES
----------------
                 SPIN UP ORBITALS
  NO   OCC          E(Eh)            E(eV)
   0   1.0000     -10.109583      -275.0957
   1   1.0000     -10.104650      -274.9615
   2   1.0000     -10.089644      -274.5532
   3   1.0000     -10.088134      -274.5121
   4   1.0000     -10.086991      -274.4810
   5   1.0000     -10.083592      -274.3885
   6   1.0000     -10.071151      -274.0499
   7   1.0000     -10.068817      -273.9864
   8   1.0000     -10.044769      -273.3321
   9   1.0000     -10.039473      -273.1879
  10   1.0000      -0.876110       -23.8402
  11   1.0000      -0.816609       -22.2210
  12   1.0000      -0.770639       -20.9702
  13   1.0000      -0.755701       -20.5637
  14   1.0000      -0.698260       -19.0006
  15   1.0000      -0.668287       -18.1850
  16   1.0000      -0.611163       -16.6306
  17   1.0000      -0.599193       -16.3049
  18   1.0000      -0.544861       -14.8264
  19   1.0000      -0.502219       -13.6661
  20   1.0000      -0.484856       -13.1936
  21   1.0000      -0.451988       -12.2992
  22   1.0000      -0.433420       -11.7939
  23   1.0000      -0.428207       -11.6521
  24   1.0000      -0.416315       -11.3285
  25   1.0000      -0.409948       -11.1552
  26   1.0000      -0.385683       -10.4950
  27   1.0000      -0.380377       -10.3506
  28   1.0000      -0.376307       -10.2398
  29   1.0000      -0.372607       -10.1391
  30   1.0000      -0.361091        -9.8258
  31   1.0000      -0.339787        -9.2461
  32   1.0000      -0.329899        -8.9770
  33   1.0000      -0.316498        -8.6124
  34   1.0000      -0.268670        -7.3109
  35   1.0000      -0.253612        -6.9011
  36   0.0000      -0.120318        -3.2740
  37   0.0000      -0.062586        -1.7031
  38   0.0000      -0.022618        -0.6155
  39   0.0000       0.003911         0.1064
  40   0.0000       0.015028         0.4089

                 SPIN DOWN ORBITALS
  NO   OCC          E(Eh)            E(eV)
   0   1.0000     -10.104178      -274.9486
   1   1.0000     -10.101051      -274.8636
   2   1.0000     -10.088289      -274.5163
   3   1.0000     -10.087531      -274.4957
   4   1.0000     -10.081809      -274.3400
   5   1.0000     -10.081243      -274.3246
   6   1.0000     -10.071354      -274.0555
   7   1.0000     -10.069769      -274.0123
   8   1.0000     -10.044851      -273.3343
   9   1.0000     -10.039473      -273.1880
  10   1.0000      -0.868841       -23.6424
  11   1.0000      -0.807933       -21.9850
  12   1.0000      -0.769179       -20.9304
  13   1.0000      -0.745137       -20.2762
  14   1.0000      -0.693666       -18.8756
  15   1.0000      -0.662265       -18.0211
  16   1.0000      -0.605788       -16.4843
  17   1.0000      -0.595198       -16.1962
  18   1.0000      -0.539989       -14.6938
  19   1.0000      -0.501174       -13.6376
  20   1.0000      -0.482719       -13.1354
  21   1.0000      -0.448892       -12.2150
  22   1.0000      -0.425914       -11.5897
  23   1.0000      -0.422641       -11.5006
  24   1.0000      -0.414536       -11.2801
  25   1.0000      -0.409320       -11.1382
  26   1.0000      -0.381020       -10.3681
  27   1.0000      -0.374661       -10.1951
  28   1.0000      -0.372261       -10.1297
  29   1.0000      -0.366434        -9.9712
  30   1.0000      -0.359624        -9.7859
  31   1.0000      -0.339108        -9.2276
  32   1.0000      -0.328046        -8.9266
  33   1.0000      -0.297178        -8.0866
  34   1.0000      -0.263658        -7.1745
  35   0.0000      -0.210471        -5.7272
  36   0.0000      -0.086720        -2.3598
  37   0.0000      -0.054370        -1.4795
  38   0.0000      -0.000465        -0.0127
  39   0.0000       0.004971         0.1353

MULLIKEN ATOMIC CHARGES AND SPIN POPULATIONS
--------------------------------------------
   0 C :   -0.113985    0.129218
   1 C :    2.227980    0.272707
   2 C :   -1.040091   -0.027247
   3 C :    0.778066    0.043409
   4 C :    0.969935    0.346165
   5 C :   -1.184865   -0.098558
   6 H :   -0.035272   -0.005142
   7 C :   -0.643535   -0.053957
   8 H :    0.062605   -0.008361
   9 H :    0.224800    0.032669
  10 H :    0.225230    0.032891
  11 C :   -0.650178   -0.013626
  12 H :    0.212903    0.006966
  13 H :    0.212431    0.006973
  14 H :    0.079584   -0.000127
  15 H :   -0.419554    0.002397
  16 C :    0.092823   -0.054094
  17 C :   -0.871431    0.346798
  18 H :    0.211997   -0.009416
  19 H :    0.324003    0.062204
  20 H :    0.117010   -0.008392
  21 H :    0.219544   -0.003477
Sum of atomic charges         :    1.0000000

LOEWDIN ATOMIC CHARGES AND SPIN POPULATIONS
-------------------------------------------
   0 C :    0.285618    0.088951
   1 C :   -0.078454    0.118067
   2 C :    0.285577    0.029307
   3 C :   -0.044638    0.058324
   4 C :   -0.030265    0.158307
   5 C :    0.292408    0.037951
   6 H :   -0.153017   -0.004307
   7 C :    0.635484    0.053603
   8 H :   -0.154558    0.001380
   9 H :   -0.139027    0.013045
  10 H :   -0.138693    0.013110
  11 C :    0.621033    0.007476
  12 H :   -0.147622    0.002398
  13 H :   -0.147828    0.002395
  14 H :   -0.158723    0.000071
  15 H :   -0.150823   -0.000196
  16 C :    0.262136    0.073858
  17 C :    0.653563    0.232844
  18 H :   -0.191218    0.048712
  19 H :   -0.171838    0.053798
  20 H :   -0.161680   -0.002539
  21 H :   -0.167437    0.013445

  Mayer bond orders larger than 0.100000
B(  0-C ,  2-C ) :  -0.8762 B(  0-C ,  3-C ) :  -0.3217 B(  0-C ,  5-C ) :   0.7060
B(  0-C ,  6-H ) :  -0.1239 B(  0-C , 15-H ) :   0.1031 B(  0-C , 16-C ) :   0.2139
B(  0-C , 17-C ) :  -0.1354 B(  0-C , 18-H ) :  -0.1476 B(  0-C , 21-H ) :   1.4189
B(  1-C ,  2-C ) :  -0.7360 B(  1-C ,  3-C ) :   0.5140 B(  1-C ,  4-C ) :  -0.4815
B(  1-C ,  7-C ) :   0.1017 B(  1-C , 15-H ) :  -0.5230 B(  1-C , 17-C ) :  -0.1063
B(  2-C ,  3-C ) :   0.6738 B(  2-C ,  4-C ) :  -0.3478 B(  2-C ,  5-C ) :   0.1753
B(  2-C , 11-C ) :  -0.2818 B(  2-C , 14-H ) :  -0.1035 B(  2-C , 15-H ) :   2.4647
B(  2-C , 17-C ) :   0.1297 B(  2-C , 20-H ) :  -0.1338 B(  3-C ,  4-C ) :   1.2005
B(  3-C ,  5-C ) :   0.1659 B(  3-C ,  7-C ) :   0.1579 B(  3-C , 15-H ) :  -0.2420
B(  3-C , 16-C ) :   0.1166 B(  3-C , 20-H ) :   0.1493 B(  3-C , 21-H ) :  -0.2901
B(  4-C ,  5-C ) :   0.4081 B(  4-C ,  7-C ) :   0.2687 B(  4-C , 11-C ) :   0.3779
B(  4-C , 15-H ) :  -0.1081 B(  4-C , 16-C ) :   0.1789 B(  4-C , 21-H ) :  -0.1254
B(  5-C ,  6-H ) :   1.3327 B(  5-C ,  7-C ) :  -0.2221 B(  5-C , 17-C ) :  -0.1272
B(  5-C , 21-H ) :  -0.2082 B(  7-C ,  8-H ) :   1.1019 B(  7-C ,  9-H ) :   0.9713
B(  7-C , 10-H ) :   0.9707 B( 11-C , 12-H ) :   1.0040 B( 11-C , 13-H ) :   1.0043
B( 11-C , 14-H ) :   1.0566 B( 15-H , 16-C ) :  -0.2225 B( 15-H , 20-H ) :  -0.1162
B( 16-C , 17-C ) :   0.5926 B( 16-C , 20-H ) :   1.0448 B( 17-C , 18-H ) :   1.2050
B( 17-C , 19-H ) :   0.7791 B( 17-C , 20-H ) :  -0.2547

Dispersion correction           -0.007130696
FINAL SINGLE POINT ENERGY      -387.991052721673

DIPOLE MOMENT
-------------

Method             : SCF
Type of density    : Electron Density
Multiplicity       :   2
Irrep              :   0
Energy             :  -387.9839220261196715 Eh
Relativity type    :
Basis              : AO
                                X                 Y                 Z
Electronic contribution:      5.315453900      -1.200225946      -0.004419849
Nuclear contribution   :     -4.588071882       1.054441079       0.005384635
                        -----------------------------------------
Total Dipole Moment    :      0.727382017      -0.145784867       0.000964787
                        -----------------------------------------
Magnitude (a.u.)       :      0.741848204
Magnitude (Debye)      :      1.885628281

Rotational constants in cm-1:             0.096138             0.029434             0.022722
Rotational constants in MHz :          2882.155189           882.414787           681.182418

                             ****ORCA TERMINATED NORMALLY****
TOTAL RUN TIME: 0 days 0 hours 15 minutes 56 seconds 65 msec
