                         Program Version 6.0.0  -   RELEASE  -
|  1> !r2SCAN aug-cc-pVTZ d3 TightSCF SlowConv RIJCOSX defgrid2
|  2>
|  3> %pal
|  4> nprocs 4
|  5> end
|  6>
|  7> %scf
|  8> MaxIter 1500
|  9> end
| 10>
| 11> %maxcore 3000
| 12>
| 13> !CPCM
| 14> %cpcm smd true
| 15> SMDsolvent "MeCN"
| 16> surfacetype gepol_ses
| 17> rsolv 2.19
| 18> end
| 19>
| 20> * xyz 0 1
| 21> C          -1.45296729722658     -1.28151002156026      0.14194546330159
| 22> C          -0.60306064093871     -0.04446072545809      0.33193281816932
| 23> C          -1.12567582222179      1.18572814043815      0.12630733698000
| 24> C          -2.55837598067552      1.44742458580996     -0.24068448507496
| 25> C          -3.28245282065203      0.19560476706937     -0.72004405890606
| 26> C          -2.94627665247128     -0.98032771771694      0.18458848750905
| 27> H          -3.24213594686381     -0.73932071348069      1.22299729825620
| 28> H          -3.51449794303560     -1.88061999821498     -0.10780941455212
| 29> H          -2.96673003571617     -0.04268032662380     -1.75366325316112
| 30> H          -4.37226581908345      0.36951687899438     -0.75213967938313
| 31> H          -3.09908269921816      1.87422825597419      0.63030428128422
| 32> H          -2.60322712915400      2.23069777526909     -1.02025270689355
| 33> H          -0.49994736161941      2.07353459912717      0.25424693160649
| 34> N           0.69303529191099     -0.28438264709477      0.79958397475949
| 35> C           1.57818723018607      0.82467461252518      1.08644856048943
| 36> H           1.00739506236315      1.66619965765170      1.50706427051622
| 37> C           2.37028080978361      1.23291703973064     -0.15041034302315
| 38> H           3.11077065191675      2.01322480282712      0.09126019237819
| 39> H           1.68417673001968      1.63130127074136     -0.92725467919408
| 40> O           3.09036409417407      0.13568205210303     -0.65709465576006
| 41> C           2.25560936007911     -0.95058613299193     -0.96380125980268
| 42> H           1.55178445834774     -0.67753645106666     -1.78072161009415
| 43> C           1.45943271566799     -1.39404343918770      0.25851152105089
| 44> H           2.16510802761640     -1.74198715640152      1.03622997878760
| 45> H           0.80313522562159     -2.23935561078539      0.00674701884856
| 46> H           2.90949410693522     -1.76130630349583     -1.32634069968529
| 47> H           2.29502525894536      0.49140375143543      1.86065453402124
| 48> H          -1.20950686050662     -1.76150886737077     -0.82651158365816
| 49> H          -1.19559941418460     -2.01612497824744      0.92558666123002
| 50> *
| 51>
| 52>                          ****END OF INPUT****

CARTESIAN COORDINATES (ANGSTROEM)
---------------------------------
  C     -1.452967   -1.281510    0.141945
  C     -0.603061   -0.044461    0.331933
  C     -1.125676    1.185728    0.126307
  C     -2.558376    1.447425   -0.240684
  C     -3.282453    0.195605   -0.720044
  C     -2.946277   -0.980328    0.184588
  H     -3.242136   -0.739321    1.222997
  H     -3.514498   -1.880620   -0.107809
  H     -2.966730   -0.042680   -1.753663
  H     -4.372266    0.369517   -0.752140
  H     -3.099083    1.874228    0.630304
  H     -2.603227    2.230698   -1.020253
  H     -0.499947    2.073535    0.254247
  N      0.693035   -0.284383    0.799584
  C      1.578187    0.824675    1.086449
  H      1.007395    1.666200    1.507064
  C      2.370281    1.232917   -0.150410
  H      3.110771    2.013225    0.091260
  H      1.684177    1.631301   -0.927255
  O      3.090364    0.135682   -0.657095
  C      2.255609   -0.950586   -0.963801
  H      1.551784   -0.677536   -1.780722
  C      1.459433   -1.394043    0.258512
  H      2.165108   -1.741987    1.036230
  H      0.803135   -2.239356    0.006747
  H      2.909494   -1.761306   -1.326341
  H      2.295025    0.491404    1.860655
  H     -1.209507   -1.761509   -0.826512
  H     -1.195599   -2.016125    0.925587

 Total Charge           Charge          ....    0
 Multiplicity           Mult            ....    1
 Number of Electrons    NEL             ....   92
 Basis Dimension        Dim             ....  943

ORBITAL ENERGIES
----------------

  NO   OCC          E(Eh)            E(eV)
   0   2.0000     -18.958562      -515.8887
   1   2.0000     -14.170882      -385.6093
   2   2.0000     -10.073254      -274.1072
   3   2.0000     -10.072798      -274.0948
   4   2.0000     -10.060388      -273.7571
   5   2.0000     -10.056247      -273.6444
   6   2.0000     -10.054300      -273.5914
   7   2.0000     -10.029329      -272.9119
   8   2.0000     -10.024720      -272.7865
   9   2.0000     -10.023938      -272.7652
  10   2.0000     -10.021181      -272.6902
  11   2.0000     -10.005974      -272.2764
  12   2.0000      -1.009277       -27.4638
  13   2.0000      -0.905002       -24.6264
  14   2.0000      -0.787146       -21.4193
  15   2.0000      -0.735288       -20.0082
  16   2.0000      -0.708328       -19.2746
  17   2.0000      -0.698400       -19.0044
  18   2.0000      -0.639229       -17.3943
  19   2.0000      -0.622401       -16.9364
  20   2.0000      -0.576531       -15.6882
  21   2.0000      -0.563691       -15.3388
  22   2.0000      -0.529580       -14.4106
  23   2.0000      -0.486044       -13.2259
  24   2.0000      -0.466851       -12.7037
  25   2.0000      -0.442345       -12.0368
  26   2.0000      -0.438372       -11.9287
  27   2.0000      -0.428639       -11.6639
  28   2.0000      -0.424395       -11.5484
  29   2.0000      -0.410409       -11.1678
  30   2.0000      -0.389456       -10.5976
  31   2.0000      -0.384194       -10.4544
  32   2.0000      -0.370867       -10.0918
  33   2.0000      -0.360571        -9.8116
  34   2.0000      -0.351263        -9.5584
  35   2.0000      -0.338963        -9.2236
  36   2.0000      -0.336065        -9.1448
  37   2.0000      -0.319517        -8.6945
  38   2.0000      -0.314566        -8.5598
  39   2.0000      -0.291867        -7.9421
  40   2.0000      -0.287627        -7.8267
  41   2.0000      -0.282330        -7.6826
  42   2.0000      -0.269466        -7.3325
  43   2.0000      -0.252639        -6.8747
  44   2.0000      -0.223746        -6.0884
  45   2.0000      -0.158323        -4.3082
  46   0.0000       0.001041         0.0283
  47   0.0000       0.011598         0.3156
  48   0.0000       0.019733         0.5370
  49   0.0000       0.021593         0.5876
  50   0.0000       0.022881         0.6226

MULLIKEN ATOMIC CHARGES
-----------------------
   0 C :   -0.034790
   1 C :    1.678782
   2 C :   -0.646145
   3 C :   -0.280328
   4 C :   -0.264004
   5 C :   -0.533217
   6 H :    0.048370
   7 H :    0.191225
   8 H :    0.097399
   9 H :    0.197546
  10 H :    0.116851
  11 H :    0.136918
  12 H :   -0.355723
  13 N :   -0.071073
  14 C :   -0.656490
  15 H :    0.083409
  16 C :   -0.029254
  17 H :    0.278182
  18 H :    0.216184
  19 O :   -0.707159
  20 C :   -0.081944
  21 H :    0.236011
  22 C :   -0.560741
  23 H :    0.206915
  24 H :    0.116181
  25 H :    0.247023
  26 H :    0.131761
  27 H :    0.136913
  28 H :    0.101198
Sum of atomic charges:   -0.0000000

LOEWDIN ATOMIC CHARGES
----------------------
   0 C :    0.268068
   1 C :   -0.195554
   2 C :    0.239911
   3 C :    0.241253
   4 C :    0.263692
   5 C :    0.275442
   6 H :   -0.126608
   7 H :   -0.128043
   8 H :   -0.129956
   9 H :   -0.131574
  10 H :   -0.138676
  11 H :   -0.143243
  12 H :   -0.202467
  13 N :    0.275676
  14 C :    0.173107
  15 H :   -0.152681
  16 C :    0.035164
  17 H :   -0.141907
  18 H :   -0.143408
  19 O :    0.593049
  20 C :    0.035020
  21 H :   -0.133859
  22 C :    0.180242
  23 H :   -0.123675
  24 H :   -0.159403
  25 H :   -0.142474
  26 H :   -0.126731
  27 H :   -0.125925
  28 H :   -0.134439

  Mayer bond orders larger than 0.100000
B(  0-C ,  1-C ) :   0.6725 B(  0-C ,  2-C ) :  -0.2203 B(  0-C ,  5-C ) :   0.7617
B(  0-C , 27-H ) :   1.0390 B(  0-C , 28-H ) :   1.0331 B(  1-C ,  4-C ) :  -0.1441
B(  1-C , 12-H ) :  -0.3183 B(  1-C , 13-N ) :   0.1354 B(  1-C , 14-C ) :  -0.1892
B(  2-C ,  3-C ) :   0.4953 B(  2-C ,  4-C ) :   0.1919 B(  2-C , 11-H ) :  -0.1020
B(  2-C , 12-H ) :   1.6968 B(  2-C , 13-N ) :  -0.2052 B(  2-C , 14-C ) :  -0.1053
B(  3-C ,  4-C ) :   0.8923 B(  3-C ,  5-C ) :   0.1008 B(  3-C , 10-H ) :   1.0377
B(  3-C , 11-H ) :   1.0148 B(  3-C , 12-H ) :  -0.1431 B(  4-C ,  5-C ) :   0.9038
B(  4-C ,  8-H ) :   1.0394 B(  4-C ,  9-H ) :   0.9344 B(  5-C ,  6-H ) :   1.1197
B(  5-C ,  7-H ) :   0.9241 B( 12-H , 14-C ) :  -0.1303 B( 13-N , 14-C ) :   1.0839
B( 13-N , 22-C ) :   0.8755 B( 14-C , 15-H ) :   1.0908 B( 14-C , 16-C ) :   0.7398
B( 14-C , 19-O ) :   0.1092 B( 14-C , 22-C ) :   0.3054 B( 14-C , 26-H ) :   0.9587
B( 16-C , 17-H ) :   0.9043 B( 16-C , 18-H ) :   0.9755 B( 16-C , 19-O ) :   0.7536
B( 19-O , 20-C ) :   0.7936 B( 19-O , 22-C ) :   0.1020 B( 20-C , 21-H ) :   0.9626
B( 20-C , 22-C ) :   0.8506 B( 20-C , 25-H ) :   0.9156 B( 22-C , 23-H ) :   0.9542
B( 22-C , 24-H ) :   1.0020

Dispersion correction           -0.010004277
FINAL SINGLE POINT ENERGY      -521.149428589062

DIPOLE MOMENT
-------------

Method             : SCF
Type of density    : Electron Density
Multiplicity       :   1
Irrep              :   0
Energy             :  -521.1394243117757696 Eh
Relativity type    :
Basis              : AO
                                X                 Y                 Z
Electronic contribution:      6.450905089       0.156948330       0.931606586
Nuclear contribution   :     -6.702563356      -0.526145010      -0.941660721
                        -----------------------------------------
Total Dipole Moment    :     -0.251658267      -0.369196679      -0.010054134
                        -----------------------------------------
Magnitude (a.u.)       :      0.446921869
Magnitude (Debye)      :      1.135985113

Rotational constants in cm-1:             0.066375             0.019173             0.017047
Rotational constants in MHz :          1989.867281           574.782651           511.066485

                             ****ORCA TERMINATED NORMALLY****
TOTAL RUN TIME: 0 days 0 hours 6 minutes 29 seconds 363 msec
