                         Program Version 6.0.0  -   RELEASE  -
|  1> !B3LYP aug-cc-pVTZ d3 TightSCF SlowConv RIJCOSX defgrid2
|  2>
|  3> %pal
|  4> nprocs 4
|  5> end
|  6>
|  7> %scf
|  8> MaxIter 1500
|  9> end
| 10>
| 11> %maxcore 3000
| 12>
| 13> !CPCM
| 14> %cpcm smd true
| 15> SMDsolvent "MeCN"
| 16> surfacetype gepol_ses
| 17> rsolv 2.19
| 18> end
| 19>
| 20> * xyz 0 1
| 21> C          -0.33578897576289      0.78706332413970     -0.00007064342653
| 22> C          -1.63104450940735      0.25443214150099      0.00002424994707
| 23> C          -1.80666505085776     -1.13184792287007      0.00010488474499
| 24> C          -0.67709514280741     -1.95709297790421      0.00008171672668
| 25> C           0.60485199074243     -1.42986794226310     -0.00000896897667
| 26> C           0.79403740595386     -0.03404919740528     -0.00007754792200
| 27> C           2.11776775675579      0.59942775277408     -0.00015788147995
| 28> C           3.31301096591764     -0.01037680773538      0.00016998990263
| 29> C           4.62672268480693      0.69670422006693      0.00006613977785
| 30> H           5.22986800286636      0.42062681248378     -0.88556810108390
| 31> H           5.22969209158747      0.42121685919020      0.88600364391119
| 32> H           4.49947065542959      1.79239087728672     -0.00031400154329
| 33> H           3.35830731979376     -1.10765129675188      0.00055685548665
| 34> H           2.10183131012046      1.69773297660842     -0.00050241232510
| 35> H           1.46480294351024     -2.10372145346859     -0.00005885954138
| 36> H          -0.81507815522221     -3.04272899333565      0.00012435061663
| 37> H          -2.80202830314914     -1.57931173714880      0.00017356816380
| 38> O          -2.63880088575063      1.15236499149081      0.00002597094029
| 39> C          -3.95583677666632      0.68525859520605      0.00017372040280
| 40> H          -4.60351833384684      1.57486457447649      0.00019490121742
| 41> H          -4.17725863855936      0.08018155004781      0.90083429325456
| 42> H          -4.17743481291300      0.08009944047560     -0.90038823724126
| 43> H          -0.23264934254160      1.87564721313537     -0.00013303155248
| 44> *
| 45>
| 46>                          ****END OF INPUT****

CARTESIAN COORDINATES (ANGSTROEM)
---------------------------------
  C     -0.335789    0.787063   -0.000071
  C     -1.631045    0.254432    0.000024
  C     -1.806665   -1.131848    0.000105
  C     -0.677095   -1.957093    0.000082
  C      0.604852   -1.429868   -0.000009
  C      0.794037   -0.034049   -0.000078
  C      2.117768    0.599428   -0.000158
  C      3.313011   -0.010377    0.000170
  C      4.626723    0.696704    0.000066
  H      5.229868    0.420627   -0.885568
  H      5.229692    0.421217    0.886004
  H      4.499471    1.792391   -0.000314
  H      3.358307   -1.107651    0.000557
  H      2.101831    1.697733   -0.000502
  H      1.464803   -2.103721   -0.000059
  H     -0.815078   -3.042729    0.000124
  H     -2.802028   -1.579312    0.000174
  O     -2.638801    1.152365    0.000026
  C     -3.955837    0.685259    0.000174
  H     -4.603518    1.574865    0.000195
  H     -4.177259    0.080182    0.900834
  H     -4.177435    0.080099   -0.900388
  H     -0.232649    1.875647   -0.000133

 Total Charge           Charge          ....    0
 Multiplicity           Mult            ....    1
 Number of Electrons    NEL             ....   80
 Basis Dimension        Dim             ....  782

ORBITAL ENERGIES
----------------

  NO   OCC          E(Eh)            E(eV)
   0   2.0000     -19.159887      -521.3670
   1   2.0000     -10.235234      -278.5149
   2   2.0000     -10.214118      -277.9403
   3   2.0000     -10.187488      -277.2156
   4   2.0000     -10.176660      -276.9210
   5   2.0000     -10.175297      -276.8839
   6   2.0000     -10.170699      -276.7588
   7   2.0000     -10.170292      -276.7477
   8   2.0000     -10.169605      -276.7290
   9   2.0000     -10.167019      -276.6586
  10   2.0000     -10.163186      -276.5543
  11   2.0000      -1.075744       -29.2725
  12   2.0000      -0.857521       -23.3343
  13   2.0000      -0.797158       -21.6918
  14   2.0000      -0.756105       -20.5747
  15   2.0000      -0.747667       -20.3450
  16   2.0000      -0.689183       -18.7536
  17   2.0000      -0.675901       -18.3922
  18   2.0000      -0.603523       -16.4227
  19   2.0000      -0.596179       -16.2229
  20   2.0000      -0.547597       -14.9009
  21   2.0000      -0.519784       -14.1440
  22   2.0000      -0.485682       -13.2161
  23   2.0000      -0.479606       -13.0507
  24   2.0000      -0.466672       -12.6988
  25   2.0000      -0.456728       -12.4282
  26   2.0000      -0.429724       -11.6934
  27   2.0000      -0.416447       -11.3321
  28   2.0000      -0.405418       -11.0320
  29   2.0000      -0.396438       -10.7876
  30   2.0000      -0.382173       -10.3994
  31   2.0000      -0.381596       -10.3838
  32   2.0000      -0.365527        -9.9465
  33   2.0000      -0.351709        -9.5705
  34   2.0000      -0.340718        -9.2714
  35   2.0000      -0.330528        -8.9941
  36   2.0000      -0.323393        -8.8000
  37   2.0000      -0.290174        -7.8960
  38   2.0000      -0.231937        -6.3113
  39   2.0000      -0.217589        -5.9209
  40   0.0000      -0.036136        -0.9833
  41   0.0000      -0.009148        -0.2489
  42   0.0000      -0.002708        -0.0737
  43   0.0000       0.004587         0.1248
  44   0.0000       0.010326         0.2810

MULLIKEN ATOMIC CHARGES
-----------------------
   0 C :   -1.078618
   1 C :    0.923025
   2 C :   -0.042160
   3 C :   -0.970951
   4 C :   -0.534942
   5 C :    1.820917
   6 C :   -0.222808
   7 C :   -0.273937
   8 C :   -0.818192
   9 H :    0.188157
  10 H :    0.187481
  11 H :    0.257706
  12 H :    0.153519
  13 H :   -0.027910
  14 H :    0.139374
  15 H :    0.510837
  16 H :    0.199780
  17 O :   -0.655623
  18 C :   -0.632376
  19 H :    0.254151
  20 H :    0.256231
  21 H :    0.256526
  22 H :    0.109814
Sum of atomic charges:   -0.0000000

LOEWDIN ATOMIC CHARGES
----------------------
   0 C :    0.204171
   1 C :   -0.400848
   2 C :    0.196342
   3 C :    0.182123
   4 C :    0.192875
   5 C :   -0.160214
   6 C :    0.197694
   7 C :    0.197494
   8 C :    0.542286
   9 H :   -0.162294
  10 H :   -0.162317
  11 H :   -0.171877
  12 H :   -0.181099
  13 H :   -0.181215
  14 H :   -0.185534
  15 H :   -0.166449
  16 H :   -0.189497
  17 O :    0.593290
  18 C :    0.309750
  19 H :   -0.168704
  20 H :   -0.159080
  21 H :   -0.159058
  22 H :   -0.167839

  Mayer bond orders larger than 0.100000
B(  0-C ,  1-C ) :   0.5908 B(  0-C ,  2-C ) :  -0.1391 B(  0-C ,  3-C ) :   0.1233
B(  0-C ,  4-C ) :  -0.3063 B(  0-C ,  5-C ) :   0.1487 B(  0-C ,  6-C ) :  -0.1012
B(  0-C ,  7-C ) :   0.1519 B(  0-C , 17-O ) :   0.3705 B(  0-C , 18-C ) :   0.1140
B(  0-C , 22-H ) :   1.2700 B(  1-C ,  2-C ) :   1.0869 B(  1-C ,  4-C ) :  -0.1560
B(  1-C ,  7-C ) :   0.1096 B(  1-C , 17-O ) :   0.1032 B(  1-C , 22-H ) :  -0.1495
B(  2-C ,  3-C ) :   0.9266 B(  2-C , 16-H ) :   1.1329 B(  2-C , 17-O ) :  -0.1910
B(  2-C , 18-C ) :  -0.1596 B(  3-C ,  4-C ) :   0.9471 B(  3-C ,  6-C ) :   0.1016
B(  3-C ,  7-C ) :  -0.1076 B(  3-C , 14-H ) :  -0.1563 B(  3-C , 15-H ) :   0.4343
B(  3-C , 16-H ) :  -0.1114 B(  4-C ,  5-C ) :   0.4964 B(  4-C ,  6-C ) :   0.1509
B(  4-C ,  7-C ) :   0.1230 B(  4-C , 14-H ) :   1.1964 B(  5-C ,  7-C ) :  -0.1543
B(  5-C , 12-H ) :  -0.1450 B(  5-C , 13-H ) :  -0.1160 B(  5-C , 14-H ) :  -0.1354
B(  5-C , 17-O ) :   0.1386 B(  5-C , 22-H ) :  -0.1551 B(  6-C ,  7-C ) :   0.9823
B(  6-C , 13-H ) :   1.3482 B(  7-C ,  8-C ) :   0.6273 B(  7-C , 12-H ) :   1.3233
B(  7-C , 13-H ) :  -0.1335 B(  8-C ,  9-H ) :   1.0383 B(  8-C , 10-H ) :   1.0400
B(  8-C , 11-H ) :   0.9381 B(  8-C , 12-H ) :  -0.1382 B( 16-H , 18-C ) :  -0.1177
B( 17-O , 18-C ) :   1.0245 B( 18-C , 19-H ) :   0.9365 B( 18-C , 20-H ) :   0.9447
B( 18-C , 21-H ) :   0.9460

Dispersion correction           -0.038850084
FINAL SINGLE POINT ENERGY      -463.419808355162

DIPOLE MOMENT
-------------

Method             : SCF
Type of density    : Electron Density
Multiplicity       :   1
Irrep              :   0
Energy             :  -463.3809582706746255 Eh
Relativity type    :
Basis              : AO
                                X                 Y                 Z
Electronic contribution:     -5.066111785      -0.448490721      -0.000566395
Nuclear contribution   :      4.758796555       0.116147158       0.000484674
                        -----------------------------------------
Total Dipole Moment    :     -0.307315230      -0.332343563      -0.000081721
                        -----------------------------------------
Magnitude (a.u.)       :      0.452653180
Magnitude (Debye)      :      1.150552948

Rotational constants in cm-1:             0.102459             0.016958             0.014631
Rotational constants in MHz :          3071.640827           508.382931           438.625504

                             ****ORCA TERMINATED NORMALLY****
TOTAL RUN TIME: 0 days 0 hours 5 minutes 7 seconds 601 msec
