                         Program Version 6.0.0  -   RELEASE  -
|  1> !r2SCAN aug-cc-pVTZ d3 TightSCF SlowConv RIJCOSX defgrid2
|  2>
|  3> %pal
|  4> nprocs 4
|  5> end
|  6>
|  7> %scf
|  8> MaxIter 1500
|  9> end
| 10>
| 11> %maxcore 3000
| 12>
| 13> !CPCM
| 14> %cpcm smd true
| 15> SMDsolvent "MeCN"
| 16> surfacetype gepol_ses
| 17> rsolv 2.19
| 18> end
| 19>
| 20> * xyz 0 1
| 21> C           1.86847672101122     -0.00008236176043      0.00934069542278
| 22> C           1.16491620854655     -1.20399668013187      0.00231506739479
| 23> C          -0.22896335284967     -1.20071978485061     -0.00929652137640
| 24> C          -0.94900034920378      0.00006360460976     -0.01194017646160
| 25> C          -2.45182373447190      0.00004409306138      0.01139598288954
| 26> H          -2.86400768085413      0.89448921652384     -0.48498227844954
| 27> H          -2.86406757845967     -0.89139694424087     -0.49034168247459
| 28> H          -2.83153291351154     -0.00310912605040      1.05029467072035
| 29> C          -0.22885343288002      1.20074830825039     -0.00915605869330
| 30> C           1.16505216971292      1.20388451241840      0.00245858099490
| 31> H           1.70620101334868      2.15511788824393      0.00229991498037
| 32> H          -0.77200932779939      2.15177858845512     -0.01887855569817
| 33> H          -0.77221541101255     -2.15169724965365     -0.01913454693012
| 34> H           1.70598089527851     -2.15527912856971      0.00204061695885
| 35> H           2.96252007314476     -0.00014523630528      0.01580649072214
| 36> *
| 37>
| 38>                          ****END OF INPUT****

CARTESIAN COORDINATES (ANGSTROEM)
---------------------------------
  C      1.868477   -0.000082    0.009341
  C      1.164916   -1.203997    0.002315
  C     -0.228963   -1.200720   -0.009297
  C     -0.949000    0.000064   -0.011940
  C     -2.451824    0.000044    0.011396
  H     -2.864008    0.894489   -0.484982
  H     -2.864068   -0.891397   -0.490342
  H     -2.831533   -0.003109    1.050295
  C     -0.228853    1.200748   -0.009156
  C      1.165052    1.203885    0.002459
  H      1.706201    2.155118    0.002300
  H     -0.772009    2.151779   -0.018879
  H     -0.772215   -2.151697   -0.019135
  H      1.705981   -2.155279    0.002041
  H      2.962520   -0.000145    0.015806

 Total Charge           Charge          ....    0
 Multiplicity           Mult            ....    1
 Number of Electrons    NEL             ....   50
 Basis Dimension        Dim             ....  506

ORBITAL ENERGIES
----------------

  NO   OCC          E(Eh)            E(eV)
   0   2.0000     -10.049226      -273.4533
   1   2.0000     -10.038243      -273.1545
   2   2.0000     -10.038195      -273.1532
   3   2.0000     -10.035894      -273.0906
   4   2.0000     -10.035259      -273.0733
   5   2.0000     -10.035254      -273.0731
   6   2.0000     -10.026684      -272.8399
   7   2.0000      -0.822204       -22.3733
   8   2.0000      -0.736041       -20.0287
   9   2.0000      -0.709754       -19.3134
  10   2.0000      -0.646678       -17.5970
  11   2.0000      -0.568937       -15.4816
  12   2.0000      -0.547527       -14.8990
  13   2.0000      -0.473455       -12.8834
  14   2.0000      -0.424547       -11.5525
  15   2.0000      -0.415574       -11.3084
  16   2.0000      -0.385035       -10.4773
  17   2.0000      -0.381533       -10.3821
  18   2.0000      -0.372132       -10.1262
  19   2.0000      -0.344630        -9.3779
  20   2.0000      -0.331477        -9.0200
  21   2.0000      -0.305971        -8.3259
  22   2.0000      -0.300878        -8.1873
  23   2.0000      -0.237713        -6.4685
  24   2.0000      -0.226820        -6.1721
  25   0.0000      -0.036408        -0.9907
  26   0.0000      -0.033107        -0.9009
  27   0.0000       0.009325         0.2537
  28   0.0000       0.024358         0.6628
  29   0.0000       0.027846         0.7577

MULLIKEN ATOMIC CHARGES
-----------------------
   0 C :   -0.270087
   1 C :   -0.472236
   2 C :   -1.013796
   3 C :    1.533961
   4 C :   -0.632289
   5 H :    0.186892
   6 H :    0.187009
   7 H :    0.231301
   8 C :   -1.012460
   9 C :   -0.471189
  10 H :    0.483208
  11 H :    0.174021
  12 H :    0.176014
  13 H :    0.482121
  14 H :    0.417531
Sum of atomic charges:    0.0000000

LOEWDIN ATOMIC CHARGES
----------------------
   0 C :    0.173571
   1 C :    0.178359
   2 C :    0.196231
   3 C :   -0.152282
   4 C :    0.573065
   5 H :   -0.166072
   6 H :   -0.165965
   7 H :   -0.151987
   8 C :    0.196249
   9 C :    0.178366
  10 H :   -0.173768
  11 H :   -0.167841
  12 H :   -0.167781
  13 H :   -0.173769
  14 H :   -0.176377

  Mayer bond orders larger than 0.100000
B(  0-C ,  1-C ) :   1.0311 B(  0-C ,  9-C ) :   1.0311 B(  0-C , 14-H ) :   0.7233
B(  1-C ,  2-C ) :   1.1506 B(  1-C ,  3-C ) :   0.1433 B(  1-C ,  8-C ) :  -0.1021
B(  1-C , 13-H ) :   0.5733 B(  2-C ,  3-C ) :   0.4341 B(  2-C ,  4-C ) :   0.1135
B(  2-C ,  9-C ) :  -0.1036 B(  2-C , 12-H ) :   1.0784 B(  3-C ,  4-C ) :   0.2797
B(  3-C ,  8-C ) :   0.4325 B(  3-C ,  9-C ) :   0.1436 B(  4-C ,  5-H ) :   0.9998
B(  4-C ,  6-H ) :   0.9999 B(  4-C ,  7-H ) :   0.9553 B(  4-C ,  8-C ) :   0.1115
B(  8-C ,  9-C ) :   1.1494 B(  8-C , 11-H ) :   1.0824 B(  9-C , 10-H ) :   0.5717

Dispersion correction           -0.004059203
FINAL SINGLE POINT ENERGY      -271.507249866041

DIPOLE MOMENT
-------------

Method             : SCF
Type of density    : Electron Density
Multiplicity       :   1
Irrep              :   0
Energy             :  -271.5031906629346281 Eh
Relativity type    :
Basis              : AO
                                X                 Y                 Z
Electronic contribution:      3.278135922      -0.000062064      -0.027158795
Nuclear contribution   :     -3.524846021      -0.000150115       0.053662303
                        -----------------------------------------
Total Dipole Moment    :     -0.246710100      -0.000212179       0.026503508
                        -----------------------------------------
Magnitude (a.u.)       :      0.248129713
Magnitude (Debye)      :      0.630695607

Rotational constants in cm-1:             0.184524             0.083891             0.058309
Rotational constants in MHz :          5531.875560          2514.985236          1748.069221

                             ****ORCA TERMINATED NORMALLY****
TOTAL RUN TIME: 0 days 0 hours 1 minutes 27 seconds 634 msec
