                         Program Version 6.0.0  -   RELEASE  -
|  1> !PBE0 def2-SV(p) Opt Freq d3 TightSCF SlowConv RIJCOSX defgrid2
|  2>
|  3> %pal
|  4> nprocs 4
|  5> end
|  6>
|  7> %scf
|  8> MaxIter 1500
|  9> end
| 10>
| 11> %maxcore 3000
| 12>
| 13>
| 14>
| 15> * xyz 1 2
| 16> C    -1.8803687   -0.7090641    0.0000194
| 17> C    -0.6902140   -1.3993338    0.0000166
| 18> C     0.5359502   -0.7263401   -0.0000000
| 19> C     1.7952106   -1.4818471   -0.0000224
| 20> H     2.4088979   -1.2221552    0.8680339
| 21> H     1.6159373   -2.5541261   -0.0000115
| 22> H     2.4088520   -1.2221678   -0.8681164
| 23> C     0.5359552    0.7263216   -0.0000063
| 24> C     1.7952719    1.4818177   -0.0000286
| 25> H     2.4088128    1.2222416   -0.8682180
| 26> H     1.6159917    2.5540963    0.0000930
| 27> H     2.4090006    1.2220454    0.8679634
| 28> C    -0.6901648    1.3993158   -0.0000083
| 29> C    -1.8803538    0.7090478    0.0000051
| 30> H    -2.8198868    1.2395150    0.0000065
| 31> H    -0.6944403    2.4785644   -0.0000178
| 32> H    -0.6944816   -2.4785818    0.0000243
| 33> H    -2.8199179   -1.2395043    0.0000292
| 34> *
| 35>
| 36>                          ****END OF INPUT****
 Total Charge           Charge          ....    1
 Multiplicity           Mult            ....    2
 Number of Electrons    NEL             ....   57
Dispersion correction           -0.015623454
FINAL SINGLE POINT ENERGY      -309.964400127935
Dispersion correction             ... done (  0.1 sec)
Dispersion correction           -0.015539264
FINAL SINGLE POINT ENERGY      -309.966508924789
Dispersion correction             ... done (  0.1 sec)
Dispersion correction           -0.015534317
FINAL SINGLE POINT ENERGY      -309.966571448627
Dispersion correction             ... done (  0.1 sec)
Dispersion correction           -0.015536321
FINAL SINGLE POINT ENERGY      -309.966584492168
Dispersion correction             ... done (  0.1 sec)
Dispersion correction           -0.015537721
FINAL SINGLE POINT ENERGY      -309.966585923097
Dispersion correction             ... done (  0.1 sec)
                    ***********************HURRAY********************

CARTESIAN COORDINATES (ANGSTROEM)
---------------------------------
  C     -1.889269   -0.718295   -0.000002
  C     -0.699762   -1.419476   -0.000047
  C      0.525466   -0.736166   -0.000051
  C      1.805395   -1.476691   -0.000237
  H      2.418959   -1.206299    0.881304
  H      1.650308   -2.565050    0.000544
  H      2.417814   -1.207540   -0.882984
  C      0.525479    0.736150    0.000004
  C      1.805425    1.476654    0.000154
  H      2.418973    1.206258   -0.881396
  H      1.650345    2.565013   -0.000638
  H      2.417852    1.207517    0.882903
  C     -0.699730    1.419467    0.000054
  C     -1.889254    0.718294    0.000054
  H     -2.844584    1.251725    0.000101
  H     -0.704361    2.512374    0.000094
  H     -0.704395   -2.512383   -0.000085
  H     -2.844610   -1.251705   -0.000010

 Multiplicity           Mult            ....    2
 Number of Electrons    NEL             ....   57
 Basis Dimension        Dim             ....  132

ORBITAL ENERGIES
----------------
                 SPIN UP ORBITALS
  NO   OCC          E(Eh)            E(eV)
   0   1.0000     -10.483982      -285.2837
   1   1.0000     -10.483820      -285.2793
   2   1.0000     -10.460752      -284.6515
   3   1.0000     -10.460472      -284.6439
   4   1.0000     -10.431847      -283.8650
   5   1.0000     -10.431786      -283.8633
   6   1.0000     -10.404653      -283.1250
   7   1.0000     -10.404577      -283.1229
   8   1.0000      -1.096097       -29.8263
   9   1.0000      -1.006436       -27.3865
  10   1.0000      -0.989963       -26.9383
  11   1.0000      -0.911276       -24.7971
  12   1.0000      -0.883566       -24.0431
  13   1.0000      -0.812198       -22.1010
  14   1.0000      -0.791352       -21.5338
  15   1.0000      -0.713551       -19.4167
  16   1.0000      -0.696262       -18.9463
  17   1.0000      -0.654817       -17.8185
  18   1.0000      -0.647859       -17.6291
  19   1.0000      -0.632054       -17.1991
  20   1.0000      -0.618312       -16.8251
  21   1.0000      -0.595780       -16.2120
  22   1.0000      -0.584822       -15.9138
  23   1.0000      -0.583769       -15.8852
  24   1.0000      -0.571386       -15.5482
  25   1.0000      -0.551426       -15.0051
  26   1.0000      -0.547150       -14.8887
  27   1.0000      -0.471446       -12.8287
  28   1.0000      -0.469941       -12.7877
  29   0.0000      -0.236992        -6.4489
  30   0.0000      -0.199521        -5.4293
  31   0.0000      -0.083935        -2.2840
  32   0.0000      -0.081083        -2.2064
  33   0.0000      -0.061609        -1.6765

                 SPIN DOWN ORBITALS
  NO   OCC          E(Eh)            E(eV)
   0   1.0000     -10.478601      -285.1372
   1   1.0000     -10.478471      -285.1337
   2   1.0000     -10.456661      -284.5402
   3   1.0000     -10.456411      -284.5334
   4   1.0000     -10.433732      -283.9163
   5   1.0000     -10.433670      -283.9146
   6   1.0000     -10.404825      -283.1297
   7   1.0000     -10.404748      -283.1276
   8   1.0000      -1.084889       -29.5213
   9   1.0000      -0.993465       -27.0336
  10   1.0000      -0.986458       -26.8429
  11   1.0000      -0.908691       -24.7267
  12   1.0000      -0.875889       -23.8341
  13   1.0000      -0.806555       -21.9475
  14   1.0000      -0.784582       -21.3496
  15   1.0000      -0.710261       -19.3272
  16   1.0000      -0.692783       -18.8516
  17   1.0000      -0.651404       -17.7256
  18   1.0000      -0.631060       -17.1720
  19   1.0000      -0.627310       -17.0700
  20   1.0000      -0.613822       -16.7029
  21   1.0000      -0.587404       -15.9841
  22   1.0000      -0.583066       -15.8660
  23   1.0000      -0.582941       -15.8626
  24   1.0000      -0.549259       -14.9461
  25   1.0000      -0.546546       -14.8723
  26   1.0000      -0.544247       -14.8097
  27   1.0000      -0.464853       -12.6493
  28   0.0000      -0.370428       -10.0799
  29   0.0000      -0.194338        -5.2882
  30   0.0000      -0.185384        -5.0445
  31   0.0000      -0.083048        -2.2598
  32   0.0000      -0.078366        -2.1325

MULLIKEN ATOMIC CHARGES AND SPIN POPULATIONS
--------------------------------------------
   0 C :   -0.017376    0.281053
   1 C :   -0.114018   -0.161175
   2 C :    0.000395    0.362024
   3 C :   -0.307660   -0.026404
   4 H :    0.202084    0.027448
   5 H :    0.191680   -0.000603
   6 H :    0.202185    0.027498
   7 C :    0.000397    0.361945
   8 C :   -0.307658   -0.026398
   9 H :    0.202080    0.027440
  10 H :    0.191677   -0.000603
  11 H :    0.202183    0.027493
  12 C :   -0.114028   -0.161204
  13 C :   -0.017368    0.281155
  14 H :    0.183804   -0.014262
  15 H :    0.158911    0.004427
  16 H :    0.158911    0.004425
  17 H :    0.183802   -0.014258
Sum of atomic charges         :    1.0000000

LOEWDIN ATOMIC CHARGES AND SPIN POPULATIONS
-------------------------------------------
   0 C :   -0.001564    0.239285
   1 C :   -0.110739   -0.082448
   2 C :    0.083281    0.299006
   3 C :   -0.322976    0.002466
   4 H :    0.175541    0.023610
   5 H :    0.160979   -0.000311
   6 H :    0.175606    0.023657
   7 C :    0.083262    0.298949
   8 C :   -0.322977    0.002466
   9 H :    0.175536    0.023604
  10 H :    0.160978   -0.000311
  11 H :    0.175603    0.023653
  12 C :   -0.110745   -0.082472
  13 C :   -0.001542    0.239362
  14 H :    0.173333   -0.007204
  15 H :    0.166546    0.001946
  16 H :    0.166546    0.001945
  17 H :    0.173332   -0.007202

  Mayer bond orders larger than 0.100000
B(  0-C ,  1-C ) :   1.4430 B(  0-C , 13-C ) :   1.1700 B(  0-C , 17-H ) :   0.9448
B(  1-C ,  2-C ) :   1.3696 B(  1-C , 16-H ) :   0.9499 B(  2-C ,  3-C ) :   1.1579
B(  2-C ,  7-C ) :   1.1204 B(  3-C ,  4-H ) :   0.8904 B(  3-C ,  5-H ) :   0.9253
B(  3-C ,  6-H ) :   0.8904 B(  7-C ,  8-C ) :   1.1579 B(  7-C , 12-C ) :   1.3697
B(  8-C ,  9-H ) :   0.8905 B(  8-C , 10-H ) :   0.9253 B(  8-C , 11-H ) :   0.8904
B( 12-C , 13-C ) :   1.4429 B( 12-C , 15-H ) :   0.9499 B( 13-C , 14-H ) :   0.9448

Dispersion correction           -0.015538046
FINAL SINGLE POINT ENERGY      -309.966586103636

DIPOLE MOMENT
-------------

Method             : SCF
Type of density    : Electron Density
Multiplicity       :   2
Irrep              :   0
Energy             :  -309.9510480575441420 Eh
Relativity type    :
Basis              : AO
                                X                 Y                 Z
Electronic contribution:     -5.553041583      -0.000015883       0.000070497
Nuclear contribution   :      5.537517534      -0.000008895      -0.000066911
                        -----------------------------------------
Total Dipole Moment    :     -0.015524049      -0.000024778       0.000003585
                        -----------------------------------------
Magnitude (a.u.)       :      0.015524070
Magnitude (Debye)      :      0.039459049

VIBRATIONAL FREQUENCIES
-----------------------

Scaling factor for frequencies =  1.000000000  (already applied!)

     0:       0.00 cm**-1
     1:       0.00 cm**-1
     2:       0.00 cm**-1
     3:       0.00 cm**-1
     4:       0.00 cm**-1
     5:       0.00 cm**-1
     6:      12.57 cm**-1
     7:     114.74 cm**-1
     8:     153.76 cm**-1
     9:     238.92 cm**-1
    10:     324.58 cm**-1
    11:     375.42 cm**-1
    12:     407.32 cm**-1
    13:     422.57 cm**-1
    14:     424.14 cm**-1
    15:     580.38 cm**-1
    16:     651.00 cm**-1
    17:     735.26 cm**-1
    18:     754.46 cm**-1
    19:     799.05 cm**-1
    20:     870.70 cm**-1
    21:     968.75 cm**-1
    22:     984.73 cm**-1
    23:    1003.06 cm**-1
    24:    1019.73 cm**-1
    25:    1021.54 cm**-1
    26:    1033.94 cm**-1
    27:    1038.20 cm**-1
    28:    1110.40 cm**-1
    29:    1179.00 cm**-1
    30:    1193.89 cm**-1
    31:    1281.04 cm**-1
    32:    1286.50 cm**-1
    33:    1361.58 cm**-1
    34:    1362.03 cm**-1
    35:    1405.83 cm**-1
    36:    1420.14 cm**-1
    37:    1424.23 cm**-1
    38:    1438.03 cm**-1
    39:    1475.48 cm**-1
    40:    1491.63 cm**-1
    41:    1511.82 cm**-1
    42:    1538.32 cm**-1
    43:    1607.71 cm**-1
    44:    3013.54 cm**-1
    45:    3022.91 cm**-1
    46:    3085.20 cm**-1
    47:    3094.15 cm**-1
    48:    3179.72 cm**-1
    49:    3180.33 cm**-1
    50:    3221.67 cm**-1
    51:    3227.42 cm**-1
    52:    3234.71 cm**-1
    53:    3239.90 cm**-1

IR SPECTRUM
-----------

 Mode   freq       eps      Int      T**2         TX        TY        TZ
       cm**-1   L/(mol*cm) km/mol    a.u.
----------------------------------------------------------------------------
  6:     12.57   0.000000    0.00  0.000000  ( 0.000023  0.000012 -0.000010)
  7:    114.74   0.000000    0.00  0.000000  ( 0.000007  0.000000 -0.000014)
  8:    153.76   0.001658    8.38  0.003365  ( 0.000000 -0.000131 -0.058008)
  9:    238.92   0.000246    1.24  0.000321  (-0.000004 -0.000051  0.017925)
 10:    324.58   0.000130    0.66  0.000125  ( 0.011175  0.000076 -0.000000)
 11:    375.42   0.003047   15.40  0.002533  (-0.000009 -0.050328 -0.000045)
 12:    407.32   0.000000    0.00  0.000000  ( 0.000000  0.000001 -0.000004)
 13:    422.57   0.000648    3.27  0.000478  ( 0.000003  0.000051  0.021870)
 14:    424.14   0.000055    0.28  0.000040  (-0.000019 -0.006344  0.000256)
 15:    580.38   0.000047    0.24  0.000025  (-0.005043  0.000046 -0.000000)
 16:    651.00   0.000000    0.00  0.000000  ( 0.000027  0.000000 -0.000005)
 17:    735.26   0.000051    0.26  0.000022  ( 0.004658 -0.000025  0.000006)
 18:    754.46   0.007352   37.16  0.003041  ( 0.000006  0.000017 -0.055146)
 19:    799.05   0.001142    5.77  0.000446  (-0.000021  0.021119 -0.000018)
 20:    870.70   0.000000    0.00  0.000000  ( 0.000025  0.000001  0.000000)
 21:    968.75   0.001431    7.23  0.000461  ( 0.000000 -0.000087 -0.021472)
 22:    984.73   0.004303   21.75  0.001364  (-0.036928  0.000019  0.000001)
 23:   1003.06   0.000100    0.51  0.000031  (-0.000049  0.005590  0.000021)
 24:   1019.73   0.003037   15.35  0.000930  ( 0.000002  0.000057  0.030488)
 25:   1021.54   0.000000    0.00  0.000000  ( 0.000070  0.000003 -0.000021)
 26:   1033.94   0.000000    0.00  0.000000  ( 0.000026 -0.000001 -0.000001)
 27:   1038.20   0.000332    1.68  0.000100  ( 0.009993  0.000023  0.000003)
 28:   1110.40   0.013455   67.99  0.003781  (-0.000087 -0.061492 -0.000014)
 29:   1179.00   0.000005    0.03  0.000001  (-0.000074 -0.001171  0.000005)
 30:   1193.89   0.000091    0.46  0.000024  (-0.004889  0.000015 -0.000000)
 31:   1281.04   0.003063   15.48  0.000746  (-0.027315  0.000095  0.000000)
 32:   1286.50   0.000651    3.29  0.000158  ( 0.000095  0.012563  0.000023)
 33:   1361.58   0.023864  120.60  0.005469  ( 0.073956 -0.000011 -0.000000)
 34:   1362.03   0.000544    2.75  0.000125  (-0.000152 -0.011163 -0.000087)
 35:   1405.83   0.000974    4.92  0.000216  ( 0.000002 -0.014705  0.000004)
 36:   1420.14   0.002899   14.65  0.000637  ( 0.025238  0.000012  0.000002)
 37:   1424.23   0.000001    0.00  0.000000  ( 0.000453 -0.000000 -0.000011)
 38:   1438.03   0.009811   49.58  0.002129  ( 0.000000  0.000124  0.046142)
 39:   1475.48   0.013809   69.79  0.002921  (-0.054043 -0.000029  0.000000)
 40:   1491.63   0.016931   85.56  0.003542  ( 0.000264  0.059516 -0.000041)
 41:   1511.82   0.045711  231.01  0.009436  ( 0.097136 -0.000220 -0.000002)
 42:   1538.32   0.000502    2.54  0.000102  (-0.000169 -0.010088 -0.000005)
 43:   1607.71   0.000933    4.72  0.000181  ( 0.013457  0.000017 -0.000000)
 44:   3013.54   0.003955   19.99  0.000410  (-0.000008 -0.020238 -0.000048)
 45:   3022.91   0.008782   44.38  0.000907  (-0.030110  0.000008 -0.000001)
 46:   3085.20   0.000000    0.00  0.000000  (-0.000012 -0.000002 -0.000003)
 47:   3094.15   0.001456    7.36  0.000147  (-0.000002  0.000004  0.012116)
 48:   3179.72   0.000294    1.49  0.000029  ( 0.000340  0.005360  0.000008)
 49:   3180.33   0.001905    9.63  0.000187  ( 0.013673 -0.000133 -0.000001)
 50:   3221.67   0.000000    0.00  0.000000  ( 0.000007  0.000058 -0.000000)
 51:   3227.42   0.000111    0.56  0.000011  ( 0.003283 -0.000012 -0.000000)
 52:   3234.71   0.001650    8.34  0.000159  (-0.000000  0.012618  0.000001)
 53:   3239.90   0.000848    4.28  0.000082  (-0.009037 -0.000005  0.000000)

--------------------------
THERMOCHEMISTRY AT 298.15K
--------------------------

Temperature         ...   298.15 K
Pressure            ...     1.00 atm
Total Mass          ...   106.17 AMU
Quasi RRHO          ...     True
Cut-Off Frequency   ...     1.00 cm^-1

Throughout the following assumptions are being made:
  (1) The electronic state is orbitally nondegenerate
      but the spin degeneracy is treated
  (2) There are no thermally accessible electronically excited states
  (3) Hindered rotations indicated by low frequency modes are not
      treated as such but are treated as vibrations and this may
      cause some error
  (4) All equations used are the standard statistical mechanics
      equations for an ideal gas
  (5) All vibrations are strictly harmonic

freq.      12.57  E(vib)   ...       0.57
freq.     114.74  E(vib)   ...       0.44
freq.     153.76  E(vib)   ...       0.40
freq.     238.92  E(vib)   ...       0.32
freq.     324.58  E(vib)   ...       0.24
freq.     375.42  E(vib)   ...       0.21
freq.     407.32  E(vib)   ...       0.19
freq.     422.57  E(vib)   ...       0.18
freq.     424.14  E(vib)   ...       0.18
freq.     580.38  E(vib)   ...       0.11
freq.     651.00  E(vib)   ...       0.08
freq.     735.26  E(vib)   ...       0.06
freq.     754.46  E(vib)   ...       0.06
freq.     799.05  E(vib)   ...       0.05
freq.     870.70  E(vib)   ...       0.04
freq.     968.75  E(vib)   ...       0.03
freq.     984.73  E(vib)   ...       0.02
freq.    1003.06  E(vib)   ...       0.02
freq.    1019.73  E(vib)   ...       0.02
freq.    1021.54  E(vib)   ...       0.02
freq.    1033.94  E(vib)   ...       0.02
freq.    1038.20  E(vib)   ...       0.02
freq.    1110.40  E(vib)   ...       0.02
freq.    1179.00  E(vib)   ...       0.01
freq.    1193.89  E(vib)   ...       0.01
freq.    1281.04  E(vib)   ...       0.01
freq.    1286.50  E(vib)   ...       0.01
freq.    1361.58  E(vib)   ...       0.01
freq.    1362.03  E(vib)   ...       0.01
freq.    1405.83  E(vib)   ...       0.00
freq.    1420.14  E(vib)   ...       0.00
freq.    1424.23  E(vib)   ...       0.00
freq.    1438.03  E(vib)   ...       0.00
freq.    1475.48  E(vib)   ...       0.00
freq.    1491.63  E(vib)   ...       0.00
freq.    1511.82  E(vib)   ...       0.00
freq.    1538.32  E(vib)   ...       0.00
freq.    1607.71  E(vib)   ...       0.00
freq.    3013.54  E(vib)   ...       0.00
freq.    3022.91  E(vib)   ...       0.00
freq.    3085.20  E(vib)   ...       0.00
freq.    3094.15  E(vib)   ...       0.00
freq.    3179.72  E(vib)   ...       0.00
freq.    3180.33  E(vib)   ...       0.00
freq.    3221.67  E(vib)   ...       0.00
freq.    3227.42  E(vib)   ...       0.00
freq.    3234.71  E(vib)   ...       0.00
freq.    3239.90  E(vib)   ...       0.00

------------
INNER ENERGY
------------

The inner energy is: U= E(el) + E(ZPE) + E(vib) + E(rot) + E(trans)
    E(el)   - is the total energy from the electronic structure calculation
              = E(kin-el) + E(nuc-el) + E(el-el) + E(nuc-nuc)
    E(ZPE)  - the the zero temperature vibrational energy from the frequency calculation
    E(vib)  - the the finite temperature correction to E(ZPE) due to population
              of excited vibrational states
    E(rot)  - is the rotational thermal energy
    E(trans)- is the translational thermal energy

Summary of contributions to the inner energy U:
Electronic energy                ...   -309.96658610 Eh
Zero point energy                ...      0.15382648 Eh      96.53 kcal/mol
Thermal vibrational correction   ...      0.00539870 Eh       3.39 kcal/mol
Thermal rotational correction    ...      0.00141627 Eh       0.89 kcal/mol
Thermal translational correction ...      0.00141627 Eh       0.89 kcal/mol
-----------------------------------------------------------------------
Total thermal energy                   -309.80452838 Eh

Summary of corrections to the electronic energy:
(perhaps to be used in another calculation)
Total thermal correction                  0.00823125 Eh       5.17 kcal/mol
Non-thermal (ZPE) correction              0.15382648 Eh      96.53 kcal/mol
-----------------------------------------------------------------------
Total correction                          0.16205772 Eh     101.69 kcal/mol

--------
ENTHALPY
--------

The enthalpy is H = U + kB*T
                kB is Boltzmann's constant
Total thermal energy              ...   -309.80452838 Eh
Thermal Enthalpy correction       ...      0.00094421 Eh       0.59 kcal/mol
-----------------------------------------------------------------------
Total Enthalpy                    ...   -309.80358417 Eh

Note: Rotational entropy computed according to Herzberg
Infrared and Raman Spectra, Chapter V,1, Van Nostrand Reinhold, 1945
Point Group:  C2, Symmetry Number:   2
Rotational constants in cm-1:     0.102569     0.072675     0.043220

Vibrational entropy computed according to the QRRHO of S. Grimme
Chem.Eur.J. 2012 18 9955 using a reference frequency of 100.0 cm-1

-------
ENTROPY
-------

The entropy contributions are T*S = T*(S(el)+S(vib)+S(rot)+S(trans))
     S(el)   - electronic entropy
     S(vib)  - vibrational entropy
     S(rot)  - rotational entropy
     S(trans)- translational entropy
The entropies will be listed as multiplied by the temperature to get
units of energy

Electronic entropy                ...      0.00065446 Eh      0.41 kcal/mol
Vibrational entropy               ...      0.00956292 Eh      6.00 kcal/mol
Rotational entropy                ...      0.01265216 Eh      7.94 kcal/mol
Translational entropy             ...      0.01895601 Eh     11.90 kcal/mol
-----------------------------------------------------------------------
Final entropy term                ...      0.04182554 Eh     26.25 kcal/mol

In case the symmetry of your molecule has not been determined correctly
or in case you have a reason to use a different symmetry number we print
out the resulting rotational entropy values for sn=1,12:

 non-linear molecules -----------------------------------
|  sn= 1 | S(rot)=       0.01330662 Eh      8.35 kcal/mol|
|  sn= 2 | S(rot)=       0.01265216 Eh      7.94 kcal/mol|
|  sn= 3 | S(rot)=       0.01226933 Eh      7.70 kcal/mol|
|  sn= 4 | S(rot)=       0.01199770 Eh      7.53 kcal/mol|
|  sn= 5 | S(rot)=       0.01178702 Eh      7.40 kcal/mol|
|  sn= 6 | S(rot)=       0.01161487 Eh      7.29 kcal/mol|
|  sn= 7 | S(rot)=       0.01146932 Eh      7.20 kcal/mol|
|  sn= 8 | S(rot)=       0.01134325 Eh      7.12 kcal/mol|
|  sn= 9 | S(rot)=       0.01123204 Eh      7.05 kcal/mol|
|  sn=10 | S(rot)=       0.01113256 Eh      6.99 kcal/mol|
|  sn=11 | S(rot)=       0.01104257 Eh      6.93 kcal/mol|
|  sn=12 | S(rot)=       0.01096041 Eh      6.88 kcal/mol|
 linear molecules ---------------------------------------
|  Dinfh | S(rot)=       0.00829190 Eh      5.20 kcal/mol|
|  Cinfv | S(rot)=       0.00894635 Eh      5.61 kcal/mol|
 --------------------------------------------------------

                             ****ORCA TERMINATED NORMALLY****
TOTAL RUN TIME: 0 days 0 hours 9 minutes 28 seconds 264 msec
