                         Program Version 6.0.0  -   RELEASE  -
|  1> !PBE0 def2-SV(p) Opt Freq d3 TightSCF SlowConv RIJCOSX defgrid2
|  2>
|  3> %pal
|  4> nprocs 4
|  5> end
|  6>
|  7> %scf
|  8> MaxIter 1500
|  9> end
| 10>
| 11> %maxcore 3000
| 12>
| 13>
| 14>
| 15> * xyz 1 2
| 16> C     1.3916565   -0.8529707    0.5721206
| 17> C     2.6603918   -1.3879717    0.5877101
| 18> C     3.7390458   -0.6644719    0.0793574
| 19> C     3.5450812    0.6207170   -0.4301216
| 20> C     2.2876155    1.1770948   -0.4457850
| 21> C     1.1889326    0.4321592    0.0314727
| 22> O     0.0000674    1.0504789   -0.0001213
| 23> C    -1.1889285    0.4322483   -0.0318173
| 24> C    -2.2876385    1.1771369    0.4454622
| 25> C    -3.5450461    0.6206557    0.4300567
| 26> C    -3.7390680   -0.6645719   -0.0793147
| 27> C    -2.6604291   -1.3880631   -0.5876269
| 28> C    -1.3916727   -0.8530246   -0.5721858
| 29> H    -0.5692515   -1.3773051   -1.0361899
| 30> H    -2.8244807   -2.3619548   -1.0215071
| 31> H    -4.7297046   -1.0907760   -0.1019435
| 32> H    -4.3825596    1.1755518    0.8223904
| 33> H    -2.1055062    2.1584342    0.8539970
| 34> H     2.1054910    2.1584018   -0.8543554
| 35> H     4.3826607    1.1756148   -0.8222799
| 36> H     4.7297194   -1.0906321    0.1021545
| 37> H     2.8244377   -2.3617197    1.0218877
| 38> H     0.5692167   -1.3772761    1.0361047
| 39> *
| 40>
| 41>                          ****END OF INPUT****
 Total Charge           Charge          ....    1
 Multiplicity           Mult            ....    2
 Number of Electrons    NEL             ....   89
Dispersion correction           -0.023562715
FINAL SINGLE POINT ENERGY      -537.211337613594
Dispersion correction             ... done (  0.1 sec)
Dispersion correction           -0.023441186
FINAL SINGLE POINT ENERGY      -537.213570635824
Dispersion correction             ... done (  0.0 sec)
Dispersion correction           -0.023532931
FINAL SINGLE POINT ENERGY      -537.213544113758
Dispersion correction             ... done (  0.1 sec)
Dispersion correction           -0.023480295
FINAL SINGLE POINT ENERGY      -537.213780706241
Dispersion correction             ... done (  0.0 sec)
Dispersion correction           -0.023484671
FINAL SINGLE POINT ENERGY      -537.213790221119
Dispersion correction             ... done (  0.0 sec)
                    ***********************HURRAY********************

CARTESIAN COORDINATES (ANGSTROEM)
---------------------------------
  C      1.388214   -0.857109    0.607416
  C      2.666536   -1.385548    0.623285
  C      3.740967   -0.660196    0.082858
  C      3.540239    0.622331   -0.454606
  C      2.274635    1.176918   -0.464047
  C      1.194937    0.420494    0.037825
  O     -0.000012    1.030534   -0.000076
  C     -1.194947    0.420463   -0.037912
  C     -2.274663    1.176929    0.463853
  C     -3.540259    0.622323    0.454461
  C     -3.740953   -0.660267   -0.082860
  C     -2.666504   -1.385668   -0.623189
  C     -1.388189   -0.857212   -0.607353
  H     -0.557440   -1.384785   -1.081973
  H     -2.843029   -2.360756   -1.084564
  H     -4.747088   -1.087955   -0.104187
  H     -4.384745    1.184173    0.861619
  H     -2.078204    2.171055    0.872210
  H      2.078155    2.170989   -0.872530
  H      4.384711    1.184142   -0.861846
  H      4.747109   -1.087869    0.104217
  H      2.843078   -2.360586    1.084752
  H      0.557482   -1.384646    1.082113

 Multiplicity           Mult            ....    2
 Number of Electrons    NEL             ....   89
 Basis Dimension        Dim             ....  202

ORBITAL ENERGIES
----------------
                 SPIN UP ORBITALS
  NO   OCC          E(Eh)            E(eV)
   0   1.0000     -19.485258      -530.2208
   1   1.0000     -10.492820      -285.5241
   2   1.0000     -10.492816      -285.5240
   3   1.0000     -10.417582      -283.4768
   4   1.0000     -10.417538      -283.4756
   5   1.0000     -10.413435      -283.3640
   6   1.0000     -10.413434      -283.3640
   7   1.0000     -10.411583      -283.3136
   8   1.0000     -10.411578      -283.3134
   9   1.0000     -10.405059      -283.1360
  10   1.0000     -10.405049      -283.1358
  11   1.0000     -10.402514      -283.0668
  12   1.0000     -10.402512      -283.0668
  13   1.0000      -1.333996       -36.2999
  14   1.0000      -1.065044       -28.9813
  15   1.0000      -1.043773       -28.4025
  16   1.0000      -0.972443       -26.4615
  17   1.0000      -0.944627       -25.7046
  18   1.0000      -0.937137       -25.5008
  19   1.0000      -0.913631       -24.8612
  20   1.0000      -0.846889       -23.0450
  21   1.0000      -0.812023       -22.0963
  22   1.0000      -0.791154       -21.5284
  23   1.0000      -0.765110       -20.8197
  24   1.0000      -0.740545       -20.1513
  25   1.0000      -0.694106       -18.8876
  26   1.0000      -0.684052       -18.6140
  27   1.0000      -0.680571       -18.5193
  28   1.0000      -0.669763       -18.2252
  29   1.0000      -0.629245       -17.1226
  30   1.0000      -0.622640       -16.9429
  31   1.0000      -0.611626       -16.6432
  32   1.0000      -0.610757       -16.6195
  33   1.0000      -0.603260       -16.4155
  34   1.0000      -0.595787       -16.2122
  35   1.0000      -0.559017       -15.2116
  36   1.0000      -0.549163       -14.9435
  37   1.0000      -0.542708       -14.7678
  38   1.0000      -0.539561       -14.6822
  39   1.0000      -0.522032       -14.2052
  40   1.0000      -0.519856       -14.1460
  41   1.0000      -0.447359       -12.1733
  42   1.0000      -0.442842       -12.0503
  43   1.0000      -0.439024       -11.9465
  44   1.0000      -0.414856       -11.2888
  45   0.0000      -0.190609        -5.1867
  46   0.0000      -0.174826        -4.7573
  47   0.0000      -0.169151        -4.6028
  48   0.0000      -0.162367        -4.4182
  49   0.0000      -0.070848        -1.9279

                 SPIN DOWN ORBITALS
  NO   OCC          E(Eh)            E(eV)
   0   1.0000     -19.477525      -530.0104
   1   1.0000     -10.491981      -285.5013
   2   1.0000     -10.491980      -285.5013
   3   1.0000     -10.415699      -283.4256
   4   1.0000     -10.415654      -283.4244
   5   1.0000     -10.409753      -283.2638
   6   1.0000     -10.409747      -283.2636
   7   1.0000     -10.409662      -283.2613
   8   1.0000     -10.409662      -283.2613
   9   1.0000     -10.406050      -283.1630
  10   1.0000     -10.406039      -283.1627
  11   1.0000     -10.403532      -283.0945
  12   1.0000     -10.403530      -283.0945
  13   1.0000      -1.320591       -35.9351
  14   1.0000      -1.060048       -28.8454
  15   1.0000      -1.038730       -28.2653
  16   1.0000      -0.967628       -26.3305
  17   1.0000      -0.942199       -25.6385
  18   1.0000      -0.934971       -25.4418
  19   1.0000      -0.904293       -24.6071
  20   1.0000      -0.840874       -22.8813
  21   1.0000      -0.809782       -22.0353
  22   1.0000      -0.787119       -21.4186
  23   1.0000      -0.761966       -20.7342
  24   1.0000      -0.738207       -20.0876
  25   1.0000      -0.691023       -18.8037
  26   1.0000      -0.677499       -18.4357
  27   1.0000      -0.669201       -18.2099
  28   1.0000      -0.660712       -17.9789
  29   1.0000      -0.622692       -16.9443
  30   1.0000      -0.620979       -16.8977
  31   1.0000      -0.609213       -16.5775
  32   1.0000      -0.608914       -16.5694
  33   1.0000      -0.598987       -16.2993
  34   1.0000      -0.589075       -16.0295
  35   1.0000      -0.548146       -14.9158
  36   1.0000      -0.547606       -14.9011
  37   1.0000      -0.539313       -14.6754
  38   1.0000      -0.530001       -14.4220
  39   1.0000      -0.516823       -14.0635
  40   1.0000      -0.510744       -13.8980
  41   1.0000      -0.438958       -11.9447
  42   1.0000      -0.434515       -11.8238
  43   1.0000      -0.418946       -11.4001
  44   0.0000      -0.338608        -9.2140
  45   0.0000      -0.176535        -4.8038
  46   0.0000      -0.167039        -4.5454
  47   0.0000      -0.160233        -4.3602
  48   0.0000      -0.142351        -3.8736

MULLIKEN ATOMIC CHARGES AND SPIN POPULATIONS
--------------------------------------------
   0 C :   -0.148635    0.124922
   1 C :   -0.082380   -0.082320
   2 C :   -0.035082    0.265355
   3 C :   -0.085030   -0.084436
   4 C :   -0.079857    0.123126
   5 C :    0.218132    0.059906
   6 O :   -0.180956    0.225599
   7 C :    0.218133    0.059907
   8 C :   -0.079861    0.123131
   9 C :   -0.085027   -0.084438
  10 C :   -0.035082    0.265357
  11 C :   -0.082380   -0.082319
  12 C :   -0.148635    0.124920
  13 H :    0.165412   -0.006510
  14 H :    0.158612    0.003315
  15 H :    0.163804   -0.012773
  16 H :    0.161891    0.003005
  17 H :    0.153613   -0.006392
  18 H :    0.153614   -0.006392
  19 H :    0.161890    0.003005
  20 H :    0.163804   -0.012773
  21 H :    0.158610    0.003315
  22 H :    0.165411   -0.006510
Sum of atomic charges         :    1.0000000

LOEWDIN ATOMIC CHARGES AND SPIN POPULATIONS
-------------------------------------------
   0 C :   -0.118324    0.103562
   1 C :   -0.089440   -0.041644
   2 C :   -0.042734    0.209934
   3 C :   -0.086752   -0.043829
   4 C :   -0.089452    0.102380
   5 C :    0.069346    0.064594
   6 O :    0.085317    0.228454
   7 C :    0.069347    0.064595
   8 C :   -0.089451    0.102384
   9 C :   -0.086753   -0.043831
  10 C :   -0.042733    0.209937
  11 C :   -0.089439   -0.041644
  12 C :   -0.118325    0.103560
  13 H :    0.161361   -0.002891
  14 H :    0.161316    0.001829
  15 H :    0.162697   -0.006310
  16 H :    0.162752    0.001516
  17 H :    0.166570   -0.003369
  18 H :    0.166570   -0.003369
  19 H :    0.162752    0.001516
  20 H :    0.162697   -0.006310
  21 H :    0.161316    0.001829
  22 H :    0.161361   -0.002891

  Mayer bond orders larger than 0.100000
B(  0-C ,  1-C ) :   1.4494 B(  0-C ,  5-C ) :   1.2472 B(  0-C , 22-H ) :   0.9424
B(  1-C ,  2-C ) :   1.3296 B(  1-C , 21-H ) :   0.9499 B(  2-C ,  3-C ) :   1.3219
B(  2-C , 20-H ) :   0.9524 B(  3-C ,  4-C ) :   1.4434 B(  3-C , 19-H ) :   0.9517
B(  4-C ,  5-C ) :   1.2886 B(  4-C , 18-H ) :   0.9554 B(  5-C ,  6-O ) :   1.0919
B(  6-O ,  7-C ) :   1.0919 B(  7-C ,  8-C ) :   1.2886 B(  7-C , 12-C ) :   1.2472
B(  8-C ,  9-C ) :   1.4434 B(  8-C , 17-H ) :   0.9554 B(  9-C , 10-C ) :   1.3219
B(  9-C , 16-H ) :   0.9517 B( 10-C , 11-C ) :   1.3296 B( 10-C , 15-H ) :   0.9524
B( 11-C , 12-C ) :   1.4494 B( 11-C , 14-H ) :   0.9499 B( 12-C , 13-H ) :   0.9424

Dispersion correction           -0.023487676
FINAL SINGLE POINT ENERGY      -537.213792316911

DIPOLE MOMENT
-------------

Method             : SCF
Type of density    : Electron Density
Multiplicity       :   2
Irrep              :   0
Energy             :  -537.1903046404278257 Eh
Relativity type    :
Basis              : AO
                                X                 Y                 Z
Electronic contribution:     -0.000035352       2.222077204      -0.000069513
Nuclear contribution   :      0.000026820      -2.597809167       0.000076640
                        -----------------------------------------
Total Dipole Moment    :     -0.000008532      -0.375731963       0.000007128
                        -----------------------------------------
Magnitude (a.u.)       :      0.375731963
Magnitude (Debye)      :      0.955034751

VIBRATIONAL FREQUENCIES
-----------------------

Scaling factor for frequencies =  1.000000000  (already applied!)

     0:       0.00 cm**-1
     1:       0.00 cm**-1
     2:       0.00 cm**-1
     3:       0.00 cm**-1
     4:       0.00 cm**-1
     5:       0.00 cm**-1
     6:      52.50 cm**-1
     7:      61.40 cm**-1
     8:     103.74 cm**-1
     9:     230.88 cm**-1
    10:     236.11 cm**-1
    11:     316.90 cm**-1
    12:     367.57 cm**-1
    13:     400.96 cm**-1
    14:     418.37 cm**-1
    15:     480.84 cm**-1
    16:     500.18 cm**-1
    17:     564.84 cm**-1
    18:     586.91 cm**-1
    19:     603.15 cm**-1
    20:     638.10 cm**-1
    21:     677.63 cm**-1
    22:     682.78 cm**-1
    23:     781.00 cm**-1
    24:     791.62 cm**-1
    25:     816.00 cm**-1
    26:     828.94 cm**-1
    27:     842.14 cm**-1
    28:     900.35 cm**-1
    29:     953.70 cm**-1
    30:     962.65 cm**-1
    31:    1003.54 cm**-1
    32:    1008.97 cm**-1
    33:    1011.84 cm**-1
    34:    1012.16 cm**-1
    35:    1034.50 cm**-1
    36:    1034.92 cm**-1
    37:    1036.45 cm**-1
    38:    1041.36 cm**-1
    39:    1112.50 cm**-1
    40:    1119.75 cm**-1
    41:    1143.89 cm**-1
    42:    1176.54 cm**-1
    43:    1178.36 cm**-1
    44:    1187.90 cm**-1
    45:    1246.39 cm**-1
    46:    1275.84 cm**-1
    47:    1325.87 cm**-1
    48:    1342.18 cm**-1
    49:    1424.49 cm**-1
    50:    1430.10 cm**-1
    51:    1481.36 cm**-1
    52:    1502.17 cm**-1
    53:    1511.28 cm**-1
    54:    1519.52 cm**-1
    55:    1594.79 cm**-1
    56:    1598.82 cm**-1
    57:    1637.33 cm**-1
    58:    1690.73 cm**-1
    59:    3221.47 cm**-1
    60:    3222.57 cm**-1
    61:    3227.48 cm**-1
    62:    3228.96 cm**-1
    63:    3233.43 cm**-1
    64:    3234.29 cm**-1
    65:    3239.28 cm**-1
    66:    3239.68 cm**-1
    67:    3244.67 cm**-1
    68:    3244.82 cm**-1

IR SPECTRUM
-----------

 Mode   freq       eps      Int      T**2         TX        TY        TZ
       cm**-1   L/(mol*cm) km/mol    a.u.
----------------------------------------------------------------------------
  6:     52.50   0.000047    0.24  0.000278  ( 0.000210 -0.016675  0.000102)
  7:     61.40   0.001262    6.38  0.006415  (-0.072057 -0.000041 -0.034963)
  8:    103.74   0.000015    0.08  0.000045  (-0.000002 -0.006699 -0.000001)
  9:    230.88   0.000024    0.12  0.000033  (-0.000034 -0.005710  0.000000)
 10:    236.11   0.006533   33.02  0.008635  ( 0.092884 -0.000003  0.002798)
 11:    316.90   0.000059    0.30  0.000058  ( 0.000001 -0.007643  0.000002)
 12:    367.57   0.003310   16.73  0.002810  (-0.050892 -0.000001 -0.014844)
 13:    400.96   0.003023   15.28  0.002353  ( 0.048362  0.000001  0.003772)
 14:    418.37   0.000056    0.28  0.000041  ( 0.000002 -0.006435  0.000001)
 15:    480.84   0.000463    2.34  0.000301  (-0.000005  0.017337 -0.000000)
 16:    500.18   0.023595  119.24  0.014721  (-0.120916  0.000001  0.010013)
 17:    564.84   0.016387   82.82  0.009054  (-0.094485 -0.000002 -0.011237)
 18:    586.91   0.000018    0.09  0.000010  (-0.000014  0.003122 -0.000003)
 19:    603.15   0.001858    9.39  0.000961  (-0.028976 -0.000001 -0.011021)
 20:    638.10   0.000482    2.43  0.000236  (-0.000002  0.015348 -0.000002)
 21:    677.63   0.009919   50.13  0.004568  ( 0.014018 -0.000006 -0.066118)
 22:    682.78   0.001940    9.80  0.000887  ( 0.000008  0.029778 -0.000006)
 23:    781.00   0.000483    2.44  0.000193  ( 0.000012  0.013894  0.000010)
 24:    791.62   0.027049  136.69  0.010663  ( 0.070235  0.000007  0.075697)
 25:    816.00   0.003143   15.88  0.001202  ( 0.000007 -0.034668  0.000014)
 26:    828.94   0.004071   20.58  0.001533  (-0.037981  0.000009  0.009495)
 27:    842.14   0.000195    0.98  0.000072  (-0.000001 -0.008490 -0.000000)
 28:    900.35   0.019539   98.74  0.006772  ( 0.082261  0.000002  0.002278)
 29:    953.70   0.002817   14.24  0.000922  ( 0.023000  0.000004  0.019818)
 30:    962.65   0.000358    1.81  0.000116  ( 0.000005 -0.010777  0.000003)
 31:   1003.54   0.050652  255.98  0.015751  (-0.125455 -0.000004 -0.003471)
 32:   1008.97   0.000412    2.08  0.000127  (-0.011102  0.000000  0.002047)
 33:   1011.84   0.000015    0.07  0.000005  (-0.000018  0.002132 -0.000004)
 34:   1012.16   0.000025    0.13  0.000008  ( 0.000054 -0.002763 -0.000000)
 35:   1034.50   0.010536   53.24  0.003178  (-0.056366  0.000014  0.001066)
 36:   1034.92   0.000043    0.22  0.000013  (-0.000302 -0.003582  0.000002)
 37:   1036.45   0.008867   44.81  0.002670  (-0.051550  0.000003 -0.003514)
 38:   1041.36   0.000004    0.02  0.000001  ( 0.000053  0.001046  0.000003)
 39:   1112.50   0.013351   67.47  0.003745  (-0.059909  0.000004  0.012490)
 40:   1119.75   0.002797   14.13  0.000779  (-0.000033  0.027917 -0.000007)
 41:   1143.89   0.215034  1086.69  0.058663  (-0.241765 -0.000007 -0.014590)
 42:   1176.54   0.000094    0.48  0.000025  (-0.000028 -0.004996  0.000006)
 43:   1178.36   0.001168    5.90  0.000309  (-0.017307  0.000011  0.003116)
 44:   1187.90   0.000098    0.50  0.000026  (-0.000017  0.005078 -0.000001)
 45:   1246.39   0.149178  753.88  0.037350  (-0.193103 -0.000001 -0.007847)
 46:   1275.84   0.000348    1.76  0.000085  (-0.000021 -0.009227 -0.000000)
 47:   1325.87   0.000320    1.62  0.000075  (-0.008663 -0.000001 -0.000420)
 48:   1342.18   0.000085    0.43  0.000020  ( 0.000002  0.004444 -0.000001)
 49:   1424.49   0.006592   33.31  0.001444  ( 0.036845  0.000006 -0.009299)
 50:   1430.10   0.002691   13.60  0.000587  (-0.000012  0.024232  0.000002)
 51:   1481.36   0.011293   57.07  0.002379  ( 0.048750  0.000003 -0.001550)
 52:   1502.17   0.002209   11.16  0.000459  (-0.015304 -0.000010  0.014991)
 53:   1511.28   0.001933    9.77  0.000399  ( 0.000009 -0.019979 -0.000002)
 54:   1519.52   0.005298   26.78  0.001088  (-0.000005  0.032987  0.000001)
 55:   1594.79   0.006239   31.53  0.001221  (-0.034427 -0.000014  0.005972)
 56:   1598.82   0.001138    5.75  0.000222  (-0.000033  0.014906  0.000005)
 57:   1637.33   0.158092  798.93  0.030131  (-0.173397 -0.000003 -0.008035)
 58:   1690.73   0.000213    1.08  0.000039  ( 0.000006 -0.006274  0.000000)
 59:   3221.47   0.000463    2.34  0.000045  (-0.006523 -0.000009  0.001514)
 60:   3222.57   0.000006    0.03  0.000001  ( 0.000018  0.000777 -0.000008)
 61:   3227.48   0.000564    2.85  0.000055  (-0.006696 -0.000015  0.003113)
 62:   3228.96   0.000273    1.38  0.000026  ( 0.000007  0.005139 -0.000001)
 63:   3233.43   0.001039    5.25  0.000100  (-0.009953  0.000024  0.001104)
 64:   3234.29   0.000011    0.06  0.000001  (-0.000025  0.001041  0.000013)
 65:   3239.28   0.000523    2.64  0.000050  (-0.001806  0.000161  0.006860)
 66:   3239.68   0.002212   11.18  0.000213  ( 0.000024  0.014596 -0.000076)
 67:   3244.67   0.000179    0.90  0.000017  ( 0.000270 -0.000061 -0.004136)
 68:   3244.82   0.000338    1.71  0.000033  (-0.000003 -0.005705  0.000040)

--------------------------
THERMOCHEMISTRY AT 298.15K
--------------------------

Temperature         ...   298.15 K
Pressure            ...     1.00 atm
Total Mass          ...   170.21 AMU
Quasi RRHO          ...     True
Cut-Off Frequency   ...     1.00 cm^-1

Throughout the following assumptions are being made:
  (1) The electronic state is orbitally nondegenerate
      but the spin degeneracy is treated
  (2) There are no thermally accessible electronically excited states
  (3) Hindered rotations indicated by low frequency modes are not
      treated as such but are treated as vibrations and this may
      cause some error
  (4) All equations used are the standard statistical mechanics
      equations for an ideal gas
  (5) All vibrations are strictly harmonic

freq.      52.50  E(vib)   ...       0.52
freq.      61.40  E(vib)   ...       0.51
freq.     103.74  E(vib)   ...       0.46
freq.     230.88  E(vib)   ...       0.32
freq.     236.11  E(vib)   ...       0.32
freq.     316.90  E(vib)   ...       0.25
freq.     367.57  E(vib)   ...       0.21
freq.     400.96  E(vib)   ...       0.19
freq.     418.37  E(vib)   ...       0.18
freq.     480.84  E(vib)   ...       0.15
freq.     500.18  E(vib)   ...       0.14
freq.     564.84  E(vib)   ...       0.11
freq.     586.91  E(vib)   ...       0.10
freq.     603.15  E(vib)   ...       0.10
freq.     638.10  E(vib)   ...       0.09
freq.     677.63  E(vib)   ...       0.08
freq.     682.78  E(vib)   ...       0.08
freq.     781.00  E(vib)   ...       0.05
freq.     791.62  E(vib)   ...       0.05
freq.     816.00  E(vib)   ...       0.05
freq.     828.94  E(vib)   ...       0.04
freq.     842.14  E(vib)   ...       0.04
freq.     900.35  E(vib)   ...       0.03
freq.     953.70  E(vib)   ...       0.03
freq.     962.65  E(vib)   ...       0.03
freq.    1003.54  E(vib)   ...       0.02
freq.    1008.97  E(vib)   ...       0.02
freq.    1011.84  E(vib)   ...       0.02
freq.    1012.16  E(vib)   ...       0.02
freq.    1034.50  E(vib)   ...       0.02
freq.    1034.92  E(vib)   ...       0.02
freq.    1036.45  E(vib)   ...       0.02
freq.    1041.36  E(vib)   ...       0.02
freq.    1112.50  E(vib)   ...       0.01
freq.    1119.75  E(vib)   ...       0.01
freq.    1143.89  E(vib)   ...       0.01
freq.    1176.54  E(vib)   ...       0.01
freq.    1178.36  E(vib)   ...       0.01
freq.    1187.90  E(vib)   ...       0.01
freq.    1246.39  E(vib)   ...       0.01
freq.    1275.84  E(vib)   ...       0.01
freq.    1325.87  E(vib)   ...       0.01
freq.    1342.18  E(vib)   ...       0.01
freq.    1424.49  E(vib)   ...       0.00
freq.    1430.10  E(vib)   ...       0.00
freq.    1481.36  E(vib)   ...       0.00
freq.    1502.17  E(vib)   ...       0.00
freq.    1511.28  E(vib)   ...       0.00
freq.    1519.52  E(vib)   ...       0.00
freq.    1594.79  E(vib)   ...       0.00
freq.    1598.82  E(vib)   ...       0.00
freq.    1637.33  E(vib)   ...       0.00
freq.    1690.73  E(vib)   ...       0.00
freq.    3221.47  E(vib)   ...       0.00
freq.    3222.57  E(vib)   ...       0.00
freq.    3227.48  E(vib)   ...       0.00
freq.    3228.96  E(vib)   ...       0.00
freq.    3233.43  E(vib)   ...       0.00
freq.    3234.29  E(vib)   ...       0.00
freq.    3239.28  E(vib)   ...       0.00
freq.    3239.68  E(vib)   ...       0.00
freq.    3244.67  E(vib)   ...       0.00
freq.    3244.82  E(vib)   ...       0.00

------------
INNER ENERGY
------------

The inner energy is: U= E(el) + E(ZPE) + E(vib) + E(rot) + E(trans)
    E(el)   - is the total energy from the electronic structure calculation
              = E(kin-el) + E(nuc-el) + E(el-el) + E(nuc-nuc)
    E(ZPE)  - the the zero temperature vibrational energy from the frequency calculation
    E(vib)  - the the finite temperature correction to E(ZPE) due to population
              of excited vibrational states
    E(rot)  - is the rotational thermal energy
    E(trans)- is the translational thermal energy

Summary of contributions to the inner energy U:
Electronic energy                ...   -537.21379232 Eh
Zero point energy                ...      0.18639850 Eh     116.97 kcal/mol
Thermal vibrational correction   ...      0.00708033 Eh       4.44 kcal/mol
Thermal rotational correction    ...      0.00141627 Eh       0.89 kcal/mol
Thermal translational correction ...      0.00141627 Eh       0.89 kcal/mol
-----------------------------------------------------------------------
Total thermal energy                   -537.01748094 Eh

Summary of corrections to the electronic energy:
(perhaps to be used in another calculation)
Total thermal correction                  0.00991287 Eh       6.22 kcal/mol
Non-thermal (ZPE) correction              0.18639850 Eh     116.97 kcal/mol
-----------------------------------------------------------------------
Total correction                          0.19631137 Eh     123.19 kcal/mol

--------
ENTHALPY
--------

The enthalpy is H = U + kB*T
                kB is Boltzmann's constant
Total thermal energy              ...   -537.01748094 Eh
Thermal Enthalpy correction       ...      0.00094421 Eh       0.59 kcal/mol
-----------------------------------------------------------------------
Total Enthalpy                    ...   -537.01653674 Eh

Note: Rotational entropy computed according to Herzberg
Infrared and Raman Spectra, Chapter V,1, Van Nostrand Reinhold, 1945
Point Group:  C2, Symmetry Number:   2
Rotational constants in cm-1:     0.082583     0.014544     0.013062

Vibrational entropy computed according to the QRRHO of S. Grimme
Chem.Eur.J. 2012 18 9955 using a reference frequency of 100.0 cm-1

-------
ENTROPY
-------

The entropy contributions are T*S = T*(S(el)+S(vib)+S(rot)+S(trans))
     S(el)   - electronic entropy
     S(vib)  - vibrational entropy
     S(rot)  - rotational entropy
     S(trans)- translational entropy
The entropies will be listed as multiplied by the temperature to get
units of energy

Electronic entropy                ...      0.00065446 Eh      0.41 kcal/mol
Vibrational entropy               ...      0.01168037 Eh      7.33 kcal/mol
Rotational entropy                ...      0.01407889 Eh      8.83 kcal/mol
Translational entropy             ...      0.01962451 Eh     12.31 kcal/mol
-----------------------------------------------------------------------
Final entropy term                ...      0.04603824 Eh     28.89 kcal/mol

In case the symmetry of your molecule has not been determined correctly
or in case you have a reason to use a different symmetry number we print
out the resulting rotational entropy values for sn=1,12:

 non-linear molecules -----------------------------------
|  sn= 1 | S(rot)=       0.01473335 Eh      9.25 kcal/mol|

                             ****ORCA TERMINATED NORMALLY****
TOTAL RUN TIME: 0 days 0 hours 14 minutes 51 seconds 282 msec
