                         Program Version 6.0.0  -   RELEASE  -
|  1> !r2SCANh aug-cc-pVTZ d3 TightSCF SlowConv RIJCOSX defgrid2
|  2>
|  3> %pal
|  4> nprocs 4
|  5> end
|  6>
|  7> %scf
|  8> MaxIter 1500
|  9> end
| 10>
| 11> %maxcore 3000
| 12>
| 13> !CPCM
| 14> %cpcm smd true
| 15> SMDsolvent "MeCN"
| 16> surfacetype gepol_ses
| 17> rsolv 2.19
| 18> end
| 19>
| 20> * xyz 0 1
| 21> C           1.53272654443288     -1.20734713575059      0.00001134953925
| 22> C           2.23205656040314      0.00003376074589      0.00002131461898
| 23> C           1.53261692111977      1.20735327461293      0.00000329748612
| 24> C           0.14128323670377      1.21145943804893     -0.00003641879993
| 25> C          -0.57083167401632     -0.00009614629977     -0.00005172301107
| 26> C           0.14138939561012     -1.21158285716611     -0.00002530102841
| 27> H          -0.41093083938214     -2.15464364427352     -0.00004270609566
| 28> C          -2.00037464606059     -0.00010505901986     -0.00009934791315
| 29> C          -3.21371752895327      0.00086010309321     -0.00022829616000
| 30> H          -4.28895933598145     -0.00028893327027      0.00071781614810
| 31> H          -0.41113044461304      2.15446486831874     -0.00006102811420
| 32> H           2.07747601296685      2.15600861535335      0.00001063551847
| 33> H           3.32604809148087      0.00008333329139      0.00003835626390
| 34> H           2.07768150628941     -2.15594681768433      0.00002525154760
| 35> *
| 36>
| 37>                          ****END OF INPUT****

CARTESIAN COORDINATES (ANGSTROEM)
---------------------------------
  C      1.532727   -1.207347    0.000011
  C      2.232057    0.000034    0.000021
  C      1.532617    1.207353    0.000003
  C      0.141283    1.211459   -0.000036
  C     -0.570832   -0.000096   -0.000052
  C      0.141389   -1.211583   -0.000025
  H     -0.410931   -2.154644   -0.000043
  C     -2.000375   -0.000105   -0.000099
  C     -3.213718    0.000860   -0.000228
  H     -4.288959   -0.000289    0.000718
  H     -0.411130    2.154465   -0.000061
  H      2.077476    2.156009    0.000011
  H      3.326048    0.000083    0.000038
  H      2.077682   -2.155947    0.000025

 Total Charge           Charge          ....    0
 Multiplicity           Mult            ....    1
 Number of Electrons    NEL             ....   54
 Basis Dimension        Dim             ....  506

ORBITAL ENERGIES
----------------

  NO   OCC          E(Eh)            E(eV)
   0   2.0000     -10.195694      -277.4389
   1   2.0000     -10.173435      -276.8332
   2   2.0000     -10.171839      -276.7898
   3   2.0000     -10.171838      -276.7898
   4   2.0000     -10.167922      -276.6832
   5   2.0000     -10.167326      -276.6670
   6   2.0000     -10.167101      -276.6609
   7   2.0000     -10.162389      -276.5327
   8   2.0000      -0.871519       -23.7152
   9   2.0000      -0.790587       -21.5130
  10   2.0000      -0.753400       -20.5010
  11   2.0000      -0.732851       -19.9419
  12   2.0000      -0.624804       -17.0018
  13   2.0000      -0.607278       -16.5249
  14   2.0000      -0.543649       -14.7934
  15   2.0000      -0.505281       -13.7494
  16   2.0000      -0.468000       -12.7349
  17   2.0000      -0.453919       -12.3518
  18   2.0000      -0.425668       -11.5830
  19   2.0000      -0.413925       -11.2635
  20   2.0000      -0.386208       -10.5093
  21   2.0000      -0.348235        -9.4759
  22   2.0000      -0.339204        -9.2302
  23   2.0000      -0.315660        -8.5895
  24   2.0000      -0.282236        -7.6800
  25   2.0000      -0.261149        -7.1062
  26   2.0000      -0.240231        -6.5370
  27   0.0000      -0.056243        -1.5305
  28   0.0000      -0.031599        -0.8599
  29   0.0000       0.009479         0.2579
  30   0.0000       0.018143         0.4937
  31   0.0000       0.024072         0.6550

MULLIKEN ATOMIC CHARGES
-----------------------
   0 C :   -0.487793
   1 C :   -0.012126
   2 C :   -0.489862
   3 C :   -1.295351
   4 C :    1.571824
   5 C :   -1.297812
   6 H :   -0.388642
   7 C :    1.306012
   8 C :   -0.349512
   9 H :    0.366250
  10 H :   -0.386997
  11 H :    0.535010
  12 H :    0.393585
  13 H :    0.535414
Sum of atomic charges:    0.0000000

LOEWDIN ATOMIC CHARGES
----------------------
   0 C :    0.194956
   1 C :    0.192275
   2 C :    0.194960
   3 C :    0.191263
   4 C :   -0.235512
   5 C :    0.191271
   6 H :   -0.163506
   7 C :   -0.021596
   8 C :    0.402468
   9 H :   -0.281054
  10 H :   -0.163506
  11 H :   -0.167213
  12 H :   -0.167591
  13 H :   -0.167215

  Mayer bond orders larger than 0.100000
B(  0-C ,  1-C ) :   1.0363 B(  0-C ,  3-C ) :   0.1692 B(  0-C ,  4-C ) :   0.5489
B(  0-C ,  5-C ) :   1.2502 B(  0-C ,  6-H ) :  -0.1696 B(  0-C ,  7-C ) :  -0.1703
B(  0-C ,  8-C ) :  -0.1922 B(  0-C , 10-H ) :  -0.1033 B(  0-C , 12-H ) :  -0.1075
B(  0-C , 13-H ) :   0.5666 B(  1-C ,  2-C ) :   1.0361 B(  1-C ,  3-C ) :  -0.3541
B(  1-C ,  4-C ) :  -0.4271 B(  1-C ,  5-C ) :  -0.3547 B(  1-C ,  6-H ) :  -0.1049
B(  1-C ,  7-C ) :   0.4428 B(  1-C ,  8-C ) :   0.3100 B(  1-C , 10-H ) :  -0.1052
B(  1-C , 12-H ) :   0.7629 B(  2-C ,  3-C ) :   1.2522 B(  2-C ,  4-C ) :   0.5487
B(  2-C ,  5-C ) :   0.1704 B(  2-C ,  6-H ) :  -0.1021 B(  2-C ,  7-C ) :  -0.1720
B(  2-C ,  8-C ) :  -0.1924 B(  2-C , 10-H ) :  -0.1676 B(  2-C , 11-H ) :   0.5661
B(  2-C , 12-H ) :  -0.1071 B(  3-C ,  4-C ) :   0.2206 B(  3-C ,  5-C ) :  -0.5789
B(  3-C ,  6-H ) :   0.3974 B(  3-C ,  7-C ) :   0.3552 B(  3-C ,  8-C ) :  -0.3177
B(  3-C , 10-H ) :   2.4398 B(  3-C , 11-H ) :  -0.2214 B(  4-C ,  5-C ) :   0.2212
B(  4-C ,  7-C ) :  -0.3268 B(  4-C ,  8-C ) :   1.0624 B(  4-C ,  9-H ) :   0.1258
B(  5-C ,  6-H ) :   2.4422 B(  5-C ,  7-C ) :   0.3550 B(  5-C ,  8-C ) :  -0.3197
B(  5-C , 10-H ) :   0.3958 B(  5-C , 13-H ) :  -0.2223 B(  6-H ,  7-C ) :  -0.4957
B(  6-H ,  8-C ) :  -0.7916 B(  6-H , 10-H ) :   0.6005 B(  6-H , 11-H ) :  -0.1315
B(  6-H , 13-H ) :  -0.1116 B(  7-C ,  8-C ) :   2.9820 B(  7-C ,  9-H ) :  -0.1124
B(  7-C , 10-H ) :  -0.4928 B(  7-C , 11-H ) :   0.1208 B(  7-C , 13-H ) :   0.1229
B(  8-C ,  9-H ) :   1.0488 B(  8-C , 10-H ) :  -0.7897 B(  8-C , 11-H ) :   0.3140
B(  8-C , 12-H ) :  -0.1369 B(  8-C , 13-H ) :   0.3145 B( 10-H , 11-H ) :  -0.1111
B( 10-H , 13-H ) :  -0.1321

Dispersion correction           -0.004293727
FINAL SINGLE POINT ENERGY      -308.316205399543

DIPOLE MOMENT
-------------

Method             : SCF
Type of density    : Electron Density
Multiplicity       :   1
Irrep              :   0
Energy             :  -308.3119116724109858 Eh
Relativity type    :
Basis              : AO
                                X                 Y                 Z
Electronic contribution:     -1.768057727       0.000049858      -0.000438095
Nuclear contribution   :      2.227582411      -0.000665596       0.000875711
                        -----------------------------------------
Total Dipole Moment    :      0.459524684      -0.000615738       0.000437615
                        -----------------------------------------
Magnitude (a.u.)       :      0.459525305
Magnitude (Debye)      :      1.168020501

Rotational constants in cm-1:             0.189401             0.050851             0.040088
Rotational constants in MHz :          5678.091161          1524.476874          1201.810057

                             ****ORCA TERMINATED NORMALLY****
TOTAL RUN TIME: 0 days 0 hours 3 minutes 55 seconds 279 msec
