                         Program Version 6.0.0  -   RELEASE  -
|  1> !B3LYP aug-cc-pVTZ d3 TightSCF SlowConv RIJCOSX defgrid2
|  2>
|  3> %pal
|  4> nprocs 6
|  5> end
|  6>
|  7> %scf
|  8> MaxIter 1500
|  9> end
| 10>
| 11> %maxcore 3000
| 12>
| 13> !CPCM
| 14> %cpcm smd true
| 15> SMDsolvent "MeCN"
| 16> surfacetype gepol_ses
| 17> rsolv 2.19
| 18> end
| 19>
| 20> * xyz -1 2
| 21>   C          -3.62984747030359      2.10634854089890      0.29413366187786
| 22>   C          -4.88521656793814      1.52460279264563      0.21285194664948
| 23>   C          -2.43996070251224      1.35928996872449      0.08422922937252
| 24>   C          -2.61096888777262     -0.00171874484877     -0.27802191885602
| 25>   C          -3.87287251644746     -0.57850198655770     -0.36904469903670
| 26>   C          -5.03023873609438      0.16696438667983     -0.10988269549484
| 27>   C          -1.16948079167151      2.09256049707431      0.16164767275919
| 28>   C           0.12067423933497      1.40594735978097      0.30426152268307
| 29>   C           1.28964189965584      2.16414147627999      0.02630190894131
| 30>   C           2.56066514539573      1.62761624229261      0.15812903251074
| 31>   C           2.74361326089362      0.30916965549547      0.60191698925079
| 32>   C           1.60721306175648     -0.44185421529682      0.92902893717985
| 33>   C           0.32976744930311      0.08871154082537      0.78825579984698
| 34>   O          -1.18787359702741      3.35479483613606      0.10344354720181
| 35>   H          -3.95752568777400     -1.63142375583986     -0.66486174996515
| 36>   H          -6.02174902533034     -0.29324813226849     -0.17715643182860
| 37>   H          -3.50305728008549      3.16796655235268      0.52140925280262
| 38>   H          -5.77643532337797      2.13678032750153      0.39984091569786
| 39>   H          -1.74010174342944     -0.60523310453178     -0.54356548187453
| 40>   H          -0.52377533184004     -0.51255708549791      1.10930263672941
| 41>   H           3.74754253761040     -0.11513493690994      0.70902931502125
| 42>   H           1.72088092192766     -1.46080357442395      1.31909388538700
| 43>   H           1.13299801894373      3.19674935471579     -0.29607576485640
| 44>   H           3.43450583978311      2.24528941977158     -0.08460366299948
| 45> *
| 46>
| 47>                          ****END OF INPUT****

CARTESIAN COORDINATES (ANGSTROEM)
---------------------------------
  C     -3.629847    2.106349    0.294134
  C     -4.885217    1.524603    0.212852
  C     -2.439961    1.359290    0.084229
  C     -2.610969   -0.001719   -0.278022
  C     -3.872873   -0.578502   -0.369045
  C     -5.030239    0.166964   -0.109883
  C     -1.169481    2.092560    0.161648
  C      0.120674    1.405947    0.304262
  C      1.289642    2.164141    0.026302
  C      2.560665    1.627616    0.158129
  C      2.743613    0.309170    0.601917
  C      1.607213   -0.441854    0.929029
  C      0.329767    0.088712    0.788256
  O     -1.187874    3.354795    0.103444
  H     -3.957526   -1.631424   -0.664862
  H     -6.021749   -0.293248   -0.177156
  H     -3.503057    3.167967    0.521409
  H     -5.776435    2.136780    0.399841
  H     -1.740102   -0.605233   -0.543565
  H     -0.523775   -0.512557    1.109303
  H      3.747543   -0.115135    0.709029
  H      1.720881   -1.460804    1.319094
  H      1.132998    3.196749   -0.296076
  H      3.434506    2.245289   -0.084604

 Total Charge           Charge          ....   -1
 Multiplicity           Mult            ....    2
 Number of Electrons    NEL             ....   97
 Basis Dimension        Dim             ....  874

ORBITAL ENERGIES
----------------
                 SPIN UP ORBITALS
  NO   OCC          E(Eh)            E(eV)
   0   1.0000     -19.046961      -518.2942
   1   1.0000     -10.189941      -277.2824
   2   1.0000     -10.160684      -276.4863
   3   1.0000     -10.160658      -276.4856
   4   1.0000     -10.160600      -276.4840
   5   1.0000     -10.160583      -276.4835
   6   1.0000     -10.158649      -276.4309
   7   1.0000     -10.158614      -276.4300
   8   1.0000     -10.157713      -276.4054
   9   1.0000     -10.157703      -276.4052
  10   1.0000     -10.156666      -276.3769
  11   1.0000     -10.156624      -276.3758
  12   1.0000     -10.151531      -276.2372
  13   1.0000     -10.151502      -276.2364
  14   1.0000      -0.967596       -26.3296
  15   1.0000      -0.835963       -22.7477
  16   1.0000      -0.832612       -22.6565
  17   1.0000      -0.746276       -20.3072
  18   1.0000      -0.727805       -19.8046
  19   1.0000      -0.726737       -19.7755
  20   1.0000      -0.721929       -19.6447
  21   1.0000      -0.628562       -17.1040
  22   1.0000      -0.589824       -16.0499
  23   1.0000      -0.584641       -15.9089
  24   1.0000      -0.572975       -15.5914
  25   1.0000      -0.531279       -14.4568
  26   1.0000      -0.500292       -13.6136
  27   1.0000      -0.480159       -13.0658
  28   1.0000      -0.442556       -12.0426
  29   1.0000      -0.435237       -11.8434
  30   1.0000      -0.427369       -11.6293
  31   1.0000      -0.421966       -11.4823
  32   1.0000      -0.400866       -10.9081
  33   1.0000      -0.399858       -10.8807
  34   1.0000      -0.396865       -10.7992
  35   1.0000      -0.380285       -10.3481
  36   1.0000      -0.374711       -10.1964
  37   1.0000      -0.355238        -9.6665
  38   1.0000      -0.344747        -9.3811
  39   1.0000      -0.334316        -9.0972
  40   1.0000      -0.329002        -8.9526
  41   1.0000      -0.314435        -8.5562
  42   1.0000      -0.310198        -8.4409
  43   1.0000      -0.246605        -6.7105
  44   1.0000      -0.245986        -6.6936
  45   1.0000      -0.240528        -6.5451
  46   1.0000      -0.240412        -6.5420
  47   1.0000      -0.212570        -5.7843
  48   1.0000      -0.102427        -2.7872
  49   0.0000      -0.012099        -0.3292
  50   0.0000      -0.002609        -0.0710
  51   0.0000       0.000911         0.0248
  52   0.0000       0.001115         0.0304
  53   0.0000       0.007360         0.2003

                 SPIN DOWN ORBITALS
  NO   OCC          E(Eh)            E(eV)
   0   1.0000     -19.040682      -518.1233
   1   1.0000     -10.185894      -277.1723
   2   1.0000     -10.161336      -276.5040
   3   1.0000     -10.161322      -276.5036
   4   1.0000     -10.161252      -276.5017
   5   1.0000     -10.161227      -276.5011
   6   1.0000     -10.158779      -276.4344
   7   1.0000     -10.158739      -276.4333
   8   1.0000     -10.156422      -276.3703
   9   1.0000     -10.156412      -276.3700
  10   1.0000     -10.154533      -276.3189
  11   1.0000     -10.154481      -276.3175
  12   1.0000     -10.149961      -276.1945
  13   1.0000     -10.149927      -276.1936
  14   1.0000      -0.955924       -26.0120
  15   1.0000      -0.833535       -22.6816
  16   1.0000      -0.830754       -22.6060
  17   1.0000      -0.741741       -20.1838
  18   1.0000      -0.725638       -19.7456
  19   1.0000      -0.724600       -19.7174
  20   1.0000      -0.719842       -19.5879
  21   1.0000      -0.619834       -16.8665
  22   1.0000      -0.587251       -15.9799
  23   1.0000      -0.583801       -15.8860
  24   1.0000      -0.571406       -15.5487
  25   1.0000      -0.528266       -14.3748
  26   1.0000      -0.499252       -13.5853
  27   1.0000      -0.476986       -12.9795
  28   1.0000      -0.440330       -11.9820
  29   1.0000      -0.433651       -11.8002
  30   1.0000      -0.426071       -11.5940
  31   1.0000      -0.420892       -11.4531
  32   1.0000      -0.399278       -10.8649
  33   1.0000      -0.397841       -10.8258
  34   1.0000      -0.395026       -10.7492
  35   1.0000      -0.375479       -10.2173
  36   1.0000      -0.363720        -9.8973
  37   1.0000      -0.350191        -9.5292
  38   1.0000      -0.342650        -9.3240
  39   1.0000      -0.331003        -9.0071
  40   1.0000      -0.315301        -8.5798
  41   1.0000      -0.313105        -8.5200
  42   1.0000      -0.304934        -8.2977
  43   1.0000      -0.240982        -6.5575
  44   1.0000      -0.240115        -6.5339
  45   1.0000      -0.232658        -6.3310
  46   1.0000      -0.223793        -6.0897
  47   1.0000      -0.205744        -5.5986
  48   0.0000      -0.040259        -1.0955
  49   0.0000      -0.002929        -0.0797
  50   0.0000      -0.000420        -0.0114
  51   0.0000       0.003908         0.1063
  52   0.0000       0.004788         0.1303

MULLIKEN ATOMIC CHARGES AND SPIN POPULATIONS
--------------------------------------------
   0 C :   -1.231529    0.139788
   1 C :   -0.621452   -0.051151
   2 C :    2.140852   -0.017932
   3 C :   -0.566547    0.106639
   4 C :   -1.052366   -0.049887
   5 C :   -0.244566    0.156661
   6 C :    0.744920    0.229051
   7 C :    2.136764   -0.018170
   8 C :   -1.221201    0.140329
   9 C :   -0.623316   -0.051087
  10 C :   -0.250911    0.157266
  11 C :   -1.085058   -0.050071
  12 C :   -0.569419    0.107187
  13 O :   -1.204344    0.249959
  14 H :    0.389045    0.000051
  15 H :    0.519678   -0.003652
  16 H :   -0.202668   -0.010351
  17 H :    0.479902   -0.001863
  18 H :    0.118357   -0.008177
  19 H :    0.117924   -0.008177
  20 H :    0.520889   -0.004908
  21 H :    0.400672    0.000261
  22 H :   -0.221516   -0.010707
  23 H :    0.525889   -0.001060
Sum of atomic charges         :   -1.0000000

LOEWDIN ATOMIC CHARGES AND SPIN POPULATIONS
-------------------------------------------
   0 C :    0.148682    0.050902
   1 C :    0.148628    0.014668
   2 C :   -0.171137    0.063423
   3 C :    0.166057    0.046629
   4 C :    0.156022    0.016185
   5 C :    0.151892    0.068380
   6 C :   -0.631466    0.187378
   7 C :   -0.171221    0.063662
   8 C :    0.148730    0.051091
   9 C :    0.148472    0.014744
  10 C :    0.151937    0.068720
  11 C :    0.155825    0.016277
  12 C :    0.165888    0.046834
  13 O :    0.378165    0.221750
  14 H :   -0.178115   -0.002343
  15 H :   -0.187909    0.018183
  16 H :   -0.219138    0.011647
  17 H :   -0.180097   -0.003211
  18 H :   -0.207854    0.010324
  19 H :   -0.207937    0.010364
  20 H :   -0.187961    0.018271
  21 H :   -0.178162   -0.002348
  22 H :   -0.219185    0.011688
  23 H :   -0.180118   -0.003219

  Mayer bond orders larger than 0.100000
B(  0-C ,  1-C ) :   1.2470 B(  0-C ,  2-C ) :  -0.2997 B(  0-C ,  3-C ) :  -0.6593
B(  0-C ,  4-C ) :   0.1669 B(  0-C ,  5-C ) :  -0.1939 B(  0-C ,  6-C ) :   0.3015
B(  0-C ,  7-C ) :   0.1027 B(  0-C , 15-H ) :   0.1179 B(  0-C , 16-H ) :   1.7282
B(  0-C , 17-H ) :  -0.2398 B(  1-C ,  4-C ) :   0.2136 B(  1-C ,  5-C ) :   1.0973
B(  1-C , 17-H ) :   0.5700 B(  1-C , 18-H ) :  -0.1601 B(  2-C ,  3-C ) :   0.3476
B(  2-C ,  4-C ) :  -0.1176 B(  2-C ,  6-C ) :   0.3913 B(  2-C ,  8-C ) :   0.1020
B(  2-C , 16-H ) :  -0.3228 B(  2-C , 17-H ) :   0.1447 B(  2-C , 18-H ) :  -0.1114
B(  2-C , 19-H ) :  -0.1338 B(  3-C ,  4-C ) :   1.2090 B(  3-C ,  5-C ) :  -0.1072
B(  3-C ,  6-C ) :   0.2957 B(  3-C , 12-C ) :   0.1217 B(  3-C , 18-H ) :   1.4514
B(  4-C ,  5-C ) :   1.2013 B(  4-C , 14-H ) :   0.6600 B(  4-C , 15-H ) :  -0.1213
B(  4-C , 16-H ) :  -0.1039 B(  5-C ,  6-C ) :   0.2517 B(  5-C , 15-H ) :   0.5715
B(  6-C ,  7-C ) :   0.3868 B(  6-C ,  8-C ) :   0.2867 B(  6-C , 10-C ) :   0.2431
B(  6-C , 12-C ) :   0.2988 B(  6-C , 16-H ) :  -0.3591 B(  6-C , 22-H ) :  -0.3788
B(  7-C ,  8-C ) :  -0.2978 B(  7-C , 11-C ) :  -0.1203 B(  7-C , 12-C ) :   0.3527
B(  7-C , 18-H ) :  -0.1427 B(  7-C , 19-H ) :  -0.1138 B(  7-C , 22-H ) :  -0.3397
B(  7-C , 23-H ) :   0.1562 B(  8-C ,  9-C ) :   1.2426 B(  8-C , 10-C ) :  -0.2238
B(  8-C , 11-C ) :   0.1680 B(  8-C , 12-C ) :  -0.6689 B(  8-C , 20-H ) :   0.1204
B(  8-C , 22-H ) :   1.7780 B(  8-C , 23-H ) :  -0.2412 B(  9-C , 10-C ) :   1.1134
B(  9-C , 11-C ) :   0.2480 B(  9-C , 19-H ) :  -0.1717 B(  9-C , 23-H ) :   0.4732
B( 10-C , 11-C ) :   1.2215 B( 10-C , 12-C ) :  -0.1161 B( 10-C , 20-H ) :   0.5753
B( 11-C , 12-C ) :   1.2113 B( 11-C , 20-H ) :  -0.1318 B( 11-C , 21-H ) :   0.6353
B( 12-C , 19-H ) :   1.4514 B( 13-O , 16-H ) :   0.3553 B( 13-O , 22-H ) :   0.3568
B( 16-H , 18-H ) :   0.1984 B( 16-H , 22-H ) :   0.1953 B( 19-H , 22-H ) :   0.2061

Dispersion correction           -0.050738235
FINAL SINGLE POINT ENERGY      -576.639387549492

DIPOLE MOMENT
-------------

Method             : SCF
Type of density    : Electron Density
Multiplicity       :   2
Irrep              :   0
Energy             :  -576.5886493147164629 Eh
Relativity type    :
Basis              : AO
                                X                 Y                 Z
Electronic contribution:     -0.036704902       2.331740991      -0.108440778
Nuclear contribution   :      0.065380464      -4.610103580       0.211136604
                        -----------------------------------------
Total Dipole Moment    :      0.028675561      -2.278362589       0.102695826
                        -----------------------------------------
Magnitude (a.u.)       :      2.280856157
Magnitude (Debye)      :      5.797475618

Rotational constants in cm-1:             0.059016             0.013412             0.011183
Rotational constants in MHz :          1769.265782           402.071173           335.263928

                             ****ORCA TERMINATED NORMALLY****
TOTAL RUN TIME: 0 days 0 hours 9 minutes 13 seconds 661 msec
