                         Program Version 6.0.0  -   RELEASE  -
|  1> !PBE0 opt aug-cc-pVTZ d3 TightSCF SlowConv RIJCOSX defgrid2
|  2>
|  3> %pal
|  4> nprocs 8
|  5> end
|  6>
|  7> %scf
|  8> MaxIter 1500
|  9> end
| 10>
| 11> %maxcore 3500
| 12>
| 13> !CPCM
| 14> %cpcm smd true
| 15> SMDsolvent "MeCN"
| 16> surfacetype gepol_ses
| 17> rsolv 2.19
| 18> end
| 19>
| 20> * xyz -1 2
| 21> C          -0.01331421056281      1.21015152275559     -0.00003912841012
| 22> C           1.37407426915828      1.22077182581697      0.00009471803504
| 23> C           2.08268728216500      0.01623593632828      0.00008078293558
| 24> C           1.39800867624770     -1.21018542596672     -0.00005492668248
| 25> C           0.01763373542032     -1.22524409629627     -0.00018246787257
| 26> C          -0.75988843497050     -0.01763719993150     -0.00018385015586
| 27> C          -2.18998893121825     -0.10468719257966     -0.00029823993913
| 28> O          -2.82191384294989     -1.19348424477804     -0.00032077578394
| 29> C          -2.98040993394950      1.20193760901241     -0.00023396308602
| 30> H          -2.77113925068928      1.83311429650402      0.88831166373856
| 31> H          -2.77095660989795      1.83331313895105     -0.88859326031545
| 32> H          -4.05230547218906      0.94280281896802     -0.00037251615162
| 33> H          -0.53955758793286     -2.16627118900373     -0.00028423650614
| 34> H           1.97817281356228     -2.14018774357936     -0.00004958149680
| 35> F           3.44427090335711      0.03016813897025      0.00021925839865
| 36> H           1.93269491180525      2.16366570442592      0.00021265957610
| 37> H          -0.54367651735585      2.16766590040277     -0.00001523628380
| 38> *
| 39>
| 40>                          ****END OF INPUT****
 Total Charge           Charge          ....   -1
 Multiplicity           Mult            ....    2
 Number of Electrons    NEL             ....   73
Dispersion correction           -0.015265120
FINAL SINGLE POINT ENERGY      -483.871323549063
Dispersion correction             ... done (  0.1 sec)
Dispersion correction           -0.015329699
FINAL SINGLE POINT ENERGY      -483.872696167127
Dispersion correction             ... done (  0.1 sec)
Dispersion correction           -0.015343368
FINAL SINGLE POINT ENERGY      -483.872864948605
Dispersion correction             ... done (  0.1 sec)
FINAL SINGLE POINT ENERGY      -483.872910731441
Dispersion correction             ... done (  0.1 sec)
Dispersion correction           -0.015338163
FINAL SINGLE POINT ENERGY      -483.872916845275
Dispersion correction             ... done (  0.1 sec)
Dispersion correction           -0.015336766
FINAL SINGLE POINT ENERGY      -483.872918270701
Dispersion correction             ... done (  0.1 sec)
                    ***********************HURRAY********************

CARTESIAN COORDINATES (ANGSTROEM)
---------------------------------
  C     -0.024068    1.197449   -0.000217
  C      1.355063    1.219337    0.000210
  C      2.053500    0.017264    0.000036
  C      1.395941   -1.206576   -0.001022
  C      0.017827   -1.230398   -0.001279
  C     -0.758341   -0.028623   -0.000252
  C     -2.180726   -0.089097    0.001808
  O     -2.817845   -1.190069    0.005460
  C     -2.961741    1.205902   -0.000787
  H     -2.749781    1.826557    0.878127
  H     -2.744427    1.826439   -0.878463
  H     -4.027330    0.974634   -0.003877
  H     -0.508262   -2.176796   -0.001967
  H      1.971171   -2.126061   -0.001670
  F      3.419857    0.041234    0.001028
  H      1.896973    2.158419    0.000833
  H     -0.553420    2.142516    0.000323

 Multiplicity           Mult            ....    2
 Number of Electrons    NEL             ....   73
 Basis Dimension        Dim             ....  621

ORBITAL ENERGIES
----------------
                 SPIN UP ORBITALS
  NO   OCC          E(Eh)            E(eV)
   0   1.0000     -24.769158      -674.0030
   1   1.0000     -19.124726      -520.4103
   2   1.0000     -10.276461      -279.6367
   3   1.0000     -10.235930      -278.5338
   4   1.0000     -10.211644      -277.8729
   5   1.0000     -10.211447      -277.8676
   6   1.0000     -10.208340      -277.7830
   7   1.0000     -10.203644      -277.6553
   8   1.0000     -10.195888      -277.4442
   9   1.0000     -10.189848      -277.2799
  10   1.0000      -1.238619       -33.7045
  11   1.0000      -0.984525       -26.7903
  12   1.0000      -0.863674       -23.5018
  13   1.0000      -0.767322       -20.8799
  14   1.0000      -0.757104       -20.6018
  15   1.0000      -0.715241       -19.4627
  16   1.0000      -0.632108       -17.2005
  17   1.0000      -0.613496       -16.6941
  18   1.0000      -0.544513       -14.8170
  19   1.0000      -0.540868       -14.7178
  20   1.0000      -0.484776       -13.1914
  21   1.0000      -0.474296       -12.9062
  22   1.0000      -0.456202       -12.4139
  23   1.0000      -0.437403       -11.9023
  24   1.0000      -0.421037       -11.4570
  25   1.0000      -0.419913       -11.4264
  26   1.0000      -0.408879       -11.1262
  27   1.0000      -0.390668       -10.6306
  28   1.0000      -0.372212       -10.1284
  29   1.0000      -0.365231        -9.9384
  30   1.0000      -0.353881        -9.6296
  31   1.0000      -0.326783        -8.8922
  32   1.0000      -0.323132        -8.7929
  33   1.0000      -0.263613        -7.1733
  34   1.0000      -0.244859        -6.6629
  35   1.0000      -0.218620        -5.9490
  36   1.0000      -0.101173        -2.7531
  37   0.0000       0.003110         0.0846
  38   0.0000       0.003143         0.0855
  39   0.0000       0.016168         0.4400
  40   0.0000       0.019040         0.5181
  41   0.0000       0.029867         0.8127

                 SPIN DOWN ORBITALS
  NO   OCC          E(Eh)            E(eV)
   0   1.0000     -24.768271      -673.9789
   1   1.0000     -19.118707      -520.2465
   2   1.0000     -10.271517      -279.5022
   3   1.0000     -10.231373      -278.4098
   4   1.0000     -10.213278      -277.9174
   5   1.0000     -10.212934      -277.9081
   6   1.0000     -10.205794      -277.7138
   7   1.0000     -10.200693      -277.5750
   8   1.0000     -10.195144      -277.4240
   9   1.0000     -10.190258      -277.2910
  10   1.0000      -1.236339       -33.6425
  11   1.0000      -0.972611       -26.4661
  12   1.0000      -0.859722       -23.3942
  13   1.0000      -0.760901       -20.7052
  14   1.0000      -0.753109       -20.4931
  15   1.0000      -0.712195       -19.3798
  16   1.0000      -0.623766       -16.9735
  17   1.0000      -0.611000       -16.6262
  18   1.0000      -0.541738       -14.7414
  19   1.0000      -0.535795       -14.5797
  20   1.0000      -0.483376       -13.1533
  21   1.0000      -0.464771       -12.6471
  22   1.0000      -0.451896       -12.2967
  23   1.0000      -0.435859       -11.8603
  24   1.0000      -0.419389       -11.4122
  25   1.0000      -0.409123       -11.1328
  26   1.0000      -0.406593       -11.0640
  27   1.0000      -0.389050       -10.5866
  28   1.0000      -0.368745       -10.0341
  29   1.0000      -0.355646        -9.6776
  30   1.0000      -0.351210        -9.5569
  31   1.0000      -0.321621        -8.7518
  32   1.0000      -0.299695        -8.1551
  33   1.0000      -0.253917        -6.9094
  34   1.0000      -0.221002        -6.0138
  35   1.0000      -0.213413        -5.8073
  36   0.0000      -0.013223        -0.3598
  37   0.0000       0.005363         0.1459
  38   0.0000       0.008608         0.2342
  39   0.0000       0.017242         0.4692
  40   0.0000       0.021260         0.5785

MULLIKEN ATOMIC CHARGES AND SPIN POPULATIONS
--------------------------------------------
   0 C :   -0.581825    0.206758
   1 C :   -0.942341   -0.089550
   2 C :    0.502692    0.259747
   3 C :   -0.808055   -0.090288
   4 C :   -0.947314    0.225505
   5 C :    1.363766    0.058315
   6 C :    0.450889    0.222870
   7 O :   -1.075550    0.230716
   8 C :   -0.707159   -0.017870
   9 H :    0.267334    0.010867
  10 H :    0.268025    0.010741
  11 H :    0.174961    0.000599
  12 H :    0.289902   -0.024007
  13 H :    0.526112    0.000890
  14 F :   -0.526652    0.012569
  15 H :    0.509100    0.002686
  16 H :    0.236114   -0.020551
Sum of atomic charges         :   -1.0000000

LOEWDIN ATOMIC CHARGES AND SPIN POPULATIONS
-------------------------------------------
   0 C :    0.147779    0.089074
   1 C :    0.136736    0.022616
   2 C :   -0.578619    0.127123
   3 C :    0.130723    0.022904
   4 C :    0.137653    0.097693
   5 C :   -0.214745    0.114630
   6 C :   -0.677338    0.191125
   7 O :    0.322855    0.207987
   8 C :    0.495766    0.038360
   9 H :   -0.182347    0.009691
  10 H :   -0.182621    0.009626
  11 H :   -0.204219   -0.000628
  12 H :   -0.217944    0.024025
  13 H :   -0.190070   -0.006569
  14 F :    0.473467    0.037323
  15 H :   -0.189668   -0.005668
  16 H :   -0.207407    0.020690

  Mayer bond orders larger than 0.100000
B(  0-C ,  1-C ) :   1.1705 B(  0-C ,  2-C ) :  -0.2170 B(  0-C ,  3-C ) :  -0.1143
B(  0-C ,  4-C ) :  -0.3307 B(  0-C ,  5-C ) :   0.3561 B(  0-C ,  6-C ) :   0.1614
B(  0-C , 16-H ) :   1.0984 B(  1-C ,  2-C ) :   1.4060 B(  1-C ,  3-C ) :   0.2937
B(  1-C ,  5-C ) :   0.1213 B(  1-C , 14-F ) :   0.1925 B(  1-C , 15-H ) :   0.4205
B(  2-C ,  3-C ) :   1.4409 B(  2-C ,  4-C ) :  -0.2767 B(  2-C , 14-F ) :   0.2300
B(  3-C ,  4-C ) :   1.4860 B(  3-C , 13-H ) :   0.4002 B(  3-C , 14-F ) :   0.1888
B(  3-C , 16-H ) :  -0.1205 B(  4-C ,  5-C ) :   0.2113 B(  4-C ,  6-C ) :   0.3052
B(  4-C , 12-H ) :   0.8835 B(  4-C , 16-H ) :   0.1209 B(  5-C ,  6-C ) :   0.5377
B(  5-C ,  7-O ) :   0.1260 B(  6-C ,  7-O ) :   0.6773 B(  6-C ,  8-C ) :   0.9459
B(  7-O , 12-H ) :   0.1451 B(  8-C ,  9-H ) :   0.9311 B(  8-C , 10-H ) :   0.9308
B(  8-C , 11-H ) :   0.9708 B( 12-H , 16-H ) :   0.1414 B( 13-H , 14-F ) :   0.1236
B( 14-F , 15-H ) :   0.1084

Dispersion correction           -0.015336492
FINAL SINGLE POINT ENERGY      -483.872918342492

DIPOLE MOMENT
-------------

Method             : SCF
Type of density    : Electron Density
Multiplicity       :   2
Irrep              :   0
Energy             :  -483.8575818508610382 Eh
Relativity type    :
Basis              : AO
                                X                 Y                 Z
Electronic contribution:     11.318726304      -2.776188769       0.005978168
Nuclear contribution   :     -9.505147447       4.306802706      -0.010513310
                        -----------------------------------------
Total Dipole Moment    :      1.813578857       1.530613937      -0.004535143
                        -----------------------------------------
Magnitude (a.u.)       :      2.373155676
Magnitude (Debye)      :      6.032082351

Rotational constants in cm-1:             0.121361             0.025699             0.021291
Rotational constants in MHz :          3638.312610           770.436469           638.299735

                             ****ORCA TERMINATED NORMALLY****
TOTAL RUN TIME: 0 days 0 hours 36 minutes 13 seconds 701 msec
