                         Program Version 6.0.0  -   RELEASE  -
|  1> !r2SCANh aug-cc-pVTZ d3 TightSCF SlowConv RIJCOSX defgrid2
|  2>
|  3> %pal
|  4> nprocs 4
|  5> end
|  6>
|  7> %scf
|  8> MaxIter 1500
|  9> end
| 10>
| 11> %maxcore 3000
| 12>
| 13> !CPCM
| 14> %cpcm smd true
| 15> SMDsolvent "MeCN"
| 16> surfacetype gepol_ses
| 17> rsolv 2.19
| 18> end
| 19>
| 20> * xyz 0 1
| 21> C           0.40935129847802      1.08899379791713      0.00000384882955
| 22> C          -0.95414231914494      1.32182421750193     -0.00005479572869
| 23> C          -1.86191827278499      0.25058964600211     -0.00004533890107
| 24> C          -1.36726530595103     -1.05641439163641      0.00003006046824
| 25> C           0.01094866022683     -1.27206289524966      0.00008922357585
| 26> C           0.93266713804439     -0.21888039966857      0.00007056076766
| 27> C           2.36684587509692     -0.51767487067035      0.00011575273336
| 28> C           3.38823314543713      0.35348849766597     -0.00001970079058
| 29> C           4.83064699015196     -0.03004243326080      0.00003449739731
| 30> H           5.35509581894080      0.37601378760975      0.88589322236429
| 31> H           5.35507929274862      0.37569721298307     -0.88597947614651
| 32> H           4.95899131799363     -1.12576664862183      0.00022846182052
| 33> H           3.17744825013090      1.43140986160214     -0.00019422021756
| 34> H           2.61115235789035     -1.58907062561958      0.00027211184136
| 35> H           0.38207444452641     -2.30220823516234      0.00014522513242
| 36> H          -2.04052486898389     -1.91563792247486      0.00004498692024
| 37> O          -3.17027495143014      0.57656429320608     -0.00011215197676
| 38> C          -4.11930600301544     -0.44976592613539     -0.00015689920679
| 39> H          -4.03333715560747     -1.08818765451818      0.90051262849554
| 40> H          -4.03319357489107     -1.08823722923544     -0.90077688540648
| 41> H          -5.10638730092634      0.03650069307204     -0.00024757936562
| 42> H          -1.35570411969921      2.33832899797413     -0.00010924060884
| 43> H           1.08732328276855      1.94703382671904     -0.00000059199744
| 44> *
| 45>
| 46>                          ****END OF INPUT****

CARTESIAN COORDINATES (ANGSTROEM)
---------------------------------
  C      0.409351    1.088994    0.000004
  C     -0.954142    1.321824   -0.000055
  C     -1.861918    0.250590   -0.000045
  C     -1.367265   -1.056414    0.000030
  C      0.010949   -1.272063    0.000089
  C      0.932667   -0.218880    0.000071
  C      2.366846   -0.517675    0.000116
  C      3.388233    0.353488   -0.000020
  C      4.830647   -0.030042    0.000034
  H      5.355096    0.376014    0.885893
  H      5.355079    0.375697   -0.885979
  H      4.958991   -1.125767    0.000228
  H      3.177448    1.431410   -0.000194
  H      2.611152   -1.589071    0.000272
  H      0.382074   -2.302208    0.000145
  H     -2.040525   -1.915638    0.000045
  O     -3.170275    0.576564   -0.000112
  C     -4.119306   -0.449766   -0.000157
  H     -4.033337   -1.088188    0.900513
  H     -4.033194   -1.088237   -0.900777
  H     -5.106387    0.036501   -0.000248
  H     -1.355704    2.338329   -0.000109
  H      1.087323    1.947034   -0.000001

 Total Charge           Charge          ....    0
 Multiplicity           Mult            ....    1
 Number of Electrons    NEL             ....   80
 Basis Dimension        Dim             ....  782

ORBITAL ENERGIES
----------------

  NO   OCC          E(Eh)            E(eV)
   0   2.0000     -19.153804      -521.2015
   1   2.0000     -10.221554      -278.1426
   2   2.0000     -10.198398      -277.5125
   3   2.0000     -10.165964      -276.6299
   4   2.0000     -10.162286      -276.5299
   5   2.0000     -10.161717      -276.5144
   6   2.0000     -10.158340      -276.4225
   7   2.0000     -10.158189      -276.4184
   8   2.0000     -10.157096      -276.3886
   9   2.0000     -10.154412      -276.3156
  10   2.0000     -10.146532      -276.1012
  11   2.0000      -1.082547       -29.4576
  12   2.0000      -0.860857       -23.4251
  13   2.0000      -0.797902       -21.7120
  14   2.0000      -0.756502       -20.5855
  15   2.0000      -0.746078       -20.3018
  16   2.0000      -0.702618       -19.1192
  17   2.0000      -0.660008       -17.9597
  18   2.0000      -0.608025       -16.5452
  19   2.0000      -0.586895       -15.9702
  20   2.0000      -0.540573       -14.7097
  21   2.0000      -0.525405       -14.2970
  22   2.0000      -0.478834       -13.0297
  23   2.0000      -0.473837       -12.8938
  24   2.0000      -0.459285       -12.4978
  25   2.0000      -0.434889       -11.8339
  26   2.0000      -0.414875       -11.2893
  27   2.0000      -0.408643       -11.1197
  28   2.0000      -0.396847       -10.7988
  29   2.0000      -0.393094       -10.6966
  30   2.0000      -0.385405       -10.4874
  31   2.0000      -0.376490       -10.2448
  32   2.0000      -0.351328        -9.5601
  33   2.0000      -0.339433        -9.2364
  34   2.0000      -0.328620        -8.9422
  35   2.0000      -0.327503        -8.9118
  36   2.0000      -0.310675        -8.4539
  37   2.0000      -0.267509        -7.2793
  38   2.0000      -0.255500        -6.9525
  39   2.0000      -0.200529        -5.4567
  40   0.0000      -0.042135        -1.1466
  41   0.0000      -0.026690        -0.7263
  42   0.0000       0.009980         0.2716
  43   0.0000       0.020370         0.5543
  44   0.0000       0.023241         0.6324

MULLIKEN ATOMIC CHARGES
-----------------------
   0 C :   -0.492348
   1 C :   -1.116830
   2 C :    1.228377
   3 C :   -0.375072
   4 C :   -0.890782
   5 C :    2.057222
   6 C :   -0.117456
   7 C :   -0.093750
   8 C :   -0.905454
   9 H :    0.168754
  10 H :    0.168077
  11 H :    0.261559
  12 H :    0.182572
  13 H :   -0.050038
  14 H :   -0.102174
  15 H :    0.412492
  16 O :   -0.741812
  17 C :   -0.716470
  18 H :    0.284941
  19 H :    0.285378
  20 H :    0.235622
  21 H :    0.540501
  22 H :   -0.223309
Sum of atomic charges:    0.0000000

LOEWDIN ATOMIC CHARGES
----------------------
   0 C :    0.196192
   1 C :    0.204311
   2 C :   -0.405713
   3 C :    0.205413
   4 C :    0.193953
   5 C :   -0.160015
   6 C :    0.189913
   7 C :    0.192022
   8 C :    0.546329
   9 H :   -0.165549
  10 H :   -0.165518
  11 H :   -0.175153
  12 H :   -0.185749
  13 H :   -0.185075
  14 H :   -0.165961
  15 H :   -0.189137
  16 O :    0.588023
  17 C :    0.321747
  18 H :   -0.160384
  19 H :   -0.160415
  20 H :   -0.169161
  21 H :   -0.170431
  22 H :   -0.179643

  Mayer bond orders larger than 0.100000
B(  0-C ,  1-C ) :   0.7566 B(  0-C ,  2-C ) :  -0.3643 B(  0-C ,  3-C ) :  -0.5208
B(  0-C ,  4-C ) :  -0.8400 B(  0-C ,  5-C ) :   0.2302 B(  0-C ,  6-C ) :   0.3900
B(  0-C , 12-H ) :  -0.1180 B(  0-C , 15-H ) :   0.1667 B(  0-C , 21-H ) :   0.1233
B(  0-C , 22-H ) :   1.8609 B(  1-C ,  2-C ) :   0.7661 B(  1-C ,  3-C ) :   0.3744
B(  1-C ,  5-C ) :   0.2848 B(  1-C ,  7-C ) :  -0.1249 B(  1-C , 14-H ) :  -0.1198
B(  1-C , 16-O ) :   0.3473 B(  1-C , 21-H ) :   0.2255 B(  1-C , 22-H ) :  -0.2284
B(  2-C ,  3-C ) :   1.0008 B(  2-C ,  4-C ) :  -0.3794 B(  2-C ,  5-C ) :   0.1118
B(  2-C , 15-H ) :   0.2007 B(  2-C , 16-O ) :   0.1648 B(  2-C , 21-H ) :   0.1691
B(  3-C ,  4-C ) :   0.6100 B(  3-C ,  5-C ) :   0.3685 B(  3-C , 14-H ) :  -0.2259
B(  3-C , 15-H ) :   0.3465 B(  3-C , 16-O ) :  -0.1419 B(  3-C , 17-C ) :  -0.1446
B(  3-C , 22-H ) :  -0.1253 B(  4-C ,  5-C ) :  -0.1457 B(  4-C ,  7-C ) :   0.1639
B(  4-C , 13-H ) :  -0.1220 B(  4-C , 14-H ) :   1.8807 B(  4-C , 21-H ) :   0.1105
B(  5-C ,  7-C ) :  -0.2190 B(  5-C , 12-H ) :  -0.1469 B(  5-C , 14-H ) :  -0.4036
B(  5-C , 22-H ) :  -0.4159 B(  6-C ,  7-C ) :   0.9925 B(  6-C , 13-H ) :   1.2923
B(  6-C , 14-H ) :  -0.1317 B(  7-C ,  8-C ) :   0.5001 B(  7-C ,  9-H ) :  -0.1013
B(  7-C , 10-H ) :  -0.1016 B(  7-C , 12-H ) :   1.3371 B(  7-C , 13-H ) :  -0.1658
B(  8-C ,  9-H ) :   1.0777 B(  8-C , 10-H ) :   1.0784 B(  8-C , 11-H ) :   0.9298
B(  8-C , 12-H ) :  -0.2017 B( 14-H , 22-H ) :   0.2902 B( 15-H , 17-C ) :  -0.1182
B( 16-O , 17-C ) :   1.0647 B( 17-C , 18-H ) :   0.8978 B( 17-C , 19-H ) :   0.8973
B( 17-C , 20-H ) :   0.9945

Dispersion correction           -0.007225740
FINAL SINGLE POINT ENERGY      -463.382349819257

DIPOLE MOMENT
-------------

Method             : SCF
Type of density    : Electron Density
Multiplicity       :   1
Irrep              :   0
Energy             :  -463.3751240796211732 Eh
Relativity type    :
Basis              : AO
                                X                 Y                 Z
Electronic contribution:     -6.283887070       1.963442011      -0.000188903
Nuclear contribution   :      5.966707221      -2.452424409      -0.000108664
                        -----------------------------------------
Total Dipole Moment    :     -0.317179848      -0.488982398      -0.000297567
                        -----------------------------------------
Magnitude (a.u.)       :      0.582843830
Magnitude (Debye)      :      1.481471282

Rotational constants in cm-1:             0.150473             0.015230             0.013903
Rotational constants in MHz :          4511.057217           456.578337           416.814518

                             ****ORCA TERMINATED NORMALLY****
TOTAL RUN TIME: 0 days 0 hours 8 minutes 42 seconds 241 msec
