                         Program Version 6.0.0  -   RELEASE  -
|  1> !r2SCANh opt aug-cc-pVTZ d3 TightSCF SlowConv RIJCOSX defgrid2
|  2>
|  3> %pal
|  4> nprocs 8
|  5> end
|  6>
|  7> %scf
|  8> MaxIter 1500
|  9> end
| 10>
| 11> %maxcore 3500
| 12>
| 13> !CPCM
| 14> %cpcm smd true
| 15> SMDsolvent "MeCN"
| 16> surfacetype gepol_ses
| 17> rsolv 2.19
| 18> end
| 19>
| 20> * xyz 1 2
| 21> C          -0.22428548195010     -1.24213438922305     -0.03849982740281
| 22> C           1.14800811610277     -1.22870080724969      0.00227297677880
| 23> C           1.84566180598227     -0.00004019353139      0.02297012210753
| 24> C           1.14805042698559      1.22864411313713      0.00227054482980
| 25> C          -0.22424154749405      1.24212983950181     -0.03850931873892
| 26> C          -0.94084900168795      0.00001024661649     -0.05989305493678
| 27> N          -2.26985305582395      0.00003075135377     -0.09979281491323
| 28> H          -2.80165535396914      0.86997483968693     -0.11591197867223
| 29> H          -2.80167508667297     -0.86990117124685     -0.11590823438470
| 30> H          -0.77890173993705      2.18488554366972     -0.05504522287995
| 31> H           1.70373713208460      2.16980587419055      0.01885237386387
| 32> H           2.93889913121278     -0.00005967561260      0.05550059305168
| 33> H           1.70365895934134     -2.16988118368011      0.01885253182221
| 34> H          -0.77898600417414     -2.18486378761269     -0.05503389052528
| 35> *
| 36>
| 37>                          ****END OF INPUT****
 Total Charge           Charge          ....    1
 Multiplicity           Mult            ....    2
 Number of Electrons    NEL             ....   49
Dispersion correction           -0.003924724
FINAL SINGLE POINT ENERGY      -287.355592674749
Dispersion correction             ... done (  0.1 sec)
Dispersion correction           -0.003937305
FINAL SINGLE POINT ENERGY      -287.356740745961
Dispersion correction             ... done (  0.1 sec)
Dispersion correction           -0.003938443
FINAL SINGLE POINT ENERGY      -287.356755116003
Dispersion correction             ... done (  0.1 sec)
Dispersion correction           -0.003938761
FINAL SINGLE POINT ENERGY      -287.356758802686
Dispersion correction             ... done (  0.0 sec)
Dispersion correction           -0.003938782
FINAL SINGLE POINT ENERGY      -287.356758627671
Dispersion correction             ... done (  0.0 sec)
                    ***********************HURRAY********************

CARTESIAN COORDINATES (ANGSTROEM)
---------------------------------
  C     -0.223996   -1.237187   -0.039128
  C      1.141267   -1.221690    0.002223
  C      1.834018   -0.000039    0.023180
  C      1.141310    1.221637    0.002228
  C     -0.223952    1.237181   -0.039135
  C     -0.931807    0.000009   -0.059801
  N     -2.250782    0.000031   -0.098054
  H     -2.773887    0.863524   -0.114585
  H     -2.773916   -0.863445   -0.114575
  H     -0.784181    2.161187   -0.056385
  H      1.692043    2.150416    0.018692
  H      2.913746   -0.000060    0.055143
  H      1.691966   -2.150490    0.018683
  H     -0.784259   -2.161174   -0.056361

 Multiplicity           Mult            ....    2
 Number of Electrons    NEL             ....   49
 Basis Dimension        Dim             ....  483

ORBITAL ENERGIES
----------------
                 SPIN UP ORBITALS
  NO   OCC          E(Eh)            E(eV)
   0   1.0000     -14.399930      -391.8420
   1   1.0000     -10.262959      -279.2693
   2   1.0000     -10.206686      -277.7381
   3   1.0000     -10.203129      -277.6413
   4   1.0000     -10.203127      -277.6412
   5   1.0000     -10.190117      -277.2872
   6   1.0000     -10.190114      -277.2871
   7   1.0000      -1.008165       -27.4336
   8   1.0000      -0.887616       -24.1533
   9   1.0000      -0.791841       -21.5471
  10   1.0000      -0.771892       -21.0043
  11   1.0000      -0.652533       -17.7563
  12   1.0000      -0.648981       -17.6597
  13   1.0000      -0.566681       -15.4202
  14   1.0000      -0.559549       -15.2261
  15   1.0000      -0.514767       -14.0075
  16   1.0000      -0.462521       -12.5858
  17   1.0000      -0.454032       -12.3548
  18   1.0000      -0.451696       -12.2913
  19   1.0000      -0.447168       -12.1681
  20   1.0000      -0.383571       -10.4375
  21   1.0000      -0.372624       -10.1396
  22   1.0000      -0.361933        -9.8487
  23   1.0000      -0.296655        -8.0724
  24   1.0000      -0.262732        -7.1493
  25   0.0000      -0.054278        -1.4770
  26   0.0000      -0.052769        -1.4359
  27   0.0000       0.007638         0.2078
  28   0.0000       0.020805         0.5661
  29   0.0000       0.025964         0.7065

                 SPIN DOWN ORBITALS
  NO   OCC          E(Eh)            E(eV)
   0   1.0000     -14.389650      -391.5623
   1   1.0000     -10.262862      -279.2667
   2   1.0000     -10.199371      -277.5390
   3   1.0000     -10.198642      -277.5192
   4   1.0000     -10.198641      -277.5191
   5   1.0000     -10.192780      -277.3596
   6   1.0000     -10.192767      -277.3593
   7   1.0000      -0.992498       -27.0072
   8   1.0000      -0.878202       -23.8971
   9   1.0000      -0.787743       -21.4356
  10   1.0000      -0.755093       -20.5471
  11   1.0000      -0.649908       -17.6849
  12   1.0000      -0.640994       -17.4423
  13   1.0000      -0.564744       -15.3675
  14   1.0000      -0.553943       -15.0736
  15   1.0000      -0.509559       -13.8658
  16   1.0000      -0.459173       -12.4947
  17   1.0000      -0.451344       -12.2817
  18   1.0000      -0.446759       -12.1569
  19   1.0000      -0.420466       -11.4415
  20   1.0000      -0.381545       -10.3824
  21   1.0000      -0.360324        -9.8049
  22   1.0000      -0.338969        -9.2238
  23   1.0000      -0.286429        -7.7941
  24   0.0000      -0.182514        -4.9665
  25   0.0000      -0.041320        -1.1244
  26   0.0000      -0.023561        -0.6411
  27   0.0000       0.009314         0.2535
  28   0.0000       0.022982         0.6254

MULLIKEN ATOMIC CHARGES AND SPIN POPULATIONS
--------------------------------------------
   0 C :   -0.683995    0.262336
   1 C :   -0.360038   -0.191391
   2 C :   -0.375989    0.446105
   3 C :   -0.360402   -0.191404
   4 C :   -0.684282    0.262311
   5 C :    1.223302    0.040970
   6 N :   -0.353287    0.413386
   7 H :    0.056381   -0.009150
   8 H :    0.056594   -0.009149
   9 H :    0.634478   -0.007545
  10 H :    0.328706   -0.011166
  11 H :    0.556293    0.013408
  12 H :    0.327425   -0.011170
  13 H :    0.634811   -0.007541
Sum of atomic charges         :    1.0000000

LOEWDIN ATOMIC CHARGES AND SPIN POPULATIONS
-------------------------------------------
   0 C :    0.287961    0.120460
   1 C :    0.250508    0.024952
   2 C :    0.267534    0.184634
   3 C :    0.250509    0.024951
   4 C :    0.287962    0.120460
   5 C :   -0.163093    0.129076
   6 N :    0.979376    0.258068
   7 H :   -0.199178    0.033836
   8 H :   -0.199178    0.033836
   9 H :   -0.146089    0.024100
  10 H :   -0.158689   -0.012752
  11 H :   -0.152846    0.047032
  12 H :   -0.158690   -0.012752
  13 H :   -0.146087    0.024100

  Mayer bond orders larger than 0.100000
B(  0-C ,  1-C ) :   1.3977 B(  0-C ,  2-C ) :   0.2985 B(  0-C ,  3-C ) :  -0.1528
B(  0-C ,  4-C ) :   0.3572 B(  0-C ,  5-C ) :   0.4834 B(  0-C ,  6-N ) :  -0.1435
B(  0-C , 13-H ) :   0.1427 B(  1-C ,  2-C ) :   0.9336 B(  1-C ,  3-C ) :  -0.1404
B(  1-C ,  4-C ) :  -0.1526 B(  1-C ,  5-C ) :  -0.2230 B(  1-C , 12-H ) :   0.8777
B(  2-C ,  3-C ) :   0.9347 B(  2-C ,  4-C ) :   0.2984 B(  2-C ,  5-C ) :  -0.1312
B(  2-C , 11-H ) :   0.4665 B(  3-C ,  4-C ) :   1.3983 B(  3-C ,  5-C ) :  -0.2231
B(  3-C , 10-H ) :   0.8759 B(  4-C ,  5-C ) :   0.4835 B(  4-C ,  6-N ) :  -0.1437
B(  4-C ,  9-H ) :   0.1431 B(  5-C ,  6-N ) :   0.9428 B(  5-C ,  9-H ) :   0.1040
B(  5-C , 13-H ) :   0.1040 B(  6-N ,  7-H ) :   1.1221 B(  6-N ,  8-H ) :   1.1216

Dispersion correction           -0.003938732
FINAL SINGLE POINT ENERGY      -287.356758303446

DIPOLE MOMENT
-------------

Method             : SCF
Type of density    : Electron Density
Multiplicity       :   2
Irrep              :   0
Energy             :  -287.3528195719136988 Eh
Relativity type    :
Basis              : AO
                                X                 Y                 Z
Electronic contribution:     -0.959422421       0.000023046      -0.028323552
Nuclear contribution   :     -0.817010206       0.000008816      -0.026221946
                        -----------------------------------------
Total Dipole Moment    :     -1.776432628       0.000031862      -0.054545498
                        -----------------------------------------
Magnitude (a.u.)       :      1.777269842
Magnitude (Debye)      :      4.517460931

Rotational constants in cm-1:             0.181533             0.090864             0.060554
Rotational constants in MHz :          5442.221603          2724.033480          1815.372683

                             ****ORCA TERMINATED NORMALLY****
TOTAL RUN TIME: 0 days 0 hours 19 minutes 46 seconds 319 msec
