                         Program Version 6.0.0  -   RELEASE  -
|  1> !PBE0 opt def2-SV(p) d3 TightSCF SlowConv RIJCOSX defgrid2
|  2>
|  3> %pal
|  4> nprocs 8
|  5> end
|  6>
|  7> %scf
|  8> MaxIter 1500
|  9> end
| 10>
| 11> %maxcore 3500
| 12>
| 13> !CPCM
| 14> %cpcm smd true
| 15> SMDsolvent "MeCN"
| 16> surfacetype gepol_ses
| 17> rsolv 2.19
| 18> end
| 19>
| 20> * xyz 0 1
| 21> C           1.36094883267894     -0.66831836744035      0.79166505304401
| 22> C           2.61668489634387     -1.26993624441883      0.83762450630671
| 23> C           3.69751463551123     -0.71498852855237      0.15220113395429
| 24> C           3.51411500210824      0.45521897470958     -0.58452696169930
| 25> C           2.26200602044100      1.06208181225052     -0.64510108123094
| 26> C           1.18681200151517      0.49836983896063      0.04263488062587
| 27> O          -0.00001482572359      1.16979071588351      0.00005454238981
| 28> C          -1.18682038085230      0.49834069380338     -0.04260530375666
| 29> C          -2.26210069770780      1.06211241497205      0.64495038697290
| 30> C          -3.51419441314783      0.45522857582203      0.58430306316011
| 31> C          -3.69749941395526     -0.71506183581738     -0.15231803955518
| 32> C          -2.61658550079969     -1.27006941979564     -0.83755825340367
| 33> C          -1.36085917884001     -0.66843361449673     -0.79152524362506
| 34> H          -0.51558365320611     -1.09715909206061     -1.33585483016717
| 35> H          -2.75062021450227     -2.18281812892327     -1.42596293506599
| 36> H          -4.68044516686291     -1.19217947086648     -0.19470697547587
| 37> H          -4.35472302990288      0.90118829684160      1.12448028512422
| 38> H          -2.09557313650778      1.97752399950586      1.21789909020225
| 39> H           2.09540249638844      1.97742680661202     -1.21813253528145
| 40> H           4.35457955862348      0.90113009122578     -1.12484535245104
| 41> H           4.68047118965145     -1.19208889118135      0.19453111833043
| 42> H           2.75079772312689     -2.18261728806241      1.42611640363857
| 43> H           0.51573555561975     -1.09698553897151      1.33613674796315
| 44> *
| 45>
| 46>                          ****END OF INPUT****
 Total Charge           Charge          ....    0
 Multiplicity           Mult            ....    1
 Number of Electrons    NEL             ....   90
Dispersion correction           -0.023570901
FINAL SINGLE POINT ENERGY      -537.514448230413
Dispersion correction             ... done (  0.1 sec)
Dispersion correction           -0.023538284
FINAL SINGLE POINT ENERGY      -537.514483031561
Dispersion correction             ... done (  0.1 sec)
Dispersion correction           -0.023546827
FINAL SINGLE POINT ENERGY      -537.514492435891
Dispersion correction             ... done (  0.1 sec)
Dispersion correction           -0.023548644
FINAL SINGLE POINT ENERGY      -537.514492144377
Dispersion correction             ... done (  0.1 sec)
                    ***********************HURRAY********************

CARTESIAN COORDINATES (ANGSTROEM)
---------------------------------
  C      1.362341   -0.662632    0.801092
  C      2.618902   -1.264620    0.849158
  C      3.698966   -0.714453    0.156186
  C      3.514524    0.450462   -0.590443
  C      2.261064    1.057392   -0.653343
  C      1.187834    0.498102    0.042213
  O     -0.000019    1.170548    0.000031
  C     -1.187844    0.498099   -0.042224
  C     -2.261154    1.057421    0.653207
  C     -3.514605    0.450478    0.590207
  C     -3.698956   -0.714519   -0.156315
  C     -2.618808   -1.264766   -0.849087
  C     -1.362264   -0.662744   -0.800978
  H     -0.520925   -1.090601   -1.352609
  H     -2.753424   -2.173419   -1.443875
  H     -4.681997   -1.191989   -0.200253
  H     -4.353572    0.892510    1.136332
  H     -2.098923    1.967813    1.236207
  H      2.098771    1.967746   -1.236388
  H      4.353435    0.892451   -1.136691
  H      4.682017   -1.191907    0.200079
  H      2.753600   -2.173188    1.444062
  H      0.521084   -1.090428    1.352893

 Multiplicity           Mult            ....    1
 Number of Electrons    NEL             ....   90
 Basis Dimension        Dim             ....  202

ORBITAL ENERGIES
----------------

  NO   OCC          E(Eh)            E(eV)
   0   2.0000     -19.259236      -524.0704
   1   2.0000     -10.303996      -280.3860
   2   2.0000     -10.303965      -280.3852
   3   2.0000     -10.240979      -278.6712
   4   2.0000     -10.240964      -278.6708
   5   2.0000     -10.240616      -278.6613
   6   2.0000     -10.240597      -278.6608
   7   2.0000     -10.238934      -278.6156
   8   2.0000     -10.238909      -278.6149
   9   2.0000     -10.236942      -278.5613
  10   2.0000     -10.236922      -278.5608
  11   2.0000     -10.234371      -278.4914
  12   2.0000     -10.234357      -278.4910
  13   2.0000      -1.112948       -30.2849
  14   2.0000      -0.887024       -24.1371
  15   2.0000      -0.871563       -23.7164
  16   2.0000      -0.788241       -21.4491
  17   2.0000      -0.770294       -20.9608
  18   2.0000      -0.766208       -20.8496
  19   2.0000      -0.742349       -20.2003
  20   2.0000      -0.659287       -17.9401
  21   2.0000      -0.636017       -17.3069
  22   2.0000      -0.623771       -16.9737
  23   2.0000      -0.595903       -16.2154
  24   2.0000      -0.567291       -15.4368
  25   2.0000      -0.525227       -14.2921
  26   2.0000      -0.502275       -13.6676
  27   2.0000      -0.498586       -13.5672
  28   2.0000      -0.491577       -13.3765
  29   2.0000      -0.457351       -12.4452
  30   2.0000      -0.454789       -12.3754
  31   2.0000      -0.439827       -11.9683
  32   2.0000      -0.439179       -11.9507
  33   2.0000      -0.424494       -11.5511
  34   2.0000      -0.419348       -11.4110
  35   2.0000      -0.386738       -10.5237
  36   2.0000      -0.380161       -10.3447
  37   2.0000      -0.374725       -10.1968
  38   2.0000      -0.371516       -10.1095
  39   2.0000      -0.352396        -9.5892
  40   2.0000      -0.346455        -9.4275
  41   2.0000      -0.278220        -7.5708
  42   2.0000      -0.271994        -7.4013
  43   2.0000      -0.269654        -7.3376
  44   2.0000      -0.237307        -6.4575
  45   0.0000      -0.016846        -0.4584
  46   0.0000      -0.010698        -0.2911
  47   0.0000      -0.002532        -0.0689
  48   0.0000       0.008979         0.2443
  49   0.0000       0.079967         2.1760

MULLIKEN ATOMIC CHARGES
-----------------------
   0 C :   -0.185326
   1 C :   -0.121937
   2 C :   -0.118172
   3 C :   -0.123736
   4 C :   -0.169306
   5 C :    0.237051
   6 O :   -0.313464
   7 C :    0.236732
   8 C :   -0.169392
   9 C :   -0.123667
  10 C :   -0.118147
  11 C :   -0.121888
  12 C :   -0.185298
  13 H :    0.134482
  14 H :    0.130482
  15 H :    0.125397
  16 H :    0.130751
  17 H :    0.117219
  18 H :    0.117191
  19 H :    0.130728
  20 H :    0.125377
  21 H :    0.130464
  22 H :    0.134459
Sum of atomic charges:    0.0000000

LOEWDIN ATOMIC CHARGES
----------------------
   0 C :   -0.162505
   1 C :   -0.126862
   2 C :   -0.155138
   3 C :   -0.127413
   4 C :   -0.156922
   5 C :    0.033955
   6 O :   -0.068265
   7 C :    0.033846
   8 C :   -0.156989
   9 C :   -0.127395
  10 C :   -0.155121
  11 C :   -0.126837
  12 C :   -0.162539
  13 H :    0.149799
  14 H :    0.144726
  15 H :    0.142370
  16 H :    0.144612
  17 H :    0.147621
  18 H :    0.147604
  19 H :    0.144599
  20 H :    0.142359
  21 H :    0.144714
  22 H :    0.149779

  Mayer bond orders larger than 0.100000
B(  0-C ,  1-C ) :   1.3784 B(  0-C ,  5-C ) :   1.3462 B(  0-C , 22-H ) :   0.9547
B(  1-C ,  2-C ) :   1.3770 B(  1-C , 21-H ) :   0.9601 B(  2-C ,  3-C ) :   1.3789
B(  2-C , 20-H ) :   0.9663 B(  3-C ,  4-C ) :   1.3695 B(  3-C , 19-H ) :   0.9615
B(  4-C ,  5-C ) :   1.3827 B(  4-C , 18-H ) :   0.9663 B(  5-C ,  6-O ) :   1.0083
B(  6-O ,  7-C ) :   1.0084 B(  7-C ,  8-C ) :   1.3827 B(  7-C , 12-C ) :   1.3462
B(  8-C ,  9-C ) :   1.3695 B(  8-C , 17-H ) :   0.9663 B(  9-C , 10-C ) :   1.3789
B(  9-C , 16-H ) :   0.9615 B( 10-C , 11-C ) :   1.3770 B( 10-C , 15-H ) :   0.9663
B( 11-C , 12-C ) :   1.3784 B( 11-C , 14-H ) :   0.9601 B( 12-C , 13-H ) :   0.9547

Dispersion correction           -0.023550029
FINAL SINGLE POINT ENERGY      -537.514492911161

DIPOLE MOMENT
-------------

Method             : SCF
Type of density    : Electron Density
Multiplicity       :   1
Irrep              :   0
Energy             :  -537.4909428821142683 Eh
Relativity type    :
Basis              : AO
                                X                 Y                 Z
Electronic contribution:     -0.000257388       2.459871907      -0.000340092
Nuclear contribution   :      0.000075144      -2.989432696      -0.000024467
                        -----------------------------------------
Total Dipole Moment    :     -0.000182244      -0.529560789      -0.000364558
                        -----------------------------------------
Magnitude (a.u.)       :      0.529560945
Magnitude (Debye)      :      1.346036952

Rotational constants in cm-1:             0.080023             0.014480             0.013555
Rotational constants in MHz :          2399.021404           434.098741           406.373307

                             ****ORCA TERMINATED NORMALLY****
TOTAL RUN TIME: 0 days 0 hours 5 minutes 43 seconds 391 msec
