                         Program Version 6.0.0  -   RELEASE  -
|  1> !r2SCANh aug-cc-pVTZ d3 TightSCF SlowConv RIJCOSX defgrid2
|  2>
|  3> %pal
|  4> nprocs 4
|  5> end
|  6>
|  7> %scf
|  8> MaxIter 1500
|  9> end
| 10>
| 11> %maxcore 3000
| 12>
| 13> !CPCM
| 14> %cpcm smd true
| 15> SMDsolvent "MeCN"
| 16> surfacetype gepol_ses
| 17> rsolv 2.19
| 18> end
| 19>
| 20> * xyz 1 2
| 21> C          -1.94605217400678     -1.14602633273004     -0.31228004530400
| 22> C          -1.27946551773851      0.24408441077832     -0.20897492502665
| 23> N           0.01600699561608      0.06744351701809      0.39029195846881
| 24> H           0.06265782979012      0.05391117721033      1.41697390045102
| 25> C           1.25148854883622     -0.09172311464903     -0.32836866073256
| 26> C           1.90177624486915      1.30323669855352     -0.46614331567862
| 27> H           2.17456664951472      1.71255161234552      0.52069722483394
| 28> H           1.23681825466419      2.01161865664215     -0.98621902186020
| 29> H           2.82142391902319      1.18450836803534     -1.06306170139066
| 30> C           2.15574014749067     -1.09567716286551      0.37361772774099
| 31> H           1.67553906419562     -2.08461070530957      0.45496677186850
| 32> H           3.08166929363866     -1.21369164664504     -0.21208064192341
| 33> H           2.44114524539303     -0.74645819923523      1.38177992392114
| 34> H           0.97579493542327     -0.44455026880370     -1.33762113459450
| 35> C          -2.11057591663361      1.23704215369463      0.59223096402592
| 36> H          -1.61862942705056      2.22182755506889      0.65043188583308
| 37> H          -2.30656920422753      0.86778750595824      1.61446351535389
| 38> H          -3.08448029295519      1.37194719861582      0.09450678436786
| 39> H          -1.09645939641756      0.61566302218729     -1.23236453185842
| 40> H          -1.33402126313580     -1.84665456543689     -0.90298607858241
| 41> H          -2.12992557602449     -1.57272950513057      0.68767946741479
| 42> H          -2.91556146026488     -1.01417817530256     -0.82104716732853
| 43> *
| 44>
| 45>                          ****END OF INPUT****

CARTESIAN COORDINATES (ANGSTROEM)
---------------------------------
  C     -1.946052   -1.146026   -0.312280
  C     -1.279466    0.244084   -0.208975
  N      0.016007    0.067444    0.390292
  H      0.062658    0.053911    1.416974
  C      1.251489   -0.091723   -0.328369
  C      1.901776    1.303237   -0.466143
  H      2.174567    1.712552    0.520697
  H      1.236818    2.011619   -0.986219
  H      2.821424    1.184508   -1.063062
  C      2.155740   -1.095677    0.373618
  H      1.675539   -2.084611    0.454967
  H      3.081669   -1.213692   -0.212081
  H      2.441145   -0.746458    1.381780
  H      0.975795   -0.444550   -1.337621
  C     -2.110576    1.237042    0.592231
  H     -1.618629    2.221828    0.650432
  H     -2.306569    0.867788    1.614464
  H     -3.084480    1.371947    0.094507
  H     -1.096459    0.615663   -1.232365
  H     -1.334021   -1.846655   -0.902986
  H     -2.129926   -1.572730    0.687679
  H     -2.915561   -1.014178   -0.821047

 Total Charge           Charge          ....    1
 Multiplicity           Mult            ....    2
 Number of Electrons    NEL             ....   57
 Basis Dimension        Dim             ....  667

ORBITAL ENERGIES
----------------
                 SPIN UP ORBITALS
  NO   OCC          E(Eh)            E(eV)
   0   1.0000     -14.440122      -392.9357
   1   1.0000     -10.233713      -278.4735
   2   1.0000     -10.233577      -278.4698
   3   1.0000     -10.171056      -276.7685
   4   1.0000     -10.170986      -276.7666
   5   1.0000     -10.163858      -276.5726
   6   1.0000     -10.163687      -276.5680
   7   1.0000      -1.020616       -27.7724
   8   1.0000      -0.832353       -22.6495
   9   1.0000      -0.767234       -20.8775
  10   1.0000      -0.708502       -19.2793
  11   1.0000      -0.703242       -19.1362
  12   1.0000      -0.638077       -17.3629
  13   1.0000      -0.629830       -17.1386
  14   1.0000      -0.523969       -14.2579
  15   1.0000      -0.503191       -13.6925
  16   1.0000      -0.485880       -13.2215
  17   1.0000      -0.456975       -12.4349
  18   1.0000      -0.442919       -12.0524
  19   1.0000      -0.415845       -11.3157
  20   1.0000      -0.403057       -10.9677
  21   1.0000      -0.393307       -10.7024
  22   1.0000      -0.387496       -10.5443
  23   1.0000      -0.373748       -10.1702
  24   1.0000      -0.370910       -10.0930
  25   1.0000      -0.357001        -9.7145
  26   1.0000      -0.354901        -9.6573
  27   1.0000      -0.352337        -9.5876
  28   1.0000      -0.306210        -8.3324
  29   0.0000       0.009407         0.2560
  30   0.0000       0.020864         0.5677
  31   0.0000       0.025233         0.6866
  32   0.0000       0.026020         0.7080
  33   0.0000       0.043051         1.1715

                 SPIN DOWN ORBITALS
  NO   OCC          E(Eh)            E(eV)
   0   1.0000     -14.417828      -392.3290
   1   1.0000     -10.234148      -278.4853
   2   1.0000     -10.234011      -278.4816
   3   1.0000     -10.169029      -276.7133
   4   1.0000     -10.168967      -276.7117
   5   1.0000     -10.163306      -276.5576
   6   1.0000     -10.163147      -276.5533
   7   1.0000      -0.981090       -26.6968
   8   1.0000      -0.829568       -22.5737
   9   1.0000      -0.753495       -20.5036
  10   1.0000      -0.702688       -19.1211
  11   1.0000      -0.699884       -19.0448
  12   1.0000      -0.630757       -17.1638
  13   1.0000      -0.626765       -17.0552
  14   1.0000      -0.516100       -14.0438
  15   1.0000      -0.497161       -13.5284
  16   1.0000      -0.453559       -12.3420
  17   1.0000      -0.452073       -12.3015
  18   1.0000      -0.435451       -11.8492
  19   1.0000      -0.412827       -11.2336
  20   1.0000      -0.397307       -10.8113
  21   1.0000      -0.389822       -10.6076
  22   1.0000      -0.385325       -10.4852
  23   1.0000      -0.368720       -10.0334
  24   1.0000      -0.362087        -9.8529
  25   1.0000      -0.354003        -9.6329
  26   1.0000      -0.351607        -9.5677
  27   1.0000      -0.349318        -9.5054
  28   0.0000      -0.175559        -4.7772
  29   0.0000       0.010569         0.2876
  30   0.0000       0.021992         0.5984
  31   0.0000       0.025657         0.6982
  32   0.0000       0.027435         0.7465

MULLIKEN ATOMIC CHARGES AND SPIN POPULATIONS
--------------------------------------------
   0 C :   -0.917081    0.103553
   1 C :    0.830979   -0.101226
   2 N :   -0.093859    0.889185
   3 H :    0.201948   -0.022013
   4 C :    0.824202   -0.101918
   5 C :   -0.913581    0.104205
   6 H :    0.221152    0.005497
   7 H :    0.233179    0.001943
   8 H :    0.189026    0.016503
   9 C :   -1.012834    0.028870
  10 H :    0.212022    0.001453
  11 H :    0.195873    0.002838
  12 H :    0.232924   -0.000635
  13 H :    0.262800    0.007751
  14 C :   -1.014636    0.029329
  15 H :    0.209495    0.001485
  16 H :    0.231598   -0.000587
  17 H :    0.197717    0.002994
  18 H :    0.266283    0.006908
  19 H :    0.230389    0.002055
  20 H :    0.221267    0.005311
  21 H :    0.191139    0.016498
Sum of atomic charges         :    1.0000000

LOEWDIN ATOMIC CHARGES AND SPIN POPULATIONS
-------------------------------------------
   0 C :    0.638583    0.050265
   1 C :   -0.096529    0.093353
   2 N :    0.705651    0.543811
   3 H :   -0.151823    0.069481
   4 C :   -0.096681    0.093604
   5 C :    0.638684    0.050463
   6 H :   -0.139557    0.004432
   7 H :   -0.142162    0.003888
   8 H :   -0.138203    0.013716
   9 C :    0.626944    0.015050
  10 H :   -0.142218    0.001624
  11 H :   -0.141518    0.003615
  12 H :   -0.139393    0.000806
  13 H :   -0.102695    0.006329
  14 C :    0.626862    0.015333
  15 H :   -0.142338    0.001650
  16 H :   -0.139491    0.000825
  17 H :   -0.141386    0.003714
  18 H :   -0.102710    0.006089
  19 H :   -0.142250    0.003875
  20 H :   -0.139487    0.004400
  21 H :   -0.138282    0.013675

  Mayer bond orders larger than 0.100000
B(  0-C ,  1-C ) :   0.6143 B(  0-C ,  2-N ) :   0.1089 B(  0-C , 14-C ) :   0.1704
B(  0-C , 19-H ) :   0.9680 B(  0-C , 20-H ) :   0.9678 B(  0-C , 21-H ) :   1.0225
B(  1-C ,  2-N ) :   0.8027 B(  1-C , 14-C ) :   0.5380 B(  1-C , 18-H ) :   0.8813
B(  2-N ,  3-H ) :   0.8230 B(  2-N ,  4-C ) :   0.8081 B(  2-N ,  5-C ) :   0.1091
B(  4-C ,  5-C ) :   0.6215 B(  4-C ,  9-C ) :   0.5384 B(  4-C , 13-H ) :   0.8822
B(  5-C ,  6-H ) :   0.9677 B(  5-C ,  7-H ) :   0.9636 B(  5-C ,  8-H ) :   1.0250
B(  5-C ,  9-C ) :   0.1690 B(  9-C , 10-H ) :   0.9920 B(  9-C , 11-H ) :   1.0414
B(  9-C , 12-H ) :   0.9558 B( 14-C , 15-H ) :   0.9948 B( 14-C , 16-H ) :   0.9575
B( 14-C , 17-H ) :   1.0380

Dispersion correction           -0.005699981
FINAL SINGLE POINT ENERGY      -292.156863195310

DIPOLE MOMENT
-------------

Method             : SCF
Type of density    : Electron Density
Multiplicity       :   2
Irrep              :   0
Energy             :  -292.1511632138771120 Eh
Relativity type    :
Basis              : AO
                                X                 Y                 Z
Electronic contribution:      0.011583922      -0.012226303       0.219212842
Nuclear contribution   :      0.001368449       0.006688621       0.038653602
                        -----------------------------------------
Total Dipole Moment    :      0.012952371      -0.005537682       0.257866444
                        -----------------------------------------
Magnitude (a.u.)       :      0.258250911
Magnitude (Debye)      :      0.656421649

Rotational constants in cm-1:             0.132886             0.050590             0.041714
Rotational constants in MHz :          3983.810476          1516.635197          1250.539791

                             ****ORCA TERMINATED NORMALLY****
TOTAL RUN TIME: 0 days 0 hours 6 minutes 4 seconds 659 msec
