                         Program Version 6.0.0  -   RELEASE  -
|  1> !PBE0 def2-SV(p) Opt Freq d3 TightSCF SlowConv RIJCOSX defgrid2
|  2>
|  3> %pal
|  4> nprocs 4
|  5> end
|  6>
|  7> %scf
|  8> MaxIter 1500
|  9> end
| 10>
| 11> %maxcore 3000
| 12>
| 13>
| 14>
| 15> * xyz -1 2
| 16> C     0.6862033   -1.2179451   -0.0014797
| 17> C    -0.6779199   -1.2184643   -0.0017748
| 18> C    -1.3835409    0.0043307    0.0002482
| 19> C    -0.6531289    1.2118643    0.0026207
| 20> C     0.7128952    1.1979986    0.0023247
| 21> C     1.4317298   -0.0171356    0.0001754
| 22> C     2.8792034   -0.0915110   -0.0007172
| 23> O     3.4885517   -1.1687644    0.0018546
| 24> C     3.6533920    1.2137895   -0.0058132
| 25> H     3.4085291    1.7969038    0.8786809
| 26> H     4.7179915    0.9933613   -0.0091203
| 27> H     3.4021040    1.7935974   -0.8906742
| 28> H     1.2415025    2.1381408    0.0042528
| 29> H    -1.2079264    2.1382635    0.0046112
| 30> N    -2.7578610    0.0196592   -0.0000887
| 31> O    -3.3779754    1.1273497    0.0017955
| 32> O    -3.4027621   -1.0737086   -0.0023269
| 33> H    -1.2459599   -2.1366381   -0.0036123
| 34> H     1.2359375   -2.1485415   -0.0030422
| 35> *
| 36>
| 37>                          ****END OF INPUT****
 Total Charge           Charge          ....   -1
 Multiplicity           Mult            ....    2
 Number of Electrons    NEL             ....   87
Dispersion correction           -0.018417861
FINAL SINGLE POINT ENERGY      -588.362014780026
Dispersion correction             ... done (  0.1 sec)
Dispersion correction           -0.018330584
FINAL SINGLE POINT ENERGY      -588.365242101412
Dispersion correction             ... done (  0.1 sec)
Dispersion correction           -0.018306975
FINAL SINGLE POINT ENERGY      -588.365622829286
Dispersion correction             ... done (  0.1 sec)
FINAL SINGLE POINT ENERGY      -588.365662726253
FINAL SINGLE POINT ENERGY      -588.365668472786
Dispersion correction             ... done (  0.1 sec)
Dispersion correction           -0.018308572
FINAL SINGLE POINT ENERGY      -588.365667885367
Dispersion correction             ... done (  0.1 sec)
Dispersion correction           -0.018308148
FINAL SINGLE POINT ENERGY      -588.365669782509
Dispersion correction             ... done (  0.1 sec)
                    ***********************HURRAY********************

CARTESIAN COORDINATES (ANGSTROEM)
---------------------------------
  C      0.683155   -1.230590   -0.001978
  C     -0.690970   -1.228208   -0.001108
  C     -1.398789    0.001926    0.000061
  C     -0.670883    1.216977    0.000347
  C      0.705990    1.197108   -0.000562
  C      1.438910   -0.023567   -0.001742
  C      2.888351   -0.095554   -0.002657
  O      3.511136   -1.161324   -0.004300
  C      3.672154    1.213122   -0.003194
  H      3.444904    1.828627    0.886586
  H      4.745640    0.967137   -0.005132
  H      3.441931    1.829944   -0.891284
  H      1.241303    2.152101   -0.000321
  H     -1.236349    2.150022    0.001280
  N     -2.799497    0.017383    0.001045
  O     -3.386603    1.115424    0.003204
  O     -3.410302   -1.066956    0.001827
  H     -1.272957   -2.151252   -0.001281
  H      1.243842   -2.169769   -0.002879

 Multiplicity           Mult            ....    2
 Number of Electrons    NEL             ....   87
 Basis Dimension        Dim             ....  182

ORBITAL ENERGIES
----------------
                 SPIN UP ORBITALS
  NO   OCC          E(Eh)            E(eV)
   0   1.0000     -19.039732      -518.0974
   1   1.0000     -19.037824      -518.0455
   2   1.0000     -19.037763      -518.0439
   3   1.0000     -14.419826      -392.3834
   4   1.0000     -10.165104      -276.6065
   5   1.0000     -10.122001      -275.4336
   6   1.0000     -10.108476      -275.0656
   7   1.0000     -10.105022      -274.9716
   8   1.0000     -10.098518      -274.7946
   9   1.0000     -10.096200      -274.7316
  10   1.0000     -10.095599      -274.7152
  11   1.0000     -10.093663      -274.6625
  12   1.0000      -1.048840       -28.5404
  13   1.0000      -0.897340       -24.4179
  14   1.0000      -0.868847       -23.6425
  15   1.0000      -0.743280       -20.2257
  16   1.0000      -0.673520       -18.3274
  17   1.0000      -0.632562       -17.2129
  18   1.0000      -0.621957       -16.9243
  19   1.0000      -0.566764       -15.4224
  20   1.0000      -0.480542       -13.0762
  21   1.0000      -0.464512       -12.6400
  22   1.0000      -0.426993       -11.6191
  23   1.0000      -0.389162       -10.5896
  24   1.0000      -0.374054       -10.1785
  25   1.0000      -0.359125        -9.7723
  26   1.0000      -0.351156        -9.5554
  27   1.0000      -0.329025        -8.9532
  28   1.0000      -0.323440        -8.8013
  29   1.0000      -0.319018        -8.6809
  30   1.0000      -0.300142        -8.1673
  31   1.0000      -0.288915        -7.8618
  32   1.0000      -0.282442        -7.6856
  33   1.0000      -0.257659        -7.0113
  34   1.0000      -0.254298        -6.9198
  35   1.0000      -0.227448        -6.1892
  36   1.0000      -0.210559        -5.7296
  37   1.0000      -0.152487        -4.1494
  38   1.0000      -0.143507        -3.9050
  39   1.0000      -0.139160        -3.7867
  40   1.0000      -0.134789        -3.6678
  41   1.0000      -0.120384        -3.2758
  42   1.0000      -0.116677        -3.1749
  43   1.0000      -0.000692        -0.0188
  44   0.0000       0.105931         2.8825
  45   0.0000       0.136163         3.7052
  46   0.0000       0.186144         5.0652
  47   0.0000       0.195163         5.3107
  48   0.0000       0.227687         6.1957

                 SPIN DOWN ORBITALS
  NO   OCC          E(Eh)            E(eV)
   0   1.0000     -19.035396      -517.9795
   1   1.0000     -19.033754      -517.9348
   2   1.0000     -19.033706      -517.9335
   3   1.0000     -14.417238      -392.3130
   4   1.0000     -10.164269      -276.5838
   5   1.0000     -10.119741      -275.3721
   6   1.0000     -10.108601      -275.0690
   7   1.0000     -10.104994      -274.9709
   8   1.0000     -10.097682      -274.7719
   9   1.0000     -10.096011      -274.7264
  10   1.0000     -10.094809      -274.6937
  11   1.0000     -10.090908      -274.5876
  12   1.0000      -1.042161       -28.3586
  13   1.0000      -0.889923       -24.2160
  14   1.0000      -0.861262       -23.4361
  15   1.0000      -0.739190       -20.1144
  16   1.0000      -0.666278       -18.1303
  17   1.0000      -0.629665       -17.1341
  18   1.0000      -0.618744       -16.8369
  19   1.0000      -0.559745       -15.2314
  20   1.0000      -0.479684       -13.0529
  21   1.0000      -0.459610       -12.5066
  22   1.0000      -0.424612       -11.5543
  23   1.0000      -0.383825       -10.4444
  24   1.0000      -0.356458        -9.6997
  25   1.0000      -0.353361        -9.6154
  26   1.0000      -0.347751        -9.4628
  27   1.0000      -0.324172        -8.8212
  28   1.0000      -0.320489        -8.7210
  29   1.0000      -0.316501        -8.6124
  30   1.0000      -0.299192        -8.1414
  31   1.0000      -0.288122        -7.8402
  32   1.0000      -0.279614        -7.6087
  33   1.0000      -0.252210        -6.8630
  34   1.0000      -0.246045        -6.6952
  35   1.0000      -0.211156        -5.7458
  36   1.0000      -0.209646        -5.7048
  37   1.0000      -0.139277        -3.7899
  38   1.0000      -0.133119        -3.6224
  39   1.0000      -0.116977        -3.1831
  40   1.0000      -0.116324        -3.1653
  41   1.0000      -0.113650        -3.0926
  42   1.0000      -0.112719        -3.0672
  43   0.0000       0.072839         1.9821
  44   0.0000       0.136687         3.7194
  45   0.0000       0.140532         3.8241
  46   0.0000       0.186526         5.0756
  47   0.0000       0.215249         5.8572

MULLIKEN ATOMIC CHARGES AND SPIN POPULATIONS
--------------------------------------------
   0 C :   -0.138956    0.002307
   1 C :   -0.150756    0.071619
   2 C :    0.153597    0.116649
   3 C :   -0.153934    0.068783
   4 C :   -0.153460   -0.004943
   5 C :    0.017487    0.194277
   6 C :    0.034366    0.051223
   7 O :   -0.312897    0.148473
   8 C :   -0.333688   -0.009169
   9 H :    0.119495    0.002863
  10 H :    0.106019   -0.000564
  11 H :    0.119577    0.002864
  12 H :    0.051076   -0.001034
  13 H :    0.070554   -0.004478
  14 N :    0.204893    0.089820
  15 O :   -0.389412    0.137477
  16 O :   -0.387239    0.140146
  17 H :    0.072489   -0.004618
  18 H :    0.070790   -0.001696
Sum of atomic charges         :   -1.0000000

LOEWDIN ATOMIC CHARGES AND SPIN POPULATIONS
-------------------------------------------
   0 C :   -0.118900    0.017997
   1 C :   -0.151313    0.060424
   2 C :   -0.080022    0.119432
   3 C :   -0.153234    0.057409
   4 C :   -0.141681    0.012393
   5 C :   -0.136670    0.154144
   6 C :    0.013842    0.065467
   7 O :   -0.255846    0.145120
   8 C :   -0.372057   -0.002820
   9 H :    0.123161    0.002636
  10 H :    0.118011   -0.000282
  11 H :    0.123170    0.002635
  12 H :    0.110732   -0.000529
  13 H :    0.126766   -0.002100
  14 N :    0.236443    0.098264
  15 O :   -0.347334    0.135144
  16 O :   -0.344294    0.137700
  17 H :    0.127155   -0.002186
  18 H :    0.122071   -0.000847

  Mayer bond orders larger than 0.100000
B(  0-C ,  1-C ) :   1.4514 B(  0-C ,  5-C ) :   1.2567 B(  0-C , 18-H ) :   0.9592
B(  1-C ,  2-C ) :   1.2568 B(  1-C , 17-H ) :   0.9528 B(  2-C ,  3-C ) :   1.2764
B(  2-C , 14-N ) :   1.0527 B(  3-C ,  4-C ) :   1.4628 B(  3-C , 13-H ) :   0.9479
B(  4-C ,  5-C ) :   1.2412 B(  4-C , 12-H ) :   0.9479 B(  5-C ,  6-C ) :   1.1086
B(  6-C ,  7-O ) :   2.0007 B(  6-C ,  8-C ) :   1.0714 B(  8-C ,  9-H ) :   0.9327
B(  8-C , 10-H ) :   0.9462 B(  8-C , 11-H ) :   0.9328 B( 14-N , 15-O ) :   1.3959
B( 14-N , 16-O ) :   1.3965 B( 15-O , 16-O ) :   0.1873

Dispersion correction           -0.018307986
FINAL SINGLE POINT ENERGY      -588.365669659488

DIPOLE MOMENT
-------------

Method             : SCF
Type of density    : Electron Density
Multiplicity       :   2
Irrep              :   0
Energy             :  -588.3473616731999982 Eh
Relativity type    :
Basis              : AO
                                X                 Y                 Z
Electronic contribution:     -9.386736031      -3.460935191       0.006130563
Nuclear contribution   :     10.845568770       4.317310741      -0.007525614
                        -----------------------------------------
Total Dipole Moment    :      1.458832739       0.856375550      -0.001395052
                        -----------------------------------------
Magnitude (a.u.)       :      1.691618749
Magnitude (Debye)      :      4.299753152

VIBRATIONAL FREQUENCIES
-----------------------

Scaling factor for frequencies =  1.000000000  (already applied!)

     0:       0.00 cm**-1
     1:       0.00 cm**-1
     2:       0.00 cm**-1
     3:       0.00 cm**-1
     4:       0.00 cm**-1
     5:       0.00 cm**-1
     6:      74.79 cm**-1
     7:      86.01 cm**-1
     8:     122.76 cm**-1
     9:     155.99 cm**-1
    10:     161.83 cm**-1
    11:     228.25 cm**-1
    12:     277.31 cm**-1
    13:     300.06 cm**-1
    14:     404.42 cm**-1
    15:     444.72 cm**-1
    16:     457.60 cm**-1
    17:     532.56 cm**-1
    18:     561.47 cm**-1
    19:     585.52 cm**-1
    20:     631.50 cm**-1
    21:     639.39 cm**-1
    22:     683.78 cm**-1
    23:     746.54 cm**-1
    24:     748.62 cm**-1
    25:     812.14 cm**-1
    26:     837.16 cm**-1
    27:     859.72 cm**-1
    28:     956.48 cm**-1
    29:     979.39 cm**-1
    30:    1001.02 cm**-1
    31:    1005.33 cm**-1
    32:    1028.33 cm**-1
    33:    1082.67 cm**-1
    34:    1106.59 cm**-1
    35:    1131.99 cm**-1
    36:    1212.82 cm**-1
    37:    1291.64 cm**-1
    38:    1334.53 cm**-1
    39:    1368.21 cm**-1
    40:    1398.74 cm**-1
    41:    1437.67 cm**-1
    42:    1456.32 cm**-1
    43:    1464.51 cm**-1
    44:    1513.88 cm**-1
    45:    1526.02 cm**-1
    46:    1543.57 cm**-1
    47:    1605.99 cm**-1
    48:    1694.88 cm**-1
    49:    1717.18 cm**-1
    50:    3022.14 cm**-1
    51:    3104.86 cm**-1
    52:    3150.50 cm**-1
    53:    3186.79 cm**-1
    54:    3206.75 cm**-1
    55:    3239.29 cm**-1
    56:    3240.77 cm**-1

IR SPECTRUM
-----------

 Mode   freq       eps      Int      T**2         TX        TY        TZ
       cm**-1   L/(mol*cm) km/mol    a.u.
----------------------------------------------------------------------------
  6:     74.79   0.000231    1.17  0.000962  (-0.000028  0.000004 -0.031020)
  7:     86.01   0.000817    4.13  0.002966  (-0.000105  0.000052 -0.054460)
  8:    122.76   0.000222    1.12  0.000565  ( 0.000029 -0.000020  0.023775)
  9:    155.99   0.000086    0.44  0.000173  ( 0.000682  0.000643  0.013107)
 10:    161.83   0.000889    4.49  0.001714  (-0.029808 -0.028722  0.000284)
 11:    228.25   0.000188    0.95  0.000257  ( 0.000033 -0.000001  0.016036)
 12:    277.31   0.000688    3.48  0.000775  ( 0.025367 -0.011454 -0.000039)
 13:    300.06   0.000041    0.21  0.000043  (-0.004940  0.004255  0.000035)
 14:    404.42   0.000356    1.80  0.000275  (-0.000126  0.000019 -0.016584)
 15:    444.72   0.000435    2.20  0.000305  ( 0.004662 -0.016845 -0.000031)
 16:    457.60   0.000013    0.07  0.000009  ( 0.000004  0.000021 -0.003010)
 17:    532.56   0.003209   16.22  0.001881  ( 0.043303 -0.002314 -0.000018)
 18:    561.47   0.001231    6.22  0.000684  ( 0.020845  0.015793 -0.000000)
 19:    585.52   0.000858    4.34  0.000458  ( 0.000048  0.000032 -0.021390)
 20:    631.50   0.001038    5.25  0.000513  (-0.020094 -0.010453  0.000077)
 21:    639.39   0.000131    0.66  0.000064  ( 0.007290  0.003297 -0.000023)
 22:    683.78   0.005478   27.69  0.002500  (-0.000453 -0.000019  0.050001)
 23:    746.54   0.000324    1.64  0.000135  (-0.000662  0.000019  0.011612)
 24:    748.62   0.002298   11.61  0.000958  ( 0.030904 -0.001639  0.000216)
 25:    812.14   0.002016   10.19  0.000775  ( 0.000143 -0.000044  0.027832)
 26:    837.16   0.004400   22.23  0.001640  ( 0.000187 -0.000020  0.040497)
 27:    859.72   0.003986   20.15  0.001447  ( 0.037971 -0.002275 -0.000028)
 28:    956.48   0.031005  156.69  0.010116  ( 0.099770  0.012714 -0.000079)
 29:    979.39   0.000003    0.01  0.000001  (-0.000049  0.000001 -0.000942)
 30:   1001.02   0.004823   24.37  0.001504  (-0.038656 -0.003046  0.000023)
 31:   1005.33   0.000073    0.37  0.000023  ( 0.000039  0.000010 -0.004755)
 32:   1028.33   0.000497    2.51  0.000151  ( 0.000054  0.000018 -0.012285)
 33:   1082.67   0.006443   32.56  0.001857  (-0.041605  0.011233  0.000035)
 34:   1106.59   0.003380   17.08  0.000953  (-0.003592  0.030665  0.000025)
 35:   1131.99   0.028562  144.34  0.007874  (-0.088709  0.002150  0.000076)
 36:   1212.82   0.010312   52.12  0.002653  ( 0.051346 -0.004130 -0.000047)
 37:   1291.64   0.000997    5.04  0.000241  ( 0.015025  0.003896 -0.000007)
 38:   1334.53   0.077811  393.22  0.018195  ( 0.134848  0.003337 -0.000103)
 39:   1368.21   0.019653   99.32  0.004483  ( 0.059095  0.031469 -0.000035)
 40:   1398.74   0.082828  418.58  0.018479  ( 0.135751  0.007144 -0.000111)
 41:   1437.67   0.252024  1273.63  0.054705  ( 0.233228 -0.017584 -0.000211)
 42:   1456.32   0.002888   14.59  0.000619  ( 0.023075  0.009291 -0.000026)
 43:   1464.51   0.001289    6.52  0.000275  ( 0.000094 -0.000024  0.016575)
 44:   1513.88   0.040856  206.47  0.008422  ( 0.090597  0.014629 -0.000071)
 45:   1526.02   0.011207   56.64  0.002292  ( 0.047779 -0.002995 -0.000045)
 46:   1543.57   0.019105   96.55  0.003863  (-0.011735 -0.061031 -0.000030)
 47:   1605.99   0.027430  138.62  0.005330  (-0.009677  0.072363  0.000053)
 48:   1694.88   0.004161   21.03  0.000766  ( 0.027549 -0.002681 -0.000020)
 49:   1717.18   0.133992  677.14  0.024350  ( 0.144177 -0.059696 -0.000131)
 50:   3022.14   0.008133   41.10  0.000840  ( 0.024808  0.014978  0.000013)
 51:   3104.86   0.003333   16.84  0.000335  (-0.000001 -0.000010  0.018303)
 52:   3150.50   0.002836   14.33  0.000281  (-0.016286  0.003962  0.000020)
 53:   3186.79   0.003314   16.75  0.000324  ( 0.005367  0.017195  0.000006)
 54:   3206.75   0.000953    4.82  0.000093  ( 0.003225  0.009075  0.000001)
 55:   3239.29   0.001173    5.93  0.000113  ( 0.000312  0.010627  0.000006)
 56:   3240.77   0.000419    2.12  0.000040  ( 0.005798  0.002598 -0.000004)

--------------------------
THERMOCHEMISTRY AT 298.15K
--------------------------

Temperature         ...   298.15 K
Pressure            ...     1.00 atm
Total Mass          ...   165.15 AMU
Quasi RRHO          ...     True
Cut-Off Frequency   ...     1.00 cm^-1

Throughout the following assumptions are being made:
  (1) The electronic state is orbitally nondegenerate
      but the spin degeneracy is treated
  (2) There are no thermally accessible electronically excited states
  (3) Hindered rotations indicated by low frequency modes are not
      treated as such but are treated as vibrations and this may
      cause some error
  (4) All equations used are the standard statistical mechanics
      equations for an ideal gas
  (5) All vibrations are strictly harmonic

freq.      74.79  E(vib)   ...       0.49
freq.      86.01  E(vib)   ...       0.48
freq.     122.76  E(vib)   ...       0.43
freq.     155.99  E(vib)   ...       0.40
freq.     161.83  E(vib)   ...       0.39
freq.     228.25  E(vib)   ...       0.32
freq.     277.31  E(vib)   ...       0.28
freq.     300.06  E(vib)   ...       0.26
freq.     404.42  E(vib)   ...       0.19
freq.     444.72  E(vib)   ...       0.17
freq.     457.60  E(vib)   ...       0.16
freq.     532.56  E(vib)   ...       0.13
freq.     561.47  E(vib)   ...       0.11
freq.     585.52  E(vib)   ...       0.11
freq.     631.50  E(vib)   ...       0.09
freq.     639.39  E(vib)   ...       0.09
freq.     683.78  E(vib)   ...       0.07
freq.     746.54  E(vib)   ...       0.06
freq.     748.62  E(vib)   ...       0.06
freq.     812.14  E(vib)   ...       0.05
freq.     837.16  E(vib)   ...       0.04
freq.     859.72  E(vib)   ...       0.04
freq.     956.48  E(vib)   ...       0.03
freq.     979.39  E(vib)   ...       0.03
freq.    1001.02  E(vib)   ...       0.02
freq.    1005.33  E(vib)   ...       0.02
freq.    1028.33  E(vib)   ...       0.02
freq.    1082.67  E(vib)   ...       0.02
freq.    1106.59  E(vib)   ...       0.02
freq.    1131.99  E(vib)   ...       0.01
freq.    1212.82  E(vib)   ...       0.01
freq.    1291.64  E(vib)   ...       0.01
freq.    1334.53  E(vib)   ...       0.01
freq.    1368.21  E(vib)   ...       0.01
freq.    1398.74  E(vib)   ...       0.00
freq.    1437.67  E(vib)   ...       0.00
freq.    1456.32  E(vib)   ...       0.00
freq.    1464.51  E(vib)   ...       0.00
freq.    1513.88  E(vib)   ...       0.00
freq.    1526.02  E(vib)   ...       0.00
freq.    1543.57  E(vib)   ...       0.00
freq.    1605.99  E(vib)   ...       0.00
freq.    1694.88  E(vib)   ...       0.00
freq.    1717.18  E(vib)   ...       0.00
freq.    3022.14  E(vib)   ...       0.00
freq.    3104.86  E(vib)   ...       0.00
freq.    3150.50  E(vib)   ...       0.00
freq.    3186.79  E(vib)   ...       0.00
freq.    3206.75  E(vib)   ...       0.00
freq.    3239.29  E(vib)   ...       0.00
freq.    3240.77  E(vib)   ...       0.00

------------
INNER ENERGY
------------

The inner energy is: U= E(el) + E(ZPE) + E(vib) + E(rot) + E(trans)
    E(el)   - is the total energy from the electronic structure calculation
              = E(kin-el) + E(nuc-el) + E(el-el) + E(nuc-nuc)
    E(ZPE)  - the the zero temperature vibrational energy from the frequency calculation
    E(vib)  - the the finite temperature correction to E(ZPE) due to population
              of excited vibrational states
    E(rot)  - is the rotational thermal energy
    E(trans)- is the translational thermal energy

Summary of contributions to the inner energy U:
Electronic energy                ...   -588.36566966 Eh
Zero point energy                ...      0.13979061 Eh      87.72 kcal/mol
Thermal vibrational correction   ...      0.00741593 Eh       4.65 kcal/mol
Thermal rotational correction    ...      0.00141627 Eh       0.89 kcal/mol
Thermal translational correction ...      0.00141627 Eh       0.89 kcal/mol
-----------------------------------------------------------------------
Total thermal energy                   -588.21563057 Eh

Summary of corrections to the electronic energy:
(perhaps to be used in another calculation)
Total thermal correction                  0.01024847 Eh       6.43 kcal/mol
Non-thermal (ZPE) correction              0.13979061 Eh      87.72 kcal/mol
-----------------------------------------------------------------------
Total correction                          0.15003909 Eh      94.15 kcal/mol

--------
ENTHALPY
--------

The enthalpy is H = U + kB*T
                kB is Boltzmann's constant
Total thermal energy              ...   -588.21563057 Eh
Thermal Enthalpy correction       ...      0.00094421 Eh       0.59 kcal/mol
-----------------------------------------------------------------------
Total Enthalpy                    ...   -588.21468636 Eh

Note: Only C1 symmetry has been detected, increase convergence thresholds
      if your molecule has a higher symmetry. Symmetry factor of 1.0 is
      used for the rotational entropy correction.

Note: Rotational entropy computed according to Herzberg
Infrared and Raman Spectra, Chapter V,1, Van Nostrand Reinhold, 1945
Point Group:  C1, Symmetry Number:   1
Rotational constants in cm-1:     0.095337     0.015839     0.013617

Vibrational entropy computed according to the QRRHO of S. Grimme
Chem.Eur.J. 2012 18 9955 using a reference frequency of 100.0 cm-1

-------
ENTROPY
-------

The entropy contributions are T*S = T*(S(el)+S(vib)+S(rot)+S(trans))
     S(el)   - electronic entropy
     S(vib)  - vibrational entropy
     S(rot)  - rotational entropy
     S(trans)- translational entropy
The entropies will be listed as multiplied by the temperature to get
units of energy

Electronic entropy                ...      0.00065446 Eh      0.41 kcal/mol
Vibrational entropy               ...      0.01267266 Eh      7.95 kcal/mol
Rotational entropy                ...      0.01460564 Eh      9.17 kcal/mol
Translational entropy             ...      0.01958175 Eh     12.29 kcal/mol
-----------------------------------------------------------------------
Final entropy term                ...      0.04751450 Eh     29.82 kcal/mol

In case the symmetry of your molecule has not been determined correctly
or in case you have a reason to use a different symmetry number we print
out the resulting rotational entropy values for sn=1,12:

 non-linear molecules -----------------------------------
|  sn= 1 | S(rot)=       0.01460564 Eh      9.17 kcal/mol|
|  sn= 2 | S(rot)=       0.01395118 Eh      8.75 kcal/mol|
|  sn= 3 | S(rot)=       0.01356835 Eh      8.51 kcal/mol|
|  sn= 4 | S(rot)=       0.01329672 Eh      8.34 kcal/mol|
|  sn= 5 | S(rot)=       0.01308604 Eh      8.21 kcal/mol|
|  sn= 6 | S(rot)=       0.01291389 Eh      8.10 kcal/mol|
|  sn= 7 | S(rot)=       0.01276835 Eh      8.01 kcal/mol|
|  sn= 8 | S(rot)=       0.01264227 Eh      7.93 kcal/mol|

                             ****ORCA TERMINATED NORMALLY****
TOTAL RUN TIME: 0 days 0 hours 11 minutes 58 seconds 38 msec
