                         Program Version 6.0.0  -   RELEASE  -
|  1> !B3LYP aug-cc-pVTZ d3 TightSCF SlowConv RIJCOSX defgrid2
|  2>
|  3> %pal
|  4> nprocs 4
|  5> end
|  6>
|  7> %scf
|  8> MaxIter 1500
|  9> end
| 10>
| 11> %maxcore 3000
| 12>
| 13> !CPCM
| 14> %cpcm smd true
| 15> SMDsolvent "MeCN"
| 16> surfacetype gepol_ses
| 17> rsolv 2.19
| 18> end
| 19>
| 20> * xyz 1 2
| 21> C          -0.34270275561118      0.84711240516987     -0.00000461392678
| 22> C          -1.62114214149599      0.28310666085248      0.00005036258773
| 23> C          -1.76655845984461     -1.14534797316706      0.00015902441429
| 24> C          -0.64047775510568     -1.96124661886859      0.00020951229865
| 25> C           0.62711717490611     -1.39778631503778      0.00015498102973
| 26> C           0.79382657036915      0.03758278475822      0.00002872344792
| 27> C           2.09240943022637      0.64547974379403     -0.00003830185520
| 28> C           3.29430838690790     -0.01032166453559      0.00000281703843
| 29> C           4.60760132054960      0.65947907504340     -0.00004889316533
| 30> H           5.19809781171836      0.33504540056372     -0.87962451212125
| 31> H           5.19805381830583      0.33523637975460      0.87962749612829
| 32> H           4.53047503370681      1.75742824935659     -0.00016451192059
| 33> H           3.31318609028762     -1.10737767604801      0.00008430734855
| 34> H           2.10926613216247      1.74179274962735     -0.00012792598686
| 35> H           1.50121349078302     -2.05141955010833      0.00019397364887
| 36> H          -0.75915141594404     -3.04749102718735      0.00029347430122
| 37> H          -2.76100240605802     -1.59669233225998      0.00020413991672
| 38> O          -2.63949171539410      1.10870001849501     -0.00000818654028
| 39> C          -3.98618237230029      0.65565691136091      0.00006847700849
| 40> H          -4.60288239689184      1.56371892248403      0.00002378375357
| 41> H          -4.19996760244314      0.06636471722196      0.90775693220812
| 42> H          -4.20002007511970      0.06623874429631     -0.90752475328728
| 43> H          -0.25881356371464      1.93607439443420     -0.00008040632701
| 44> *
| 45>
| 46>                          ****END OF INPUT****

CARTESIAN COORDINATES (ANGSTROEM)
---------------------------------
  C     -0.342703    0.847112   -0.000005
  C     -1.621142    0.283107    0.000050
  C     -1.766558   -1.145348    0.000159
  C     -0.640478   -1.961247    0.000210
  C      0.627117   -1.397786    0.000155
  C      0.793827    0.037583    0.000029
  C      2.092409    0.645480   -0.000038
  C      3.294308   -0.010322    0.000003
  C      4.607601    0.659479   -0.000049
  H      5.198098    0.335045   -0.879625
  H      5.198054    0.335236    0.879627
  H      4.530475    1.757428   -0.000165
  H      3.313186   -1.107378    0.000084
  H      2.109266    1.741793   -0.000128
  H      1.501213   -2.051420    0.000194
  H     -0.759151   -3.047491    0.000293
  H     -2.761002   -1.596692    0.000204
  O     -2.639492    1.108700   -0.000008
  C     -3.986182    0.655657    0.000068
  H     -4.602882    1.563719    0.000024
  H     -4.199968    0.066365    0.907757
  H     -4.200020    0.066239   -0.907525
  H     -0.258814    1.936074   -0.000080

 Total Charge           Charge          ....    1
 Multiplicity           Mult            ....    2
 Number of Electrons    NEL             ....   79
 Basis Dimension        Dim             ....  782

ORBITAL ENERGIES
----------------
                 SPIN UP ORBITALS
  NO   OCC          E(Eh)            E(eV)
   0   1.0000     -19.203588      -522.5562
   1   1.0000     -10.286510      -279.9102
   2   1.0000     -10.237876      -278.5868
   3   1.0000     -10.233113      -278.4572
   4   1.0000     -10.231911      -278.4245
   5   1.0000     -10.230472      -278.3853
   6   1.0000     -10.230337      -278.3816
   7   1.0000     -10.214151      -277.9412
   8   1.0000     -10.209451      -277.8133
   9   1.0000     -10.200067      -277.5579
  10   1.0000     -10.181233      -277.0454
  11   1.0000      -1.120933       -30.5021
  12   1.0000      -0.898875       -24.4596
  13   1.0000      -0.838910       -22.8279
  14   1.0000      -0.795313       -21.6416
  15   1.0000      -0.786368       -21.3982
  16   1.0000      -0.726479       -19.7685
  17   1.0000      -0.708999       -19.2928
  18   1.0000      -0.639185       -17.3931
  19   1.0000      -0.631398       -17.1812
  20   1.0000      -0.578671       -15.7464
  21   1.0000      -0.553852       -15.0711
  22   1.0000      -0.523488       -14.2448
  23   1.0000      -0.516282       -14.0488
  24   1.0000      -0.499703       -13.5976
  25   1.0000      -0.492667       -13.4062
  26   1.0000      -0.461808       -12.5664
  27   1.0000      -0.448014       -12.1911
  28   1.0000      -0.430867       -11.7245
  29   1.0000      -0.426906       -11.6167
  30   1.0000      -0.415815       -11.3149
  31   1.0000      -0.412817       -11.2333
  32   1.0000      -0.400925       -10.9097
  33   1.0000      -0.385508       -10.4902
  34   1.0000      -0.370846       -10.0912
  35   1.0000      -0.370631       -10.0854
  36   1.0000      -0.352246        -9.5851
  37   1.0000      -0.331294        -9.0150
  38   1.0000      -0.265887        -7.2352
  39   1.0000      -0.261465        -7.1148
  40   0.0000      -0.083996        -2.2856
  41   0.0000      -0.039143        -1.0651
  42   0.0000      -0.006541        -0.1780
  43   0.0000       0.001292         0.0352
  44   0.0000       0.006333         0.1723

                 SPIN DOWN ORBITALS
  NO   OCC          E(Eh)            E(eV)
   0   1.0000     -19.201487      -522.4990
   1   1.0000     -10.285865      -279.8926
   2   1.0000     -10.236806      -278.5576
   3   1.0000     -10.233191      -278.4593
   4   1.0000     -10.226997      -278.2907
   5   1.0000     -10.226876      -278.2874
   6   1.0000     -10.225172      -278.2411
   7   1.0000     -10.213372      -277.9200
   8   1.0000     -10.211232      -277.8618
   9   1.0000     -10.200752      -277.5766
  10   1.0000     -10.181316      -277.0477
  11   1.0000      -1.117053       -30.3965
  12   1.0000      -0.892673       -24.2909
  13   1.0000      -0.831699       -22.6317
  14   1.0000      -0.793421       -21.5901
  15   1.0000      -0.778490       -21.1838
  16   1.0000      -0.720456       -19.6046
  17   1.0000      -0.705723       -19.2037
  18   1.0000      -0.635963       -17.3054
  19   1.0000      -0.627268       -17.0688
  20   1.0000      -0.575823       -15.6689
  21   1.0000      -0.551356       -15.0032
  22   1.0000      -0.521255       -14.1841
  23   1.0000      -0.513276       -13.9670
  24   1.0000      -0.492257       -13.3950
  25   1.0000      -0.489574       -13.3220
  26   1.0000      -0.460943       -12.5429
  27   1.0000      -0.447190       -12.1687
  28   1.0000      -0.425076       -11.5669
  29   1.0000      -0.421501       -11.4696
  30   1.0000      -0.410680       -11.1752
  31   1.0000      -0.405411       -11.0318
  32   1.0000      -0.399309       -10.8657
  33   1.0000      -0.384152       -10.4533
  34   1.0000      -0.369126       -10.0444
  35   1.0000      -0.358140        -9.7455
  36   1.0000      -0.350263        -9.5311
  37   1.0000      -0.314686        -8.5630
  38   1.0000      -0.253890        -6.9087
  39   0.0000      -0.189874        -5.1667
  40   0.0000      -0.061914        -1.6848
  41   0.0000      -0.029416        -0.8005
  42   0.0000      -0.006285        -0.1710
  43   0.0000       0.001479         0.0402

MULLIKEN ATOMIC CHARGES AND SPIN POPULATIONS
--------------------------------------------
   0 C :   -0.888439   -0.071219
   1 C :    0.884440    0.053266
   2 C :   -0.011498    0.346249
   3 C :   -0.882905   -0.125978
   4 C :   -0.410230    0.361913
   5 C :    1.749361    0.089284
   6 C :   -0.162531    0.072861
   7 C :   -0.243895    0.239986
   8 C :   -0.758822   -0.019901
   9 H :    0.220196    0.018858
  10 H :    0.221825    0.018820
  11 H :    0.256049   -0.003044
  12 H :    0.164939   -0.015691
  13 H :    0.048387   -0.000547
  14 H :    0.260915   -0.024635
  15 H :    0.534433    0.003859
  16 H :    0.278347   -0.019849
  17 O :   -0.612203    0.071187
  18 C :   -0.613827   -0.002122
  19 H :    0.253390    0.000288
  20 H :    0.280318    0.001869
  21 H :    0.279361    0.001911
  22 H :    0.152391    0.002637
Sum of atomic charges         :    1.0000000

LOEWDIN ATOMIC CHARGES AND SPIN POPULATIONS
-------------------------------------------
   0 C :    0.249775   -0.003100
   1 C :   -0.347732    0.075440
   2 C :    0.288216    0.171778
   3 C :    0.262360    0.047837
   4 C :    0.285860    0.177055
   5 C :   -0.094675    0.086606
   6 C :    0.271932    0.081529
   7 C :    0.279042    0.136196
   8 C :    0.593599    0.044835
   9 H :   -0.141254    0.010256
  10 H :   -0.141291    0.010255
  11 H :   -0.155683    0.001047
  12 H :   -0.155670    0.021342
  13 H :   -0.152488    0.007990
  14 H :   -0.158915    0.035365
  15 H :   -0.144584   -0.008879
  16 H :   -0.153778    0.036402
  17 O :    0.632118    0.062322
  18 C :    0.389294    0.006690
  19 H :   -0.160032   -0.000277
  20 H :   -0.148918    0.001778
  21 H :   -0.148885    0.001778
  22 H :   -0.148292   -0.004245

  Mayer bond orders larger than 0.100000
B(  0-C ,  1-C ) :   0.6494 B(  0-C ,  2-C ) :  -0.1258 B(  0-C ,  3-C ) :   0.1122
B(  0-C ,  4-C ) :  -0.2889 B(  0-C ,  5-C ) :   0.2262 B(  0-C ,  6-C ) :  -0.2074
B(  0-C ,  7-C ) :   0.1537 B(  0-C , 17-O ) :   0.3735 B(  0-C , 18-C ) :   0.1103
B(  0-C , 22-H ) :   1.2008 B(  1-C ,  2-C ) :   1.0119 B(  1-C ,  4-C ) :  -0.2061
B(  1-C , 17-O ) :   0.2134 B(  1-C , 22-H ) :  -0.1305 B(  2-C ,  3-C ) :   1.0428
B(  2-C ,  5-C ) :  -0.1144 B(  2-C ,  6-C ) :   0.1029 B(  2-C , 16-H ) :   1.0203
B(  2-C , 17-O ) :  -0.1888 B(  2-C , 18-C ) :  -0.1512 B(  3-C ,  4-C ) :   1.0113
B(  3-C ,  5-C ) :  -0.1028 B(  3-C , 14-H ) :  -0.1316 B(  3-C , 15-H ) :   0.3896
B(  4-C ,  5-C ) :   0.4951 B(  4-C ,  6-C ) :   0.1653 B(  4-C , 14-H ) :   1.0140
B(  5-C ,  7-C ) :  -0.1075 B(  5-C ,  8-C ) :   0.1162 B(  5-C , 12-H ) :  -0.1871
B(  5-C , 17-O ) :   0.1671 B(  5-C , 22-H ) :  -0.1173 B(  6-C ,  7-C ) :   0.7836
B(  6-C , 13-H ) :   1.2850 B(  7-C ,  8-C ) :   0.6811 B(  7-C , 12-H ) :   1.2941
B(  7-C , 13-H ) :  -0.1331 B(  8-C ,  9-H ) :   0.9866 B(  8-C , 10-H ) :   0.9845
B(  8-C , 11-H ) :   0.9504 B(  8-C , 12-H ) :  -0.1087 B( 16-H , 18-C ) :  -0.1144
B( 17-O , 18-C ) :   0.9642 B( 18-C , 19-H ) :   0.9475 B( 18-C , 20-H ) :   0.9237
B( 18-C , 21-H ) :   0.9251

Dispersion correction           -0.038871223
FINAL SINGLE POINT ENERGY      -463.215210079976

DIPOLE MOMENT
-------------

Method             : SCF
Type of density    : Electron Density
Multiplicity       :   2
Irrep              :   0
Energy             :  -463.1763388568948585 Eh
Relativity type    :
Basis              : AO
                                X                 Y                 Z
Electronic contribution:     -4.416850384      -0.845478348      -0.000357257
Nuclear contribution   :      4.745595693      -0.067246961       0.000048364
                        -----------------------------------------
Total Dipole Moment    :      0.328745309      -0.912725309      -0.000308893
                        -----------------------------------------
Magnitude (a.u.)       :      0.970124252
Magnitude (Debye)      :      2.465859883

Rotational constants in cm-1:             0.103199             0.017039             0.014706
Rotational constants in MHz :          3093.817468           510.805508           440.883670

                             ****ORCA TERMINATED NORMALLY****
TOTAL RUN TIME: 0 days 0 hours 7 minutes 59 seconds 856 msec
