                         Program Version 6.0.0  -   RELEASE  -
|  1> !PBE0 def2-SV(p) Opt Freq d3 TightSCF SlowConv RIJCOSX defgrid2
|  2>
|  3> %pal
|  4> nprocs 4
|  5> end
|  6>
|  7> %scf
|  8> MaxIter 1500
|  9> end
| 10>
| 11> %maxcore 3000
| 12>
| 13>
| 14>
| 15> * xyz 0 1
| 16> C    -1.2182017    1.1615497    0.0144047
| 17> C    -2.5385391    1.3030345   -0.3713479
| 18> C    -3.3781950    0.2060819   -0.4467486
| 19> C    -2.8763854   -1.0422296   -0.1133369
| 20> C    -1.5625597   -1.1913756    0.2797047
| 21> C    -0.6933723   -0.0931409    0.3443994
| 22> N     0.6050076   -0.2723581    0.8009115
| 23> C     1.3997178   -1.3856227    0.3147582
| 24> H     2.0949453   -1.6817177    1.1072858
| 25> H     0.7684926   -2.2327716    0.0581161
| 26> C     2.1995898   -0.9580529   -0.9266867
| 27> H     1.4971021   -0.7088277   -1.7390870
| 28> H     2.8637326   -1.7590601   -1.2555595
| 29> O     3.0294050    0.1523903   -0.6546884
| 30> C     2.2699588    1.2504033   -0.1873891
| 31> H     2.9865410    2.0427528    0.0352704
| 32> H     1.5841244    1.5885862   -0.9798664
| 33> C     1.4712859    0.8597729    1.0639710
| 34> H     0.8939594    1.7017158    1.4413816
| 35> H     2.1782825    0.5484584    1.8414596
| 36> H    -1.2117236   -2.1722883    0.5616531
| 37> H    -3.5196173   -1.9102214   -0.1514510
| 38> H    -4.4065205    0.3208729   -0.7555754
| 39> H    -2.9100576    2.2859465   -0.6262704
| 40> H    -0.5973457    2.0433417    0.0428756
| 41> *
| 42>
| 43>                          ****END OF INPUT****
 Total Charge           Charge          ....    0
 Multiplicity           Mult            ....    1
 Number of Electrons    NEL             ....   88
Dispersion correction           -0.025025693
FINAL SINGLE POINT ENERGY      -517.863516623379
Dispersion correction             ... done (  0.1 sec)
Dispersion correction           -0.024918107
FINAL SINGLE POINT ENERGY      -517.865758518725
Dispersion correction             ... done (  0.1 sec)
Dispersion correction           -0.024876020
FINAL SINGLE POINT ENERGY      -517.865922347818
Dispersion correction             ... done (  0.1 sec)
FINAL SINGLE POINT ENERGY      -517.865988438333
FINAL SINGLE POINT ENERGY      -517.866006004869
FINAL SINGLE POINT ENERGY      -517.866018556897
FINAL SINGLE POINT ENERGY      -517.866026126644
Dispersion correction             ... done (  0.1 sec)
Dispersion correction           -0.024765868
FINAL SINGLE POINT ENERGY      -517.866030860603
Dispersion correction             ... done (  0.1 sec)
Dispersion correction           -0.024755883
FINAL SINGLE POINT ENERGY      -517.866032917233
Dispersion correction             ... done (  0.1 sec)
                    ***********************HURRAY********************

CARTESIAN COORDINATES (ANGSTROEM)
---------------------------------
  C     -1.264958    1.183039    0.050804
  C     -2.606423    1.319354   -0.299597
  C     -3.440413    0.209265   -0.401615
  C     -2.901441   -1.049737   -0.134322
  C     -1.568251   -1.196600    0.228664
  C     -0.709343   -0.081547    0.330512
  N      0.613010   -0.241052    0.731191
  C      1.399870   -1.379991    0.298774
  H      2.046077   -1.709930    1.134517
  H      0.751147   -2.223347    0.026207
  C      2.273421   -0.992231   -0.890552
  H      1.619323   -0.770112   -1.761812
  H      2.951809   -1.816927   -1.165443
  O      3.083153    0.115813   -0.595707
  C      2.328681    1.234247   -0.202941
  H      3.048076    2.035793    0.033048
  H      1.683199    1.576522   -1.040658
  C      1.468423    0.892538    1.006601
  H      0.874997    1.753395    1.346469
  H      2.142346    0.614129    1.839731
  H     -1.196680   -2.195280    0.469591
  H     -3.534172   -1.940995   -0.194147
  H     -4.490704    0.320744   -0.683545
  H     -2.996957    2.319860   -0.511199
  H     -0.644560    2.080289    0.083615

 Multiplicity           Mult            ....    1
 Number of Electrons    NEL             ....   88
 Basis Dimension        Dim             ....  194

ORBITAL ENERGIES
----------------

  NO   OCC          E(Eh)            E(eV)
   0   2.0000     -19.215980      -522.8934
   1   2.0000     -14.410842      -392.1389
   2   2.0000     -10.277482      -279.6645
   3   2.0000     -10.277410      -279.6625
   4   2.0000     -10.276945      -279.6499
   5   2.0000     -10.265068      -279.3267
   6   2.0000     -10.263939      -279.2960
   7   2.0000     -10.231751      -278.4201
   8   2.0000     -10.231668      -278.4178
   9   2.0000     -10.227205      -278.2964
  10   2.0000     -10.227063      -278.2925
  11   2.0000     -10.221474      -278.1404
  12   2.0000      -1.070992       -29.1432
  13   2.0000      -0.972830       -26.4720
  14   2.0000      -0.862776       -23.4773
  15   2.0000      -0.801191       -21.8015
  16   2.0000      -0.770672       -20.9711
  17   2.0000      -0.756488       -20.5851
  18   2.0000      -0.699707       -19.0400
  19   2.0000      -0.684348       -18.6221
  20   2.0000      -0.629733       -17.1359
  21   2.0000      -0.612009       -16.6536
  22   2.0000      -0.580902       -15.8072
  23   2.0000      -0.553891       -15.0721
  24   2.0000      -0.509932       -13.8759
  25   2.0000      -0.503120       -13.6906
  26   2.0000      -0.497151       -13.5282
  27   2.0000      -0.489537       -13.3210
  28   2.0000      -0.480624       -13.0785
  29   2.0000      -0.454620       -12.3708
  30   2.0000      -0.447264       -12.1707
  31   2.0000      -0.434555       -11.8248
  32   2.0000      -0.424578       -11.5534
  33   2.0000      -0.413399       -11.2492
  34   2.0000      -0.386404       -10.5146
  35   2.0000      -0.384629       -10.4663
  36   2.0000      -0.373839       -10.1727
  37   2.0000      -0.368852       -10.0370
  38   2.0000      -0.346491        -9.4285
  39   2.0000      -0.337095        -9.1728
  40   2.0000      -0.305886        -8.3236
  41   2.0000      -0.275437        -7.4950
  42   2.0000      -0.261925        -7.1274
  43   2.0000      -0.201754        -5.4900
  44   0.0000       0.000338         0.0092
  45   0.0000       0.014045         0.3822
  46   0.0000       0.066041         1.7971
  47   0.0000       0.084954         2.3117
  48   0.0000       0.086839         2.3630

MULLIKEN ATOMIC CHARGES
-----------------------
   0 C :   -0.192959
   1 C :   -0.092181
   2 C :   -0.098195
   3 C :   -0.094769
   4 C :   -0.186274
   5 C :    0.236496
   6 N :   -0.354227
   7 C :   -0.108170
   8 H :    0.117689
   9 H :    0.139456
  10 C :   -0.000795
  11 H :    0.101588
  12 H :    0.121140
  13 O :   -0.393076
  14 C :    0.004432
  15 H :    0.122021
  16 H :    0.101281
  17 C :   -0.121457
  18 H :    0.141850
  19 H :    0.120525
  20 H :    0.086632
  21 H :    0.091079
  22 H :    0.088685
  23 H :    0.090628
  24 H :    0.078601
Sum of atomic charges:    0.0000000

LOEWDIN ATOMIC CHARGES
----------------------
   0 C :   -0.177057
   1 C :   -0.117189
   2 C :   -0.163910
   3 C :   -0.117994
   4 C :   -0.165445
   5 C :    0.019409
   6 N :   -0.093313
   7 C :   -0.163230
   8 H :    0.118699
   9 H :    0.128668
  10 C :   -0.118995
  11 H :    0.105129
  12 H :    0.119106
  13 O :   -0.191661
  14 C :   -0.118981
  15 H :    0.119058
  16 H :    0.103399
  17 C :   -0.168124
  18 H :    0.128881
  19 H :    0.121797
  20 H :    0.126740
  21 H :    0.127265
  22 H :    0.126179
  23 H :    0.127113
  24 H :    0.124456

  Mayer bond orders larger than 0.100000
B(  0-C ,  1-C ) :   1.4006 B(  0-C ,  5-C ) :   1.3442 B(  0-C , 24-H ) :   0.9483
B(  1-C ,  2-C ) :   1.3931 B(  1-C , 23-H ) :   0.9597 B(  2-C ,  3-C ) :   1.3705
B(  2-C , 22-H ) :   0.9677 B(  3-C ,  4-C ) :   1.4331 B(  3-C , 21-H ) :   0.9596
B(  4-C ,  5-C ) :   1.3393 B(  4-C , 20-H ) :   0.9487 B(  5-C ,  6-N ) :   1.0652
B(  6-N ,  7-C ) :   0.9954 B(  6-N , 17-C ) :   1.0089 B(  7-C ,  8-H ) :   0.9144
B(  7-C ,  9-H ) :   0.9150 B(  7-C , 10-C ) :   1.0982 B( 10-C , 11-H ) :   0.9113
B( 10-C , 12-H ) :   0.9326 B( 10-C , 13-O ) :   0.9951 B( 13-O , 14-C ) :   0.9874
B( 14-C , 15-H ) :   0.9334 B( 14-C , 16-H ) :   0.9103 B( 14-C , 17-C ) :   1.1024
B( 17-C , 18-H ) :   0.9114 B( 17-C , 19-H ) :   0.9107

Dispersion correction           -0.024747265
FINAL SINGLE POINT ENERGY      -517.866034210506

DIPOLE MOMENT
-------------

Method             : SCF
Type of density    : Electron Density
Multiplicity       :   1
Irrep              :   0
Energy             :  -517.8412869454275551 Eh
Relativity type    :
Basis              : AO
                                X                 Y                 Z
Electronic contribution:     -2.062121054      -0.075990939       0.464805781
Nuclear contribution   :      2.172114398       0.028135231      -0.411191187
                        -----------------------------------------
Total Dipole Moment    :      0.109993344      -0.047855708       0.053614594
                        -----------------------------------------
Magnitude (a.u.)       :      0.131389609
Magnitude (Debye)      :      0.333965844

VIBRATIONAL FREQUENCIES
-----------------------

Scaling factor for frequencies =  1.000000000  (already applied!)

     0:       0.00 cm**-1
     1:       0.00 cm**-1
     2:       0.00 cm**-1
     3:       0.00 cm**-1
     4:       0.00 cm**-1
     5:       0.00 cm**-1
     6:      37.36 cm**-1
     7:      57.63 cm**-1
     8:     149.55 cm**-1
     9:     199.21 cm**-1
    10:     298.93 cm**-1
    11:     308.22 cm**-1
    12:     379.48 cm**-1
    13:     419.01 cm**-1
    14:     427.87 cm**-1
    15:     470.04 cm**-1
    16:     510.98 cm**-1
    17:     524.99 cm**-1
    18:     541.54 cm**-1
    19:     608.15 cm**-1
    20:     631.33 cm**-1
    21:     714.36 cm**-1
    22:     746.82 cm**-1
    23:     776.75 cm**-1
    24:     828.89 cm**-1
    25:     865.41 cm**-1
    26:     883.69 cm**-1
    27:     895.40 cm**-1
    28:     932.30 cm**-1
    29:     975.89 cm**-1
    30:     980.95 cm**-1
    31:    1004.80 cm**-1
    32:    1005.82 cm**-1
    33:    1048.80 cm**-1
    34:    1069.00 cm**-1
    35:    1075.59 cm**-1
    36:    1098.31 cm**-1
    37:    1121.76 cm**-1
    38:    1152.68 cm**-1
    39:    1172.64 cm**-1
    40:    1201.56 cm**-1
    41:    1209.91 cm**-1
    42:    1238.89 cm**-1
    43:    1256.52 cm**-1
    44:    1269.23 cm**-1
    45:    1299.29 cm**-1
    46:    1335.59 cm**-1
    47:    1346.92 cm**-1
    48:    1369.06 cm**-1
    49:    1396.96 cm**-1
    50:    1401.04 cm**-1
    51:    1401.72 cm**-1
    52:    1432.58 cm**-1
    53:    1455.47 cm**-1
    54:    1459.43 cm**-1
    55:    1475.30 cm**-1
    56:    1481.24 cm**-1
    57:    1490.65 cm**-1
    58:    1508.33 cm**-1
    59:    1567.91 cm**-1
    60:    1659.57 cm**-1
    61:    1699.09 cm**-1
    62:    2984.55 cm**-1
    63:    2989.54 cm**-1
    64:    3033.16 cm**-1
    65:    3040.36 cm**-1
    66:    3117.70 cm**-1
    67:    3119.07 cm**-1
    68:    3147.93 cm**-1
    69:    3164.53 cm**-1
    70:    3190.48 cm**-1
    71:    3197.28 cm**-1
    72:    3215.01 cm**-1
    73:    3221.46 cm**-1
    74:    3228.18 cm**-1

IR SPECTRUM
-----------

 Mode   freq       eps      Int      T**2         TX        TY        TZ
       cm**-1   L/(mol*cm) km/mol    a.u.
----------------------------------------------------------------------------
  6:     37.36   0.000016    0.08  0.000129  (-0.001764  0.004056 -0.010484)
  7:     57.63   0.000215    1.09  0.001165  ( 0.032625 -0.001096  0.009974)
  8:    149.55   0.000105    0.53  0.000219  (-0.001243 -0.013164  0.006616)
  9:    199.21   0.000301    1.52  0.000471  (-0.001351 -0.006019 -0.020805)
 10:    298.93   0.000700    3.54  0.000731  ( 0.008444 -0.001834  0.025618)
 11:    308.22   0.001801    9.10  0.001824  ( 0.003199 -0.020183  0.037498)
 12:    379.48   0.001000    5.05  0.000822  ( 0.020142 -0.005020  0.019789)
 13:    419.01   0.000239    1.21  0.000178  (-0.012166  0.005206 -0.001729)
 14:    427.87   0.000218    1.10  0.000159  ( 0.010480  0.006783  0.001846)
 15:    470.04   0.000445    2.25  0.000296  ( 0.012502  0.001000  0.011759)
 16:    510.98   0.000516    2.61  0.000315  (-0.013488 -0.006007  0.009848)
 17:    524.99   0.000417    2.11  0.000248  ( 0.006538  0.000078 -0.014323)
 18:    541.54   0.002472   12.49  0.001425  ( 0.016537 -0.016024 -0.029906)
 19:    608.15   0.001249    6.31  0.000641  (-0.001032 -0.007083  0.024285)
 20:    631.33   0.000014    0.07  0.000007  ( 0.002362  0.001002  0.000720)
 21:    714.36   0.006593   33.32  0.002880  (-0.014655  0.009205  0.050800)
 22:    746.82   0.000551    2.79  0.000230  ( 0.009665 -0.002627  0.011407)
 23:    776.75   0.007199   36.38  0.002892  ( 0.009295  0.002173 -0.052925)
 24:    828.89   0.000034    0.17  0.000013  ( 0.003132 -0.001670  0.000607)
 25:    865.41   0.000014    0.07  0.000005  ( 0.000029 -0.001973 -0.000994)
 26:    883.69   0.000783    3.96  0.000277  (-0.013890 -0.002595  0.008773)
 27:    895.40   0.000666    3.37  0.000232  ( 0.000155  0.001376  0.015172)
 28:    932.30   0.000795    4.02  0.000266  ( 0.001574 -0.013759 -0.008617)
 29:    975.89   0.010783   54.49  0.003448  ( 0.057751  0.001091 -0.010577)
 30:    980.95   0.000411    2.08  0.000131  (-0.011348 -0.000080  0.001377)
 31:   1004.80   0.000160    0.81  0.000050  (-0.005708  0.002964  0.002901)
 32:   1005.82   0.000275    1.39  0.000085  ( 0.008765 -0.001683  0.002356)
 33:   1048.80   0.000973    4.92  0.000289  (-0.009428  0.004359 -0.013474)
 34:   1069.00   0.006963   35.19  0.002033  ( 0.041405 -0.007870  0.016013)
 35:   1075.59   0.001769    8.94  0.000513  (-0.015030  0.006314 -0.015727)
 36:   1098.31   0.001090    5.51  0.000310  (-0.004705  0.016826  0.002121)
 37:   1121.76   0.000363    1.83  0.000101  ( 0.004926  0.007618 -0.004324)
 38:   1152.68   0.000133    0.67  0.000036  ( 0.005767 -0.001496 -0.000674)
 39:   1172.64   0.000237    1.20  0.000063  (-0.001383 -0.007696  0.001423)
 40:   1201.56   0.016890   85.35  0.004386  (-0.010562 -0.061844 -0.021217)
 41:   1209.91   0.001385    7.00  0.000357  (-0.016237  0.009665 -0.000302)
 42:   1238.89   0.000610    3.08  0.000154  (-0.009292  0.008050  0.001582)
 43:   1256.52   0.000018    0.09  0.000004  ( 0.001571 -0.000198 -0.001404)
 44:   1269.23   0.017735   89.63  0.004360  ( 0.065700 -0.004952 -0.004414)
 45:   1299.29   0.011517   58.20  0.002766  ( 0.004719 -0.050385 -0.014325)
 46:   1335.59   0.003042   15.37  0.000711  (-0.025152  0.003351 -0.008179)
 47:   1346.92   0.000053    0.27  0.000012  (-0.003198  0.001026  0.001053)
 48:   1369.06   0.001289    6.52  0.000294  (-0.006661 -0.014558 -0.006130)
 49:   1396.96   0.001098    5.55  0.000245  ( 0.010029 -0.011788 -0.002404)
 50:   1401.04   0.002483   12.55  0.000553  (-0.004006  0.023163  0.000736)
 51:   1401.72   0.004559   23.04  0.001015  (-0.019176 -0.022693 -0.011502)
 52:   1432.58   0.001564    7.91  0.000341  (-0.018154  0.000134  0.003341)
 53:   1455.47   0.010726   54.20  0.002300  (-0.047659  0.004924  0.002024)
 54:   1459.43   0.002492   12.59  0.000533  (-0.017903 -0.014571  0.000218)
 55:   1475.30   0.000266    1.34  0.000056  (-0.003740 -0.006446 -0.000866)
 56:   1481.24   0.002823   14.27  0.000595  ( 0.008222 -0.001051  0.022936)
 57:   1490.65   0.000983    4.97  0.000206  ( 0.007022  0.005793 -0.011088)
 58:   1508.33   0.000018    0.09  0.000004  ( 0.000774  0.001730  0.000324)
 59:   1567.91   0.043969  222.20  0.008751  (-0.091996  0.007582 -0.015180)
 60:   1659.57   0.002230   11.27  0.000419  ( 0.003874 -0.019896  0.002900)
 61:   1699.09   0.033620  169.90  0.006175  ( 0.077450 -0.005141  0.012239)
 62:   2984.55   0.005223   26.40  0.000546  (-0.002470 -0.018304 -0.014317)
 63:   2989.54   0.008525   43.08  0.000890  (-0.009214  0.012844 -0.025299)
 64:   3033.16   0.007614   38.48  0.000783  (-0.017467 -0.003630 -0.021566)
 65:   3040.36   0.012739   64.38  0.001307  (-0.022940  0.015782 -0.023069)
 66:   3117.70   0.007723   39.03  0.000773  ( 0.008632 -0.025669 -0.006294)
 67:   3119.07   0.008099   40.93  0.000810  (-0.026676 -0.007184 -0.006862)
 68:   3147.93   0.001912    9.66  0.000189  ( 0.006253 -0.011920 -0.002882)
 69:   3164.53   0.001748    8.84  0.000172  (-0.007633 -0.008745 -0.006138)
 70:   3190.48   0.001300    6.57  0.000127  (-0.011098  0.001185 -0.001613)
 71:   3197.28   0.001338    6.76  0.000131  (-0.001524 -0.011261  0.001225)
 72:   3215.01   0.003786   19.13  0.000367  (-0.014816  0.011606 -0.003642)
 73:   3221.46   0.003074   15.53  0.000298  ( 0.013050  0.011007  0.002507)
 74:   3228.18   0.000942    4.76  0.000091  (-0.003290 -0.008957 -0.000056)

--------------------------
THERMOCHEMISTRY AT 298.15K
--------------------------

Temperature         ...   298.15 K
Pressure            ...     1.00 atm
Total Mass          ...   163.22 AMU
Quasi RRHO          ...     True
Cut-Off Frequency   ...     1.00 cm^-1

Throughout the following assumptions are being made:
  (1) The electronic state is orbitally nondegenerate
  (2) There are no thermally accessible electronically excited states
  (3) Hindered rotations indicated by low frequency modes are not
      treated as such but are treated as vibrations and this may
      cause some error
  (4) All equations used are the standard statistical mechanics
      equations for an ideal gas
  (5) All vibrations are strictly harmonic

freq.      37.36  E(vib)   ...       0.54
freq.      57.63  E(vib)   ...       0.51
freq.     149.55  E(vib)   ...       0.40
freq.     199.21  E(vib)   ...       0.35
freq.     298.93  E(vib)   ...       0.26
freq.     308.22  E(vib)   ...       0.26
freq.     379.48  E(vib)   ...       0.21
freq.     419.01  E(vib)   ...       0.18
freq.     427.87  E(vib)   ...       0.18
freq.     470.04  E(vib)   ...       0.16
freq.     510.98  E(vib)   ...       0.14
freq.     524.99  E(vib)   ...       0.13
freq.     541.54  E(vib)   ...       0.12
freq.     608.15  E(vib)   ...       0.10
freq.     631.33  E(vib)   ...       0.09
freq.     714.36  E(vib)   ...       0.07
freq.     746.82  E(vib)   ...       0.06
freq.     776.75  E(vib)   ...       0.05
freq.     828.89  E(vib)   ...       0.04
freq.     865.41  E(vib)   ...       0.04
freq.     883.69  E(vib)   ...       0.04
freq.     895.40  E(vib)   ...       0.03
freq.     932.30  E(vib)   ...       0.03
freq.     975.89  E(vib)   ...       0.03
freq.     980.95  E(vib)   ...       0.02
freq.    1004.80  E(vib)   ...       0.02
freq.    1005.82  E(vib)   ...       0.02
freq.    1048.80  E(vib)   ...       0.02
freq.    1069.00  E(vib)   ...       0.02
freq.    1075.59  E(vib)   ...       0.02
freq.    1098.31  E(vib)   ...       0.02
freq.    1121.76  E(vib)   ...       0.01
freq.    1152.68  E(vib)   ...       0.01
freq.    1172.64  E(vib)   ...       0.01
freq.    1201.56  E(vib)   ...       0.01
freq.    1209.91  E(vib)   ...       0.01
freq.    1238.89  E(vib)   ...       0.01
freq.    1256.52  E(vib)   ...       0.01
freq.    1269.23  E(vib)   ...       0.01
freq.    1299.29  E(vib)   ...       0.01
freq.    1335.59  E(vib)   ...       0.01
freq.    1346.92  E(vib)   ...       0.01
freq.    1369.06  E(vib)   ...       0.01
freq.    1396.96  E(vib)   ...       0.00
freq.    1401.04  E(vib)   ...       0.00
freq.    1401.72  E(vib)   ...       0.00
freq.    1432.58  E(vib)   ...       0.00
freq.    1455.47  E(vib)   ...       0.00
freq.    1459.43  E(vib)   ...       0.00
freq.    1475.30  E(vib)   ...       0.00
freq.    1481.24  E(vib)   ...       0.00
freq.    1490.65  E(vib)   ...       0.00
freq.    1508.33  E(vib)   ...       0.00
freq.    1567.91  E(vib)   ...       0.00
freq.    1659.57  E(vib)   ...       0.00
freq.    1699.09  E(vib)   ...       0.00
freq.    2984.55  E(vib)   ...       0.00
freq.    2989.54  E(vib)   ...       0.00
freq.    3033.16  E(vib)   ...       0.00
freq.    3040.36  E(vib)   ...       0.00
freq.    3117.70  E(vib)   ...       0.00
freq.    3119.07  E(vib)   ...       0.00
freq.    3147.93  E(vib)   ...       0.00
freq.    3164.53  E(vib)   ...       0.00
freq.    3190.48  E(vib)   ...       0.00
freq.    3197.28  E(vib)   ...       0.00
freq.    3215.01  E(vib)   ...       0.00
freq.    3221.46  E(vib)   ...       0.00
freq.    3228.18  E(vib)   ...       0.00

------------
INNER ENERGY
------------

The inner energy is: U= E(el) + E(ZPE) + E(vib) + E(rot) + E(trans)
    E(el)   - is the total energy from the electronic structure calculation
              = E(kin-el) + E(nuc-el) + E(el-el) + E(nuc-nuc)
    E(ZPE)  - the the zero temperature vibrational energy from the frequency calculation
    E(vib)  - the the finite temperature correction to E(ZPE) due to population
              of excited vibrational states
    E(rot)  - is the rotational thermal energy
    E(trans)- is the translational thermal energy

Summary of contributions to the inner energy U:
Electronic energy                ...   -517.86603421 Eh
Zero point energy                ...      0.21760988 Eh     136.55 kcal/mol
Thermal vibrational correction   ...      0.00687298 Eh       4.31 kcal/mol
Thermal rotational correction    ...      0.00141627 Eh       0.89 kcal/mol
Thermal translational correction ...      0.00141627 Eh       0.89 kcal/mol
-----------------------------------------------------------------------
Total thermal energy                   -517.63871881 Eh

Summary of corrections to the electronic energy:
(perhaps to be used in another calculation)
Total thermal correction                  0.00970552 Eh       6.09 kcal/mol
Non-thermal (ZPE) correction              0.21760988 Eh     136.55 kcal/mol
-----------------------------------------------------------------------
Total correction                          0.22731540 Eh     142.64 kcal/mol

--------
ENTHALPY
--------

The enthalpy is H = U + kB*T
                kB is Boltzmann's constant
Total thermal energy              ...   -517.63871881 Eh
Thermal Enthalpy correction       ...      0.00094421 Eh       0.59 kcal/mol
-----------------------------------------------------------------------
Total Enthalpy                    ...   -517.63777460 Eh

Note: Only C1 symmetry has been detected, increase convergence thresholds
      if your molecule has a higher symmetry. Symmetry factor of 1.0 is
      used for the rotational entropy correction.

Note: Rotational entropy computed according to Herzberg
Infrared and Raman Spectra, Chapter V,1, Van Nostrand Reinhold, 1945
Point Group:  C1, Symmetry Number:   1
Rotational constants in cm-1:     0.074060     0.019927     0.017479

Vibrational entropy computed according to the QRRHO of S. Grimme
Chem.Eur.J. 2012 18 9955 using a reference frequency of 100.0 cm-1

-------
ENTROPY
-------

The entropy contributions are T*S = T*(S(el)+S(vib)+S(rot)+S(trans))
     S(el)   - electronic entropy
     S(vib)  - vibrational entropy
     S(rot)  - rotational entropy
     S(trans)- translational entropy
The entropies will be listed as multiplied by the temperature to get
units of energy

Electronic entropy                ...      0.00000000 Eh      0.00 kcal/mol
Vibrational entropy               ...      0.01137169 Eh      7.14 kcal/mol
Rotational entropy                ...      0.01449859 Eh      9.10 kcal/mol

                             ****ORCA TERMINATED NORMALLY****
TOTAL RUN TIME: 0 days 0 hours 15 minutes 2 seconds 648 msec
