                         Program Version 6.0.0  -   RELEASE  -
|  1> !TPSSh aug-cc-pVTZ d3 TightSCF SlowConv RIJCOSX defgrid2
|  2>
|  3> %pal
|  4> nprocs 15
|  5> end
|  6>
|  7> %scf
|  8> MaxIter 1500
|  9> end
| 10>
| 11> %maxcore 3500
| 12>
| 13> !CPCM
| 14> %cpcm smd true
| 15> SMDsolvent "WATER"
| 16> surfacetype gepol_ses
| 17> rsolv 1.40
| 18> end
| 19>
| 20> * xyz -1 2
| 21> C           0.00000004903308      0.00000285676658     -0.07927677165041
| 22> C          -1.16509262301003     -0.35747694639887      0.71050337241250
| 23> C           1.16509408020432      0.35747595685912      0.71050209383188
| 24> H          -2.06362612463752     -0.63312787458135      0.14412716721423
| 25> H           2.06363121454948      0.63312802636862      0.14412668715351
| 26> C          -1.16509507944368     -0.35747268029138      2.08215495800193
| 27> C           1.16509160172280      0.35747686687021      2.08215370735606
| 28> H          -2.06363192155032     -0.63312031850306      2.64853168475760
| 29> H           2.06362610689310      0.63313254757272      2.64853030477196
| 30> C           0.00000131049034     -0.00000637822162      2.87193489848665
| 31> O           0.00000216772010     -0.00000733437022      4.12586654778909
| 32> O          -0.00000078197165     -0.00000472207076     -1.33320665012500
| 33> *
| 34>
| 35>                          ****END OF INPUT****

CARTESIAN COORDINATES (ANGSTROEM)
---------------------------------
  C      0.000000    0.000003   -0.079277
  C     -1.165093   -0.357477    0.710503
  C      1.165094    0.357476    0.710502
  H     -2.063626   -0.633128    0.144127
  H      2.063631    0.633128    0.144127
  C     -1.165095   -0.357473    2.082155
  C      1.165092    0.357477    2.082154
  H     -2.063632   -0.633120    2.648532
  H      2.063626    0.633133    2.648530
  C      0.000001   -0.000006    2.871935
  O      0.000002   -0.000007    4.125867
  O     -0.000001   -0.000005   -1.333207

 Total Charge           Charge          ....   -1
 Multiplicity           Mult            ....    2
 Number of Electrons    NEL             ....   57
 Basis Dimension        Dim             ....  460

ORBITAL ENERGIES
----------------
                 SPIN UP ORBITALS
  NO   OCC          E(Eh)            E(eV)
   0   1.0000     -19.019208      -517.5390
   1   1.0000     -19.019207      -517.5389
   2   1.0000     -10.165050      -276.6051
   3   1.0000     -10.165033      -276.6046
   4   1.0000     -10.109850      -275.1030
   5   1.0000     -10.109835      -275.1026
   6   1.0000     -10.109261      -275.0870
   7   1.0000     -10.109245      -275.0865
   8   1.0000      -0.988042       -26.8860
   9   1.0000      -0.986079       -26.8326
  10   1.0000      -0.800440       -21.7811
  11   1.0000      -0.721792       -19.6410
  12   1.0000      -0.665152       -18.0997
  13   1.0000      -0.583019       -15.8648
  14   1.0000      -0.546489       -14.8707
  15   1.0000      -0.457310       -12.4440
  16   1.0000      -0.449874       -12.2417
  17   1.0000      -0.431011       -11.7284
  18   1.0000      -0.397819       -10.8252
  19   1.0000      -0.391453       -10.6520
  20   1.0000      -0.390879       -10.6364
  21   1.0000      -0.368746       -10.0341
  22   1.0000      -0.362239        -9.8570
  23   1.0000      -0.338701        -9.2165
  24   1.0000      -0.275263        -7.4903
  25   1.0000      -0.250697        -6.8218
  26   1.0000      -0.233926        -6.3654
  27   1.0000      -0.227200        -6.1824
  28   1.0000      -0.159521        -4.3408
  29   0.0000      -0.022987        -0.6255
  30   0.0000       0.002053         0.0559
  31   0.0000       0.010027         0.2728
  32   0.0000       0.015875         0.4320
  33   0.0000       0.016515         0.4494

                 SPIN DOWN ORBITALS
  NO   OCC          E(Eh)            E(eV)
   0   1.0000     -19.012518      -517.3569
   1   1.0000     -19.012516      -517.3569
   2   1.0000     -10.163296      -276.5573
   3   1.0000     -10.163280      -276.5569
   4   1.0000     -10.108645      -275.0702
   5   1.0000     -10.108630      -275.0698
   6   1.0000     -10.108050      -275.0540
   7   1.0000     -10.108035      -275.0536
   8   1.0000      -0.977154       -26.5897
   9   1.0000      -0.975022       -26.5317
  10   1.0000      -0.794298       -21.6140
  11   1.0000      -0.718828       -19.5603
  12   1.0000      -0.654590       -17.8123
  13   1.0000      -0.578681       -15.7467
  14   1.0000      -0.542156       -14.7528
  15   1.0000      -0.453029       -12.3276
  16   1.0000      -0.448062       -12.1924
  17   1.0000      -0.426995       -11.6191
  18   1.0000      -0.390069       -10.6143
  19   1.0000      -0.386559       -10.5188
  20   1.0000      -0.376522       -10.2457
  21   1.0000      -0.359054        -9.7704
  22   1.0000      -0.340615        -9.2686
  23   1.0000      -0.336753        -9.1635
  24   1.0000      -0.247052        -6.7226
  25   1.0000      -0.241120        -6.5612
  26   1.0000      -0.229211        -6.2371
  27   1.0000      -0.222755        -6.0615
  28   0.0000      -0.107180        -2.9165
  29   0.0000      -0.007808        -0.2125
  30   0.0000       0.002689         0.0732
  31   0.0000       0.016539         0.4500
  32   0.0000       0.016595         0.4516

MULLIKEN ATOMIC CHARGES AND SPIN POPULATIONS
--------------------------------------------
   0 C :    1.034925    0.138978
   1 C :   -0.493560    0.066537
   2 C :   -0.493600    0.066506
   3 H :    0.343659   -0.001958
   4 H :    0.343404   -0.001993
   5 C :   -0.493263    0.066489
   6 C :   -0.493269    0.066426
   7 H :    0.343454   -0.001966
   8 H :    0.343333   -0.001921
   9 C :    1.034866    0.139035
  10 O :   -1.235062    0.231921
  11 O :   -1.234886    0.231946
Sum of atomic charges         :   -1.0000000

LOEWDIN ATOMIC CHARGES AND SPIN POPULATIONS
-------------------------------------------
   0 C :   -0.703839    0.126291
   1 C :    0.141803    0.074774
   2 C :    0.141804    0.074781
   3 H :   -0.195647    0.007375
   4 H :   -0.195641    0.007377
   5 C :    0.141805    0.074780
   6 C :    0.141802    0.074775
   7 H :   -0.195642    0.007377
   8 H :   -0.195646    0.007375
   9 C :   -0.703838    0.126292
  10 O :    0.311518    0.209401
  11 O :    0.311520    0.209401

  Mayer bond orders larger than 0.100000
B(  0-C ,  1-C ) :   1.1235 B(  0-C ,  2-C ) :   1.1236 B(  0-C ,  9-C ) :   0.1554
B(  0-C , 11-O ) :   0.1159 B(  1-C ,  2-C ) :   0.3564 B(  1-C ,  3-H ) :   0.4966
B(  1-C ,  5-C ) :   1.5981 B(  1-C ,  6-C ) :  -0.1054 B(  1-C , 11-O ) :   0.2112
B(  2-C ,  4-H ) :   0.4966 B(  2-C ,  5-C ) :  -0.1058 B(  2-C ,  6-C ) :   1.5984
B(  2-C , 11-O ) :   0.2122 B(  5-C ,  6-C ) :   0.3560 B(  5-C ,  7-H ) :   0.4968
B(  5-C ,  9-C ) :   1.1232 B(  5-C , 10-O ) :   0.2117 B(  6-C ,  8-H ) :   0.4969
B(  6-C ,  9-C ) :   1.1240 B(  6-C , 10-O ) :   0.2116 B(  9-C , 10-O ) :   0.1154

Dispersion correction           -0.013883545
FINAL SINGLE POINT ENERGY      -381.784233434735

DIPOLE MOMENT
-------------

Method             : SCF
Type of density    : Electron Density
Multiplicity       :   2
Irrep              :   0
Energy             :  -381.7703498900173145 Eh
Relativity type    :
Basis              : AO
                                X                 Y                 Z
Electronic contribution:     -0.000002130      -0.000006319      -0.000010227
Nuclear contribution   :     -0.000001132       0.000017886      -0.000000443
                        -----------------------------------------
Total Dipole Moment    :     -0.000003262       0.000011567      -0.000010670
                        -----------------------------------------
Magnitude (a.u.)       :      0.000016071
Magnitude (Debye)      :      0.000040850

Rotational constants in cm-1:             0.187010             0.052742             0.041140
Rotational constants in MHz :          5606.406459          1581.174709          1233.336765

                             ****ORCA TERMINATED NORMALLY****
TOTAL RUN TIME: 0 days 0 hours 2 minutes 54 seconds 867 msec
