                         Program Version 6.0.0  -   RELEASE  -
|  1> !PBE0 def2-SV(p) Opt Freq d3 TightSCF SlowConv RIJCOSX defgrid2
|  2>
|  3> %pal
|  4> nprocs 4
|  5> end
|  6>
|  7> %scf
|  8> MaxIter 1500
|  9> end
| 10>
| 11> %maxcore 3000
| 12>
| 13>
| 14>
| 15> * xyz 0 1
| 16> C    -0.4981463    1.1971059    0.0233892
| 17> C    -1.8781548    1.1903964   -0.0151073
| 18> C    -2.5852011    0.0000463   -0.0339032
| 19> C    -1.8782087   -1.1903331   -0.0142188
| 20> C    -0.4982075   -1.1970870    0.0239234
| 21> C     0.2341363    0.0000066    0.0486060
| 22> N     1.6068859   -0.0000834    0.1265276
| 23> C     2.3331961    1.2346463   -0.0651597
| 24> H     3.3992573    1.0410497    0.0233510
| 25> H     2.1406934    1.6792366   -1.0489648
| 26> H     2.0591225    1.9577258    0.7054373
| 27> C     2.3330270   -1.2347094   -0.0664686
| 28> H     3.3991953   -1.0410977    0.0206178
| 29> H     2.0600346   -1.9580994    0.7042408
| 30> H     2.1392089   -1.6789677   -1.0501582
| 31> H     0.0076650   -2.1484406    0.0324666
| 32> H    -2.4091648   -2.1325053   -0.0330842
| 33> H    -3.6648083    0.0000682   -0.0673767
| 34> H    -2.4090463    2.1325741   -0.0353260
| 35> H     0.0077563    2.1484475    0.0315721
| 36> *
| 37>
| 38>                          ****END OF INPUT****
 Total Charge           Charge          ....    0
 Multiplicity           Mult            ....    1
 Number of Electrons    NEL             ....   66
Dispersion correction           -0.017705565
FINAL SINGLE POINT ENERGY      -365.507475903159
Dispersion correction             ... done (  0.1 sec)
Dispersion correction           -0.017637006
FINAL SINGLE POINT ENERGY      -365.509535267103
Dispersion correction             ... done (  0.1 sec)
Dispersion correction           -0.017627313
FINAL SINGLE POINT ENERGY      -365.509644373007
Dispersion correction             ... done (  0.1 sec)
FINAL SINGLE POINT ENERGY      -365.509702349799
FINAL SINGLE POINT ENERGY      -365.509722391700
FINAL SINGLE POINT ENERGY      -365.509747795412
FINAL SINGLE POINT ENERGY      -365.509770958981
FINAL SINGLE POINT ENERGY      -365.509796303788
FINAL SINGLE POINT ENERGY      -365.509815679370
FINAL SINGLE POINT ENERGY      -365.509826033738
FINAL SINGLE POINT ENERGY      -365.509830000865
Dispersion correction             ... done (  0.1 sec)
Dispersion correction           -0.017608692
FINAL SINGLE POINT ENERGY      -365.509831076476
Dispersion correction             ... done (  0.1 sec)
Dispersion correction           -0.017608987
FINAL SINGLE POINT ENERGY      -365.509831065138
Dispersion correction             ... done (  0.1 sec)
                    ***********************HURRAY********************

CARTESIAN COORDINATES (ANGSTROEM)
---------------------------------
  C     -0.495923    1.206890   -0.031301
  C     -1.886855    1.196998   -0.023145
  C     -2.601260    0.000062   -0.019176
  C     -1.886911   -1.196905   -0.023427
  C     -0.495979   -1.206861   -0.031592
  C      0.238686   -0.000002   -0.036095
  N      1.616262   -0.000031   -0.044691
  C      2.331840    1.245975   -0.044867
  H      3.413387    1.045764   -0.053233
  H      2.097533    1.862857   -0.935411
  H      2.109880    1.856970    0.853037
  C      2.331793   -1.246063   -0.044534
  H      3.413353   -1.045892   -0.052179
  H      2.109242   -1.857070    0.853207
  H      2.098025   -1.862922   -0.935246
  H      0.020882   -2.167574   -0.034493
  H     -2.420691   -2.152711   -0.020206
  H     -3.694414    0.000086   -0.012690
  H     -2.420590    2.152828   -0.019681
  H      0.020981    2.167580   -0.033913

 Multiplicity           Mult            ....    1
 Number of Electrons    NEL             ....   66
 Basis Dimension        Dim             ....  148

ORBITAL ENERGIES
----------------

  NO   OCC          E(Eh)            E(eV)
   0   2.0000     -14.410818      -392.1383
   1   2.0000     -10.269493      -279.4471
   2   2.0000     -10.260243      -279.1954
   3   2.0000     -10.260174      -279.1935
   4   2.0000     -10.225266      -278.2436
   5   2.0000     -10.225251      -278.2432
   6   2.0000     -10.220102      -278.1031
   7   2.0000     -10.220102      -278.1031
   8   2.0000     -10.214515      -277.9511
   9   2.0000      -0.972130       -26.4530
  10   2.0000      -0.854510       -23.2524
  11   2.0000      -0.760174       -20.6854
  12   2.0000      -0.756937       -20.5973
  13   2.0000      -0.733959       -19.9720
  14   2.0000      -0.670604       -18.2481
  15   2.0000      -0.607023       -16.5179
  16   2.0000      -0.583765       -15.8851
  17   2.0000      -0.544269       -14.8103
  18   2.0000      -0.497035       -13.5250
  19   2.0000      -0.484104       -13.1731
  20   2.0000      -0.481551       -13.1037
  21   2.0000      -0.453957       -12.3528
  22   2.0000      -0.432596       -11.7715
  23   2.0000      -0.427594       -11.6354
  24   2.0000      -0.419537       -11.4162
  25   2.0000      -0.408153       -11.1064
  26   2.0000      -0.392151       -10.6710
  27   2.0000      -0.375060       -10.2059
  28   2.0000      -0.362415        -9.8618
  29   2.0000      -0.340997        -9.2790
  30   2.0000      -0.295484        -8.0405
  31   2.0000      -0.255425        -6.9505
  32   2.0000      -0.199233        -5.4214
  33   0.0000       0.008453         0.2300
  34   0.0000       0.024234         0.6594
  35   0.0000       0.065198         1.7741
  36   0.0000       0.088991         2.4216
  37   0.0000       0.097820         2.6618

MULLIKEN ATOMIC CHARGES
-----------------------
   0 C :   -0.203655
   1 C :   -0.091330
   2 C :   -0.100917
   3 C :   -0.091329
   4 C :   -0.203657
   5 C :    0.262529
   6 N :   -0.357791
   7 C :   -0.214791
   8 H :    0.134798
   9 H :    0.133441
  10 H :    0.133099
  11 C :   -0.214792
  12 H :    0.134798
  13 H :    0.133110
  14 H :    0.133430
  15 H :    0.075487
  16 H :    0.088466
  17 H :    0.085151
  18 H :    0.088466
  19 H :    0.075488
Sum of atomic charges:    0.0000000

LOEWDIN ATOMIC CHARGES
----------------------
   0 C :   -0.178105
   1 C :   -0.117965
   2 C :   -0.168791
   3 C :   -0.117965
   4 C :   -0.178105
   5 C :    0.021088
   6 N :   -0.097415
   7 C :   -0.248214
   8 H :    0.122570
   9 H :    0.114468
  10 H :    0.114237
  11 C :   -0.248215
  12 H :    0.122570
  13 H :    0.114250
  14 H :    0.114455
  15 H :    0.127538
  16 H :    0.125759
  17 H :    0.124543
  18 H :    0.125759
  19 H :    0.127538

  Mayer bond orders larger than 0.100000
B(  0-C ,  1-C ) :   1.4131 B(  0-C ,  5-C ) :   1.3193 B(  0-C , 19-H ) :   0.9559
B(  1-C ,  2-C ) :   1.3810 B(  1-C , 18-H ) :   0.9605 B(  2-C ,  3-C ) :   1.3810
B(  2-C , 17-H ) :   0.9676 B(  3-C ,  4-C ) :   1.4131 B(  3-C , 16-H ) :   0.9605
B(  4-C ,  5-C ) :   1.3193 B(  4-C , 15-H ) :   0.9559 B(  5-C ,  6-N ) :   1.1242
B(  6-N ,  7-C ) :   1.0200 B(  6-N , 11-C ) :   1.0200 B(  7-C ,  8-H ) :   0.9503
B(  7-C ,  9-H ) :   0.9397 B(  7-C , 10-H ) :   0.9397 B( 11-C , 12-H ) :   0.9503
B( 11-C , 13-H ) :   0.9397 B( 11-C , 14-H ) :   0.9397

Dispersion correction           -0.017608617
FINAL SINGLE POINT ENERGY      -365.509831158236

DIPOLE MOMENT
-------------

Method             : SCF
Type of density    : Electron Density
Multiplicity       :   1
Irrep              :   0
Energy             :  -365.4922225412402668 Eh
Relativity type    :
Basis              : AO
                                X                 Y                 Z
Electronic contribution:     -5.515881277       0.000113811       0.016890714
Nuclear contribution   :      6.353119330      -0.000129568      -0.019904796
                        -----------------------------------------
Total Dipole Moment    :      0.837238053      -0.000015757      -0.003014082
                        -----------------------------------------
Magnitude (a.u.)       :      0.837243478
Magnitude (Debye)      :      2.128103799

VIBRATIONAL FREQUENCIES
-----------------------

Scaling factor for frequencies =  1.000000000  (already applied!)

     0:       0.00 cm**-1
     1:       0.00 cm**-1
     2:       0.00 cm**-1
     3:       0.00 cm**-1
     4:       0.00 cm**-1
     5:       0.00 cm**-1
     6:      39.11 cm**-1
     7:      72.47 cm**-1
     8:     153.53 cm**-1
     9:     229.58 cm**-1
    10:     257.57 cm**-1
    11:     291.25 cm**-1
    12:     395.96 cm**-1
    13:     434.32 cm**-1
    14:     481.49 cm**-1
    15:     533.73 cm**-1
    16:     560.91 cm**-1
    17:     630.06 cm**-1
    18:     716.66 cm**-1
    19:     771.50 cm**-1
    20:     782.20 cm**-1
    21:     825.66 cm**-1
    22:     891.64 cm**-1
    23:     979.13 cm**-1
    24:     996.14 cm**-1
    25:    1004.22 cm**-1
    26:    1005.15 cm**-1
    27:    1072.63 cm**-1
    28:    1091.81 cm**-1
    29:    1125.45 cm**-1
    30:    1145.26 cm**-1
    31:    1153.50 cm**-1
    32:    1173.81 cm**-1
    33:    1199.85 cm**-1
    34:    1216.50 cm**-1
    35:    1318.01 cm**-1
    36:    1380.22 cm**-1
    37:    1414.50 cm**-1
    38:    1418.99 cm**-1
    39:    1441.76 cm**-1
    40:    1464.23 cm**-1
    41:    1472.66 cm**-1
    42:    1485.66 cm**-1
    43:    1498.54 cm**-1
    44:    1523.58 cm**-1
    45:    1525.95 cm**-1
    46:    1575.25 cm**-1
    47:    1659.03 cm**-1
    48:    1704.21 cm**-1
    49:    2989.44 cm**-1
    50:    2999.61 cm**-1
    51:    3055.02 cm**-1
    52:    3056.40 cm**-1
    53:    3150.35 cm**-1
    54:    3160.52 cm**-1
    55:    3189.64 cm**-1
    56:    3196.70 cm**-1
    57:    3218.74 cm**-1
    58:    3233.57 cm**-1
    59:    3234.91 cm**-1

IR SPECTRUM
-----------

 Mode   freq       eps      Int      T**2         TX        TY        TZ
       cm**-1   L/(mol*cm) km/mol    a.u.
----------------------------------------------------------------------------
  6:     39.11   0.000410    2.07  0.003268  (-0.001505  0.000010  0.057142)
  7:     72.47   0.000000    0.00  0.000000  ( 0.000014 -0.000002 -0.000004)
  8:    153.53   0.000217    1.10  0.000441  (-0.000261  0.000004 -0.020995)
  9:    229.58   0.000000    0.00  0.000000  ( 0.000011  0.000015  0.000001)
 10:    257.57   0.000022    0.11  0.000026  (-0.000000  0.005123  0.000033)
 11:    291.25   0.000300    1.51  0.000321  ( 0.000263  0.000010 -0.017914)
 12:    395.96   0.000003    0.01  0.000002  (-0.001443 -0.000000 -0.000145)
 13:    434.32   0.000000    0.00  0.000000  (-0.000009 -0.000136  0.000000)
 14:    481.49   0.001026    5.18  0.000665  (-0.000001 -0.025783 -0.000008)
 15:    533.73   0.001962    9.91  0.001147  (-0.000376  0.000017 -0.033867)
 16:    560.91   0.000010    0.05  0.000005  (-0.002336 -0.000001  0.000168)
 17:    630.06   0.000010    0.05  0.000005  (-0.000000  0.002262  0.000005)
 18:    716.66   0.007480   37.80  0.003257  ( 0.000305 -0.000010  0.057071)
 19:    771.50   0.000213    1.08  0.000086  (-0.009278  0.000000  0.000124)
 20:    782.20   0.007163   36.20  0.002858  (-0.000160  0.000001 -0.053456)
 21:    825.66   0.000000    0.00  0.000000  (-0.000001  0.000035  0.000000)
 22:    891.64   0.001628    8.23  0.000570  ( 0.000049 -0.000006  0.023868)
 23:    979.13   0.000000    0.00  0.000000  (-0.000003 -0.000017 -0.000001)
 24:    996.14   0.001097    5.54  0.000344  ( 0.018539 -0.000000  0.000072)
 25:   1004.22   0.000060    0.30  0.000019  (-0.000140  0.000003 -0.004310)
 26:   1005.15   0.001979   10.00  0.000614  ( 0.024787 -0.000001 -0.000038)
 27:   1072.63   0.001774    8.96  0.000516  (-0.022716  0.000001  0.000122)
 28:   1091.81   0.004776   24.14  0.001365  ( 0.000001  0.036948 -0.000004)
 29:   1125.45   0.000044    0.22  0.000012  (-0.000000 -0.003509 -0.000005)
 30:   1145.26   0.000005    0.02  0.000001  ( 0.000687  0.000016  0.000870)
 31:   1153.50   0.000000    0.00  0.000000  ( 0.000027  0.000078 -0.000000)
 32:   1173.81   0.000230    1.16  0.000061  (-0.000001 -0.007827 -0.000002)
 33:   1199.85   0.000185    0.94  0.000048  ( 0.006938  0.000001 -0.000043)
 34:   1216.50   0.002250   11.37  0.000577  ( 0.024024 -0.000001 -0.000103)
 35:   1318.01   0.007599   38.40  0.001799  ( 0.000001  0.042417  0.000003)
 36:   1380.22   0.005730   28.96  0.001296  (-0.000000  0.035994 -0.000001)
 37:   1414.50   0.019520   98.65  0.004306  ( 0.065623 -0.000001 -0.000299)
 38:   1418.99   0.000012    0.06  0.000003  ( 0.000006  0.001592  0.000005)
 39:   1441.76   0.000490    2.48  0.000106  ( 0.000000  0.010299  0.000019)
 40:   1464.23   0.000000    0.00  0.000000  ( 0.000007 -0.000292 -0.000003)
 41:   1472.66   0.002871   14.51  0.000608  (-0.000035 -0.000022  0.024664)
 42:   1485.66   0.001012    5.11  0.000213  ( 0.014578 -0.000000 -0.000193)
 43:   1498.54   0.000726    3.67  0.000151  ( 0.000002  0.012293  0.000003)
 44:   1523.58   0.013696   69.22  0.002805  (-0.052964  0.000002  0.000306)
 45:   1525.95   0.000017    0.09  0.000003  (-0.000000 -0.001859 -0.000004)
 46:   1575.25   0.041915  211.82  0.008303  (-0.091122  0.000002  0.000438)
 47:   1659.03   0.002513   12.70  0.000473  (-0.000004 -0.021741 -0.000005)
 48:   1704.21   0.032882  166.17  0.006021  ( 0.077595 -0.000002 -0.000410)
 49:   2989.44   0.019975  100.94  0.002085  (-0.000004  0.045663  0.000028)
 50:   2999.61   0.009685   48.94  0.001008  (-0.031738 -0.000007 -0.000504)
 51:   3055.02   0.000002    0.01  0.000000  (-0.000010 -0.000438 -0.000140)
 52:   3056.40   0.014183   71.68  0.001448  ( 0.000076  0.000018 -0.038054)
 53:   3150.35   0.000357    1.80  0.000035  (-0.000008  0.005947  0.000003)
 54:   3160.52   0.004864   24.58  0.000480  ( 0.021915  0.000001 -0.000139)
 55:   3189.64   0.000809    4.09  0.000079  ( 0.008896 -0.000000 -0.000050)
 56:   3196.70   0.002419   12.23  0.000236  ( 0.000000  0.015368  0.000002)
 57:   3218.74   0.003839   19.40  0.000372  ( 0.019292  0.000000 -0.000108)
 58:   3233.57   0.002412   12.19  0.000233  (-0.000004  0.015257  0.000001)
 59:   3234.91   0.000330    1.67  0.000032  (-0.005642 -0.000011  0.000037)

--------------------------
THERMOCHEMISTRY AT 298.15K
--------------------------

Temperature         ...   298.15 K
Pressure            ...     1.00 atm
Total Mass          ...   121.18 AMU
Quasi RRHO          ...     True
Cut-Off Frequency   ...     1.00 cm^-1

Throughout the following assumptions are being made:
  (1) The electronic state is orbitally nondegenerate
  (2) There are no thermally accessible electronically excited states
  (3) Hindered rotations indicated by low frequency modes are not
      treated as such but are treated as vibrations and this may
      cause some error
  (4) All equations used are the standard statistical mechanics
      equations for an ideal gas
  (5) All vibrations are strictly harmonic

freq.      39.11  E(vib)   ...       0.54
freq.      72.47  E(vib)   ...       0.49
freq.     153.53  E(vib)   ...       0.40
freq.     229.58  E(vib)   ...       0.32
freq.     257.57  E(vib)   ...       0.30
freq.     291.25  E(vib)   ...       0.27
freq.     395.96  E(vib)   ...       0.20
freq.     434.32  E(vib)   ...       0.17
freq.     481.49  E(vib)   ...       0.15
freq.     533.73  E(vib)   ...       0.13
freq.     560.91  E(vib)   ...       0.11
freq.     630.06  E(vib)   ...       0.09
freq.     716.66  E(vib)   ...       0.07
freq.     771.50  E(vib)   ...       0.05
freq.     782.20  E(vib)   ...       0.05
freq.     825.66  E(vib)   ...       0.04
freq.     891.64  E(vib)   ...       0.03
freq.     979.13  E(vib)   ...       0.03
freq.     996.14  E(vib)   ...       0.02
freq.    1004.22  E(vib)   ...       0.02
freq.    1005.15  E(vib)   ...       0.02
freq.    1072.63  E(vib)   ...       0.02
freq.    1091.81  E(vib)   ...       0.02
freq.    1125.45  E(vib)   ...       0.01
freq.    1145.26  E(vib)   ...       0.01
freq.    1153.50  E(vib)   ...       0.01
freq.    1173.81  E(vib)   ...       0.01
freq.    1199.85  E(vib)   ...       0.01
freq.    1216.50  E(vib)   ...       0.01
freq.    1318.01  E(vib)   ...       0.01
freq.    1380.22  E(vib)   ...       0.01
freq.    1414.50  E(vib)   ...       0.00
freq.    1418.99  E(vib)   ...       0.00
freq.    1441.76  E(vib)   ...       0.00
freq.    1464.23  E(vib)   ...       0.00
freq.    1472.66  E(vib)   ...       0.00
freq.    1485.66  E(vib)   ...       0.00
freq.    1498.54  E(vib)   ...       0.00
freq.    1523.58  E(vib)   ...       0.00
freq.    1525.95  E(vib)   ...       0.00
freq.    1575.25  E(vib)   ...       0.00
freq.    1659.03  E(vib)   ...       0.00
freq.    1704.21  E(vib)   ...       0.00
freq.    2989.44  E(vib)   ...       0.00
freq.    2999.61  E(vib)   ...       0.00
freq.    3055.02  E(vib)   ...       0.00
freq.    3056.40  E(vib)   ...       0.00
freq.    3150.35  E(vib)   ...       0.00
freq.    3160.52  E(vib)   ...       0.00
freq.    3189.64  E(vib)   ...       0.00
freq.    3196.70  E(vib)   ...       0.00
freq.    3218.74  E(vib)   ...       0.00
freq.    3233.57  E(vib)   ...       0.00
freq.    3234.91  E(vib)   ...       0.00

------------
INNER ENERGY
------------

The inner energy is: U= E(el) + E(ZPE) + E(vib) + E(rot) + E(trans)
    E(el)   - is the total energy from the electronic structure calculation
              = E(kin-el) + E(nuc-el) + E(el-el) + E(nuc-nuc)
    E(ZPE)  - the the zero temperature vibrational energy from the frequency calculation
    E(vib)  - the the finite temperature correction to E(ZPE) due to population
              of excited vibrational states
    E(rot)  - is the rotational thermal energy
    E(trans)- is the translational thermal energy

Summary of contributions to the inner energy U:
Electronic energy                ...   -365.50983116 Eh
Zero point energy                ...      0.17450437 Eh     109.50 kcal/mol
Thermal vibrational correction   ...      0.00586207 Eh       3.68 kcal/mol
Thermal rotational correction    ...      0.00141627 Eh       0.89 kcal/mol
Thermal translational correction ...      0.00141627 Eh       0.89 kcal/mol
-----------------------------------------------------------------------
Total thermal energy                   -365.32663218 Eh

Summary of corrections to the electronic energy:
(perhaps to be used in another calculation)
Total thermal correction                  0.00869461 Eh       5.46 kcal/mol
Non-thermal (ZPE) correction              0.17450437 Eh     109.50 kcal/mol
-----------------------------------------------------------------------
Total correction                          0.18319898 Eh     114.96 kcal/mol

--------
ENTHALPY
--------

The enthalpy is H = U + kB*T
                kB is Boltzmann's constant
Total thermal energy              ...   -365.32663218 Eh
Thermal Enthalpy correction       ...      0.00094421 Eh       0.59 kcal/mol
-----------------------------------------------------------------------
Total Enthalpy                    ...   -365.32568797 Eh

Note: Only C1 symmetry has been detected, increase convergence thresholds
      if your molecule has a higher symmetry. Symmetry factor of 1.0 is
      used for the rotational entropy correction.

Note: Rotational entropy computed according to Herzberg
Infrared and Raman Spectra, Chapter V,1, Van Nostrand Reinhold, 1945
Point Group:  C1, Symmetry Number:   1
Rotational constants in cm-1:     0.116345     0.041042     0.030696

Vibrational entropy computed according to the QRRHO of S. Grimme
Chem.Eur.J. 2012 18 9955 using a reference frequency of 100.0 cm-1

-------
ENTROPY
-------

The entropy contributions are T*S = T*(S(el)+S(vib)+S(rot)+S(trans))
     S(el)   - electronic entropy
     S(vib)  - vibrational entropy
     S(rot)  - rotational entropy
     S(trans)- translational entropy
The entropies will be listed as multiplied by the temperature to get
units of energy

Electronic entropy                ...      0.00000000 Eh      0.00 kcal/mol
Vibrational entropy               ...      0.00994326 Eh      6.24 kcal/mol
Rotational entropy                ...      0.01367841 Eh      8.58 kcal/mol
Translational entropy             ...      0.01914335 Eh     12.01 kcal/mol
-----------------------------------------------------------------------
Final entropy term                ...      0.04276503 Eh     26.84 kcal/mol

In case the symmetry of your molecule has not been determined correctly
or in case you have a reason to use a different symmetry number we print
out the resulting rotational entropy values for sn=1,12:

 non-linear molecules -----------------------------------
|  sn= 1 | S(rot)=       0.01367841 Eh      8.58 kcal/mol|
|  sn= 2 | S(rot)=       0.01302396 Eh      8.17 kcal/mol|
|  sn= 3 | S(rot)=       0.01264113 Eh      7.93 kcal/mol|
|  sn= 4 | S(rot)=       0.01236950 Eh      7.76 kcal/mol|
|  sn= 5 | S(rot)=       0.01215881 Eh      7.63 kcal/mol|
|  sn= 6 | S(rot)=       0.01198667 Eh      7.52 kcal/mol|

                             ****ORCA TERMINATED NORMALLY****
TOTAL RUN TIME: 0 days 0 hours 12 minutes 56 seconds 381 msec
