                         Program Version 6.0.0  -   RELEASE  -
|  1> !r2SCANh aug-cc-pVTZ d3 TightSCF SlowConv RIJCOSX defgrid2
|  2>
|  3> %pal
|  4> nprocs 15
|  5> end
|  6>
|  7> %scf
|  8> MaxIter 1500
|  9> end
| 10>
| 11> %maxcore 3500
| 12>
| 13> !CPCM
| 14> %cpcm smd true
| 15> SMDsolvent "WATER"
| 16> surfacetype gepol_ses
| 17> rsolv 1.40
| 18> end
| 19>
| 20> * xyz 0 1
| 21> C          -0.00000020978988      0.00000073694249     -0.05069100410522
| 22> C          -1.20906788297771     -0.37099775736022      0.72498240348112
| 23> C           1.20906839531154      0.37099639744085      0.72498233629225
| 24> H          -2.08965714718270     -0.64109787483542      0.13413739306601
| 25> H           2.08965862753959      0.64109516807399      0.13413744999163
| 26> C          -1.20906829311347     -0.37099671339690      2.06767561532039
| 27> C           1.20906814538816      0.37099731197670      2.06767588420582
| 28> H          -2.08965863090342     -0.64109537543156      2.65852032753444
| 29> H           2.08965866999056      0.64109660483906      2.65852006555801
| 30> C          -0.00000017070001      0.00000032151215      2.84334909378969
| 31> O          -0.00000037912842     -0.00000048181393      4.05737768473263
| 32> O          -0.00000112443423      0.00000166205280     -1.26471924986679
| 33> *
| 34>
| 35>                          ****END OF INPUT****

CARTESIAN COORDINATES (ANGSTROEM)
---------------------------------
  C     -0.000000    0.000001   -0.050691
  C     -1.209068   -0.370998    0.724982
  C      1.209068    0.370996    0.724982
  H     -2.089657   -0.641098    0.134137
  H      2.089659    0.641095    0.134137
  C     -1.209068   -0.370997    2.067676
  C      1.209068    0.370997    2.067676
  H     -2.089659   -0.641095    2.658520
  H      2.089659    0.641097    2.658520
  C     -0.000000    0.000000    2.843349
  O     -0.000000   -0.000000    4.057378
  O     -0.000001    0.000002   -1.264719

 Total Charge           Charge          ....    0
 Multiplicity           Mult            ....    1
 Number of Electrons    NEL             ....   56
 Basis Dimension        Dim             ....  460

ORBITAL ENERGIES
----------------

  NO   OCC          E(Eh)            E(eV)
   0   2.0000     -19.137264      -520.7514
   1   2.0000     -19.137260      -520.7513
   2   2.0000     -10.270195      -279.4662
   3   2.0000     -10.270178      -279.4657
   4   2.0000     -10.192815      -277.3606
   5   2.0000     -10.192799      -277.3602
   6   2.0000     -10.192021      -277.3390
   7   2.0000     -10.192007      -277.3386
   8   2.0000      -1.078043       -29.3350
   9   2.0000      -1.076415       -29.2907
  10   2.0000      -0.856073       -23.2949
  11   2.0000      -0.783575       -21.3222
  12   2.0000      -0.704095       -19.1594
  13   2.0000      -0.630429       -17.1548
  14   2.0000      -0.594908       -16.1883
  15   2.0000      -0.506260       -13.7760
  16   2.0000      -0.502747       -13.6805
  17   2.0000      -0.479066       -13.0360
  18   2.0000      -0.441904       -12.0248
  19   2.0000      -0.440139       -11.9768
  20   2.0000      -0.433605       -11.7990
  21   2.0000      -0.415370       -11.3028
  22   2.0000      -0.414331       -11.2745
  23   2.0000      -0.386787       -10.5250
  24   2.0000      -0.307457        -8.3663
  25   2.0000      -0.291252        -7.9254
  26   2.0000      -0.280028        -7.6199
  27   2.0000      -0.266248        -7.2450
  28   0.0000      -0.148507        -4.0411
  29   0.0000      -0.038230        -1.0403
  30   0.0000      -0.008109        -0.2207
  31   0.0000       0.014658         0.3989
  32   0.0000       0.027662         0.7527

MULLIKEN ATOMIC CHARGES
-----------------------
   0 C :    1.156283
   1 C :   -0.533829
   2 C :   -0.533946
   3 H :    0.452637
   4 H :    0.452570
   5 C :   -0.533927
   6 C :   -0.534122
   7 H :    0.452730
   8 H :    0.452588
   9 C :    1.156107
  10 O :   -0.993576
  11 O :   -0.993514
Sum of atomic charges:    0.0000000

LOEWDIN ATOMIC CHARGES
----------------------
   0 C :   -0.577633
   1 C :    0.225767
   2 C :    0.225774
   3 H :   -0.165593
   4 H :   -0.165585
   5 C :    0.225774
   6 C :    0.225767
   7 H :   -0.165585
   8 H :   -0.165593
   9 C :   -0.577632
  10 O :    0.457269
  11 O :    0.457270

  Mayer bond orders larger than 0.100000
B(  0-C ,  1-C ) :   0.8665 B(  0-C ,  2-C ) :   0.8666 B(  0-C ,  9-C ) :   0.1194
B(  0-C , 11-O ) :   0.7380 B(  1-C ,  2-C ) :   0.3635 B(  1-C ,  3-H ) :   0.5128
B(  1-C ,  5-C ) :   1.7301 B(  1-C ,  6-C ) :  -0.1806 B(  1-C , 11-O ) :   0.1346
B(  2-C ,  4-H ) :   0.5129 B(  2-C ,  5-C ) :  -0.1807 B(  2-C ,  6-C ) :   1.7303
B(  2-C , 11-O ) :   0.1348 B(  5-C ,  6-C ) :   0.3637 B(  5-C ,  7-H ) :   0.5127
B(  5-C ,  9-C ) :   0.8667 B(  5-C , 10-O ) :   0.1346 B(  6-C ,  8-H ) :   0.5128
B(  6-C ,  9-C ) :   0.8667 B(  6-C , 10-O ) :   0.1348 B(  9-C , 10-O ) :   0.7382

Dispersion correction           -0.003523695
FINAL SINGLE POINT ENERGY      -381.379119920576

DIPOLE MOMENT
-------------

Method             : SCF
Type of density    : Electron Density
Multiplicity       :   1
Irrep              :   0
Energy             :  -381.3755962252812424 Eh
Relativity type    :
Basis              : AO
                                X                 Y                 Z
Electronic contribution:     -0.000000821       0.000001458      -0.000000691
Nuclear contribution   :      0.000002198      -0.000002102      -0.000001065
                        -----------------------------------------
Total Dipole Moment    :      0.000001377      -0.000000644      -0.000001756
                        -----------------------------------------
Magnitude (a.u.)       :      0.000002323
Magnitude (Debye)      :      0.000005905

Rotational constants in cm-1:             0.175401             0.055278             0.042032
Rotational constants in MHz :          5258.386443          1657.201068          1260.081464

                             ****ORCA TERMINATED NORMALLY****
TOTAL RUN TIME: 0 days 0 hours 2 minutes 15 seconds 104 msec
