                         Program Version 6.0.0  -   RELEASE  -
|  1> !TPSSh aug-cc-pVTZ d3 TightSCF SlowConv RIJCOSX defgrid2
|  2>
|  3> %pal
|  4> nprocs 15
|  5> end
|  6>
|  7> %scf
|  8> MaxIter 1500
|  9> end
| 10>
| 11> %maxcore 3500
| 12>
| 13> !CPCM
| 14> %cpcm smd true
| 15> SMDsolvent "WATER"
| 16> surfacetype gepol_ses
| 17> rsolv 1.40
| 18> end
| 19>
| 20> * xyz 0 1
| 21> C          -0.05907366598530     -0.02793506437793     -0.04390048443000
| 22> C          -0.02890735437417      1.45710089193008      0.08222581496885
| 23> C           0.02781409212755      2.06300295185481      1.29625580282132
| 24> C           0.05780784816423      1.27059537024470      2.55865678848172
| 25> C           0.02728706606325     -0.21148353395784      2.45495612270071
| 26> C          -0.02843189949116     -0.83640031526210      1.20261036404921
| 27> C          -0.05547047371799     -2.22955810695340      1.11889579291072
| 28> C          -0.02722158045044     -2.99492416088675      2.28117734907788
| 29> C           0.02796540531077     -2.37140543755571      3.53091392418760
| 30> C           0.05520008600593     -0.98250737910286      3.61837358653962
| 31> H           0.09847557758253     -0.46770840832251      4.58128936060527
| 32> H           0.04990261703070     -2.97596484746596      4.44240334694328
| 33> H          -0.04820318575023     -4.08675470796317      2.21598714046560
| 34> H          -0.09870498752579     -2.68915740048288      0.12846959179026
| 35> C           0.06194462166156      3.55006381235348      1.44143215923311
| 36> H          -0.84116618668105      4.01208400301480      1.00272169259353
| 37> H           0.12018684562378      3.82673225712869      2.50411119237925
| 38> H           0.93021072875079      3.98022200468594      0.91048633813469
| 39> C          -0.06163879144342      2.23535286557775     -1.19335579257479
| 40> H           0.84200005659416      2.86322691783085     -1.29721049713274
| 41> H          -0.11947303398066      1.55280359233205     -2.05354858361608
| 42> H          -0.92952293856559      2.91875817267932     -1.21877475276670
| 43> O           0.10605373554418      1.82136872263288      3.64196829309901
| 44> O          -0.10703458249363     -0.56180561393426     -1.13565794046132
| 45> *
| 46>
| 47>                          ****END OF INPUT****

CARTESIAN COORDINATES (ANGSTROEM)
---------------------------------
  C     -0.059074   -0.027935   -0.043900
  C     -0.028907    1.457101    0.082226
  C      0.027814    2.063003    1.296256
  C      0.057808    1.270595    2.558657
  C      0.027287   -0.211484    2.454956
  C     -0.028432   -0.836400    1.202610
  C     -0.055470   -2.229558    1.118896
  C     -0.027222   -2.994924    2.281177
  C      0.027965   -2.371405    3.530914
  C      0.055200   -0.982507    3.618374
  H      0.098476   -0.467708    4.581289
  H      0.049903   -2.975965    4.442403
  H     -0.048203   -4.086755    2.215987
  H     -0.098705   -2.689157    0.128470
  C      0.061945    3.550064    1.441432
  H     -0.841166    4.012084    1.002722
  H      0.120187    3.826732    2.504111
  H      0.930211    3.980222    0.910486
  C     -0.061639    2.235353   -1.193356
  H      0.842000    2.863227   -1.297210
  H     -0.119473    1.552804   -2.053549
  H     -0.929523    2.918758   -1.218775
  O      0.106054    1.821369    3.641968
  O     -0.107035   -0.561806   -1.135658

 Total Charge           Charge          ....    0
 Multiplicity           Mult            ....    1
 Number of Electrons    NEL             ....   98
 Basis Dimension        Dim             ....  874

ORBITAL ENERGIES
----------------

  NO   OCC          E(Eh)            E(eV)
   0   2.0000     -19.060011      -518.6493
   1   2.0000     -19.059977      -518.6483
   2   2.0000     -10.213376      -277.9201
   3   2.0000     -10.213350      -277.9194
   4   2.0000     -10.145997      -276.0866
   5   2.0000     -10.145337      -276.0686
   6   2.0000     -10.139756      -275.9168
   7   2.0000     -10.139284      -275.9039
   8   2.0000     -10.132750      -275.7261
   9   2.0000     -10.132555      -275.7208
  10   2.0000     -10.132214      -275.7116
  11   2.0000     -10.131943      -275.7042
  12   2.0000     -10.111248      -275.1411
  13   2.0000     -10.111219      -275.1403
  14   2.0000      -1.039846       -28.2956
  15   2.0000      -1.038112       -28.2485
  16   2.0000      -0.859516       -23.3886
  17   2.0000      -0.821782       -22.3618
  18   2.0000      -0.758359       -20.6360
  19   2.0000      -0.748375       -20.3643
  20   2.0000      -0.721470       -19.6322
  21   2.0000      -0.671224       -18.2649
  22   2.0000      -0.649879       -17.6841
  23   2.0000      -0.601933       -16.3794
  24   2.0000      -0.584221       -15.8975
  25   2.0000      -0.556220       -15.1355
  26   2.0000      -0.521624       -14.1941
  27   2.0000      -0.491349       -13.3703
  28   2.0000      -0.473238       -12.8775
  29   2.0000      -0.444351       -12.0914
  30   2.0000      -0.441111       -12.0033
  31   2.0000      -0.436956       -11.8902
  32   2.0000      -0.427201       -11.6247
  33   2.0000      -0.422178       -11.4880
  34   2.0000      -0.403972       -10.9926
  35   2.0000      -0.400432       -10.8963
  36   2.0000      -0.389985       -10.6120
  37   2.0000      -0.387162       -10.5352
  38   2.0000      -0.374103       -10.1799
  39   2.0000      -0.369347       -10.0504
  40   2.0000      -0.359014        -9.7693
  41   2.0000      -0.356272        -9.6946
  42   2.0000      -0.342039        -9.3073
  43   2.0000      -0.338683        -9.2160
  44   2.0000      -0.272975        -7.4280
  45   2.0000      -0.266650        -7.2559
  46   2.0000      -0.260298        -7.0831
  47   2.0000      -0.251611        -6.8467
  48   2.0000      -0.248830        -6.7710
  49   0.0000      -0.128345        -3.4925
  50   0.0000      -0.058852        -1.6014
  51   0.0000      -0.034234        -0.9316
  52   0.0000      -0.005207        -0.1417
  53   0.0000       0.005062         0.1378

MULLIKEN ATOMIC CHARGES
-----------------------
   0 C :    1.769631
   1 C :   -0.291875
   2 C :   -0.299074
   3 C :    1.770796
   4 C :    0.601995
   5 C :    0.594099
   6 C :   -0.906148
   7 C :   -0.227518
   8 C :   -0.218180
   9 C :   -0.908488
  10 H :    0.018436
  11 H :    0.526088
  12 H :    0.525136
  13 H :    0.012883
  14 C :   -0.318671
  15 H :    0.137925
  16 H :   -0.042882
  17 H :    0.136667
  18 C :   -0.320028
  19 H :    0.139168
  20 H :   -0.048068
  21 H :    0.138119
  22 O :   -1.395296
  23 O :   -1.394717
Sum of atomic charges:    0.0000000

LOEWDIN ATOMIC CHARGES
----------------------
   0 C :   -0.507984
   1 C :   -0.076278
   2 C :   -0.076108
   3 C :   -0.507896
   4 C :   -0.117786
   5 C :   -0.117747
   6 C :    0.221257
   7 C :    0.226768
   8 C :    0.226790
   9 C :    0.221220
  10 H :   -0.175808
  11 H :   -0.159869
  12 H :   -0.159882
  13 H :   -0.175777
  14 C :    0.574167
  15 H :   -0.144854
  16 H :   -0.202817
  17 H :   -0.145909
  18 C :    0.574055
  19 H :   -0.144927
  20 H :   -0.202991
  21 H :   -0.145831
  22 O :    0.509141
  23 O :    0.509065

  Mayer bond orders larger than 0.100000
B(  0-C ,  1-C ) :   0.9298 B(  0-C ,  2-C ) :  -0.1634 B(  0-C ,  3-C ) :   0.4820
B(  0-C ,  4-C ) :  -0.1074 B(  0-C ,  5-C ) :   0.5964 B(  0-C ,  6-C ) :   0.4046
B(  0-C ,  7-C ) :   0.1480 B(  0-C ,  8-C ) :   0.1123 B(  0-C ,  9-C ) :  -0.1106
B(  0-C , 13-H ) :  -0.1462 B(  0-C , 20-H ) :  -0.1195 B(  0-C , 23-O ) :  -1.0282
B(  1-C ,  2-C ) :   1.4458 B(  1-C ,  3-C ) :  -0.1676 B(  1-C ,  4-C ) :  -0.2198
B(  1-C ,  5-C ) :   0.6666 B(  1-C , 18-C ) :   0.7008 B(  1-C , 22-O ) :   0.1297
B(  1-C , 23-O ) :   0.5216 B(  2-C ,  3-C ) :   0.9285 B(  2-C ,  4-C ) :   0.6752
B(  2-C ,  5-C ) :  -0.2202 B(  2-C , 14-C ) :   0.6974 B(  2-C , 22-O ) :   0.5244
B(  2-C , 23-O ) :   0.1301 B(  3-C ,  4-C ) :   0.5872 B(  3-C ,  6-C ) :  -0.1128
B(  3-C ,  7-C ) :   0.1142 B(  3-C ,  8-C ) :   0.1448 B(  3-C ,  9-C ) :   0.4118
B(  3-C , 10-H ) :  -0.1424 B(  3-C , 16-H ) :  -0.1201 B(  3-C , 22-O ) :  -1.0230
B(  4-C ,  5-C ) :   0.8065 B(  4-C ,  6-C ) :  -0.4189 B(  4-C ,  7-C ) :  -0.1196
B(  4-C ,  8-C ) :  -0.1609 B(  4-C ,  9-C ) :   0.2827 B(  4-C , 10-H ) :   0.1438
B(  4-C , 22-O ) :   0.4679 B(  5-C ,  6-C ) :   0.2657 B(  5-C ,  7-C ) :  -0.1588
B(  5-C ,  8-C ) :  -0.1172 B(  5-C ,  9-C ) :  -0.4322 B(  5-C , 13-H ) :   0.1405
B(  5-C , 23-O ) :   0.4818 B(  6-C ,  7-C ) :   1.3912 B(  6-C , 13-H ) :   0.9396
B(  7-C ,  8-C ) :   1.3181 B(  7-C , 11-H ) :   0.1397 B(  7-C , 12-H ) :   0.3587
B(  8-C ,  9-C ) :   1.3863 B(  8-C , 11-H ) :   0.3644 B(  8-C , 12-H ) :   0.1384
B(  9-C , 10-H ) :   0.9292 B( 10-H , 22-O ) :   0.2895 B( 13-H , 23-O ) :   0.2923
B( 14-C , 15-H ) :   0.9974 B( 14-C , 16-H ) :   0.9864 B( 14-C , 17-H ) :   0.9990
B( 18-C , 19-H ) :   0.9965 B( 18-C , 20-H ) :   0.9901 B( 18-C , 21-H ) :   0.9972

Dispersion correction           -0.035134037
FINAL SINGLE POINT ENERGY      -614.043001338092

DIPOLE MOMENT
-------------

Method             : SCF
Type of density    : Electron Density
Multiplicity       :   1
Irrep              :   0
Energy             :  -614.0078673008952137 Eh
Relativity type    :
Basis              : AO
                                X                 Y                 Z
Electronic contribution:     -0.004977674      -6.553364633       3.271508742
Nuclear contribution   :      0.005720256       6.367214391      -3.176836513
                        -----------------------------------------
Total Dipole Moment    :      0.000742582      -0.186150242       0.094672229
                        -----------------------------------------
Magnitude (a.u.)       :      0.208842752
Magnitude (Debye)      :      0.530836090

Rotational constants in cm-1:             0.037375             0.021586             0.013754
Rotational constants in MHz :          1120.461464           647.130480           412.334281

                             ****ORCA TERMINATED NORMALLY****
TOTAL RUN TIME: 0 days 0 hours 5 minutes 51 seconds 560 msec
