                         Program Version 6.0.0  -   RELEASE  -
|  1> !PBE0 aug-cc-pVTZ d3 TightSCF SlowConv RIJCOSX defgrid2
|  2>
|  3> %pal
|  4> nprocs 4
|  5> end
|  6>
|  7> %scf
|  8> MaxIter 1500
|  9> end
| 10>
| 11> %maxcore 3000
| 12>
| 13> !CPCM
| 14> %cpcm smd true
| 15> SMDsolvent "MeCN"
| 16> surfacetype gepol_ses
| 17> rsolv 2.19
| 18> end
| 19>
| 20> * xyz 0 1
| 21> C           2.43031351008729     -0.70749139029856      0.00001403239272
| 22> C           2.43032444825569      0.70745716976960      0.00001780057511
| 23> C           1.24225650957686      1.40066986227340      0.00001298600543
| 24> C           0.00000747832604      0.71479447718917      0.00000542687051
| 25> C          -1.24223111805275      1.40068893561610      0.00000324875952
| 26> C          -2.43030983452578      0.70749421287076     -0.00000358520312
| 27> C          -2.43032103578901     -0.70745426001962     -0.00000960120256
| 28> C          -1.24225352108494     -1.40066808823521     -0.00000641420954
| 29> C          -0.00000405709778     -0.71479302978643      0.00000150500237
| 30> C           1.24223524877496     -1.40068686163162      0.00000460886950
| 31> H           1.23824372924118     -2.49527550154318      0.00000243863973
| 32> H          -1.23827753101703     -2.49525698617010     -0.00000852848414
| 33> H          -3.38175156931066     -1.24754932619836     -0.00001429910497
| 34> H          -3.38173131512848      1.24760412689582     -0.00000496639229
| 35> H          -1.23823830440863      2.49527781567030      0.00000665226192
| 36> H           1.23827983240145      2.49525951167016      0.00001366019695
| 37> H           3.38175416757919      1.24755290950869      0.00002330946105
| 38> H           3.38173466217241     -1.24760147758094      0.00001812556182
| 39> *
| 40>
| 41>                          ****END OF INPUT****

CARTESIAN COORDINATES (ANGSTROEM)
---------------------------------
  C      2.430314   -0.707491    0.000014
  C      2.430324    0.707457    0.000018
  C      1.242257    1.400670    0.000013
  C      0.000007    0.714794    0.000005
  C     -1.242231    1.400689    0.000003
  C     -2.430310    0.707494   -0.000004
  C     -2.430321   -0.707454   -0.000010
  C     -1.242254   -1.400668   -0.000006
  C     -0.000004   -0.714793    0.000002
  C      1.242235   -1.400687    0.000005
  H      1.238244   -2.495276    0.000002
  H     -1.238278   -2.495257   -0.000009
  H     -3.381752   -1.247549   -0.000014
  H     -3.381731    1.247604   -0.000005
  H     -1.238238    2.495278    0.000007
  H      1.238280    2.495260    0.000014
  H      3.381754    1.247553    0.000023
  H      3.381735   -1.247601    0.000018

 Total Charge           Charge          ....    0
 Multiplicity           Mult            ....    1
 Number of Electrons    NEL             ....   68
 Basis Dimension        Dim             ....  644

ORBITAL ENERGIES
----------------

  NO   OCC          E(Eh)            E(eV)
   0   2.0000     -10.243992      -278.7532
   1   2.0000     -10.243488      -278.7395
   2   2.0000     -10.233099      -278.4568
   3   2.0000     -10.233083      -278.4564
   4   2.0000     -10.233007      -278.4543
   5   2.0000     -10.232994      -278.4539
   6   2.0000     -10.232307      -278.4352
   7   2.0000     -10.232306      -278.4352
   8   2.0000     -10.231883      -278.4237
   9   2.0000     -10.231874      -278.4234
  10   2.0000      -0.904914       -24.6240
  11   2.0000      -0.849048       -23.1038
  12   2.0000      -0.799369       -21.7519
  13   2.0000      -0.765919       -20.8417
  14   2.0000      -0.742134       -20.1945
  15   2.0000      -0.645272       -17.5587
  16   2.0000      -0.631091       -17.1729
  17   2.0000      -0.613999       -16.7078
  18   2.0000      -0.528963       -14.3938
  19   2.0000      -0.523147       -14.2356
  20   2.0000      -0.509083       -13.8528
  21   2.0000      -0.457130       -12.4391
  22   2.0000      -0.455334       -12.3903
  23   2.0000      -0.430639       -11.7183
  24   2.0000      -0.427035       -11.6202
  25   2.0000      -0.414565       -11.2809
  26   2.0000      -0.409216       -11.1353
  27   2.0000      -0.377993       -10.2857
  28   2.0000      -0.348921        -9.4946
  29   2.0000      -0.348565        -9.4849
  30   2.0000      -0.339361        -9.2345
  31   2.0000      -0.305496        -8.3130
  32   2.0000      -0.263127        -7.1601
  33   2.0000      -0.233943        -6.3659
  34   0.0000      -0.046681        -1.2702
  35   0.0000      -0.019107        -0.5199
  36   0.0000       0.002526         0.0687
  37   0.0000       0.011156         0.3036
  38   0.0000       0.013605         0.3702

MULLIKEN ATOMIC CHARGES
-----------------------
   0 C :   -0.453341
   1 C :   -0.457819
   2 C :   -1.162067
   3 C :    1.442741
   4 C :   -1.153971
   5 C :   -0.459015
   6 C :   -0.462477
   7 C :   -1.159811
   8 C :    1.442673
   9 C :   -1.161589
  10 H :    0.172614
  11 H :    0.185844
  12 H :    0.723476
  13 H :    0.713416
  14 H :    0.170917
  15 H :    0.183715
  16 H :    0.721634
  17 H :    0.713060
Sum of atomic charges:    0.0000000

LOEWDIN ATOMIC CHARGES
----------------------
   0 C :    0.190186
   1 C :    0.190187
   2 C :    0.207849
   3 C :   -0.137212
   4 C :    0.207856
   5 C :    0.190184
   6 C :    0.190185
   7 C :    0.207852
   8 C :   -0.137206
   9 C :    0.207849
  10 H :   -0.161221
  11 H :   -0.161215
  12 H :   -0.168213
  13 H :   -0.168216
  14 H :   -0.161221
  15 H :   -0.161218
  16 H :   -0.168212
  17 H :   -0.168216

  Mayer bond orders larger than 0.100000
B(  0-C ,  1-C ) :   1.2573 B(  0-C ,  3-C ) :  -0.1939 B(  0-C ,  9-C ) :   1.3129
B(  0-C , 17-H ) :   0.2146 B(  1-C ,  2-C ) :   1.3247 B(  1-C ,  8-C ) :  -0.1963
B(  1-C , 16-H ) :   0.2000 B(  2-C ,  4-C ) :   0.4515 B(  2-C ,  8-C ) :  -0.1988
B(  2-C , 15-H ) :   1.1605 B(  2-C , 16-H ) :  -0.1870 B(  3-C ,  6-C ) :  -0.1951
B(  3-C ,  7-C ) :  -0.1984 B(  3-C ,  8-C ) :   1.1695 B(  3-C ,  9-C ) :  -0.2004
B(  4-C ,  5-C ) :   1.3166 B(  4-C ,  8-C ) :  -0.2025 B(  4-C , 13-H ) :  -0.1868
B(  4-C , 14-H ) :   1.1814 B(  5-C ,  6-C ) :   1.2573 B(  5-C ,  8-C ) :  -0.1920
B(  5-C , 13-H ) :   0.2129 B(  6-C ,  7-C ) :   1.3266 B(  6-C , 12-H ) :   0.1976
B(  7-C ,  9-C ) :   0.4603 B(  7-C , 11-H ) :   1.1543 B(  7-C , 12-H ) :  -0.1844
B(  9-C , 10-H ) :   1.1798 B(  9-C , 17-H ) :  -0.1898

Dispersion correction           -0.018489409
FINAL SINGLE POINT ENERGY      -385.585642053512

DIPOLE MOMENT
-------------

Method             : SCF
Type of density    : Electron Density
Multiplicity       :   1
Irrep              :   0
Energy             :  -385.5671526447249562 Eh
Relativity type    :
Basis              : AO
                                X                 Y                 Z
Electronic contribution:      0.000000022      -0.000001724      -0.000004124
Nuclear contribution   :     -0.000000379       0.000001978       0.000003856
                        -----------------------------------------
Total Dipole Moment    :     -0.000000357       0.000000254      -0.000000269
                        -----------------------------------------
Magnitude (a.u.)       :      0.000000514
Magnitude (Debye)      :      0.000001306

Rotational constants in cm-1:             0.104086             0.041096             0.029463
Rotational constants in MHz :          3120.428737          1232.025642           883.282829

                             ****ORCA TERMINATED NORMALLY****
TOTAL RUN TIME: 0 days 0 hours 5 minutes 39 seconds 254 msec
