                         Program Version 6.0.0  -   RELEASE  -
|  1> !B3LYP aug-cc-pVTZ d3 TightSCF SlowConv RIJCOSX defgrid2
|  2>
|  3> %pal
|  4> nprocs 4
|  5> end
|  6>
|  7> %scf
|  8> MaxIter 1500
|  9> end
| 10>
| 11> %maxcore 3000
| 12>
| 13> !CPCM
| 14> %cpcm smd true
| 15> SMDsolvent "MeCN"
| 16> surfacetype gepol_ses
| 17> rsolv 2.19
| 18> end
| 19>
| 20> * xyz 0 1
| 21> C           1.86847672101122     -0.00008236176043      0.00934069542278
| 22> C           1.16491620854655     -1.20399668013187      0.00231506739479
| 23> C          -0.22896335284967     -1.20071978485061     -0.00929652137640
| 24> C          -0.94900034920378      0.00006360460976     -0.01194017646160
| 25> C          -2.45182373447190      0.00004409306138      0.01139598288954
| 26> H          -2.86400768085413      0.89448921652384     -0.48498227844954
| 27> H          -2.86406757845967     -0.89139694424087     -0.49034168247459
| 28> H          -2.83153291351154     -0.00310912605040      1.05029467072035
| 29> C          -0.22885343288002      1.20074830825039     -0.00915605869330
| 30> C           1.16505216971292      1.20388451241840      0.00245858099490
| 31> H           1.70620101334868      2.15511788824393      0.00229991498037
| 32> H          -0.77200932779939      2.15177858845512     -0.01887855569817
| 33> H          -0.77221541101255     -2.15169724965365     -0.01913454693012
| 34> H           1.70598089527851     -2.15527912856971      0.00204061695885
| 35> H           2.96252007314476     -0.00014523630528      0.01580649072214
| 36> *
| 37>
| 38>                          ****END OF INPUT****

CARTESIAN COORDINATES (ANGSTROEM)
---------------------------------
  C      1.868477   -0.000082    0.009341
  C      1.164916   -1.203997    0.002315
  C     -0.228963   -1.200720   -0.009297
  C     -0.949000    0.000064   -0.011940
  C     -2.451824    0.000044    0.011396
  H     -2.864008    0.894489   -0.484982
  H     -2.864068   -0.891397   -0.490342
  H     -2.831533   -0.003109    1.050295
  C     -0.228853    1.200748   -0.009156
  C      1.165052    1.203885    0.002459
  H      1.706201    2.155118    0.002300
  H     -0.772009    2.151779   -0.018879
  H     -0.772215   -2.151697   -0.019135
  H      1.705981   -2.155279    0.002041
  H      2.962520   -0.000145    0.015806

 Total Charge           Charge          ....    0
 Multiplicity           Mult            ....    1
 Number of Electrons    NEL             ....   50
 Basis Dimension        Dim             ....  506

ORBITAL ENERGIES
----------------

  NO   OCC          E(Eh)            E(eV)
   0   2.0000     -10.182893      -277.0906
   1   2.0000     -10.173522      -276.8356
   2   2.0000     -10.173439      -276.8334
   3   2.0000     -10.171187      -276.7721
   4   2.0000     -10.170473      -276.7526
   5   2.0000     -10.170468      -276.7525
   6   2.0000     -10.162269      -276.5294
   7   2.0000      -0.854478       -23.2515
   8   2.0000      -0.767192       -20.8763
   9   2.0000      -0.740729       -20.1563
  10   2.0000      -0.677364       -18.4320
  11   2.0000      -0.599496       -16.3131
  12   2.0000      -0.577930       -15.7263
  13   2.0000      -0.504211       -13.7203
  14   2.0000      -0.456354       -12.4180
  15   2.0000      -0.445435       -12.1209
  16   2.0000      -0.413138       -11.2421
  17   2.0000      -0.412627       -11.2282
  18   2.0000      -0.402737       -10.9590
  19   2.0000      -0.374951       -10.2029
  20   2.0000      -0.355793        -9.6816
  21   2.0000      -0.337418        -9.1816
  22   2.0000      -0.332897        -9.0586
  23   2.0000      -0.254818        -6.9340
  24   2.0000      -0.244373        -6.6497
  25   0.0000      -0.013630        -0.3709
  26   0.0000      -0.011321        -0.3081
  27   0.0000      -0.002458        -0.0669
  28   0.0000       0.010325         0.2810
  29   0.0000       0.014757         0.4016

MULLIKEN ATOMIC CHARGES
-----------------------
   0 C :   -0.298216
   1 C :   -0.498941
   2 C :   -0.943231
   3 C :    1.352327
   4 C :   -0.704895
   5 H :    0.215738
   6 H :    0.215435
   7 H :    0.240676
   8 C :   -0.940460
   9 C :   -0.497086
  10 H :    0.517642
  11 H :    0.213948
  12 H :    0.216057
  13 H :    0.512485
  14 H :    0.398521
Sum of atomic charges:   -0.0000000

LOEWDIN ATOMIC CHARGES
----------------------
   0 C :    0.170916
   1 C :    0.175945
   2 C :    0.194417
   3 C :   -0.149903
   4 C :    0.561827
   5 H :   -0.163841
   6 H :   -0.163736
   7 H :   -0.150070
   8 C :    0.194433
   9 C :    0.175950
  10 H :   -0.171217
  11 H :   -0.164887
  12 H :   -0.164827
  13 H :   -0.171222
  14 H :   -0.173784

  Mayer bond orders larger than 0.100000
B(  0-C ,  1-C ) :   1.1282 B(  0-C ,  9-C ) :   1.1300 B(  0-C , 14-H ) :   0.7630
B(  1-C ,  2-C ) :   1.2204 B(  1-C ,  3-C ) :   0.1022 B(  1-C , 13-H ) :   0.5570
B(  2-C ,  3-C ) :   0.6237 B(  2-C ,  4-C ) :   0.1187 B(  2-C , 12-H ) :   1.0642
B(  3-C ,  4-C ) :   0.3514 B(  3-C ,  8-C ) :   0.6205 B(  3-C ,  9-C ) :   0.1032
B(  4-C ,  5-H ) :   0.9805 B(  4-C ,  6-H ) :   0.9807 B(  4-C ,  7-H ) :   0.9648
B(  4-C ,  8-C ) :   0.1166 B(  8-C ,  9-C ) :   1.2205 B(  8-C , 11-H ) :   1.0684
B(  9-C , 10-H ) :   0.5495

Dispersion correction           -0.024178454
FINAL SINGLE POINT ENERGY      -271.515665858635

DIPOLE MOMENT
-------------

Method             : SCF
Type of density    : Electron Density
Multiplicity       :   1
Irrep              :   0
Energy             :  -271.4914874044825410 Eh
Relativity type    :
Basis              : AO
                                X                 Y                 Z
Electronic contribution:      3.293846039      -0.000046467      -0.029607470
Nuclear contribution   :     -3.524846021      -0.000150115       0.053662303
                        -----------------------------------------
Total Dipole Moment    :     -0.230999982      -0.000196582       0.024054833
                        -----------------------------------------
Magnitude (a.u.)       :      0.232249145
Magnitude (Debye)      :      0.590330412

Rotational constants in cm-1:             0.184524             0.083891             0.058309
Rotational constants in MHz :          5531.875560          2514.985236          1748.069221

                             ****ORCA TERMINATED NORMALLY****
TOTAL RUN TIME: 0 days 0 hours 3 minutes 3 seconds 690 msec
