                         Program Version 6.0.0  -   RELEASE  -
|  1> !TPSSh aug-cc-pVTZ d3 TightSCF SlowConv RIJCOSX defgrid2
|  2>
|  3> %pal
|  4> nprocs 4
|  5> end
|  6>
|  7> %scf
|  8> MaxIter 1500
|  9> end
| 10>
| 11> %maxcore 3000
| 12>
| 13> !CPCM
| 14> %cpcm smd true
| 15> SMDsolvent "MeCN"
| 16> surfacetype gepol_ses
| 17> rsolv 2.19
| 18> end
| 19>
| 20> * xyz 0 1
| 21> C           2.43031351008729     -0.70749139029856      0.00001403239272
| 22> C           2.43032444825569      0.70745716976960      0.00001780057511
| 23> C           1.24225650957686      1.40066986227340      0.00001298600543
| 24> C           0.00000747832604      0.71479447718917      0.00000542687051
| 25> C          -1.24223111805275      1.40068893561610      0.00000324875952
| 26> C          -2.43030983452578      0.70749421287076     -0.00000358520312
| 27> C          -2.43032103578901     -0.70745426001962     -0.00000960120256
| 28> C          -1.24225352108494     -1.40066808823521     -0.00000641420954
| 29> C          -0.00000405709778     -0.71479302978643      0.00000150500237
| 30> C           1.24223524877496     -1.40068686163162      0.00000460886950
| 31> H           1.23824372924118     -2.49527550154318      0.00000243863973
| 32> H          -1.23827753101703     -2.49525698617010     -0.00000852848414
| 33> H          -3.38175156931066     -1.24754932619836     -0.00001429910497
| 34> H          -3.38173131512848      1.24760412689582     -0.00000496639229
| 35> H          -1.23823830440863      2.49527781567030      0.00000665226192
| 36> H           1.23827983240145      2.49525951167016      0.00001366019695
| 37> H           3.38175416757919      1.24755290950869      0.00002330946105
| 38> H           3.38173466217241     -1.24760147758094      0.00001812556182
| 39> *
| 40>
| 41>                          ****END OF INPUT****

CARTESIAN COORDINATES (ANGSTROEM)
---------------------------------
  C      2.430314   -0.707491    0.000014
  C      2.430324    0.707457    0.000018
  C      1.242257    1.400670    0.000013
  C      0.000007    0.714794    0.000005
  C     -1.242231    1.400689    0.000003
  C     -2.430310    0.707494   -0.000004
  C     -2.430321   -0.707454   -0.000010
  C     -1.242254   -1.400668   -0.000006
  C     -0.000004   -0.714793    0.000002
  C      1.242235   -1.400687    0.000005
  H      1.238244   -2.495276    0.000002
  H     -1.238278   -2.495257   -0.000009
  H     -3.381752   -1.247549   -0.000014
  H     -3.381731    1.247604   -0.000005
  H     -1.238238    2.495278    0.000007
  H      1.238280    2.495260    0.000014
  H      3.381754    1.247553    0.000023
  H      3.381735   -1.247601    0.000018

 Total Charge           Charge          ....    0
 Multiplicity           Mult            ....    1
 Number of Electrons    NEL             ....   68
 Basis Dimension        Dim             ....  644

ORBITAL ENERGIES
----------------

  NO   OCC          E(Eh)            E(eV)
   0   2.0000     -10.127369      -275.5797
   1   2.0000     -10.126992      -275.5695
   2   2.0000     -10.118494      -275.3382
   3   2.0000     -10.118486      -275.3380
   4   2.0000     -10.118410      -275.3359
   5   2.0000     -10.118402      -275.3357
   6   2.0000     -10.117884      -275.3216
   7   2.0000     -10.117884      -275.3216
   8   2.0000     -10.117567      -275.3130
   9   2.0000     -10.117561      -275.3128
  10   2.0000      -0.855377       -23.2760
  11   2.0000      -0.801777       -21.8175
  12   2.0000      -0.754005       -20.5175
  13   2.0000      -0.721728       -19.6392
  14   2.0000      -0.699144       -19.0247
  15   2.0000      -0.606035       -16.4910
  16   2.0000      -0.591408       -16.0930
  17   2.0000      -0.575914       -15.6714
  18   2.0000      -0.493996       -13.4423
  19   2.0000      -0.489835       -13.3291
  20   2.0000      -0.473168       -12.8756
  21   2.0000      -0.426640       -11.6095
  22   2.0000      -0.420817       -11.4510
  23   2.0000      -0.396454       -10.7881
  24   2.0000      -0.396247       -10.7824
  25   2.0000      -0.382651       -10.4125
  26   2.0000      -0.379393       -10.3238
  27   2.0000      -0.348755        -9.4901
  28   2.0000      -0.320542        -8.7224
  29   2.0000      -0.318678        -8.6717
  30   2.0000      -0.311118        -8.4659
  31   2.0000      -0.279836        -7.6147
  32   2.0000      -0.241576        -6.5736
  33   2.0000      -0.213189        -5.8012
  34   0.0000      -0.058840        -1.6011
  35   0.0000      -0.031292        -0.8515
  36   0.0000      -0.002725        -0.0742
  37   0.0000      -0.001440        -0.0392
  38   0.0000       0.008542         0.2324

MULLIKEN ATOMIC CHARGES
-----------------------
   0 C :   -0.270717
   1 C :   -0.272615
   2 C :   -0.937923
   3 C :    1.429682
   4 C :   -0.934524
   5 C :   -0.273108
   6 C :   -0.274477
   7 C :   -0.937070
   8 C :    1.429751
   9 C :   -0.937769
  10 H :   -0.062930
  11 H :   -0.057502
  12 H :    0.557550
  13 H :    0.553437
  14 H :   -0.063578
  15 H :   -0.058381
  16 H :    0.556796
  17 H :    0.553378
Sum of atomic charges:    0.0000000

LOEWDIN ATOMIC CHARGES
----------------------
   0 C :    0.193302
   1 C :    0.193302
   2 C :    0.210712
   3 C :   -0.134192
   4 C :    0.210715
   5 C :    0.193301
   6 C :    0.193301
   7 C :    0.210713
   8 C :   -0.134189
   9 C :    0.210712
  10 H :   -0.165036
  11 H :   -0.165033
  12 H :   -0.171884
  13 H :   -0.171885
  14 H :   -0.165035
  15 H :   -0.165034
  16 H :   -0.171884
  17 H :   -0.171885

  Mayer bond orders larger than 0.100000
B(  0-C ,  1-C ) :   1.2637 B(  0-C ,  3-C ) :  -0.1875 B(  0-C ,  9-C ) :   1.4493
B(  0-C , 16-H ) :   0.1470 B(  0-C , 17-H ) :   0.3367 B(  1-C ,  2-C ) :   1.4535
B(  1-C ,  8-C ) :  -0.1886 B(  1-C , 16-H ) :   0.3312 B(  1-C , 17-H ) :   0.1469
B(  2-C ,  4-C ) :   0.4579 B(  2-C ,  8-C ) :  -0.1728 B(  2-C , 15-H ) :   1.2622
B(  2-C , 16-H ) :  -0.1249 B(  3-C ,  6-C ) :  -0.1881 B(  3-C ,  7-C ) :  -0.1723
B(  3-C ,  8-C ) :   1.0268 B(  3-C ,  9-C ) :  -0.1729 B(  3-C , 13-H ) :   0.1016
B(  3-C , 16-H ) :   0.1002 B(  4-C ,  5-C ) :   1.4505 B(  4-C ,  8-C ) :  -0.1734
B(  4-C , 13-H ) :  -0.1249 B(  4-C , 14-H ) :   1.2691 B(  5-C ,  6-C ) :   1.2636
B(  5-C ,  8-C ) :  -0.1864 B(  5-C , 12-H ) :   0.1477 B(  5-C , 13-H ) :   0.3363
B(  6-C ,  7-C ) :   1.4540 B(  6-C , 12-H ) :   0.3307 B(  6-C , 13-H ) :   0.1471
B(  7-C ,  9-C ) :   0.4611 B(  7-C , 11-H ) :   1.2596 B(  7-C , 12-H ) :  -0.1240
B(  8-C , 17-H ) :   0.1019 B(  9-C , 10-H ) :   1.2690 B(  9-C , 17-H ) :  -0.1261
B( 12-H , 13-H ) :   0.1173 B( 16-H , 17-H ) :   0.1169

Dispersion correction           -0.024703840
FINAL SINGLE POINT ENERGY      -386.088234772554

DIPOLE MOMENT
-------------

Method             : SCF
Type of density    : Electron Density
Multiplicity       :   1
Irrep              :   0
Energy             :  -386.0635309323481579 Eh
Relativity type    :
Basis              : AO
                                X                 Y                 Z
Electronic contribution:     -0.000000155      -0.000002844      -0.000003558
Nuclear contribution   :     -0.000000379       0.000001978       0.000003856
                        -----------------------------------------
Total Dipole Moment    :     -0.000000534      -0.000000866       0.000000298
                        -----------------------------------------
Magnitude (a.u.)       :      0.000001060
Magnitude (Debye)      :      0.000002695

Rotational constants in cm-1:             0.104086             0.041096             0.029463
Rotational constants in MHz :          3120.428737          1232.025642           883.282829

                             ****ORCA TERMINATED NORMALLY****
TOTAL RUN TIME: 0 days 0 hours 5 minutes 47 seconds 933 msec
