                         Program Version 6.0.0  -   RELEASE  -
|  1> !r2SCAN aug-cc-pVTZ d3 TightSCF SlowConv RIJCOSX defgrid2
|  2>
|  3> %pal
|  4> nprocs 15
|  5> end
|  6>
|  7> %scf
|  8> MaxIter 1500
|  9> end
| 10>
| 11> %maxcore 3500
| 12>
| 13> !CPCM
| 14> %cpcm smd true
| 15> SMDsolvent "WATER"
| 16> surfacetype gepol_ses
| 17> rsolv 1.40
| 18> end
| 19>
| 20> * xyz 0 2
| 21> O           1.91470638718140      3.68438074947034      1.42427791228666
| 22> N           2.68096308945993      2.69375168448893      1.26769968685529
| 23> C           3.77391580515862      2.86611617790763      0.27680202232567
| 24> C           4.43155802114185      1.51994211991304     -0.03530115296342
| 25> C           4.73340248947632      0.69829774992947      1.21810391563609
| 26> C           3.42519309826840      0.42580302914814      1.94119980726915
| 27> C           2.70579217610673      1.70523956651208      2.37690104523736
| 28> C           4.79322172800676      3.87508980195447      0.82020172066500
| 29> C           3.14425995359759      3.42149633811360     -0.99940045320580
| 30> C           3.37488386456858      2.34129799708755      3.60196963848657
| 31> C           1.25335355183061      1.37175446215543      2.71392471745753
| 32> H           5.35765292922926      1.70556085241930     -0.60472877121535
| 33> H           3.75876551381861      0.92933792835036     -0.68368429967338
| 34> H           5.42888308378114      1.26691647113913      1.85777249757383
| 35> H           3.58597216229996     -0.20127854132091      2.83446428065128
| 36> H           2.76741452667512     -0.15000338556619      1.26812064668017
| 37> H           4.26369527400293      4.78489567317599      1.14666574670165
| 38> H           5.36148593564960      3.47818359531948      1.67676804635832
| 39> H           5.51454614342091      4.14822445029490      0.03143381287120
| 40> H           2.68677781882656      4.40345192403324     -0.80882149057439
| 41> H           2.35856298596588      2.74147992136098     -1.37017141185833
| 42> H           3.91629839859089      3.52710620200660     -1.78046613000472
| 43> H           2.90751365674073      3.31881435496866      3.80391606383020
| 44> H           4.45686105296294      2.49742578329982      3.46040550353472
| 45> H           3.23836167981079      1.69582567705536      4.48654381685627
| 46> H           0.71883159023383      2.26983495660360      3.05695397631866
| 47> H           0.73234928593055      0.97814208936524      1.82472152714422
| 48> H           1.22257422130559      0.60584599485455      3.50731645957130
| 49> C           5.50980399137963     -0.53351097116185      0.81636396333535
| 50> O           6.67868338961729     -0.53392563796249      0.53412674849617
| 51> O           4.75697757690545     -1.64256703152170      0.76161649704885
| 52> H           5.34368613905548     -2.36501696039479      0.46736191230387
| 53> *
| 54>
| 55>                          ****END OF INPUT****

CARTESIAN COORDINATES (ANGSTROEM)
---------------------------------
  O      1.914706    3.684381    1.424278
  N      2.680963    2.693752    1.267700
  C      3.773916    2.866116    0.276802
  C      4.431558    1.519942   -0.035301
  C      4.733402    0.698298    1.218104
  C      3.425193    0.425803    1.941200
  C      2.705792    1.705240    2.376901
  C      4.793222    3.875090    0.820202
  C      3.144260    3.421496   -0.999400
  C      3.374884    2.341298    3.601970
  C      1.253354    1.371754    2.713925
  H      5.357653    1.705561   -0.604729
  H      3.758766    0.929338   -0.683684
  H      5.428883    1.266916    1.857772
  H      3.585972   -0.201279    2.834464
  H      2.767415   -0.150003    1.268121
  H      4.263695    4.784896    1.146666
  H      5.361486    3.478184    1.676768
  H      5.514546    4.148224    0.031434
  H      2.686778    4.403452   -0.808821
  H      2.358563    2.741480   -1.370171
  H      3.916298    3.527106   -1.780466
  H      2.907514    3.318814    3.803916
  H      4.456861    2.497426    3.460406
  H      3.238362    1.695826    4.486544
  H      0.718832    2.269835    3.056954
  H      0.732349    0.978142    1.824722
  H      1.222574    0.605846    3.507316
  C      5.509804   -0.533511    0.816364
  O      6.678683   -0.533926    0.534127
  O      4.756978   -1.642567    0.761616
  H      5.343686   -2.365017    0.467362

 Total Charge           Charge          ....    0
 Multiplicity           Mult            ....    2
 Number of Electrons    NEL             ....  109
 Basis Dimension        Dim             .... 1058

ORBITAL ENERGIES
----------------
                 SPIN UP ORBITALS
  NO   OCC          E(Eh)            E(eV)
   0   1.0000     -19.008135      -517.2377
   1   1.0000     -18.960367      -515.9378
   2   1.0000     -18.954894      -515.7889
   3   1.0000     -14.262532      -388.1032
   4   1.0000     -10.173285      -276.8292
   5   1.0000     -10.089060      -274.5373
   6   1.0000     -10.087859      -274.5046
   7   1.0000     -10.057854      -273.6881
   8   1.0000     -10.044209      -273.3168
   9   1.0000     -10.038737      -273.1679
  10   1.0000     -10.026134      -272.8250
  11   1.0000     -10.025690      -272.8129
  12   1.0000     -10.023147      -272.7437
  13   1.0000     -10.022471      -272.7253
  14   1.0000      -1.081759       -29.4362
  15   1.0000      -1.078113       -29.3369
  16   1.0000      -0.993349       -27.0304
  17   1.0000      -0.844748       -22.9867
  18   1.0000      -0.790601       -21.5133
  19   1.0000      -0.762907       -20.7597
  20   1.0000      -0.689096       -18.7513
  21   1.0000      -0.660734       -17.9795
  22   1.0000      -0.653416       -17.7804
  23   1.0000      -0.650520       -17.7015
  24   1.0000      -0.627884       -17.0856
  25   1.0000      -0.569543       -15.4980
  26   1.0000      -0.560409       -15.2495
  27   1.0000      -0.495422       -13.4811
  28   1.0000      -0.475377       -12.9357
  29   1.0000      -0.468085       -12.7372
  30   1.0000      -0.460802       -12.5391
  31   1.0000      -0.451469       -12.2851
  32   1.0000      -0.446278       -12.1438
  33   1.0000      -0.426880       -11.6160
  34   1.0000      -0.420364       -11.4387
  35   1.0000      -0.403872       -10.9899
  36   1.0000      -0.396654       -10.7935
  37   1.0000      -0.386407       -10.5147
  38   1.0000      -0.375882       -10.2283
  39   1.0000      -0.372080       -10.1248
  40   1.0000      -0.356970        -9.7136
  41   1.0000      -0.355701        -9.6791
  42   1.0000      -0.340783        -9.2732
  43   1.0000      -0.339665        -9.2428
  44   1.0000      -0.334093        -9.0911
  45   1.0000      -0.326135        -8.8746
  46   1.0000      -0.324259        -8.8235
  47   1.0000      -0.310590        -8.4516
  48   1.0000      -0.307675        -8.3723
  49   1.0000      -0.304868        -8.2959
  50   1.0000      -0.299981        -8.1629
  51   1.0000      -0.292114        -7.9488
  52   1.0000      -0.254879        -6.9356
  53   1.0000      -0.233085        -6.3426
  54   1.0000      -0.171839        -4.6760
  55   0.0000      -0.031792        -0.8651
  56   0.0000       0.003807         0.1036
  57   0.0000       0.014753         0.4014
  58   0.0000       0.020283         0.5519
  59   0.0000       0.020685         0.5629

                 SPIN DOWN ORBITALS
  NO   OCC          E(Eh)            E(eV)
   0   1.0000     -19.008136      -517.2377
   1   1.0000     -18.954894      -515.7889
   2   1.0000     -18.946072      -515.5488
   3   1.0000     -14.248151      -387.7119
   4   1.0000     -10.173276      -276.8289
   5   1.0000     -10.089507      -274.5494
   6   1.0000     -10.088305      -274.5167
   7   1.0000     -10.057879      -273.6888
   8   1.0000     -10.044160      -273.3155
   9   1.0000     -10.038689      -273.1666
  10   1.0000     -10.025367      -272.8041
  11   1.0000     -10.024924      -272.7920
  12   1.0000     -10.022873      -272.7362
  13   1.0000     -10.022197      -272.7178
  14   1.0000      -1.081745       -29.4358
  15   1.0000      -1.057240       -28.7690
  16   1.0000      -0.993349       -27.0304
  17   1.0000      -0.837365       -22.7858
  18   1.0000      -0.789762       -21.4905
  19   1.0000      -0.757327       -20.6079
  20   1.0000      -0.676124       -18.3983
  21   1.0000      -0.658427       -17.9167
  22   1.0000      -0.652958       -17.7679
  23   1.0000      -0.649309       -17.6686
  24   1.0000      -0.625877       -17.0310
  25   1.0000      -0.566733       -15.4216
  26   1.0000      -0.559695       -15.2301
  27   1.0000      -0.489901       -13.3309
  28   1.0000      -0.473726       -12.8907
  29   1.0000      -0.466387       -12.6910
  30   1.0000      -0.456363       -12.4183
  31   1.0000      -0.444529       -12.0962
  32   1.0000      -0.430933       -11.7263
  33   1.0000      -0.420427       -11.4404
  34   1.0000      -0.414575       -11.2812
  35   1.0000      -0.403503       -10.9799
  36   1.0000      -0.396147       -10.7797
  37   1.0000      -0.383153       -10.4261
  38   1.0000      -0.371279       -10.1030
  39   1.0000      -0.369263       -10.0482
  40   1.0000      -0.355088        -9.6624
  41   1.0000      -0.353843        -9.6286
  42   1.0000      -0.337718        -9.1898
  43   1.0000      -0.333821        -9.0837
  44   1.0000      -0.332676        -9.0526
  45   1.0000      -0.324036        -8.8175
  46   1.0000      -0.316196        -8.6041
  47   1.0000      -0.309796        -8.4300
  48   1.0000      -0.303574        -8.2607
  49   1.0000      -0.302826        -8.2403
  50   1.0000      -0.296466        -8.0673
  51   1.0000      -0.283576        -7.7165
  52   1.0000      -0.254763        -6.9325
  53   1.0000      -0.222816        -6.0631
  54   0.0000      -0.091100        -2.4789
  55   0.0000      -0.031744        -0.8638
  56   0.0000       0.004441         0.1209
  57   0.0000       0.016099         0.4381
  58   0.0000       0.021087         0.5738

MULLIKEN ATOMIC CHARGES AND SPIN POPULATIONS
--------------------------------------------
   0 O :   -1.108243    0.499833
   1 N :    0.377877    0.506320
   2 C :    2.882204   -0.032301
   3 C :   -1.144988   -0.023030
   4 C :    1.129184   -0.001135
   5 C :   -0.666001   -0.025149
   6 C :    2.685052   -0.043632
   7 C :   -1.413220    0.046433
   8 C :   -1.571168    0.004543
   9 C :   -1.392491    0.047653
  10 C :   -1.582687    0.005863
  11 H :    0.331877   -0.001367
  12 H :    0.128703   -0.001952
  13 H :    0.012597    0.008371
  14 H :    0.481010   -0.001418
  15 H :    0.000231    0.000414
  16 H :    0.151812   -0.003832
  17 H :    0.205781    0.001349
  18 H :    0.026913    0.005151
  19 H :    0.141652   -0.004406
  20 H :    0.167297    0.008587
  21 H :    0.148812   -0.000751
  22 H :    0.150191   -0.002945
  23 H :    0.225831   -0.000661
  24 H :    0.029629    0.005241
  25 H :    0.143804   -0.004560
  26 H :    0.170767    0.008811
  27 H :    0.143857   -0.000505
  28 C :    0.391626   -0.000876
  29 O :   -1.026240    0.000106
  30 O :   -0.433819   -0.000173
  31 H :    0.212150    0.000019
Sum of atomic charges         :    0.0000000

LOEWDIN ATOMIC CHARGES AND SPIN POPULATIONS
-------------------------------------------
   0 O :    0.392463    0.427367
   1 N :   -0.104915    0.407164
   2 C :   -0.434148    0.041240
   3 C :    0.303974    0.002121
   4 C :   -0.033045    0.000198
   5 C :    0.292166    0.002077
   6 C :   -0.434300    0.041162
   7 C :    0.602583    0.021462
   8 C :    0.575376    0.005001
   9 C :    0.601800    0.021453
  10 C :    0.574309    0.005017
  11 H :   -0.113166   -0.000298
  12 H :   -0.114218    0.000951
  13 H :   -0.145434    0.000058
  14 H :   -0.109397   -0.000301
  15 H :   -0.135345    0.000933
  16 H :   -0.153466    0.002207
  17 H :   -0.167776    0.002054
  18 H :   -0.135925    0.006119
  19 H :   -0.174702   -0.000149
  20 H :   -0.144379    0.001254
  21 H :   -0.139527    0.000647
  22 H :   -0.154625    0.002207
  23 H :   -0.166649    0.002052
  24 H :   -0.136551    0.006116
  25 H :   -0.175117   -0.000145
  26 H :   -0.144784    0.001263
  27 H :   -0.140265    0.000648
  28 C :   -0.795524    0.000110
  29 O :    0.459478    0.000012
  30 O :    0.879498    0.000002
  31 H :   -0.428391   -0.000003

  Mayer bond orders larger than 0.100000
B(  0-O ,  1-N ) :   0.4259 B(  1-N ,  2-C ) :   0.4971 B(  1-N ,  3-C ) :   0.2525
B(  1-N ,  4-C ) :  -0.1389 B(  1-N ,  5-C ) :   0.2630 B(  1-N ,  6-C ) :   0.4266
B(  1-N ,  8-C ) :   0.2015 B(  1-N , 10-C ) :   0.2158 B(  2-C ,  3-C ) :  -0.3094
B(  2-C ,  7-C ) :  -0.4013 B(  2-C ,  8-C ) :  -0.6899 B(  2-C , 16-H ) :  -0.1196
B(  2-C , 18-H ) :  -0.1457 B(  2-C , 20-H ) :  -0.1828 B(  3-C ,  4-C ) :   0.7509
B(  3-C ,  5-C ) :   0.2287 B(  3-C , 11-H ) :   0.5097 B(  3-C , 12-H ) :   1.1250
B(  3-C , 28-C ) :   0.2129 B(  3-C , 29-O ) :   0.1513 B(  3-C , 30-O ) :   0.1201
B(  4-C ,  5-C ) :   1.1479 B(  4-C ,  7-C ) :  -0.1148 B(  4-C , 13-H ) :   0.8482
B(  4-C , 28-C ) :  -0.3519 B(  4-C , 29-O ) :  -0.1493 B(  5-C ,  6-C ) :  -0.3050
B(  5-C , 14-H ) :   0.4997 B(  5-C , 15-H ) :   1.1583 B(  5-C , 28-C ) :  -0.2578
B(  5-C , 30-O ) :  -0.1656 B(  6-C ,  9-C ) :  -0.3639 B(  6-C , 10-C ) :  -0.6761
B(  6-C , 14-H ) :   0.1235 B(  6-C , 22-H ) :  -0.1229 B(  6-C , 24-H ) :  -0.1473
B(  6-C , 25-H ) :  -0.1026 B(  6-C , 26-H ) :  -0.1825 B(  7-C ,  8-C ) :   0.3024
B(  7-C , 16-H ) :   1.0978 B(  7-C , 17-H ) :   1.0530 B(  7-C , 18-H ) :   1.2610
B(  8-C , 19-H ) :   1.1030 B(  8-C , 20-H ) :   1.1537 B(  8-C , 21-H ) :   1.0822
B(  9-C , 10-C ) :   0.2940 B(  9-C , 22-H ) :   1.0971 B(  9-C , 23-H ) :   1.0397
B(  9-C , 24-H ) :   1.2487 B( 10-C , 25-H ) :   1.1035 B( 10-C , 26-H ) :   1.1494
B( 10-C , 27-H ) :   1.0862 B( 11-H , 29-O ) :   0.1175 B( 13-H , 28-C ) :  -0.1446
B( 28-C , 29-O ) :   0.8537 B( 28-C , 30-O ) :   0.9187 B( 29-O , 30-O ) :   0.1086
B( 30-O , 31-H ) :   0.9355

Dispersion correction           -0.012262453
FINAL SINGLE POINT ENERGY      -672.204608252324

DIPOLE MOMENT
-------------

Method             : SCF
Type of density    : Electron Density
Multiplicity       :   2
Irrep              :   0
Energy             :  -672.1923457989242934 Eh
Relativity type    :
Basis              : AO
                                X                 Y                 Z
Electronic contribution:      4.806529326      -8.551034019      -2.454600583
Nuclear contribution   :     -4.499370341       7.227471368       2.551456631
                        -----------------------------------------
Total Dipole Moment    :      0.307158985      -1.323562651       0.096856049
                        -----------------------------------------
Magnitude (a.u.)       :      1.362184211
Magnitude (Debye)      :      3.462397104

Rotational constants in cm-1:             0.032861             0.018000             0.014315
Rotational constants in MHz :           985.137825           539.637510           429.167318

                             ****ORCA TERMINATED NORMALLY****
TOTAL RUN TIME: 0 days 0 hours 7 minutes 3 seconds 121 msec
