                         Program Version 6.0.0  -   RELEASE  -
|  1> !r2SCANh aug-cc-pVTZ d3 TightSCF SlowConv RIJCOSX defgrid2
|  2>
|  3> %pal
|  4> nprocs 15
|  5> end
|  6>
|  7> %scf
|  8> MaxIter 1500
|  9> end
| 10>
| 11> %maxcore 3500
| 12>
| 13> !CPCM
| 14> %cpcm smd true
| 15> SMDsolvent "WATER"
| 16> surfacetype gepol_ses
| 17> rsolv 1.40
| 18> end
| 19>
| 20> * xyz 0 1
| 21> C           0.05740703362366     -0.03818478987782     -0.05305252362433
| 22> C           0.04752787284548      1.43042672917474      0.09288134793546
| 23> C           0.00865823360556      2.06419843064535      1.28313969477442
| 24> C          -0.02631367755515      1.27331877582174      2.55115567713606
| 25> C          -0.01924382659142     -0.21029957823671      2.44828393846160
| 26> C           0.02139111377803     -0.84476466741681      1.19738932390815
| 27> C           0.02778920782920     -2.23769356254970      1.12126987378335
| 28> C          -0.00634981044020     -2.99663523812184      2.28791660064124
| 29> C          -0.04698344076028     -2.36584188207955      3.53454063211562
| 30> C          -0.05333228207351     -0.97623991811648      3.61522849103236
| 31> H           0.07423269005991      1.98647405476100     -0.84970518486997
| 32> H          -0.08462573760684     -0.45717520913165      4.57653406994510
| 33> H          -0.07388405763115     -2.96530465276422      4.44922462797787
| 34> H          -0.00147351819034     -4.08899982107002      2.22872595641621
| 35> H           0.05990452710164     -2.70205720690776      0.13238845062488
| 36> C          -0.00206079517557      3.54702899649423      1.43475658835013
| 37> H          -0.90223963443982      3.87118144099815      1.98551534688661
| 38> H           0.85990766484548      3.87826240212472      2.03977796655726
| 39> H           0.02634952855796      4.05066472850984      0.45627956358589
| 40> O          -0.05966185780097      1.83961965072649      3.62552534412724
| 41> O           0.09300076601833     -0.55701475298369     -1.15202852476517
| 42> *
| 43>
| 44>                          ****END OF INPUT****

CARTESIAN COORDINATES (ANGSTROEM)
---------------------------------
  C      0.057407   -0.038185   -0.053053
  C      0.047528    1.430427    0.092881
  C      0.008658    2.064198    1.283140
  C     -0.026314    1.273319    2.551156
  C     -0.019244   -0.210300    2.448284
  C      0.021391   -0.844765    1.197389
  C      0.027789   -2.237694    1.121270
  C     -0.006350   -2.996635    2.287917
  C     -0.046983   -2.365842    3.534541
  C     -0.053332   -0.976240    3.615228
  H      0.074233    1.986474   -0.849705
  H     -0.084626   -0.457175    4.576534
  H     -0.073884   -2.965305    4.449225
  H     -0.001474   -4.089000    2.228726
  H      0.059905   -2.702057    0.132388
  C     -0.002061    3.547029    1.434757
  H     -0.902240    3.871181    1.985515
  H      0.859908    3.878262    2.039778
  H      0.026350    4.050665    0.456280
  O     -0.059662    1.839620    3.625525
  O      0.093001   -0.557015   -1.152029

 Total Charge           Charge          ....    0
 Multiplicity           Mult            ....    1
 Number of Electrons    NEL             ....   90
 Basis Dimension        Dim             ....  782

ORBITAL ENERGIES
----------------

  NO   OCC          E(Eh)            E(eV)
   0   2.0000     -19.128410      -520.5105
   1   2.0000     -19.125432      -520.4295
   2   2.0000     -10.264898      -279.3221
   3   2.0000     -10.263037      -279.2714
   4   2.0000     -10.201764      -277.6041
   5   2.0000     -10.187920      -277.2274
   6   2.0000     -10.187040      -277.2034
   7   2.0000     -10.182251      -277.0731
   8   2.0000     -10.178866      -276.9810
   9   2.0000     -10.178664      -276.9755
  10   2.0000     -10.178191      -276.9627
  11   2.0000     -10.177810      -276.9523
  12   2.0000     -10.156237      -276.3653
  13   2.0000      -1.071736       -29.1634
  14   2.0000      -1.068099       -29.0645
  15   2.0000      -0.884328       -24.0638
  16   2.0000      -0.839017       -22.8308
  17   2.0000      -0.776884       -21.1401
  18   2.0000      -0.770354       -20.9624
  19   2.0000      -0.719133       -19.5686
  20   2.0000      -0.674289       -18.3483
  21   2.0000      -0.634650       -17.2697
  22   2.0000      -0.609430       -16.5834
  23   2.0000      -0.574283       -15.6270
  24   2.0000      -0.530189       -14.4272
  25   2.0000      -0.513391       -13.9701
  26   2.0000      -0.487310       -13.2604
  27   2.0000      -0.459314       -12.4986
  28   2.0000      -0.452205       -12.3051
  29   2.0000      -0.448994       -12.2177
  30   2.0000      -0.438945       -11.9443
  31   2.0000      -0.431137       -11.7318
  32   2.0000      -0.416026       -11.3206
  33   2.0000      -0.409554       -11.1445
  34   2.0000      -0.396913       -10.8005
  35   2.0000      -0.395572       -10.7641
  36   2.0000      -0.376348       -10.2409
  37   2.0000      -0.367148        -9.9906
  38   2.0000      -0.358758        -9.7623
  39   2.0000      -0.346796        -9.4368
  40   2.0000      -0.288903        -7.8615
  41   2.0000      -0.274918        -7.4809
  42   2.0000      -0.269066        -7.3217
  43   2.0000      -0.266508        -7.2520
  44   2.0000      -0.259988        -7.0746
  45   0.0000      -0.134420        -3.6578
  46   0.0000      -0.062121        -1.6904
  47   0.0000      -0.036329        -0.9886
  48   0.0000       0.008713         0.2371
  49   0.0000       0.020528         0.5586

MULLIKEN ATOMIC CHARGES
-----------------------
   0 C :    1.370502
   1 C :   -0.669702
   2 C :    0.371194
   3 C :    0.949075
   4 C :    1.522530
   5 C :    1.171000
   6 C :   -1.214128
   7 C :   -0.402088
   8 C :   -0.398199
   9 C :   -1.446237
  10 H :    0.143186
  11 H :    0.011246
  12 H :    0.630695
  13 H :    0.586844
  14 H :   -0.022315
  15 C :   -0.786070
  16 H :    0.229935
  17 H :    0.228155
  18 H :    0.171850
  19 O :   -1.223555
  20 O :   -1.223919
Sum of atomic charges:    0.0000000

LOEWDIN ATOMIC CHARGES
----------------------
   0 C :   -0.549787
   1 C :    0.252631
   2 C :   -0.099862
   3 C :   -0.517159
   4 C :   -0.116358
   5 C :   -0.122711
   6 C :    0.221168
   7 C :    0.228546
   8 C :    0.228654
   9 C :    0.221971
  10 H :   -0.163626
  11 H :   -0.173146
  12 H :   -0.158651
  13 H :   -0.158453
  14 H :   -0.172818
  15 C :    0.575423
  16 H :   -0.153049
  17 H :   -0.153194
  18 H :   -0.157623
  19 O :    0.500599
  20 O :    0.467445

  Mayer bond orders larger than 0.100000
B(  0-C ,  1-C ) :   0.5264 B(  0-C ,  5-C ) :   0.2654 B(  0-C ,  6-C ) :   0.5300
B(  0-C ,  8-C ) :   0.1269 B(  0-C ,  9-C ) :  -0.1699 B(  0-C , 10-H ) :  -0.2513
B(  0-C , 20-O ) :  -0.1282 B(  1-C ,  2-C ) :   1.4834 B(  1-C ,  3-C ) :  -0.1030
B(  1-C ,  4-C ) :  -0.2197 B(  1-C ,  5-C ) :   0.3683 B(  1-C , 10-H ) :   0.8686
B(  1-C , 15-C ) :  -0.3315 B(  1-C , 20-O ) :   0.2251 B(  2-C ,  3-C ) :   0.5419
B(  2-C ,  4-C ) :   0.5310 B(  2-C ,  5-C ) :  -0.2612 B(  2-C , 15-C ) :   0.5181
B(  2-C , 19-O ) :   0.1186 B(  2-C , 20-O ) :   0.1459 B(  3-C ,  4-C ) :   0.4379
B(  3-C ,  5-C ) :   0.1198 B(  3-C ,  6-C ) :  -0.1892 B(  3-C ,  9-C ) :   0.6382
B(  3-C , 15-C ) :   0.2864 B(  3-C , 19-O ) :   0.1710 B(  4-C ,  5-C ) :   1.1612
B(  4-C ,  6-C ) :  -0.6704 B(  4-C ,  7-C ) :  -0.2543 B(  4-C ,  9-C ) :  -0.5054
B(  4-C , 11-H ) :  -0.1351 B(  5-C ,  8-C ) :  -0.1535 B(  5-C ,  9-C ) :  -0.3923
B(  5-C , 10-H ) :   0.1397 B(  5-C , 14-H ) :  -0.1306 B(  5-C , 20-O ) :   0.1541
B(  6-C ,  7-C ) :   1.0428 B(  6-C , 10-H ) :   0.1064 B(  6-C , 13-H ) :  -0.1528
B(  6-C , 14-H ) :   1.2993 B(  7-C ,  8-C ) :   1.0832 B(  7-C , 13-H ) :   0.3952
B(  8-C ,  9-C ) :   1.0990 B(  8-C , 12-H ) :   0.3225 B(  9-C , 11-H ) :   1.2078
B(  9-C , 12-H ) :  -0.1633 B(  9-C , 19-O ) :   0.1120 B( 10-H , 14-H ) :   0.1000
B( 10-H , 20-O ) :   0.1235 B( 11-H , 19-O ) :   0.2775 B( 14-H , 20-O ) :   0.2726
B( 15-C , 16-H ) :   0.9585 B( 15-C , 17-H ) :   0.9602 B( 15-C , 18-H ) :   1.0423

Dispersion correction           -0.008294930
FINAL SINGLE POINT ENERGY      -574.315146957064

DIPOLE MOMENT
-------------

Method             : SCF
Type of density    : Electron Density
Multiplicity       :   1
Irrep              :   0
Energy             :  -574.3068520265709367 Eh
Relativity type    :
Basis              : AO
                                X                 Y                 Z
Electronic contribution:      0.044619877      -3.294597547      -0.905984573
Nuclear contribution   :     -0.064708602       3.027549454       1.475829711
                        -----------------------------------------
Total Dipole Moment    :     -0.020088725      -0.267048093       0.569845138
                        -----------------------------------------
Magnitude (a.u.)       :      0.629636182
Magnitude (Debye)      :      1.600407988

Rotational constants in cm-1:             0.042977             0.025752             0.016151
Rotational constants in MHz :          1288.412736           772.037278           484.209235

                             ****ORCA TERMINATED NORMALLY****
TOTAL RUN TIME: 0 days 0 hours 4 minutes 42 seconds 450 msec
