                         Program Version 6.0.0  -   RELEASE  -
|  1> !r2SCAN aug-cc-pVTZ d3 TightSCF SlowConv RIJCOSX defgrid2
|  2>
|  3> %pal
|  4> nprocs 4
|  5> end
|  6>
|  7> %scf
|  8> MaxIter 1500
|  9> end
| 10>
| 11> %maxcore 3000
| 12>
| 13> !CPCM
| 14> %cpcm smd true
| 15> SMDsolvent "MeCN"
| 16> surfacetype gepol_ses
| 17> rsolv 2.19
| 18> end
| 19>
| 20> * xyz 0 1
| 21> C          -2.28943628984998     -1.08285381421457     -0.27215993229653
| 22> C          -1.22862023156136      0.01586077259453     -0.25601491731078
| 23> N           0.00661098110282     -0.50212633579045      0.31354199000874
| 24> H           0.04448546198884     -0.34374633262279      1.31992834627211
| 25> C           1.26761402703144     -0.16050590389698     -0.31641071653716
| 26> C           1.61227695016871      1.33248737268488     -0.33804198779464
| 27> H           1.67848646199772      1.73094232260326      0.69159025810039
| 28> H           0.85105477369420      1.91805645848033     -0.88142696576002
| 29> H           2.58358136031093      1.51068050094161     -0.83364819199688
| 30> C           2.37625730002657     -0.96447955561106      0.35107581249572
| 31> H           2.13332648923035     -2.03958118968627      0.33268241243102
| 32> H           3.34622361909672     -0.80670159196001     -0.15062911203137
| 33> H           2.49537611972548     -0.65946405577216      1.40819901441394
| 34> H           1.19295505843491     -0.50230950030642     -1.36701945226968
| 35> C          -1.75092025319689      1.26393539098600      0.45804448286514
| 36> H          -1.01077279835727      2.08120251713453      0.44660788818213
| 37> H          -1.98089959571268      1.02983730439430      1.51486395854639
| 38> H          -2.68129026142747      1.63712259892000     -0.00568309259664
| 39> H          -1.00714489185693      0.28572149795558     -1.30571438011138
| 40> H          -1.91525958204469     -1.96452646149950     -0.81800405837007
| 41> H          -2.52324219300596     -1.40342780976556      0.75957368070162
| 42> H          -3.22778530579547     -0.74080268556924     -0.74485933694205
| 43> *
| 44>
| 45>                          ****END OF INPUT****

CARTESIAN COORDINATES (ANGSTROEM)
---------------------------------
  C     -2.289436   -1.082854   -0.272160
  C     -1.228620    0.015861   -0.256015
  N      0.006611   -0.502126    0.313542
  H      0.044485   -0.343746    1.319928
  C      1.267614   -0.160506   -0.316411
  C      1.612277    1.332487   -0.338042
  H      1.678486    1.730942    0.691590
  H      0.851055    1.918056   -0.881427
  H      2.583581    1.510681   -0.833648
  C      2.376257   -0.964480    0.351076
  H      2.133326   -2.039581    0.332682
  H      3.346224   -0.806702   -0.150629
  H      2.495376   -0.659464    1.408199
  H      1.192955   -0.502310   -1.367019
  C     -1.750920    1.263935    0.458044
  H     -1.010773    2.081203    0.446608
  H     -1.980900    1.029837    1.514864
  H     -2.681290    1.637123   -0.005683
  H     -1.007145    0.285721   -1.305714
  H     -1.915260   -1.964526   -0.818004
  H     -2.523242   -1.403428    0.759574
  H     -3.227785   -0.740803   -0.744859

 Total Charge           Charge          ....    0
 Multiplicity           Mult            ....    1
 Number of Electrons    NEL             ....   58
 Basis Dimension        Dim             ....  667

ORBITAL ENERGIES
----------------

  NO   OCC          E(Eh)            E(eV)
   0   2.0000     -14.133815      -384.6006
   1   2.0000     -10.057043      -273.6661
   2   2.0000     -10.056464      -273.6503
   3   2.0000     -10.015627      -272.5391
   4   2.0000     -10.015197      -272.5274
   5   2.0000     -10.013591      -272.4837
   6   2.0000     -10.013087      -272.4699
   7   2.0000      -0.867284       -23.6000
   8   2.0000      -0.746273       -20.3071
   9   2.0000      -0.686449       -18.6792
  10   2.0000      -0.644253       -17.5310
  11   2.0000      -0.638034       -17.3618
  12   2.0000      -0.545792       -14.8518
  13   2.0000      -0.540486       -14.7074
  14   2.0000      -0.439938       -11.9713
  15   2.0000      -0.429443       -11.6857
  16   2.0000      -0.398282       -10.8378
  17   2.0000      -0.384486       -10.4624
  18   2.0000      -0.383284       -10.4297
  19   2.0000      -0.361868        -9.8469
  20   2.0000      -0.350028        -9.5248
  21   2.0000      -0.342693        -9.3252
  22   2.0000      -0.339758        -9.2453
  23   2.0000      -0.315444        -8.5837
  24   2.0000      -0.312612        -8.5066
  25   2.0000      -0.294289        -8.0080
  26   2.0000      -0.291299        -7.9267
  27   2.0000      -0.287135        -7.8133
  28   2.0000      -0.181982        -4.9520
  29   0.0000       0.009606         0.2614
  30   0.0000       0.022648         0.6163
  31   0.0000       0.024934         0.6785
  32   0.0000       0.025458         0.6927
  33   0.0000       0.044184         1.2023

MULLIKEN ATOMIC CHARGES
-----------------------
   0 C :   -1.231744
   1 C :    1.171171
   2 N :   -0.530687
   3 H :   -0.054047
   4 C :    0.957959
   5 C :   -0.787700
   6 H :    0.203511
   7 H :    0.152942
   8 H :    0.168489
   9 C :   -1.119946
  10 H :    0.148513
  11 H :    0.169922
  12 H :    0.183473
  13 H :    0.277019
  14 C :   -0.949296
  15 H :    0.218402
  16 H :    0.166675
  17 H :    0.155630
  18 H :    0.189475
  19 H :    0.141192
  20 H :    0.184163
  21 H :    0.184883
Sum of atomic charges:   -0.0000000

LOEWDIN ATOMIC CHARGES
----------------------
   0 C :    0.572634
   1 C :   -0.199077
   2 N :    0.572463
   3 H :   -0.282203
   4 C :   -0.203799
   5 C :    0.580171
   6 H :   -0.151705
   7 H :   -0.174105
   8 H :   -0.157866
   9 C :    0.570145
  10 H :   -0.163605
  11 H :   -0.158103
  12 H :   -0.154718
  13 H :   -0.127095
  14 C :    0.582546
  15 H :   -0.176668
  16 H :   -0.153551
  17 H :   -0.156002
  18 H :   -0.132270
  19 H :   -0.166761
  20 H :   -0.160087
  21 H :   -0.160344

  Mayer bond orders larger than 0.100000
B(  0-C ,  1-C ) :   0.1729 B(  0-C ,  2-N ) :   0.1758 B(  0-C , 14-C ) :   0.2298
B(  0-C , 19-H ) :   1.0868 B(  0-C , 20-H ) :   1.0301 B(  0-C , 21-H ) :   1.0412
B(  1-C ,  2-N ) :   0.7797 B(  1-C ,  4-C ) :   0.1565 B(  1-C , 14-C ) :   0.4548
B(  1-C , 18-H ) :   0.9398 B(  2-N ,  3-H ) :   0.9510 B(  2-N ,  4-C ) :   0.6966
B(  2-N ,  9-C ) :   0.1366 B(  2-N , 13-H ) :  -0.1276 B(  4-C ,  5-C ) :   0.6311
B(  4-C ,  9-C ) :   0.3659 B(  4-C , 13-H ) :   0.8878 B(  5-C ,  6-H ) :   0.9888
B(  5-C ,  7-H ) :   1.0205 B(  5-C ,  8-H ) :   0.9845 B(  5-C ,  9-C ) :   0.2009
B(  9-C , 10-H ) :   1.0459 B(  9-C , 11-H ) :   1.0773 B(  9-C , 12-H ) :   1.0041
B( 14-C , 15-H ) :   0.9605 B( 14-C , 16-H ) :   1.0279 B( 14-C , 17-H ) :   1.0381

Dispersion correction           -0.005636530
FINAL SINGLE POINT ENERGY      -292.355064143564

DIPOLE MOMENT
-------------

Method             : SCF
Type of density    : Electron Density
Multiplicity       :   1
Irrep              :   0
Energy             :  -292.3494276133189373 Eh
Relativity type    :
Basis              : AO
                                X                 Y                 Z
Electronic contribution:      0.077034522      -1.183112940      -0.292386802
Nuclear contribution   :     -0.008091156       1.682730653       0.307275943
                        -----------------------------------------
Total Dipole Moment    :      0.068943366       0.499617713       0.014889141
                        -----------------------------------------
Magnitude (a.u.)       :      0.504571832
Magnitude (Debye)      :      1.282519674

Rotational constants in cm-1:             0.137775             0.051485             0.041834
Rotational constants in MHz :          4130.376208          1543.470169          1254.154944

                             ****ORCA TERMINATED NORMALLY****
TOTAL RUN TIME: 0 days 0 hours 3 minutes 3 seconds 612 msec
