                         Program Version 6.0.0  -   RELEASE  -
|  1> !PBE0 opt def2-SV(p) d3 TightSCF SlowConv RIJCOSX defgrid2
|  2>
|  3> %pal
|  4> nprocs 8
|  5> end
|  6>
|  7> %scf
|  8> MaxIter 1500
|  9> end
| 10>
| 11> %maxcore 3500
| 12>
| 13> !CPCM
| 14> %cpcm smd true
| 15> SMDsolvent "MeCN"
| 16> surfacetype gepol_ses
| 17> rsolv 2.19
| 18> end
| 19>
| 20> * xyz -1 2
| 21> C           0.68315502285048     -1.23058998559791     -0.00197785400563
| 22> C          -0.69097039389614     -1.22820808682412     -0.00110778792906
| 23> C          -1.39878915837568      0.00192561974512      0.00006123035750
| 24> C          -0.67088260295619      1.21697689217912      0.00034729291936
| 25> C           0.70599002665524      1.19710781410292     -0.00056169847882
| 26> C           1.43890972865005     -0.02356673016238     -0.00174160392592
| 27> C           2.88835051512998     -0.09555430971111     -0.00265662366589
| 28> O           3.51113560358604     -1.16132419888811     -0.00429988492646
| 29> C           3.67215429347512      1.21312233920081     -0.00319382492201
| 30> H           3.44490427270519      1.82862721041062      0.88658626511100
| 31> H           4.74564035342603      0.96713680695522     -0.00513239151038
| 32> H           3.44193148262032      1.82994436135706     -0.89128425723845
| 33> H           1.24130264942652      2.15210104681416     -0.00032125400509
| 34> H          -1.23634900308120      2.15002194871812      0.00128004669295
| 35> N          -2.79949677516438      0.01738261553575      0.00104508920787
| 36> O          -3.38660343043673      1.11542368371417      0.00320409549424
| 37> O          -3.41030224545591     -1.06695584054066      0.00182719273433
| 38> H          -1.27295707729704     -2.15125183977829     -0.00128101747157
| 39> H           1.24384223813830     -2.16976914723049     -0.00287851443797
| 40> *
| 41>
| 42>                          ****END OF INPUT****
 Total Charge           Charge          ....   -1
 Multiplicity           Mult            ....    2
 Number of Electrons    NEL             ....   87
Dispersion correction           -0.018307986
FINAL SINGLE POINT ENERGY      -588.441148009913
Dispersion correction             ... done (  0.1 sec)
Dispersion correction           -0.018307181
FINAL SINGLE POINT ENERGY      -588.441433113493
Dispersion correction             ... done (  0.1 sec)
Dispersion correction           -0.018308208
FINAL SINGLE POINT ENERGY      -588.441447338459
Dispersion correction             ... done (  0.1 sec)
FINAL SINGLE POINT ENERGY      -588.441479109898
FINAL SINGLE POINT ENERGY      -588.441514929352
Dispersion correction             ... done (  0.1 sec)
Dispersion correction           -0.018308009
FINAL SINGLE POINT ENERGY      -588.441512035098
Dispersion correction             ... done (  0.1 sec)
Dispersion correction           -0.018308215
FINAL SINGLE POINT ENERGY      -588.441519572455
Dispersion correction             ... done (  0.1 sec)
                    ***********************HURRAY********************

CARTESIAN COORDINATES (ANGSTROEM)
---------------------------------
  C      0.684084   -1.226645   -0.002494
  C     -0.691685   -1.228653   -0.001205
  C     -1.400199    0.002332    0.000157
  C     -0.673138    1.220339   -0.000537
  C      0.705625    1.201641   -0.001721
  C      1.432736   -0.018550   -0.002600
  C      2.892809   -0.087628   -0.003724
  O      3.490150   -1.164113   -0.005386
  C      3.676348    1.208306   -0.002281
  H      3.446289    1.821830    0.887226
  H      4.751722    0.971193   -0.002991
  H      3.445799    1.824220   -0.889983
  H      1.240396    2.155983   -0.002095
  H     -1.230473    2.158290    0.000138
  N     -2.793532    0.013605    0.002589
  O     -3.391881    1.112907    0.003492
  O     -3.409422   -1.075991    0.003777
  H     -1.264431   -2.157560   -0.001047
  H      1.239768   -2.168954   -0.003402

 Multiplicity           Mult            ....    2
 Number of Electrons    NEL             ....   87
 Basis Dimension        Dim             ....  182

ORBITAL ENERGIES
----------------
                 SPIN UP ORBITALS
  NO   OCC          E(Eh)            E(eV)
   0   1.0000     -19.166300      -521.5416
   1   1.0000     -19.162533      -521.4390
   2   1.0000     -19.162479      -521.4376
   3   1.0000     -14.541110      -395.6837
   4   1.0000     -10.290254      -280.0121
   5   1.0000     -10.251221      -278.9499
   6   1.0000     -10.227187      -278.2959
   7   1.0000     -10.222932      -278.1801
   8   1.0000     -10.222457      -278.1672
   9   1.0000     -10.222042      -278.1559
  10   1.0000     -10.219209      -278.0788
  11   1.0000     -10.208569      -277.7893
  12   1.0000      -1.170093       -31.8399
  13   1.0000      -1.024482       -27.8776
  14   1.0000      -0.990112       -26.9423
  15   1.0000      -0.870394       -23.6846
  16   1.0000      -0.799182       -21.7468
  17   1.0000      -0.755260       -20.5517
  18   1.0000      -0.738021       -20.0826
  19   1.0000      -0.688733       -18.7414
  20   1.0000      -0.604522       -16.4499
  21   1.0000      -0.586784       -15.9672
  22   1.0000      -0.549265       -14.9463
  23   1.0000      -0.513292       -13.9674
  24   1.0000      -0.500778       -13.6269
  25   1.0000      -0.482258       -13.1229
  26   1.0000      -0.471116       -12.8197
  27   1.0000      -0.446230       -12.1425
  28   1.0000      -0.440735       -11.9930
  29   1.0000      -0.439003       -11.9459
  30   1.0000      -0.423603       -11.5268
  31   1.0000      -0.406178       -11.0527
  32   1.0000      -0.401232       -10.9181
  33   1.0000      -0.377595       -10.2749
  34   1.0000      -0.370545       -10.0830
  35   1.0000      -0.350154        -9.5282
  36   1.0000      -0.334531        -9.1030
  37   1.0000      -0.281356        -7.6561
  38   1.0000      -0.271391        -7.3849
  39   1.0000      -0.266580        -7.2540
  40   1.0000      -0.263127        -7.1600
  41   1.0000      -0.244042        -6.6407
  42   1.0000      -0.242128        -6.5886
  43   1.0000      -0.129519        -3.5244
  44   0.0000      -0.018459        -0.5023
  45   0.0000       0.008308         0.2261
  46   0.0000       0.072121         1.9625
  47   0.0000       0.093353         2.5403
  48   0.0000       0.118404         3.2219

                 SPIN DOWN ORBITALS
  NO   OCC          E(Eh)            E(eV)
   0   1.0000     -19.162934      -521.4499
   1   1.0000     -19.157878      -521.3124
   2   1.0000     -19.157773      -521.3095
   3   1.0000     -14.537388      -395.5824
   4   1.0000     -10.289892      -280.0022
   5   1.0000     -10.249672      -278.9078
   6   1.0000     -10.227643      -278.3083
   7   1.0000     -10.223279      -278.1896
   8   1.0000     -10.221036      -278.1285
   9   1.0000     -10.220780      -278.1216
  10   1.0000     -10.216191      -277.9967
  11   1.0000     -10.208637      -277.7911
  12   1.0000      -1.161827       -31.6149
  13   1.0000      -1.018749       -27.7216
  14   1.0000      -0.981252       -26.7012
  15   1.0000      -0.866416       -23.5764
  16   1.0000      -0.791858       -21.5476
  17   1.0000      -0.752274       -20.4704
  18   1.0000      -0.734583       -19.9890
  19   1.0000      -0.681885       -18.5550
  20   1.0000      -0.603645       -16.4260
  21   1.0000      -0.582224       -15.8431
  22   1.0000      -0.546976       -14.8840
  23   1.0000      -0.507100       -13.7989
  24   1.0000      -0.478726       -13.0268
  25   1.0000      -0.475830       -12.9480
  26   1.0000      -0.468276       -12.7424
  27   1.0000      -0.442329       -12.0364
  28   1.0000      -0.439013       -11.9461
  29   1.0000      -0.432968       -11.7817
  30   1.0000      -0.422818       -11.5055
  31   1.0000      -0.403998       -10.9933
  32   1.0000      -0.400294       -10.8925
  33   1.0000      -0.369114       -10.0441
  34   1.0000      -0.368995       -10.0409
  35   1.0000      -0.336744        -9.1633
  36   1.0000      -0.333683        -9.0800
  37   1.0000      -0.266741        -7.2584
  38   1.0000      -0.260617        -7.0917
  39   1.0000      -0.243562        -6.6277
  40   1.0000      -0.241224        -6.5640
  41   1.0000      -0.240402        -6.5417
  42   1.0000      -0.237918        -6.4741
  43   0.0000      -0.054198        -1.4748
  44   0.0000       0.011075         0.3014
  45   0.0000       0.013889         0.3779
  46   0.0000       0.093329         2.5396
  47   0.0000       0.093696         2.5496

MULLIKEN ATOMIC CHARGES AND SPIN POPULATIONS
--------------------------------------------
   0 C :   -0.166946   -0.034720
   1 C :   -0.189361    0.105102
   2 C :    0.159260    0.068055
   3 C :   -0.193281    0.114600
   4 C :   -0.170791   -0.041841
   5 C :   -0.012692    0.215802
   6 C :    0.043588    0.022709
   7 O :   -0.314464    0.115913
   8 C :   -0.348998   -0.005452
   9 H :    0.157333    0.001696
  10 H :    0.129735   -0.000511
  11 H :    0.157361    0.001696
  12 H :    0.110543    0.000801
  13 H :    0.093573   -0.006623
  14 N :    0.196253    0.128982
  15 O :   -0.419740    0.158925
  16 O :   -0.419937    0.160775
  17 H :    0.094063   -0.006132
  18 H :    0.094502    0.000222
Sum of atomic charges         :   -1.0000000

LOEWDIN ATOMIC CHARGES AND SPIN POPULATIONS
-------------------------------------------
   0 C :   -0.126881   -0.007847
   1 C :   -0.166989    0.081478
   2 C :   -0.085937    0.087862
   3 C :   -0.168535    0.088025
   4 C :   -0.135861   -0.012327
   5 C :   -0.147177    0.164755
   6 C :    0.032262    0.040280
   7 O :   -0.253047    0.113106
   8 C :   -0.374854   -0.001296
   9 H :    0.144247    0.001570
  10 H :    0.130077   -0.000279
  11 H :    0.144263    0.001569
  12 H :    0.136905    0.000326
  13 H :    0.136259   -0.003100
  14 N :    0.222228    0.134308
  15 O :   -0.377152    0.156310
  16 O :   -0.376687    0.158107
  17 H :    0.135712   -0.002905
  18 H :    0.131165    0.000059

  Mayer bond orders larger than 0.100000
B(  0-C ,  1-C ) :   1.4499 B(  0-C ,  5-C ) :   1.2500 B(  0-C , 18-H ) :   0.9616
B(  1-C ,  2-C ) :   1.2335 B(  1-C , 17-H ) :   0.9592 B(  2-C ,  3-C ) :   1.2455
B(  2-C , 14-N ) :   1.0754 B(  3-C ,  4-C ) :   1.4563 B(  3-C , 13-H ) :   0.9560
B(  4-C ,  5-C ) :   1.2521 B(  4-C , 12-H ) :   0.9500 B(  5-C ,  6-C ) :   1.0600
B(  6-C ,  7-O ) :   2.0148 B(  6-C ,  8-C ) :   1.1001 B(  8-C ,  9-H ) :   0.9219
B(  8-C , 10-H ) :   0.9394 B(  8-C , 11-H ) :   0.9218 B( 14-N , 15-O ) :   1.3708
B( 14-N , 16-O ) :   1.3690 B( 15-O , 16-O ) :   0.1756

Dispersion correction           -0.018308116
FINAL SINGLE POINT ENERGY      -588.441519793922

DIPOLE MOMENT
-------------

Method             : SCF
Type of density    : Electron Density
Multiplicity       :   2
Irrep              :   0
Energy             :  -588.4232116779520538 Eh
Relativity type    :
Basis              : AO
                                X                 Y                 Z
Electronic contribution:     -8.317867786      -3.103951530       0.004226828
Nuclear contribution   :     10.877428257       4.317176654      -0.006597315
                        -----------------------------------------
Total Dipole Moment    :      2.559560471       1.213225124      -0.002370487
                        -----------------------------------------
Magnitude (a.u.)       :      2.832537842
Magnitude (Debye)      :      7.199739021

Rotational constants in cm-1:             0.095162             0.015864             0.013633
Rotational constants in MHz :          2852.890795           475.604843           408.695859

                             ****ORCA TERMINATED NORMALLY****
TOTAL RUN TIME: 0 days 0 hours 12 minutes 57 seconds 758 msec
