                         Program Version 6.0.0  -   RELEASE  -
|  1> !TPSSh opt aug-cc-pVTZ d3 TightSCF SlowConv RIJCOSX defgrid2
|  2>
|  3> %pal
|  4> nprocs 8
|  5> end
|  6>
|  7> %scf
|  8> MaxIter 1500
|  9> end
| 10>
| 11> %maxcore 3500
| 12>
| 13> !CPCM
| 14> %cpcm smd true
| 15> SMDsolvent "MeCN"
| 16> surfacetype gepol_ses
| 17> rsolv 2.19
| 18> end
| 19>
| 20> * xyz 0 1
| 21> C          -0.33578897576289      0.78706332413970     -0.00007064342653
| 22> C          -1.63104450940735      0.25443214150099      0.00002424994707
| 23> C          -1.80666505085776     -1.13184792287007      0.00010488474499
| 24> C          -0.67709514280741     -1.95709297790421      0.00008171672668
| 25> C           0.60485199074243     -1.42986794226310     -0.00000896897667
| 26> C           0.79403740595386     -0.03404919740528     -0.00007754792200
| 27> C           2.11776775675579      0.59942775277408     -0.00015788147995
| 28> C           3.31301096591764     -0.01037680773538      0.00016998990263
| 29> C           4.62672268480693      0.69670422006693      0.00006613977785
| 30> H           5.22986800286636      0.42062681248378     -0.88556810108390
| 31> H           5.22969209158747      0.42121685919020      0.88600364391119
| 32> H           4.49947065542959      1.79239087728672     -0.00031400154329
| 33> H           3.35830731979376     -1.10765129675188      0.00055685548665
| 34> H           2.10183131012046      1.69773297660842     -0.00050241232510
| 35> H           1.46480294351024     -2.10372145346859     -0.00005885954138
| 36> H          -0.81507815522221     -3.04272899333565      0.00012435061663
| 37> H          -2.80202830314914     -1.57931173714880      0.00017356816380
| 38> O          -2.63880088575063      1.15236499149081      0.00002597094029
| 39> C          -3.95583677666632      0.68525859520605      0.00017372040280
| 40> H          -4.60351833384684      1.57486457447649      0.00019490121742
| 41> H          -4.17725863855936      0.08018155004781      0.90083429325456
| 42> H          -4.17743481291300      0.08009944047560     -0.90038823724126
| 43> H          -0.23264934254160      1.87564721313537     -0.00013303155248
| 44> *
| 45>
| 46>                          ****END OF INPUT****
 Total Charge           Charge          ....    0
 Multiplicity           Mult            ....    1
 Number of Electrons    NEL             ....   80
Dispersion correction           -0.026531859
FINAL SINGLE POINT ENERGY      -463.722232020160
Dispersion correction             ... done (  0.0 sec)
Dispersion correction           -0.026576515
FINAL SINGLE POINT ENERGY      -463.723645202857
Dispersion correction             ... done (  0.1 sec)
Dispersion correction           -0.026592804
FINAL SINGLE POINT ENERGY      -463.723839061299
Dispersion correction             ... done (  0.1 sec)
Dispersion correction           -0.026596289
FINAL SINGLE POINT ENERGY      -463.723892666080
Dispersion correction             ... done (  0.1 sec)
Dispersion correction           -0.026594619
FINAL SINGLE POINT ENERGY      -463.723898647214
Dispersion correction             ... done (  0.1 sec)
                    ***********************HURRAY********************

CARTESIAN COORDINATES (ANGSTROEM)
---------------------------------
  C     -0.329295    0.799586    0.000443
  C     -1.620643    0.265125   -0.000206
  C     -1.804326   -1.117029    0.000407
  C     -0.677210   -1.942685    0.002088
  C      0.604751   -1.419961    0.002822
  C      0.796231   -0.026208    0.001677
  C      2.120030    0.606231    0.001959
  C      3.306413   -0.014002   -0.001984
  C      4.623801    0.689119   -0.001192
  H      5.214491    0.410875   -0.880797
  H      5.218228    0.401024    0.872719
  H      4.501887    1.773956    0.005056
  H      3.348678   -1.100337   -0.006384
  H      2.107060    1.694245    0.005368
  H      1.454185   -2.090833    0.004848
  H     -0.817137   -3.017469    0.003214
  H     -2.793025   -1.553566   -0.000633
  O     -2.637240    1.172808   -0.001438
  C     -3.972812    0.659708   -0.001517
  H     -4.622356    1.532188   -0.001925
  H     -4.161255    0.060741    0.893219
  H     -4.160795    0.060407   -0.896068
  H     -0.212499    1.877440   -0.000420

 Multiplicity           Mult            ....    1
 Number of Electrons    NEL             ....   80
 Basis Dimension        Dim             ....  782

ORBITAL ENERGIES
----------------

  NO   OCC          E(Eh)            E(eV)
   0   2.0000     -19.083113      -519.2779
   1   2.0000     -10.172814      -276.8163
   2   2.0000     -10.154592      -276.3205
   3   2.0000     -10.126452      -275.5548
   4   2.0000     -10.115952      -275.2691
   5   2.0000     -10.114249      -275.2227
   6   2.0000     -10.110283      -275.1148
   7   2.0000     -10.109644      -275.0974
   8   2.0000     -10.109484      -275.0931
   9   2.0000     -10.106520      -275.0124
  10   2.0000     -10.103134      -274.9202
  11   2.0000      -1.039328       -28.2816
  12   2.0000      -0.837465       -22.7886
  13   2.0000      -0.778714       -21.1899
  14   2.0000      -0.735165       -20.0049
  15   2.0000      -0.728506       -19.8237
  16   2.0000      -0.672307       -18.2944
  17   2.0000      -0.659529       -17.9467
  18   2.0000      -0.586204       -15.9514
  19   2.0000      -0.580102       -15.7854
  20   2.0000      -0.529350       -14.4043
  21   2.0000      -0.503823       -13.7097
  22   2.0000      -0.465934       -12.6787
  23   2.0000      -0.459356       -12.4997
  24   2.0000      -0.444120       -12.0851
  25   2.0000      -0.440390       -11.9836
  26   2.0000      -0.412553       -11.2261
  27   2.0000      -0.399651       -10.8751
  28   2.0000      -0.392329       -10.6758
  29   2.0000      -0.380024       -10.3410
  30   2.0000      -0.368648       -10.0314
  31   2.0000      -0.366326        -9.9682
  32   2.0000      -0.350968        -9.5503
  33   2.0000      -0.333504        -9.0751
  34   2.0000      -0.326761        -8.8916
  35   2.0000      -0.316091        -8.6013
  36   2.0000      -0.306660        -8.3447
  37   2.0000      -0.277952        -7.5635
  38   2.0000      -0.220856        -6.0098
  39   2.0000      -0.207220        -5.6387
  40   0.0000      -0.046131        -1.2553
  41   0.0000      -0.018493        -0.5032
  42   0.0000      -0.002783        -0.0757
  43   0.0000       0.005184         0.1411
  44   0.0000       0.010023         0.2727

MULLIKEN ATOMIC CHARGES
-----------------------
   0 C :   -0.679566
   1 C :    0.756466
   2 C :   -0.003379
   3 C :   -0.703999
   4 C :   -0.437108
   5 C :    1.354196
   6 C :    0.001004
   7 C :   -0.446030
   8 C :   -0.328849
   9 H :    0.124957
  10 H :    0.125964
  11 H :    0.124765
  12 H :    0.036478
  13 H :   -0.050281
  14 H :    0.090103
  15 H :    0.452944
  16 H :    0.077800
  17 O :   -0.691802
  18 C :   -0.234315
  19 H :    0.015510
  20 H :    0.202656
  21 H :    0.200972
  22 H :    0.011514
Sum of atomic charges:   -0.0000000

LOEWDIN ATOMIC CHARGES
----------------------
   0 C :    0.208689
   1 C :   -0.400011
   2 C :    0.202588
   3 C :    0.191842
   4 C :    0.201180
   5 C :   -0.155638
   6 C :    0.206842
   7 C :    0.210806
   8 C :    0.563211
   9 H :   -0.170505
  10 H :   -0.170569
  11 H :   -0.179731
  12 H :   -0.191117
  13 H :   -0.191422
  14 H :   -0.195962
  15 H :   -0.177182
  16 H :   -0.202574
  17 O :    0.596792
  18 C :    0.353693
  19 H :   -0.178909
  20 H :   -0.171851
  21 H :   -0.171879
  22 H :   -0.178293

  Mayer bond orders larger than 0.100000
B(  0-C ,  1-C ) :   0.6309 B(  0-C ,  4-C ) :  -0.1056 B(  0-C ,  5-C ) :   0.3837
B(  0-C ,  6-C ) :  -0.2602 B(  0-C ,  7-C ) :   0.1545 B(  0-C , 17-O ) :   0.4383
B(  0-C , 22-H ) :   1.1506 B(  1-C ,  2-C ) :   1.1111 B(  1-C ,  4-C ) :  -0.1052
B(  1-C , 18-C ) :   0.1719 B(  1-C , 22-H ) :  -0.1014 B(  2-C ,  3-C ) :   1.1247
B(  2-C , 16-H ) :   1.0609 B(  2-C , 17-O ) :  -0.2420 B(  2-C , 18-C ) :  -0.1285
B(  3-C ,  4-C ) :   1.3064 B(  3-C ,  5-C ) :  -0.1703 B(  3-C , 15-H ) :   0.4665
B(  4-C ,  5-C ) :   0.6636 B(  4-C ,  7-C ) :   0.1320 B(  4-C , 14-H ) :   1.0103
B(  5-C ,  6-C ) :   0.2029 B(  5-C ,  7-C ) :  -0.2093 B(  5-C , 12-H ) :  -0.1398
B(  5-C , 17-O ) :   0.1392 B(  6-C ,  7-C ) :   1.0381 B(  6-C , 13-H ) :   1.2066
B(  7-C ,  8-C ) :   1.0223 B(  7-C , 11-H ) :   0.1159 B(  7-C , 12-H ) :   1.3072
B(  8-C ,  9-H ) :   0.9719 B(  8-C , 10-H ) :   0.9723 B(  8-C , 11-H ) :   0.9352
B( 17-O , 18-C ) :   0.9516 B( 18-C , 19-H ) :   1.0689 B( 18-C , 20-H ) :   0.9381
B( 18-C , 21-H ) :   0.9378

Dispersion correction           -0.026593917
FINAL SINGLE POINT ENERGY      -463.723897629562

DIPOLE MOMENT
-------------

Method             : SCF
Type of density    : Electron Density
Multiplicity       :   1
Irrep              :   0
Energy             :  -463.6973037130378543 Eh
Relativity type    :
Basis              : AO
                                X                 Y                 Z
Electronic contribution:     -5.101012252      -0.361843385       0.003034459
Nuclear contribution   :      4.760935494       0.002544090      -0.003933514
                        -----------------------------------------
Total Dipole Moment    :     -0.340076758      -0.359299295      -0.000899055
                        -----------------------------------------
Magnitude (a.u.)       :      0.494721127
Magnitude (Debye)      :      1.257481171

Rotational constants in cm-1:             0.103332             0.016963             0.014651
Rotational constants in MHz :          3097.828761           508.542695           439.234161

                             ****ORCA TERMINATED NORMALLY****
TOTAL RUN TIME: 0 days 0 hours 33 minutes 22 seconds 973 msec
