                         Program Version 6.0.0  -   RELEASE  -
|  1> !PBE0 freq aug-cc-pVTZ d3 TightSCF SlowConv RIJCOSX defgrid2
|  2>
|  3> %pal
|  4> nprocs 12
|  5> end
|  6>
|  7> %scf
|  8> MaxIter 1500
|  9> end
| 10>
| 11> %maxcore 5000
| 12>
| 13> !CPCM
| 14> %cpcm smd true
| 15> SMDsolvent "MeCN"
| 16> surfacetype gepol_ses
| 17> rsolv 2.19
| 18> end
| 19>
| 20> * xyz 0 1
| 21> C          -0.32904118456034      0.79420257804762      0.00055994301055
| 22> C          -1.61793474493997      0.26256513684039     -0.00018437369784
| 23> C          -1.79808199927773     -1.11572660888683      0.00046387559573
| 24> C          -0.67359190043015     -1.93766288861196      0.00240416573450
| 25> C           0.60414372444044     -1.41608730914355      0.00331764332494
| 26> C           0.79330769296890     -0.02685639852764      0.00201465932139
| 27> C           2.11375041991377      0.60549946647922      0.00237102031121
| 28> C           3.29645318008513     -0.01160601404792     -0.00225700475636
| 29> C           4.60784497245836      0.68752629782176     -0.00147626591144
| 30> H           5.19894159019152      0.40980214842395     -0.88014954363626
| 31> H           5.20336866858635      0.39860260141860      0.87058682566121
| 32> H           4.48887398306212      1.77231191541032      0.00565213541302
| 33> H           3.33723015525917     -1.09815349342027     -0.00732006339013
| 34> H           2.10153670025383      1.69357905559108      0.00633789495072
| 35> H           1.45321144226469     -2.08718304436707      0.00570748372934
| 36> H          -0.81202017684881     -3.01266172627009      0.00363730090523
| 37> H          -2.78574181388178     -1.55460141846425     -0.00068957399962
| 38> O          -2.62667223153288      1.16206375012142     -0.00145042565967
| 39> C          -3.95060499154662      0.66271394224411     -0.00185129974228
| 40> H          -4.60311001454600      1.53342716844547     -0.00208873657592
| 41> H          -4.15066238583250      0.06349948640999      0.89074245466287
| 42> H          -4.14995155989290      0.06371310567486     -0.89468977756615
| 43> H          -0.21408532619458      1.87239524881078     -0.00038373768502
| 44> *
| 45>
| 46>                          ****END OF INPUT****

CARTESIAN COORDINATES (ANGSTROEM)
---------------------------------
  C     -0.329041    0.794203    0.000560
  C     -1.617935    0.262565   -0.000184
  C     -1.798082   -1.115727    0.000464
  C     -0.673592   -1.937663    0.002404
  C      0.604144   -1.416087    0.003318
  C      0.793308   -0.026856    0.002015
  C      2.113750    0.605499    0.002371
  C      3.296453   -0.011606   -0.002257
  C      4.607845    0.687526   -0.001476
  H      5.198942    0.409802   -0.880150
  H      5.203369    0.398603    0.870587
  H      4.488874    1.772312    0.005652
  H      3.337230   -1.098153   -0.007320
  H      2.101537    1.693579    0.006338
  H      1.453211   -2.087183    0.005707
  H     -0.812020   -3.012662    0.003637
  H     -2.785742   -1.554601   -0.000690
  O     -2.626672    1.162064   -0.001450
  C     -3.950605    0.662714   -0.001851
  H     -4.603110    1.533427   -0.002089
  H     -4.150662    0.063499    0.890742
  H     -4.149952    0.063713   -0.894690
  H     -0.214085    1.872395   -0.000384

 Total Charge           Charge          ....    0
 Multiplicity           Mult            ....    1
 Number of Electrons    NEL             ....   80
 Basis Dimension        Dim             ....  782

ORBITAL ENERGIES
----------------

  NO   OCC          E(Eh)            E(eV)
   0   2.0000     -19.242794      -523.6230
   1   2.0000     -10.287918      -279.9485
   2   2.0000     -10.262282      -279.2509
   3   2.0000     -10.241165      -278.6763
   4   2.0000     -10.228983      -278.3448
   5   2.0000     -10.227795      -278.3124
   6   2.0000     -10.222567      -278.1702
   7   2.0000     -10.222011      -278.1551
   8   2.0000     -10.221840      -278.1504
   9   2.0000     -10.219116      -278.0763
  10   2.0000     -10.211492      -277.8688
  11   2.0000      -1.101679       -29.9782
  12   2.0000      -0.888424       -24.1752
  13   2.0000      -0.826254       -22.4835
  14   2.0000      -0.781499       -21.2657
  15   2.0000      -0.774285       -21.0694
  16   2.0000      -0.714196       -19.4343
  17   2.0000      -0.700682       -19.0665
  18   2.0000      -0.625869       -17.0308
  19   2.0000      -0.618079       -16.8188
  20   2.0000      -0.566838       -15.4245
  21   2.0000      -0.539807       -14.6889
  22   2.0000      -0.503271       -13.6947
  23   2.0000      -0.495677       -13.4881
  24   2.0000      -0.482495       -13.1294
  25   2.0000      -0.474209       -12.9039
  26   2.0000      -0.445270       -12.1164
  27   2.0000      -0.431093       -11.7306
  28   2.0000      -0.421857       -11.4793
  29   2.0000      -0.410880       -11.1806
  30   2.0000      -0.399583       -10.8732
  31   2.0000      -0.396660       -10.7937
  32   2.0000      -0.379501       -10.3268
  33   2.0000      -0.364052        -9.9064
  34   2.0000      -0.354480        -9.6459
  35   2.0000      -0.346190        -9.4203
  36   2.0000      -0.336318        -9.1517
  37   2.0000      -0.304873        -8.2960
  38   2.0000      -0.244295        -6.6476
  39   2.0000      -0.229392        -6.2421
  40   0.0000      -0.032277        -0.8783
  41   0.0000      -0.004653        -0.1266
  42   0.0000       0.002539         0.0691
  43   0.0000       0.010496         0.2856
  44   0.0000       0.015023         0.4088

MULLIKEN ATOMIC CHARGES
-----------------------
   0 C :   -0.974217
   1 C :    0.724960
   2 C :   -0.234710
   3 C :   -1.079434
   4 C :   -0.632344
   5 C :    1.402757
   6 C :   -0.168303
   7 C :   -0.498530
   8 C :   -0.811056
   9 H :    0.240024
  10 H :    0.241756
  11 H :    0.280748
  12 H :    0.216926
  13 H :    0.107110
  14 H :    0.335772
  15 H :    0.638128
  16 H :    0.353956
  17 O :   -0.590502
  18 C :   -0.706270
  19 H :    0.264728
  20 H :    0.297821
  21 H :    0.295975
  22 H :    0.294708
Sum of atomic charges:    0.0000000

LOEWDIN ATOMIC CHARGES
----------------------
   0 C :    0.206614
   1 C :   -0.408336
   2 C :    0.199942
   3 C :    0.187190
   4 C :    0.197196
   5 C :   -0.161824
   6 C :    0.203100
   7 C :    0.202497
   8 C :    0.558366
   9 H :   -0.167228
  10 H :   -0.167298
  11 H :   -0.176340
  12 H :   -0.185793
  13 H :   -0.186097
  14 H :   -0.190932
  15 H :   -0.171577
  16 H :   -0.197265
  17 O :    0.601462
  18 C :    0.339087
  19 H :   -0.175112
  20 H :   -0.167661
  21 H :   -0.167651
  22 H :   -0.172337

  Mayer bond orders larger than 0.100000
B(  0-C ,  1-C ) :   0.7188 B(  0-C ,  2-C ) :  -0.1305 B(  0-C ,  3-C ) :   0.1124
B(  0-C ,  4-C ) :  -0.2312 B(  0-C ,  5-C ) :   0.3603 B(  0-C ,  6-C ) :  -0.2610
B(  0-C ,  7-C ) :   0.1890 B(  0-C , 17-O ) :   0.3104 B(  0-C , 22-H ) :   0.9517
B(  1-C ,  2-C ) :   1.1250 B(  1-C ,  4-C ) :  -0.1332 B(  1-C , 17-O ) :   0.2552
B(  2-C ,  3-C ) :   1.1475 B(  2-C , 16-H ) :   0.8959 B(  2-C , 17-O ) :  -0.1606
B(  2-C , 18-C ) :  -0.1264 B(  3-C ,  4-C ) :   1.1120 B(  3-C ,  5-C ) :  -0.1208
B(  3-C , 14-H ) :  -0.1048 B(  3-C , 15-H ) :   0.2252 B(  4-C ,  5-C ) :   0.6690
B(  4-C , 14-H ) :   0.9103 B(  5-C ,  6-C ) :   0.1361 B(  5-C ,  7-C ) :  -0.1506
B(  5-C ,  8-C ) :   0.1232 B(  5-C , 12-H ) :  -0.1122 B(  5-C , 17-O ) :   0.1035
B(  6-C ,  7-C ) :   1.0759 B(  6-C , 13-H ) :   1.2112 B(  7-C ,  8-C ) :   0.8120
B(  7-C , 12-H ) :   1.2193 B(  8-C ,  9-H ) :   0.9643 B(  8-C , 10-H ) :   0.9634
B(  8-C , 11-H ) :   0.9166 B( 17-O , 18-C ) :   1.0015 B( 18-C , 19-H ) :   0.9415
B( 18-C , 20-H ) :   0.9047 B( 18-C , 21-H ) :   0.9074

Dispersion correction           -0.020019493
FINAL SINGLE POINT ENERGY      -463.131694974874

DIPOLE MOMENT
-------------

Method             : SCF
Type of density    : Electron Density
Multiplicity       :   1
Irrep              :   0
Energy             :  -463.1116754822926964 Eh
Relativity type    :
Basis              : AO
                                X                 Y                 Z
Electronic contribution:     -5.048989584      -0.370215753       0.004267026
Nuclear contribution   :      4.740362104       0.016400295      -0.005444704
                        -----------------------------------------
Total Dipole Moment    :     -0.308627480      -0.353815458      -0.001177678
                        -----------------------------------------
Magnitude (a.u.)       :      0.469507920
Magnitude (Debye)      :      1.193394292

VIBRATIONAL FREQUENCIES
-----------------------

Scaling factor for frequencies =  1.000000000  (already applied!)

     0:       0.00 cm**-1
     1:       0.00 cm**-1
     2:       0.00 cm**-1
     3:       0.00 cm**-1
     4:       0.00 cm**-1
     5:       0.00 cm**-1
     6:      11.64 cm**-1
     7:      80.11 cm**-1
     8:     110.82 cm**-1
     9:     130.24 cm**-1
    10:     196.98 cm**-1
    11:     203.08 cm**-1
    12:     248.26 cm**-1
    13:     262.20 cm**-1
    14:     298.41 cm**-1
    15:     332.89 cm**-1
    16:     357.77 cm**-1
    17:     466.74 cm**-1
    18:     472.74 cm**-1
    19:     577.65 cm**-1
    20:     616.19 cm**-1
    21:     624.33 cm**-1
    22:     704.53 cm**-1
    23:     770.70 cm**-1
    24:     789.23 cm**-1
    25:     830.37 cm**-1
    26:     891.90 cm**-1
    27:     898.86 cm**-1
    28:     905.92 cm**-1
    29:     971.17 cm**-1
    30:     995.65 cm**-1
    31:    1002.80 cm**-1
    32:    1007.79 cm**-1
    33:    1061.41 cm**-1
    34:    1072.79 cm**-1
    35:    1106.05 cm**-1
    36:    1128.37 cm**-1
    37:    1165.48 cm**-1
    38:    1168.54 cm**-1
    39:    1189.22 cm**-1
    40:    1210.44 cm**-1
    41:    1293.54 cm**-1
    42:    1304.79 cm**-1
    43:    1317.09 cm**-1
    44:    1331.78 cm**-1
    45:    1379.86 cm**-1
    46:    1389.09 cm**-1
    47:    1443.79 cm**-1
    48:    1450.21 cm**-1
    49:    1459.38 cm**-1
    50:    1467.28 cm**-1
    51:    1476.85 cm**-1
    52:    1483.82 cm**-1
    53:    1526.13 cm**-1
    54:    1632.35 cm**-1
    55:    1661.90 cm**-1
    56:    1726.16 cm**-1
    57:    3026.48 cm**-1
    58:    3030.52 cm**-1
    59:    3078.38 cm**-1
    60:    3098.95 cm**-1
    61:    3117.96 cm**-1
    62:    3138.39 cm**-1
    63:    3151.41 cm**-1
    64:    3156.08 cm**-1
    65:    3184.72 cm**-1
    66:    3187.26 cm**-1
    67:    3203.23 cm**-1
    68:    3226.11 cm**-1

IR SPECTRUM
-----------

 Mode   freq       eps      Int      T**2         TX        TY        TZ
       cm**-1   L/(mol*cm) km/mol    a.u.
----------------------------------------------------------------------------
  6:     11.64   0.000250    1.26  0.006703  ( 0.000143  0.000281  0.081874)
  7:     80.11   0.001573    7.95  0.006128  (-0.000345 -0.000510 -0.078278)
  8:    110.82   0.000419    2.12  0.001180  (-0.024973  0.023588 -0.000198)
  9:    130.24   0.000135    0.68  0.000323  (-0.000386  0.000326 -0.017965)
 10:    196.98   0.000111    0.56  0.000175  (-0.000191 -0.000097  0.013233)
 11:    203.08   0.000269    1.36  0.000414  (-0.000329  0.000376 -0.020333)
 12:    248.26   0.000596    3.01  0.000749  ( 0.004213  0.027041  0.000694)
 13:    262.20   0.000177    0.89  0.000211  ( 0.000280  0.000855 -0.014481)
 14:    298.41   0.000032    0.16  0.000034  (-0.000246  0.000118  0.005791)
 15:    332.89   0.000067    0.34  0.000063  ( 0.006602  0.004355  0.000023)
 16:    357.77   0.000286    1.44  0.000249  ( 0.015323 -0.003792  0.000130)
 17:    466.74   0.001400    7.07  0.000936  ( 0.000008 -0.000167 -0.030590)
 18:    472.74   0.000319    1.61  0.000210  ( 0.010403  0.010091 -0.000505)
 19:    577.65   0.002787   14.09  0.001506  ( 0.023689 -0.030735 -0.000267)
 20:    616.19   0.000102    0.51  0.000051  ( 0.000208  0.000160  0.007167)
 21:    624.33   0.000356    1.80  0.000178  (-0.005219 -0.012272 -0.000005)
 22:    704.53   0.009726   49.15  0.004308  ( 0.000164  0.000158  0.065636)
 23:    770.70   0.002057   10.40  0.000833  (-0.025780  0.012963 -0.000619)
 24:    789.23   0.016178   81.76  0.006397  (-0.000093  0.000352  0.079978)
 25:    830.37   0.000394    1.99  0.000148  (-0.000142  0.000057  0.012164)
 26:    891.90   0.001905    9.63  0.000667  ( 0.000309  0.000368  0.025814)
 27:    898.86   0.010160   51.34  0.003527  ( 0.049622 -0.032631 -0.000327)
 28:    905.92   0.004706   23.78  0.001621  (-0.000321  0.000554 -0.040258)
 29:    971.17   0.007369   37.24  0.002368  (-0.048392 -0.005078  0.000488)
 30:    995.65   0.006227   31.47  0.001952  (-0.000442 -0.000364  0.044176)
 31:   1002.80   0.011863   59.95  0.003692  ( 0.000535 -0.000345  0.060755)
 32:   1007.79   0.000358    1.81  0.000111  ( 0.001786 -0.010379 -0.000295)
 33:   1061.41   0.000103    0.52  0.000030  (-0.000283  0.000176  0.005491)
 34:   1072.79   0.023874  120.65  0.006945  ( 0.082508  0.011711  0.000061)
 35:   1106.05   0.002869   14.50  0.000809  ( 0.004509  0.028092  0.000126)
 36:   1128.37   0.000184    0.93  0.000051  ( 0.007126  0.000242  0.000157)
 37:   1165.48   0.008808   44.51  0.002358  (-0.047357  0.010737 -0.000591)
 38:   1168.54   0.000243    1.23  0.000065  (-0.004074  0.000791  0.006909)
 39:   1189.22   0.007039   35.57  0.001847  ( 0.041647 -0.010611 -0.000105)
 40:   1210.44   0.002949   14.90  0.000760  ( 0.024094 -0.013405  0.000085)
 41:   1293.54   0.034275  173.21  0.008269  ( 0.081919 -0.039472 -0.000044)
 42:   1304.79   0.000546    2.76  0.000131  ( 0.010819  0.003679  0.000023)
 43:   1317.09   0.027299  137.96  0.006468  (-0.071374  0.037064 -0.000133)
 44:   1331.78   0.005497   27.78  0.001288  (-0.031402  0.017380 -0.000028)
 45:   1379.86   0.010260   51.85  0.002320  (-0.046963  0.010712 -0.000079)
 46:   1389.09   0.000555    2.80  0.000125  (-0.009076 -0.006488  0.000382)
 47:   1443.79   0.003314   16.75  0.000716  (-0.002912  0.002714 -0.026467)
 48:   1450.21   0.018369   92.83  0.003953  (-0.050113  0.037890  0.002435)
 49:   1459.38   0.001836    9.28  0.000393  (-0.016649  0.010662  0.001319)
 50:   1467.28   0.003211   16.23  0.000683  (-0.004739  0.002991 -0.025525)
 51:   1476.85   0.006137   31.02  0.001297  (-0.029757  0.020228  0.001486)
 52:   1483.82   0.000839    4.24  0.000176  ( 0.012880  0.003202 -0.000465)
 53:   1526.13   0.025787  130.32  0.005273  (-0.067767  0.026087  0.000039)
 54:   1632.35   0.031548  159.43  0.006031  ( 0.049540 -0.059807  0.000042)
 55:   1661.90   0.037126  187.62  0.006971  (-0.083416  0.003619 -0.000000)
 56:   1726.16   0.005745   29.03  0.001039  (-0.032141 -0.002346  0.000012)
 57:   3026.48   0.008724   44.09  0.000900  ( 0.029257  0.006597  0.000062)
 58:   3030.52   0.013918   70.34  0.001433  (-0.036845 -0.008696  0.000040)
 59:   3078.38   0.004073   20.58  0.000413  (-0.000124  0.000053 -0.020319)
 60:   3098.95   0.009297   46.99  0.000936  (-0.000083 -0.000152 -0.030598)
 61:   3117.96   0.003858   19.50  0.000386  (-0.003789  0.019281  0.000140)
 62:   3138.39   0.003331   16.83  0.000331  ( 0.010573  0.014812  0.000084)
 63:   3151.41   0.008403   42.47  0.000832  (-0.003677 -0.028611 -0.000096)
 64:   3156.08   0.005061   25.57  0.000500  (-0.011995  0.018881  0.000004)
 65:   3184.72   0.002170   10.96  0.000213  ( 0.006104  0.013241  0.000010)
 66:   3187.26   0.001203    6.08  0.000118  ( 0.004644 -0.009808 -0.000017)
 67:   3203.23   0.003598   18.18  0.000350  ( 0.006649 -0.017501 -0.000021)
 68:   3226.11   0.000394    1.99  0.000038  ( 0.005601  0.002602 -0.000049)

--------------------------
THERMOCHEMISTRY AT 298.15K
--------------------------

Temperature         ...   298.15 K
Pressure            ...     1.00 atm
Total Mass          ...   148.21 AMU
Quasi RRHO          ...     True
Cut-Off Frequency   ...     1.00 cm^-1

Throughout the following assumptions are being made:
  (1) The electronic state is orbitally nondegenerate
  (2) There are no thermally accessible electronically excited states
  (3) Hindered rotations indicated by low frequency modes are not
      treated as such but are treated as vibrations and this may
      cause some error
  (4) All equations used are the standard statistical mechanics
      equations for an ideal gas
  (5) All vibrations are strictly harmonic

freq.      11.64  E(vib)   ...       0.58
freq.      80.11  E(vib)   ...       0.49
freq.     110.82  E(vib)   ...       0.45
freq.     130.24  E(vib)   ...       0.43
freq.     196.98  E(vib)   ...       0.35
freq.     203.08  E(vib)   ...       0.35
freq.     248.26  E(vib)   ...       0.31
freq.     262.20  E(vib)   ...       0.29
freq.     298.41  E(vib)   ...       0.26
freq.     332.89  E(vib)   ...       0.24
freq.     357.77  E(vib)   ...       0.22
freq.     466.74  E(vib)   ...       0.16
freq.     472.74  E(vib)   ...       0.15
freq.     577.65  E(vib)   ...       0.11
freq.     616.19  E(vib)   ...       0.09
freq.     624.33  E(vib)   ...       0.09
freq.     704.53  E(vib)   ...       0.07
freq.     770.70  E(vib)   ...       0.05
freq.     789.23  E(vib)   ...       0.05
freq.     830.37  E(vib)   ...       0.04
freq.     891.90  E(vib)   ...       0.03
freq.     898.86  E(vib)   ...       0.03
freq.     905.92  E(vib)   ...       0.03
freq.     971.17  E(vib)   ...       0.03
freq.     995.65  E(vib)   ...       0.02
freq.    1002.80  E(vib)   ...       0.02
freq.    1007.79  E(vib)   ...       0.02
freq.    1061.41  E(vib)   ...       0.02
freq.    1072.79  E(vib)   ...       0.02
freq.    1106.05  E(vib)   ...       0.02
freq.    1128.37  E(vib)   ...       0.01
freq.    1165.48  E(vib)   ...       0.01
freq.    1168.54  E(vib)   ...       0.01
freq.    1189.22  E(vib)   ...       0.01
freq.    1210.44  E(vib)   ...       0.01
freq.    1293.54  E(vib)   ...       0.01
freq.    1304.79  E(vib)   ...       0.01
freq.    1317.09  E(vib)   ...       0.01
freq.    1331.78  E(vib)   ...       0.01
freq.    1379.86  E(vib)   ...       0.01
freq.    1389.09  E(vib)   ...       0.00
freq.    1443.79  E(vib)   ...       0.00
freq.    1450.21  E(vib)   ...       0.00
freq.    1459.38  E(vib)   ...       0.00
freq.    1467.28  E(vib)   ...       0.00
freq.    1476.85  E(vib)   ...       0.00
freq.    1483.82  E(vib)   ...       0.00
freq.    1526.13  E(vib)   ...       0.00
freq.    1632.35  E(vib)   ...       0.00
freq.    1661.90  E(vib)   ...       0.00
freq.    1726.16  E(vib)   ...       0.00
freq.    3026.48  E(vib)   ...       0.00
freq.    3030.52  E(vib)   ...       0.00
freq.    3078.38  E(vib)   ...       0.00
freq.    3098.95  E(vib)   ...       0.00
freq.    3117.96  E(vib)   ...       0.00
freq.    3138.39  E(vib)   ...       0.00
freq.    3151.41  E(vib)   ...       0.00
freq.    3156.08  E(vib)   ...       0.00
freq.    3184.72  E(vib)   ...       0.00
freq.    3187.26  E(vib)   ...       0.00
freq.    3203.23  E(vib)   ...       0.00
freq.    3226.11  E(vib)   ...       0.00

------------
INNER ENERGY
------------

The inner energy is: U= E(el) + E(ZPE) + E(vib) + E(rot) + E(trans)
    E(el)   - is the total energy from the electronic structure calculation
              = E(kin-el) + E(nuc-el) + E(el-el) + E(nuc-nuc)
    E(ZPE)  - the the zero temperature vibrational energy from the frequency calculation
    E(vib)  - the the finite temperature correction to E(ZPE) due to population
              of excited vibrational states
    E(rot)  - is the rotational thermal energy
    E(trans)- is the translational thermal energy

Summary of contributions to the inner energy U:
Electronic energy                ...   -463.13169497 Eh
Zero point energy                ...      0.19319951 Eh     121.23 kcal/mol
Thermal vibrational correction   ...      0.00822878 Eh       5.16 kcal/mol
Thermal rotational correction    ...      0.00141627 Eh       0.89 kcal/mol
Thermal translational correction ...      0.00141627 Eh       0.89 kcal/mol
-----------------------------------------------------------------------
Total thermal energy                   -462.92743415 Eh

Summary of corrections to the electronic energy:
(perhaps to be used in another calculation)
Total thermal correction                  0.01106132 Eh       6.94 kcal/mol
Non-thermal (ZPE) correction              0.19319951 Eh     121.23 kcal/mol
-----------------------------------------------------------------------
Total correction                          0.20426083 Eh     128.18 kcal/mol

--------
ENTHALPY
--------

The enthalpy is H = U + kB*T
                kB is Boltzmann's constant
Total thermal energy              ...   -462.92743415 Eh
Thermal Enthalpy correction       ...      0.00094421 Eh       0.59 kcal/mol
-----------------------------------------------------------------------
Total Enthalpy                    ...   -462.92648994 Eh

Note: Only C1 symmetry has been detected, increase convergence thresholds
      if your molecule has a higher symmetry. Symmetry factor of 1.0 is
      used for the rotational entropy correction.

Note: Rotational entropy computed according to Herzberg
Infrared and Raman Spectra, Chapter V,1, Van Nostrand Reinhold, 1945
Point Group:  C1, Symmetry Number:   1
Rotational constants in cm-1:     0.103966     0.017089     0.014758

Vibrational entropy computed according to the QRRHO of S. Grimme
Chem.Eur.J. 2012 18 9955 using a reference frequency of 100.0 cm-1

-------
ENTROPY
-------

The entropy contributions are T*S = T*(S(el)+S(vib)+S(rot)+S(trans))
     S(el)   - electronic entropy
     S(vib)  - vibrational entropy
     S(rot)  - rotational entropy
     S(trans)- translational entropy
The entropies will be listed as multiplied by the temperature to get
units of energy

Electronic entropy                ...      0.00000000 Eh      0.00 kcal/mol
Vibrational entropy               ...      0.01469400 Eh      9.22 kcal/mol
Rotational entropy                ...      0.01449088 Eh      9.09 kcal/mol
Translational entropy             ...      0.01942844 Eh     12.19 kcal/mol
-----------------------------------------------------------------------
Final entropy term                ...      0.04861331 Eh     30.51 kcal/mol

In case the symmetry of your molecule has not been determined correctly
or in case you have a reason to use a different symmetry number we print

                             ****ORCA TERMINATED NORMALLY****
TOTAL RUN TIME: 0 days 1 hours 9 minutes 48 seconds 89 msec
