                         Program Version 6.0.0  -   RELEASE  -
|  1> !r2SCANh opt aug-cc-pVTZ d3 TightSCF SlowConv RIJCOSX defgrid2
|  2>
|  3> %pal
|  4> nprocs 8
|  5> end
|  6>
|  7> %scf
|  8> MaxIter 1500
|  9> end
| 10>
| 11> %maxcore 3500
| 12>
| 13> !CPCM
| 14> %cpcm smd true
| 15> SMDsolvent "MeCN"
| 16> surfacetype gepol_ses
| 17> rsolv 2.19
| 18> end
| 19>
| 20> * xyz -1 2
| 21> C          -0.01331421056281      1.21015152275559     -0.00003912841012
| 22> C           1.37407426915828      1.22077182581697      0.00009471803504
| 23> C           2.08268728216500      0.01623593632828      0.00008078293558
| 24> C           1.39800867624770     -1.21018542596672     -0.00005492668248
| 25> C           0.01763373542032     -1.22524409629627     -0.00018246787257
| 26> C          -0.75988843497050     -0.01763719993150     -0.00018385015586
| 27> C          -2.18998893121825     -0.10468719257966     -0.00029823993913
| 28> O          -2.82191384294989     -1.19348424477804     -0.00032077578394
| 29> C          -2.98040993394950      1.20193760901241     -0.00023396308602
| 30> H          -2.77113925068928      1.83311429650402      0.88831166373856
| 31> H          -2.77095660989795      1.83331313895105     -0.88859326031545
| 32> H          -4.05230547218906      0.94280281896802     -0.00037251615162
| 33> H          -0.53955758793286     -2.16627118900373     -0.00028423650614
| 34> H           1.97817281356228     -2.14018774357936     -0.00004958149680
| 35> F           3.44427090335711      0.03016813897025      0.00021925839865
| 36> H           1.93269491180525      2.16366570442592      0.00021265957610
| 37> H          -0.54367651735585      2.16766590040277     -0.00001523628380
| 38> *
| 39>
| 40>                          ****END OF INPUT****
 Total Charge           Charge          ....   -1
 Multiplicity           Mult            ....    2
 Number of Electrons    NEL             ....   73
Dispersion correction           -0.005406939
FINAL SINGLE POINT ENERGY      -484.130795971095
Dispersion correction             ... done (  0.0 sec)
Dispersion correction           -0.005422470
FINAL SINGLE POINT ENERGY      -484.132332917300
Dispersion correction             ... done (  0.0 sec)
Dispersion correction           -0.005425737
FINAL SINGLE POINT ENERGY      -484.132532027232
Dispersion correction             ... done (  0.0 sec)
FINAL SINGLE POINT ENERGY      -484.132582847741
Dispersion correction             ... done (  0.1 sec)
Dispersion correction           -0.005424367
FINAL SINGLE POINT ENERGY      -484.132587818455
Dispersion correction             ... done (  0.1 sec)
Dispersion correction           -0.005424011
FINAL SINGLE POINT ENERGY      -484.132588375422
Dispersion correction             ... done (  0.1 sec)
                    ***********************HURRAY********************

CARTESIAN COORDINATES (ANGSTROEM)
---------------------------------
  C     -0.022933    1.199356   -0.000306
  C      1.357210    1.221347    0.000188
  C      2.051878    0.016504    0.000037
  C      1.397164   -1.209044   -0.001064
  C      0.018028   -1.231507   -0.001342
  C     -0.757598   -0.027621   -0.000353
  C     -2.181075   -0.088974    0.001810
  O     -2.818771   -1.192271    0.005826
  C     -2.964892    1.206893   -0.000805
  H     -2.754496    1.827389    0.876436
  H     -2.748852    1.827450   -0.876610
  H     -4.028044    0.973447   -0.004082
  H     -0.509105   -2.175612   -0.002034
  H      1.973759   -2.125769   -0.001693
  F      3.421982    0.040096    0.001118
  H      1.901382    2.157193    0.000880
  H     -0.551246    2.143254    0.000285

 Multiplicity           Mult            ....    2
 Number of Electrons    NEL             ....   73
 Basis Dimension        Dim             ....  621

ORBITAL ENERGIES
----------------
                 SPIN UP ORBITALS
  NO   OCC          E(Eh)            E(eV)
   0   1.0000     -24.666914      -671.2209
   1   1.0000     -19.031238      -517.8663
   2   1.0000     -10.208583      -277.7897
   3   1.0000     -10.166495      -276.6444
   4   1.0000     -10.141558      -275.9658
   5   1.0000     -10.141243      -275.9573
   6   1.0000     -10.139340      -275.9055
   7   1.0000     -10.134730      -275.7800
   8   1.0000     -10.125679      -275.5337
   9   1.0000     -10.119986      -275.3788
  10   1.0000      -1.209594       -32.9147
  11   1.0000      -0.955965       -26.0131
  12   1.0000      -0.837577       -22.7916
  13   1.0000      -0.742085       -20.1932
  14   1.0000      -0.732888       -19.9429
  15   1.0000      -0.690892       -18.8001
  16   1.0000      -0.606659       -16.5080
  17   1.0000      -0.589485       -16.0407
  18   1.0000      -0.520501       -14.1636
  19   1.0000      -0.514162       -13.9911
  20   1.0000      -0.456621       -12.4253
  21   1.0000      -0.444362       -12.0917
  22   1.0000      -0.431290       -11.7360
  23   1.0000      -0.414888       -11.2897
  24   1.0000      -0.398277       -10.8377
  25   1.0000      -0.397667       -10.8211
  26   1.0000      -0.381148       -10.3716
  27   1.0000      -0.367720       -10.0062
  28   1.0000      -0.345651        -9.4056
  29   1.0000      -0.343236        -9.3399
  30   1.0000      -0.330015        -8.9802
  31   1.0000      -0.302583        -8.2337
  32   1.0000      -0.300113        -8.1665
  33   1.0000      -0.246655        -6.7118
  34   1.0000      -0.225905        -6.1472
  35   1.0000      -0.192404        -5.2356
  36   1.0000      -0.088178        -2.3994
  37   0.0000      -0.011192        -0.3046
  38   0.0000       0.008991         0.2447
  39   0.0000       0.022901         0.6232
  40   0.0000       0.025714         0.6997
  41   0.0000       0.036089         0.9820

                 SPIN DOWN ORBITALS
  NO   OCC          E(Eh)            E(eV)
   0   1.0000     -24.665788      -671.1902
   1   1.0000     -19.024403      -517.6803
   2   1.0000     -10.202841      -277.6334
   3   1.0000     -10.161081      -276.4971
   4   1.0000     -10.143724      -276.0248
   5   1.0000     -10.143195      -276.0104
   6   1.0000     -10.136236      -275.8210
   7   1.0000     -10.131066      -275.6803
   8   1.0000     -10.125014      -275.5156
   9   1.0000     -10.120472      -275.3920
  10   1.0000      -1.207330       -32.8531
  11   1.0000      -0.944151       -25.6917
  12   1.0000      -0.833679       -22.6856
  13   1.0000      -0.736056       -20.0291
  14   1.0000      -0.728642       -19.8273
  15   1.0000      -0.687799       -18.7160
  16   1.0000      -0.597570       -16.2607
  17   1.0000      -0.586779       -15.9671
  18   1.0000      -0.517225       -14.0744
  19   1.0000      -0.509402       -13.8615
  20   1.0000      -0.455617       -12.3980
  21   1.0000      -0.433707       -11.8018
  22   1.0000      -0.426870       -11.6157
  23   1.0000      -0.413281       -11.2460
  24   1.0000      -0.397197       -10.8083
  25   1.0000      -0.386250       -10.5104
  26   1.0000      -0.379227       -10.3193
  27   1.0000      -0.366147        -9.9634
  28   1.0000      -0.342676        -9.3247
  29   1.0000      -0.333927        -9.0866
  30   1.0000      -0.327259        -8.9052
  31   1.0000      -0.298584        -8.1249
  32   1.0000      -0.277244        -7.5442
  33   1.0000      -0.237931        -6.4744
  34   1.0000      -0.204424        -5.5627
  35   1.0000      -0.187063        -5.0902
  36   0.0000      -0.023462        -0.6384
  37   0.0000      -0.005200        -0.1415
  38   0.0000       0.011520         0.3135
  39   0.0000       0.024224         0.6592
  40   0.0000       0.027922         0.7598

MULLIKEN ATOMIC CHARGES AND SPIN POPULATIONS
--------------------------------------------
   0 C :   -0.442325    0.286589
   1 C :   -0.900295   -0.200529
   2 C :    0.596091    0.343561
   3 C :   -0.740881   -0.203162
   4 C :   -0.929878    0.301924
   5 C :    1.728426   -0.007203
   6 C :    0.420199    0.284722
   7 O :   -1.110729    0.231822
   8 C :   -0.614770   -0.058434
   9 H :    0.218271    0.022816
  10 H :    0.218530    0.022585
  11 H :    0.154786   -0.007637
  12 H :    0.115521   -0.019500
  13 H :    0.428802   -0.002130
  14 F :   -0.554369    0.019428
  15 H :    0.419292   -0.002618
  16 H :   -0.006671   -0.012233
Sum of atomic charges         :   -1.0000000

LOEWDIN ATOMIC CHARGES AND SPIN POPULATIONS
-------------------------------------------
   0 C :    0.151886    0.092890
   1 C :    0.142049    0.014698
   2 C :   -0.569430    0.132048
   3 C :    0.136207    0.014630
   4 C :    0.142065    0.103890
   5 C :   -0.212423    0.114574
   6 C :   -0.671208    0.195690
   7 O :    0.314642    0.203923
   8 C :    0.504183    0.038444
   9 H :   -0.186248    0.009833
  10 H :   -0.186551    0.009751
  11 H :   -0.208605   -0.000892
  12 H :   -0.222076    0.025642
  13 H :   -0.194793   -0.009221
  14 F :    0.466055    0.040254
  15 H :   -0.194675   -0.008069
  16 H :   -0.211077    0.021915

  Mayer bond orders larger than 0.100000
B(  0-C ,  1-C ) :   0.9036 B(  0-C ,  2-C ) :  -0.2675 B(  0-C ,  3-C ) :  -0.1859
B(  0-C ,  4-C ) :  -0.4001 B(  0-C ,  5-C ) :   0.1247 B(  0-C ,  6-C ) :   0.2493
B(  0-C , 12-H ) :   0.1220 B(  0-C , 16-H ) :   1.5123 B(  1-C ,  2-C ) :   1.2695
B(  1-C ,  3-C ) :   0.2971 B(  1-C ,  4-C ) :  -0.1077 B(  1-C ,  5-C ) :   0.1831
B(  1-C , 12-H ) :  -0.1035 B(  1-C , 14-F ) :   0.1580 B(  1-C , 15-H ) :   0.5534
B(  1-C , 16-H ) :  -0.1038 B(  2-C ,  3-C ) :   1.3079 B(  2-C ,  4-C ) :  -0.3172
B(  2-C , 14-F ) :   0.2772 B(  3-C ,  4-C ) :   1.3140 B(  3-C , 13-H ) :   0.5417
B(  3-C , 14-F ) :   0.1462 B(  3-C , 16-H ) :  -0.1450 B(  4-C ,  5-C ) :  -0.1398
B(  4-C ,  6-C ) :   0.4424 B(  4-C , 12-H ) :   1.1346 B(  4-C , 16-H ) :   0.1771
B(  5-C ,  6-C ) :   0.3355 B(  5-C ,  7-O ) :   0.1436 B(  5-C , 12-H ) :  -0.1186
B(  5-C , 16-H ) :  -0.2875 B(  6-C ,  7-O ) :   0.6742 B(  6-C ,  8-C ) :   0.8661
B(  6-C , 13-H ) :   0.1211 B(  7-O , 12-H ) :   0.1276 B(  8-C ,  9-H ) :   0.9848
B(  8-C , 10-H ) :   0.9852 B(  8-C , 11-H ) :   0.9699 B( 12-H , 16-H ) :   0.1562
B( 13-H , 14-F ) :   0.1033

Dispersion correction           -0.005423948
FINAL SINGLE POINT ENERGY      -484.132588795454

DIPOLE MOMENT
-------------

Method             : SCF
Type of density    : Electron Density
Multiplicity       :   2
Irrep              :   0
Energy             :  -484.1271648474332778 Eh
Relativity type    :
Basis              : AO
                                X                 Y                 Z
Electronic contribution:     11.364839147      -2.779194461       0.006025383
Nuclear contribution   :     -9.509705297       4.310792406      -0.010848024
                        -----------------------------------------
Total Dipole Moment    :      1.855133849       1.531597945      -0.004822641
                        -----------------------------------------
Magnitude (a.u.)       :      2.405688492
Magnitude (Debye)      :      6.114774198

Rotational constants in cm-1:             0.121084             0.025672             0.021264
Rotational constants in MHz :          3630.013413           769.621131           637.474527

                             ****ORCA TERMINATED NORMALLY****
TOTAL RUN TIME: 0 days 0 hours 39 minutes 20 seconds 779 msec
