                         Program Version 6.0.0  -   RELEASE  -
|  1> !r2SCAN aug-cc-pVTZ d3 TightSCF SlowConv RIJCOSX defgrid2
|  2>
|  3> %pal
|  4> nprocs 4
|  5> end
|  6>
|  7> %scf
|  8> MaxIter 1500
|  9> end
| 10>
| 11> %maxcore 3000
| 12>
| 13> !CPCM
| 14> %cpcm smd true
| 15> SMDsolvent "MeCN"
| 16> surfacetype gepol_ses
| 17> rsolv 2.19
| 18> end
| 19>
| 20> * xyz 0 1
| 21> C           1.25000164855842     -1.41071448361037     -0.00000168415599
| 22> C           2.42472534447790     -0.69479139615512     -0.00000685047100
| 23> C           2.39854270226079      0.72067524520134     -0.00000877481015
| 24> C           1.20117735810590      1.39751150319993     -0.00000445095683
| 25> C          -0.02745588139686      0.68852480495358      0.00000564240260
| 26> N          -1.18625775877000      1.39381645036295      0.00001070560090
| 27> C          -2.31490188933646      0.73049306279294      0.00001689560908
| 28> C          -2.40570196692451     -0.68397826108981      0.00001755935062
| 29> C          -1.24368635715401     -1.41618109472248      0.00000969922177
| 30> C           0.00094011374072     -0.74022051327369      0.00000330710167
| 31> H          -1.26232776653674     -2.51106064954577      0.00000897425095
| 32> H          -3.38563440939795     -1.16889742637107      0.00002394159015
| 33> H          -3.23552246654660      1.32983924434354      0.00002054423920
| 34> H           1.15201317629262      2.48898402488494     -0.00000554947415
| 35> H           3.34113721025286      1.27611845570769     -0.00001383228755
| 36> H           3.38561855542436     -1.21756928095046     -0.00000963669760
| 37> H           1.26320168694954     -2.50529278572813     -0.00000049051368
| 38> *
| 39>
| 40>                          ****END OF INPUT****

CARTESIAN COORDINATES (ANGSTROEM)
---------------------------------
  C      1.250002   -1.410714   -0.000002
  C      2.424725   -0.694791   -0.000007
  C      2.398543    0.720675   -0.000009
  C      1.201177    1.397512   -0.000004
  C     -0.027456    0.688525    0.000006
  N     -1.186258    1.393816    0.000011
  C     -2.314902    0.730493    0.000017
  C     -2.405702   -0.683978    0.000018
  C     -1.243686   -1.416181    0.000010
  C      0.000940   -0.740221    0.000003
  H     -1.262328   -2.511061    0.000009
  H     -3.385634   -1.168897    0.000024
  H     -3.235522    1.329839    0.000021
  H      1.152013    2.488984   -0.000006
  H      3.341137    1.276118   -0.000014
  H      3.385619   -1.217569   -0.000010
  H      1.263202   -2.505293   -0.000000

 Total Charge           Charge          ....    0
 Multiplicity           Mult            ....    1
 Number of Electrons    NEL             ....   68
 Basis Dimension        Dim             ....  621

ORBITAL ENERGIES
----------------

  NO   OCC          E(Eh)            E(eV)
   0   2.0000     -14.165461      -385.4618
   1   2.0000     -10.079304      -274.2718
   2   2.0000     -10.075964      -274.1809
   3   2.0000     -10.058614      -273.7088
   4   2.0000     -10.057772      -273.6859
   5   2.0000     -10.047496      -273.4063
   6   2.0000     -10.047392      -273.4034
   7   2.0000     -10.047317      -273.4014
   8   2.0000     -10.045872      -273.3621
   9   2.0000     -10.042626      -273.2738
  10   2.0000      -0.918411       -24.9912
  11   2.0000      -0.819734       -22.3061
  12   2.0000      -0.776088       -21.1184
  13   2.0000      -0.721866       -19.6430
  14   2.0000      -0.709967       -19.3192
  15   2.0000      -0.612246       -16.6601
  16   2.0000      -0.599636       -16.3169
  17   2.0000      -0.570602       -15.5269
  18   2.0000      -0.495983       -13.4964
  19   2.0000      -0.483264       -13.1503
  20   2.0000      -0.473389       -12.8816
  21   2.0000      -0.422244       -11.4898
  22   2.0000      -0.406582       -11.0637
  23   2.0000      -0.395476       -10.7614
  24   2.0000      -0.394959       -10.7474
  25   2.0000      -0.376236       -10.2379
  26   2.0000      -0.368299       -10.0219
  27   2.0000      -0.327123        -8.9015
  28   2.0000      -0.326064        -8.8727
  29   2.0000      -0.316206        -8.6044
  30   2.0000      -0.292771        -7.9667
  31   2.0000      -0.241858        -6.5813
  32   2.0000      -0.234648        -6.3851
  33   2.0000      -0.223285        -6.0759
  34   0.0000      -0.085537        -2.3276
  35   0.0000      -0.048483        -1.3193
  36   0.0000      -0.021441        -0.5834
  37   0.0000       0.007740         0.2106
  38   0.0000       0.021377         0.5817

MULLIKEN ATOMIC CHARGES
-----------------------
   0 C :   -0.997225
   1 C :   -0.483833
   2 C :   -0.232763
   3 C :   -0.955246
   4 C :    0.672882
   5 N :   -0.671862
   6 C :   -0.580158
   7 C :   -0.272897
   8 C :   -0.916792
   9 C :    1.957045
  10 H :    0.354869
  11 H :    0.217813
  12 H :    0.537017
  13 H :    0.368436
  14 H :    0.421963
  15 H :    0.576951
  16 H :    0.003800
Sum of atomic charges:    0.0000000

LOEWDIN ATOMIC CHARGES
----------------------
   0 C :    0.215877
   1 C :    0.199058
   2 C :    0.195997
   3 C :    0.202929
   4 C :   -0.322477
   5 N :    0.368532
   6 C :    0.004813
   7 C :    0.217429
   8 C :    0.222867
   9 C :   -0.129434
  10 H :   -0.151130
  11 H :   -0.169138
  12 H :   -0.181254
  13 H :   -0.174263
  14 H :   -0.169017
  15 H :   -0.169382
  16 H :   -0.161406

  Mayer bond orders larger than 0.100000
B(  0-C ,  1-C ) :   1.1322 B(  0-C ,  2-C ) :  -0.1976 B(  0-C ,  4-C ) :  -0.6012
B(  0-C ,  7-C ) :   0.1264 B(  0-C ,  8-C ) :   0.3785 B(  0-C , 14-H ) :   0.1059
B(  0-C , 15-H ) :  -0.1436 B(  0-C , 16-H ) :   1.5022 B(  1-C ,  2-C ) :   0.9153
B(  1-C ,  3-C ) :   0.1132 B(  1-C ,  4-C ) :  -0.1410 B(  1-C ,  9-C ) :   0.1308
B(  1-C , 15-H ) :   0.3875 B(  1-C , 16-H ) :  -0.1090 B(  2-C ,  3-C ) :   1.1296
B(  2-C ,  4-C ) :  -0.2297 B(  2-C ,  7-C ) :   0.1370 B(  2-C ,  8-C ) :   0.1384
B(  2-C ,  9-C ) :  -0.1804 B(  2-C , 14-H ) :   0.6617 B(  3-C ,  4-C ) :   0.6296
B(  3-C ,  5-N ) :   0.2298 B(  3-C ,  9-C ) :   0.3272 B(  3-C , 13-H ) :   0.5105
B(  4-C ,  5-N ) :  -0.1789 B(  4-C ,  6-C ) :   0.3332 B(  4-C ,  7-C ) :  -0.1391
B(  4-C ,  8-C ) :   0.6313 B(  4-C ,  9-C ) :   0.6458 B(  4-C , 12-H ) :   0.1199
B(  4-C , 16-H ) :   0.1523 B(  5-N ,  6-C ) :   1.6523 B(  5-N , 13-H ) :   0.1305
B(  6-C ,  7-C ) :   0.7216 B(  6-C ,  8-C ) :   0.3866 B(  6-C ,  9-C ) :  -0.5319
B(  6-C , 12-H ) :   0.4276 B(  7-C ,  8-C ) :   1.0762 B(  7-C ,  9-C ) :  -0.3603
B(  7-C , 11-H ) :   1.0294 B(  8-C ,  9-C ) :  -0.3388 B(  8-C , 10-H ) :   0.7494
B(  9-C , 12-H ) :   0.1524 B(  9-C , 16-H ) :  -0.1353

Dispersion correction           -0.005893273
FINAL SINGLE POINT ENERGY      -401.858282100157

DIPOLE MOMENT
-------------

Method             : SCF
Type of density    : Electron Density
Multiplicity       :   1
Irrep              :   0
Energy             :  -401.8523888272714544 Eh
Relativity type    :
Basis              : AO
                                X                 Y                 Z
Electronic contribution:     -1.073650132       0.911094770      -0.000177953
Nuclear contribution   :      1.170564310      -2.171626680      -0.000005487
                        -----------------------------------------
Total Dipole Moment    :      0.096914178      -1.260531910      -0.000183440
                        -----------------------------------------
Magnitude (a.u.)       :      1.264251987
Magnitude (Debye)      :      3.213473172

Rotational constants in cm-1:             0.105214             0.042414             0.030228
Rotational constants in MHz :          3154.234858          1271.541430           906.223008

                             ****ORCA TERMINATED NORMALLY****
TOTAL RUN TIME: 0 days 0 hours 3 minutes 27 seconds 61 msec
