                         Program Version 6.0.0  -   RELEASE  -
|  1> !B3LYP aug-cc-pVTZ d3 TightSCF SlowConv RIJCOSX defgrid2
|  2>
|  3> %pal
|  4> nprocs 4
|  5> end
|  6>
|  7> %scf
|  8> MaxIter 1500
|  9> end
| 10>
| 11> %maxcore 3000
| 12>
| 13> !CPCM
| 14> %cpcm smd true
| 15> SMDsolvent "MeCN"
| 16> surfacetype gepol_ses
| 17> rsolv 2.19
| 18> end
| 19>
| 20> * xyz 1 2
| 21> C           1.11125997383576     -1.29424514996325     -0.00265064680051
| 22> C           0.38198773558317      0.02008196306092     -0.00073603831801
| 23> C           1.09787452277410      1.23185818450004     -0.01840094347389
| 24> C           2.57516897563739      1.29944130725048     -0.05423021306044
| 25> C           3.25276060267681     -0.03006541948416     -0.36652594694293
| 26> C           2.57851945407381     -1.15958568043340      0.39766653752240
| 27> H           3.08673048588062     -2.11897794137244      0.21233290930891
| 28> H           2.64919644329653     -0.97201856058805      1.48490961905849
| 29> H           4.32300865456417      0.02994921608983     -0.11393141051059
| 30> H           3.19729504970193     -0.22847646380504     -1.45259326590540
| 31> H           2.88017444257326      2.09814619264511     -0.75665169289489
| 32> H           2.90436924042770      1.68065620438759      0.93876248720231
| 33> H           0.54894601237680      2.17778008647932      0.00559677216772
| 34> N          -0.94881866071091      0.02146974198586     -0.00750665676214
| 35> C          -1.80124595163478      1.22171206218783      0.02414035141441
| 36> C          -3.20201957398761      0.67299556712206      0.26488079247656
| 37> C          -3.16019989927783     -0.69168873479307     -0.41474108783946
| 38> C          -1.76503158912719     -1.19776594082048     -0.07505159311078
| 39> H          -1.34448546450201     -1.89626495900324     -0.81481906895254
| 40> H          -1.73682708705057     -1.69322252819275      0.91433806284159
| 41> H          -3.94379277720373     -1.38008145705625     -0.06506994380082
| 42> H          -3.26951180028075     -0.58721234569693     -1.50795872354530
| 43> H          -3.97836095131839      1.34028947438083     -0.13789958124651
| 44> H          -3.38451416042342      0.56256073325110      1.34753390290322
| 45> H          -1.45816127292513      1.91216175251807      0.80965132239800
| 46> H          -1.72037794411018      1.73381076618573     -0.95200027343459
| 47> H           0.59311740358867     -2.00524001309646      0.66292893429951
| 48> H           1.03641913556176     -1.72255585773926     -1.02261090499431
| 49> *
| 50>
| 51>                          ****END OF INPUT****

CARTESIAN COORDINATES (ANGSTROEM)
---------------------------------
  C      1.111260   -1.294245   -0.002651
  C      0.381988    0.020082   -0.000736
  C      1.097875    1.231858   -0.018401
  C      2.575169    1.299441   -0.054230
  C      3.252761   -0.030065   -0.366526
  C      2.578519   -1.159586    0.397667
  H      3.086730   -2.118978    0.212333
  H      2.649196   -0.972019    1.484910
  H      4.323009    0.029949   -0.113931
  H      3.197295   -0.228476   -1.452593
  H      2.880174    2.098146   -0.756652
  H      2.904369    1.680656    0.938762
  H      0.548946    2.177780    0.005597
  N     -0.948819    0.021470   -0.007507
  C     -1.801246    1.221712    0.024140
  C     -3.202020    0.672996    0.264881
  C     -3.160200   -0.691689   -0.414741
  C     -1.765032   -1.197766   -0.075052
  H     -1.344485   -1.896265   -0.814819
  H     -1.736827   -1.693223    0.914338
  H     -3.943793   -1.380081   -0.065070
  H     -3.269512   -0.587212   -1.507959
  H     -3.978361    1.340289   -0.137900
  H     -3.384514    0.562561    1.347534
  H     -1.458161    1.912162    0.809651
  H     -1.720378    1.733811   -0.952000
  H      0.593117   -2.005240    0.662929
  H      1.036419   -1.722556   -1.022611

 Total Charge           Charge          ....    1
 Multiplicity           Mult            ....    2
 Number of Electrons    NEL             ....   83
 Basis Dimension        Dim             ....  897

ORBITAL ENERGIES
----------------
                 SPIN UP ORBITALS
  NO   OCC          E(Eh)            E(eV)
   0   1.0000     -14.413703      -392.2168
   1   1.0000     -10.258934      -279.1598
   2   1.0000     -10.225499      -278.2500
   3   1.0000     -10.222711      -278.1741
   4   1.0000     -10.221591      -278.1436
   5   1.0000     -10.190264      -277.2912
   6   1.0000     -10.185978      -277.1746
   7   1.0000     -10.179818      -277.0069
   8   1.0000     -10.179492      -276.9981
   9   1.0000     -10.173429      -276.8331
  10   1.0000     -10.171122      -276.7703
  11   1.0000      -1.015471       -27.6324
  12   1.0000      -0.864468       -23.5234
  13   1.0000      -0.814185       -22.1551
  14   1.0000      -0.776624       -21.1330
  15   1.0000      -0.750557       -20.4237
  16   1.0000      -0.741007       -20.1638
  17   1.0000      -0.657785       -17.8992
  18   1.0000      -0.643199       -17.5023
  19   1.0000      -0.596034       -16.2189
  20   1.0000      -0.591881       -16.1059
  21   1.0000      -0.558525       -15.1982
  22   1.0000      -0.526353       -14.3228
  23   1.0000      -0.523223       -14.2376
  24   1.0000      -0.476044       -12.9538
  25   1.0000      -0.467677       -12.7261
  26   1.0000      -0.446552       -12.1513
  27   1.0000      -0.444162       -12.0863
  28   1.0000      -0.439461       -11.9583
  29   1.0000      -0.427809       -11.6413
  30   1.0000      -0.415867       -11.3163
  31   1.0000      -0.407805       -11.0969
  32   1.0000      -0.401199       -10.9172
  33   1.0000      -0.391950       -10.6655
  34   1.0000      -0.361061        -9.8250
  35   1.0000      -0.359241        -9.7754
  36   1.0000      -0.339316        -9.2333
  37   1.0000      -0.337129        -9.1737
  38   1.0000      -0.333970        -9.0878
  39   1.0000      -0.329198        -8.9579
  40   1.0000      -0.325944        -8.8694
  41   1.0000      -0.244185        -6.6446
  42   0.0000      -0.017956        -0.4886
  43   0.0000      -0.008172        -0.2224
  44   0.0000       0.002241         0.0610
  45   0.0000       0.007159         0.1948
  46   0.0000       0.008140         0.2215

                 SPIN DOWN ORBITALS
  NO   OCC          E(Eh)            E(eV)
   0   1.0000     -14.404976      -391.9793
   1   1.0000     -10.260139      -279.1926
   2   1.0000     -10.222987      -278.1816
   3   1.0000     -10.221949      -278.1534
   4   1.0000     -10.216595      -278.0077
   5   1.0000     -10.190199      -277.2894
   6   1.0000     -10.186283      -277.1828
   7   1.0000     -10.179778      -277.0058
   8   1.0000     -10.179463      -276.9973
   9   1.0000     -10.173432      -276.8331
  10   1.0000     -10.171064      -276.7687
  11   1.0000      -1.002313       -27.2743
  12   1.0000      -0.858555       -23.3625
  13   1.0000      -0.812420       -22.1071
  14   1.0000      -0.771312       -20.9885
  15   1.0000      -0.747955       -20.3529
  16   1.0000      -0.734647       -19.9908
  17   1.0000      -0.656130       -17.8542
  18   1.0000      -0.638010       -17.3611
  19   1.0000      -0.592885       -16.1332
  20   1.0000      -0.589081       -16.0297
  21   1.0000      -0.554505       -15.0888
  22   1.0000      -0.520421       -14.1614
  23   1.0000      -0.514436       -13.9985
  24   1.0000      -0.470999       -12.8165
  25   1.0000      -0.463254       -12.6058
  26   1.0000      -0.442701       -12.0465
  27   1.0000      -0.442169       -12.0320
  28   1.0000      -0.435676       -11.8553
  29   1.0000      -0.418993       -11.4014
  30   1.0000      -0.413266       -11.2455
  31   1.0000      -0.405026       -11.0213
  32   1.0000      -0.398518       -10.8442
  33   1.0000      -0.384873       -10.4729
  34   1.0000      -0.360212        -9.8019
  35   1.0000      -0.358733        -9.7616
  36   1.0000      -0.337968        -9.1966
  37   1.0000      -0.335097        -9.1185
  38   1.0000      -0.331839        -9.0298
  39   1.0000      -0.326016        -8.8713
  40   1.0000      -0.309312        -8.4168
  41   0.0000      -0.142101        -3.8668
  42   0.0000      -0.010397        -0.2829
  43   0.0000       0.000724         0.0197
  44   0.0000       0.006563         0.1786
  45   0.0000       0.007393         0.2012

MULLIKEN ATOMIC CHARGES AND SPIN POPULATIONS
--------------------------------------------
   0 C :    0.068636    0.021064
   1 C :    0.420594   -0.058331
   2 C :   -0.290031    0.661615
   3 C :   -0.343885   -0.081906
   4 C :   -0.302269    0.007235
   5 C :   -0.495361   -0.004908
   6 H :    0.196337    0.000900
   7 H :    0.124255   -0.001573
   8 H :    0.205988   -0.000246
   9 H :    0.144625    0.000518
  10 H :    0.216169    0.027222
  11 H :    0.159706    0.052361
  12 H :    0.163810   -0.034402
  13 N :    0.246772    0.389530
  14 C :   -0.396715   -0.026089
  15 C :   -0.432346    0.004957
  16 C :   -0.388879    0.005086
  17 C :   -0.316833   -0.033363
  18 H :    0.235449    0.013091
  19 H :    0.235293    0.029434
  20 H :    0.239204   -0.000177
  21 H :    0.108732   -0.000132
  22 H :    0.238474   -0.000144
  23 H :    0.104199    0.000022
  24 H :    0.254371    0.011499
  25 H :    0.198840    0.015912
  26 H :    0.223014   -0.001206
  27 H :    0.181854    0.002030
Sum of atomic charges         :    1.0000000

LOEWDIN ATOMIC CHARGES AND SPIN POPULATIONS
-------------------------------------------
   0 C :    0.312944    0.003933
   1 C :   -0.094789    0.109056
   2 C :    0.359862    0.314946
   3 C :    0.296968    0.097938
   4 C :    0.287141    0.005468
   5 C :    0.294163    0.002213
   6 H :   -0.119829    0.000281
   7 H :   -0.116595    0.000365
   8 H :   -0.123131    0.000190
   9 H :   -0.120265    0.000897
  10 H :   -0.117000    0.014715
  11 H :   -0.108818    0.027582
  12 H :   -0.145732    0.059298
  13 N :    0.349760    0.239141
  14 C :    0.258621    0.034962
  15 C :    0.318145    0.000889
  16 C :    0.320165    0.002388
  17 C :    0.258605    0.045023
  18 H :   -0.111674    0.007621
  19 H :   -0.093327    0.014829
  20 H :   -0.115681    0.000029
  21 H :   -0.117089    0.000283
  22 H :   -0.116017    0.000017
  23 H :   -0.117918    0.000026
  24 H :   -0.112898    0.007122
  25 H :   -0.094114    0.010394
  26 H :   -0.127913   -0.000389
  27 H :   -0.103586    0.000781

  Mayer bond orders larger than 0.100000
B(  0-C ,  1-C ) :   0.4754 B(  0-C ,  5-C ) :   0.9438 B(  0-C , 26-H ) :   0.9225
B(  0-C , 27-H ) :   0.9710 B(  1-C ,  2-C ) :   0.3564 B(  1-C ,  3-C ) :  -0.1933
B(  1-C ,  4-C ) :  -0.1194 B(  1-C , 12-H ) :  -0.1158 B(  1-C , 13-N ) :   0.6874
B(  1-C , 26-H ) :  -0.1153 B(  2-C ,  3-C ) :   0.7752 B(  2-C ,  4-C ) :   0.1345
B(  2-C , 12-H ) :   0.8939 B(  2-C , 13-N ) :  -0.1766 B(  2-C , 17-C ) :   0.1105
B(  3-C ,  4-C ) :   0.9923 B(  3-C , 10-H ) :   0.9203 B(  3-C , 11-H ) :   1.0100
B(  4-C ,  5-C ) :   0.9825 B(  4-C ,  8-H ) :   0.9538 B(  4-C ,  9-H ) :   1.0172
B(  5-C ,  6-H ) :   0.9438 B(  5-C ,  7-H ) :   1.0558 B( 13-N , 14-C ) :   0.7767
B( 13-N , 17-C ) :   0.6565 B( 14-C , 15-C ) :   1.0012 B( 14-C , 24-H ) :   0.9549
B( 14-C , 25-H ) :   1.0042 B( 15-C , 16-C ) :   1.0253 B( 15-C , 22-H ) :   0.9414
B( 15-C , 23-H ) :   1.0606 B( 16-C , 17-C ) :   0.9541 B( 16-C , 20-H ) :   0.9343
B( 16-C , 21-H ) :   1.0601 B( 17-C , 18-H ) :   0.9491 B( 17-C , 19-H ) :   0.9625

Dispersion correction           -0.048922702
FINAL SINGLE POINT ENERGY      -445.793752482751

DIPOLE MOMENT
-------------

Method             : SCF
Type of density    : Electron Density
Multiplicity       :   2
Irrep              :   0
Energy             :  -445.7448297806999449 Eh
Relativity type    :
Basis              : AO
                                X                 Y                 Z
Electronic contribution:     -0.890872004       1.328543700       0.065092424
Nuclear contribution   :      0.360970584      -1.012753361      -0.049963368
                        -----------------------------------------
Total Dipole Moment    :     -0.529901419       0.315790339       0.015129056
                        -----------------------------------------
Magnitude (a.u.)       :      0.617047762
Magnitude (Debye)      :      1.568410767

Rotational constants in cm-1:             0.091390             0.021094             0.017904
Rotational constants in MHz :          2739.816467           632.377129           536.750842

                             ****ORCA TERMINATED NORMALLY****
TOTAL RUN TIME: 0 days 0 hours 13 minutes 14 seconds 115 msec
