                         Program Version 6.0.0  -   RELEASE  -
|  1> !PBE0 def2-SV(p) Opt Freq d3 TightSCF SlowConv RIJCOSX defgrid2
|  2>
|  3> %pal
|  4> nprocs 8
|  5> end
|  6>
|  7> %scf
|  8> MaxIter 1500
|  9> end
| 10>
| 11> %maxcore 3000
| 12>
| 13>
| 14>
| 15> * xyz 0 1
| 16> 6        1.361849300     -0.003716700     -0.047438600
| 17> 6        0.755239000      1.260336300      0.010326500
| 18> 6       -0.626359300      1.382568000     -0.000017700
| 19> 6       -1.445500000      0.246248300      0.000777500
| 20> 6       -0.847241700     -1.017686700     -0.022166600
| 21> 6        0.542745000     -1.134272700     -0.073623300
| 22> 1        0.990962700     -2.132554000     -0.157104000
| 23> 1       -1.450734700     -1.927296000     -0.040209800
| 24> 8       -2.777423300      0.466127000      0.015699400
| 25> 6       -3.639624000     -0.633860300      0.022530400
| 26> 1       -4.662963000     -0.229442600      0.045489000
| 27> 1       -3.520133500     -1.255500000     -0.886427400
| 28> 1       -3.485232900     -1.271002600      0.915346300
| 29> 1       -1.102906000      2.366092000      0.017829700
| 30> 1        1.370206700      2.165453600      0.070659000
| 31> 16       3.115188000     -0.240829900      0.074565200
| 32> 1        3.447025400      1.071902100     -1.280825900
| 33> *
| 34>
| 35>                          ****END OF INPUT****
 Total Charge           Charge          ....    0
 Multiplicity           Mult            ....    1
 Number of Electrons    NEL             ....   74
Dispersion correction           -0.016278738
FINAL SINGLE POINT ENERGY      -743.977257025833
Dispersion correction             ... done (  0.1 sec)
Dispersion correction           -0.016053265
FINAL SINGLE POINT ENERGY      -743.999608024677
Dispersion correction             ... done (  0.0 sec)
Dispersion correction           -0.015950166
FINAL SINGLE POINT ENERGY      -744.020664103818
Dispersion correction             ... done (  0.1 sec)
FINAL SINGLE POINT ENERGY      -744.036227576560
FINAL SINGLE POINT ENERGY      -744.036619287652
FINAL SINGLE POINT ENERGY      -744.039258515669
FINAL SINGLE POINT ENERGY      -744.039385501494
FINAL SINGLE POINT ENERGY      -744.039417187441
FINAL SINGLE POINT ENERGY      -744.039429083808
FINAL SINGLE POINT ENERGY      -744.039435097731
FINAL SINGLE POINT ENERGY      -744.039437383500
FINAL SINGLE POINT ENERGY      -744.039440471411
FINAL SINGLE POINT ENERGY      -744.039442189921
Dispersion correction             ... done (  0.1 sec)
Dispersion correction           -0.015963967
FINAL SINGLE POINT ENERGY      -744.039443154075
Dispersion correction             ... done (  0.1 sec)
Dispersion correction           -0.015963645
FINAL SINGLE POINT ENERGY      -744.039443322185
Dispersion correction             ... done (  0.1 sec)
                    ***********************HURRAY********************

CARTESIAN COORDINATES (ANGSTROEM)
---------------------------------
  C      1.356613    0.082424   -0.048301
  C      0.725287    1.332375    0.029320
  C     -0.657167    1.425713    0.043025
  C     -1.447546    0.266535    0.008743
  C     -0.825529   -0.985022   -0.047702
  C      0.567722   -1.066331   -0.083133
  H      1.050062   -2.045777   -0.143544
  H     -1.411356   -1.905664   -0.073890
  O     -2.780639    0.455543    0.036456
  C     -3.622835   -0.661421    0.010782
  H     -4.652831   -0.275924    0.041028
  H     -3.487877   -1.254663   -0.914063
  H     -3.458604   -1.318139    0.886733
  H     -1.160472    2.394413    0.095160
  H      1.333611    2.239680    0.081456
  S      3.131458   -0.061277   -0.018929
  H      3.365199    0.490102   -1.237730

 Multiplicity           Mult            ....    1
 Number of Electrons    NEL             ....   74
 Basis Dimension        Dim             ....  146

ORBITAL ENERGIES
----------------

  NO   OCC          E(Eh)            E(eV)
   0   2.0000     -88.998420     -2421.7701
   1   2.0000     -19.251103      -523.8491
   2   2.0000     -10.304089      -280.3885
   3   2.0000     -10.288904      -279.9753
   4   2.0000     -10.262856      -279.2665
   5   2.0000     -10.245591      -278.7967
   6   2.0000     -10.244642      -278.7709
   7   2.0000     -10.240906      -278.6692
   8   2.0000     -10.237198      -278.5683
   9   2.0000      -8.000495      -217.7045
  10   2.0000      -5.942855      -161.7133
  11   2.0000      -5.939412      -161.6196
  12   2.0000      -5.932533      -161.4324
  13   2.0000      -1.103101       -30.0169
  14   2.0000      -0.885593       -24.0982
  15   2.0000      -0.806208       -21.9380
  16   2.0000      -0.774054       -21.0631
  17   2.0000      -0.747620       -20.3438
  18   2.0000      -0.693400       -18.8684
  19   2.0000      -0.634517       -17.2661
  20   2.0000      -0.602115       -16.3844
  21   2.0000      -0.562075       -15.2948
  22   2.0000      -0.513389       -13.9700
  23   2.0000      -0.496756       -13.5174
  24   2.0000      -0.488878       -13.3030
  25   2.0000      -0.465477       -12.6663
  26   2.0000      -0.445150       -12.1132
  27   2.0000      -0.438307       -11.9270
  28   2.0000      -0.421222       -11.4620
  29   2.0000      -0.397704       -10.8221
  30   2.0000      -0.382253       -10.4016
  31   2.0000      -0.360502        -9.8098
  32   2.0000      -0.346144        -9.4191
  33   2.0000      -0.334186        -9.0937
  34   2.0000      -0.275241        -7.4897
  35   2.0000      -0.261467        -7.1149
  36   2.0000      -0.231691        -6.3046
  37   0.0000      -0.010931        -0.2974
  38   0.0000      -0.006641        -0.1807
  39   0.0000       0.051447         1.3999
  40   0.0000       0.065092         1.7712
  41   0.0000       0.079643         2.1672

MULLIKEN ATOMIC CHARGES
-----------------------
   0 C :   -0.076173
   1 C :   -0.091252
   2 C :   -0.145013
   3 C :    0.280607
   4 C :   -0.227596
   5 C :   -0.088980
   6 H :    0.096926
   7 H :    0.092149
   8 O :   -0.323608
   9 C :   -0.162882
  10 H :    0.151001
  11 H :    0.132170
  12 H :    0.132748
  13 H :    0.097312
  14 H :    0.094242
  15 S :   -0.128037
  16 H :    0.166386
Sum of atomic charges:   -0.0000000

LOEWDIN ATOMIC CHARGES
----------------------
   0 C :   -0.208944
   1 C :   -0.121159
   2 C :   -0.145986
   3 C :    0.043822
   4 C :   -0.182354
   5 C :   -0.119567
   6 H :    0.132881
   7 H :    0.134149
   8 O :   -0.106904
   9 C :   -0.202262
  10 H :    0.126283
  11 H :    0.111776
  12 H :    0.112093
  13 H :    0.138883
  14 H :    0.132015
  15 S :    0.066136
  16 H :    0.089139

  Mayer bond orders larger than 0.100000
B(  0-C ,  1-C ) :   1.3617 B(  0-C ,  5-C ) :   1.4262 B(  0-C , 15-S ) :   0.9938
B(  1-C ,  2-C ) :   1.4251 B(  1-C , 14-H ) :   0.9618 B(  2-C ,  3-C ) :   1.3473
B(  2-C , 13-H ) :   0.9622 B(  3-C ,  4-C ) :   1.3195 B(  3-C ,  8-O ) :   1.1153
B(  4-C ,  5-C ) :   1.3702 B(  4-C ,  7-H ) :   0.9605 B(  5-C ,  6-H ) :   0.9576
B(  8-O ,  9-C ) :   0.9599 B(  9-C , 10-H ) :   0.9564 B(  9-C , 11-H ) :   0.9410
B(  9-C , 12-H ) :   0.9409 B( 15-S , 16-H ) :   0.9019

Dispersion correction           -0.015963584
FINAL SINGLE POINT ENERGY      -744.039443405188

DIPOLE MOMENT
-------------

Method             : SCF
Type of density    : Electron Density
Multiplicity       :   1
Irrep              :   0
Energy             :  -744.0234798215032015 Eh
Relativity type    :
Basis              : AO
                                X                 Y                 Z
Electronic contribution:      7.222889721       1.737767632       0.718585619
Nuclear contribution   :     -8.061833988      -2.011071937      -1.060175110
                        -----------------------------------------
Total Dipole Moment    :     -0.838944268      -0.273304305      -0.341589491
                        -----------------------------------------
Magnitude (a.u.)       :      0.946153321
Magnitude (Debye)      :      2.404930619

VIBRATIONAL FREQUENCIES
-----------------------

Scaling factor for frequencies =  1.000000000  (already applied!)

     0:       0.00 cm**-1
     1:       0.00 cm**-1
     2:       0.00 cm**-1
     3:       0.00 cm**-1
     4:       0.00 cm**-1
     5:       0.00 cm**-1
     6:      46.68 cm**-1
     7:      82.58 cm**-1
     8:     141.73 cm**-1
     9:     205.28 cm**-1
    10:     252.72 cm**-1
    11:     307.03 cm**-1
    12:     334.01 cm**-1
    13:     368.29 cm**-1
    14:     434.51 cm**-1
    15:     507.83 cm**-1
    16:     531.72 cm**-1
    17:     641.23 cm**-1
    18:     658.14 cm**-1
    19:     733.63 cm**-1
    20:     830.96 cm**-1
    21:     833.93 cm**-1
    22:     851.01 cm**-1
    23:     938.87 cm**-1
    24:     977.73 cm**-1
    25:     991.75 cm**-1
    26:    1024.39 cm**-1
    27:    1121.86 cm**-1
    28:    1125.24 cm**-1
    29:    1141.11 cm**-1
    30:    1185.02 cm**-1
    31:    1188.76 cm**-1
    32:    1217.38 cm**-1
    33:    1311.52 cm**-1
    34:    1339.87 cm**-1
    35:    1388.68 cm**-1
    36:    1466.33 cm**-1
    37:    1480.31 cm**-1
    38:    1481.82 cm**-1
    39:    1497.84 cm**-1
    40:    1558.74 cm**-1
    41:    1654.87 cm**-1
    42:    1697.09 cm**-1
    43:    2647.00 cm**-1
    44:    3012.00 cm**-1
    45:    3091.59 cm**-1
    46:    3165.85 cm**-1
    47:    3208.48 cm**-1
    48:    3211.94 cm**-1
    49:    3226.45 cm**-1
    50:    3233.63 cm**-1

IR SPECTRUM
-----------

 Mode   freq       eps      Int      T**2         TX        TY        TZ
       cm**-1   L/(mol*cm) km/mol    a.u.
----------------------------------------------------------------------------
  6:     46.68   0.005756   29.09  0.038478  ( 0.110446  0.141689  0.078767)
  7:     82.58   0.000287    1.45  0.001084  (-0.009862 -0.022979  0.021415)
  8:    141.73   0.000571    2.89  0.001258  (-0.007330  0.004146  0.034455)
  9:    205.28   0.000275    1.39  0.000418  ( 0.018882 -0.007755 -0.001067)
 10:    252.72   0.000004    0.02  0.000005  (-0.000975  0.001196 -0.001570)
 11:    307.03   0.000106    0.54  0.000108  ( 0.009782 -0.002727 -0.002251)
 12:    334.01   0.000586    2.96  0.000548  ( 0.008175 -0.000810  0.021916)
 13:    368.29   0.000344    1.74  0.000292  (-0.014827  0.008112 -0.002450)
 14:    434.51   0.000055    0.28  0.000039  ( 0.005144  0.003585 -0.000262)
 15:    507.83   0.000610    3.08  0.000375  (-0.019111 -0.000706  0.003006)
 16:    531.72   0.002192   11.08  0.001287  (-0.006888  0.001882 -0.035153)
 17:    641.23   0.000380    1.92  0.000185  (-0.010853  0.008182 -0.000374)
 18:    658.14   0.001697    8.57  0.000805  (-0.026174  0.009754  0.004932)
 19:    733.63   0.000232    1.17  0.000099  (-0.001456  0.000454 -0.009808)
 20:    830.96   0.001479    7.47  0.000555  (-0.003925 -0.000088  0.023239)
 21:    833.93   0.001022    5.16  0.000382  (-0.016376  0.008304 -0.006723)
 22:    851.01   0.010077   50.92  0.003695  ( 0.006962 -0.004643  0.060208)
 23:    938.87   0.001740    8.79  0.000578  (-0.022968  0.006969 -0.001473)
 24:    977.73   0.000630    3.18  0.000201  (-0.012736  0.002438 -0.005742)
 25:    991.75   0.000182    0.92  0.000057  (-0.003471  0.001909 -0.006440)
 26:   1024.39   0.000604    3.05  0.000184  ( 0.013561 -0.000261  0.000326)
 27:   1121.86   0.001331    6.72  0.000370  (-0.008936  0.016981  0.001388)
 28:   1125.24   0.009687   48.96  0.002687  (-0.029611 -0.042518 -0.001405)
 29:   1141.11   0.000019    0.09  0.000005  (-0.001194 -0.000376 -0.001882)
 30:   1185.02   0.000110    0.56  0.000029  (-0.000270 -0.000223  0.005379)
 31:   1188.76   0.004099   20.72  0.001076  (-0.031693 -0.008412  0.000981)
 32:   1217.38   0.000558    2.82  0.000143  (-0.006040 -0.010319  0.000025)
 33:   1311.52   0.000844    4.26  0.000201  (-0.009615  0.010393 -0.000565)
 34:   1339.87   0.047073  237.89  0.010964  ( 0.102985  0.018846 -0.001625)
 35:   1388.68   0.008528   43.10  0.001916  ( 0.040790  0.015784 -0.001872)
 36:   1466.33   0.000738    3.73  0.000157  (-0.012529 -0.000107 -0.000085)
 37:   1480.31   0.002891   14.61  0.000609  (-0.024270  0.004302 -0.001350)
 38:   1481.82   0.001911    9.66  0.000403  (-0.002717 -0.000376  0.019875)
 39:   1497.84   0.009778   49.41  0.002037  (-0.044933 -0.004173  0.000875)
 40:   1558.74   0.035845  181.15  0.007176  ( 0.084565  0.004794 -0.001464)
 41:   1654.87   0.003343   16.90  0.000630  ( 0.021913 -0.012260 -0.000066)
 42:   1697.09   0.017997   90.95  0.003309  (-0.057074 -0.007034  0.001584)
 43:   2647.00   0.002164   10.94  0.000255  (-0.012839 -0.002636  0.009128)
 44:   3012.00   0.011051   55.84  0.001145  (-0.026054 -0.021588 -0.000218)
 45:   3091.59   0.006076   30.70  0.000613  ( 0.000425 -0.000804  0.024748)
 46:   3165.85   0.003063   15.48  0.000302  (-0.016764  0.004547  0.000515)
 47:   3208.48   0.000608    3.07  0.000059  (-0.007242 -0.002580 -0.000128)
 48:   3211.94   0.000445    2.25  0.000043  (-0.005567  0.003466  0.000433)
 49:   3226.45   0.000464    2.34  0.000045  ( 0.002393 -0.006246 -0.000320)
 50:   3233.63   0.000942    4.76  0.000091  (-0.007924 -0.005298  0.000094)

--------------------------
THERMOCHEMISTRY AT 298.15K
--------------------------

Temperature         ...   298.15 K
Pressure            ...     1.00 atm
Total Mass          ...   140.20 AMU
Quasi RRHO          ...     True
Cut-Off Frequency   ...     1.00 cm^-1

Throughout the following assumptions are being made:
  (1) The electronic state is orbitally nondegenerate
  (2) There are no thermally accessible electronically excited states
  (3) Hindered rotations indicated by low frequency modes are not
      treated as such but are treated as vibrations and this may
      cause some error
  (4) All equations used are the standard statistical mechanics
      equations for an ideal gas
  (5) All vibrations are strictly harmonic

freq.      46.68  E(vib)   ...       0.53
freq.      82.58  E(vib)   ...       0.48
freq.     141.73  E(vib)   ...       0.41
freq.     205.28  E(vib)   ...       0.35
freq.     252.72  E(vib)   ...       0.30
freq.     307.03  E(vib)   ...       0.26
freq.     334.01  E(vib)   ...       0.24
freq.     368.29  E(vib)   ...       0.21
freq.     434.51  E(vib)   ...       0.17
freq.     507.83  E(vib)   ...       0.14
freq.     531.72  E(vib)   ...       0.13
freq.     641.23  E(vib)   ...       0.09
freq.     658.14  E(vib)   ...       0.08
freq.     733.63  E(vib)   ...       0.06
freq.     830.96  E(vib)   ...       0.04
freq.     833.93  E(vib)   ...       0.04
freq.     851.01  E(vib)   ...       0.04
freq.     938.87  E(vib)   ...       0.03
freq.     977.73  E(vib)   ...       0.03
freq.     991.75  E(vib)   ...       0.02
freq.    1024.39  E(vib)   ...       0.02
freq.    1121.86  E(vib)   ...       0.01
freq.    1125.24  E(vib)   ...       0.01
freq.    1141.11  E(vib)   ...       0.01
freq.    1185.02  E(vib)   ...       0.01
freq.    1188.76  E(vib)   ...       0.01
freq.    1217.38  E(vib)   ...       0.01
freq.    1311.52  E(vib)   ...       0.01
freq.    1339.87  E(vib)   ...       0.01
freq.    1388.68  E(vib)   ...       0.00
freq.    1466.33  E(vib)   ...       0.00
freq.    1480.31  E(vib)   ...       0.00
freq.    1481.82  E(vib)   ...       0.00
freq.    1497.84  E(vib)   ...       0.00
freq.    1558.74  E(vib)   ...       0.00
freq.    1654.87  E(vib)   ...       0.00
freq.    1697.09  E(vib)   ...       0.00
freq.    2647.00  E(vib)   ...       0.00
freq.    3012.00  E(vib)   ...       0.00
freq.    3091.59  E(vib)   ...       0.00
freq.    3165.85  E(vib)   ...       0.00
freq.    3208.48  E(vib)   ...       0.00
freq.    3211.94  E(vib)   ...       0.00
freq.    3226.45  E(vib)   ...       0.00
freq.    3233.63  E(vib)   ...       0.00

------------
INNER ENERGY
------------

The inner energy is: U= E(el) + E(ZPE) + E(vib) + E(rot) + E(trans)
    E(el)   - is the total energy from the electronic structure calculation
              = E(kin-el) + E(nuc-el) + E(el-el) + E(nuc-nuc)
    E(ZPE)  - the the zero temperature vibrational energy from the frequency calculation
    E(vib)  - the the finite temperature correction to E(ZPE) due to population
              of excited vibrational states
    E(rot)  - is the rotational thermal energy
    E(trans)- is the translational thermal energy

Summary of contributions to the inner energy U:
Electronic energy                ...   -744.03944341 Eh
Zero point energy                ...      0.13292517 Eh      83.41 kcal/mol
Thermal vibrational correction   ...      0.00604012 Eh       3.79 kcal/mol
Thermal rotational correction    ...      0.00141627 Eh       0.89 kcal/mol
Thermal translational correction ...      0.00141627 Eh       0.89 kcal/mol
-----------------------------------------------------------------------
Total thermal energy                   -743.89764557 Eh

Summary of corrections to the electronic energy:
(perhaps to be used in another calculation)
Total thermal correction                  0.00887267 Eh       5.57 kcal/mol
Non-thermal (ZPE) correction              0.13292517 Eh      83.41 kcal/mol
-----------------------------------------------------------------------
Total correction                          0.14179783 Eh      88.98 kcal/mol

--------
ENTHALPY
--------

The enthalpy is H = U + kB*T
                kB is Boltzmann's constant
Total thermal energy              ...   -743.89764557 Eh
Thermal Enthalpy correction       ...      0.00094421 Eh       0.59 kcal/mol
-----------------------------------------------------------------------
Total Enthalpy                    ...   -743.89670136 Eh

Note: Only C1 symmetry has been detected, increase convergence thresholds
      if your molecule has a higher symmetry. Symmetry factor of 1.0 is
      used for the rotational entropy correction.

Note: Rotational entropy computed according to Herzberg
Infrared and Raman Spectra, Chapter V,1, Van Nostrand Reinhold, 1945
Point Group:  C1, Symmetry Number:   1
Rotational constants in cm-1:     0.159819     0.022967     0.020233

Vibrational entropy computed according to the QRRHO of S. Grimme
Chem.Eur.J. 2012 18 9955 using a reference frequency of 100.0 cm-1

-------
ENTROPY
-------

The entropy contributions are T*S = T*(S(el)+S(vib)+S(rot)+S(trans))
     S(el)   - electronic entropy
     S(vib)  - vibrational entropy
     S(rot)  - rotational entropy
     S(trans)- translational entropy
The entropies will be listed as multiplied by the temperature to get
units of energy

Electronic entropy                ...      0.00000000 Eh      0.00 kcal/mol
Vibrational entropy               ...      0.01029428 Eh      6.46 kcal/mol
Rotational entropy                ...      0.01399938 Eh      8.78 kcal/mol
Translational entropy             ...      0.01934980 Eh     12.14 kcal/mol
-----------------------------------------------------------------------
Final entropy term                ...      0.04364346 Eh     27.39 kcal/mol

In case the symmetry of your molecule has not been determined correctly
or in case you have a reason to use a different symmetry number we print
out the resulting rotational entropy values for sn=1,12:

 non-linear molecules -----------------------------------
|  sn= 1 | S(rot)=       0.01399938 Eh      8.78 kcal/mol|
|  sn= 2 | S(rot)=       0.01334492 Eh      8.37 kcal/mol|
|  sn= 3 | S(rot)=       0.01296209 Eh      8.13 kcal/mol|
|  sn= 4 | S(rot)=       0.01269046 Eh      7.96 kcal/mol|
|  sn= 5 | S(rot)=       0.01247978 Eh      7.83 kcal/mol|
|  sn= 6 | S(rot)=       0.01230763 Eh      7.72 kcal/mol|
|  sn= 7 | S(rot)=       0.01216209 Eh      7.63 kcal/mol|
|  sn= 8 | S(rot)=       0.01203601 Eh      7.55 kcal/mol|
|  sn= 9 | S(rot)=       0.01192480 Eh      7.48 kcal/mol|
|  sn=10 | S(rot)=       0.01182532 Eh      7.42 kcal/mol|
|  sn=11 | S(rot)=       0.01173533 Eh      7.36 kcal/mol|
|  sn=12 | S(rot)=       0.01165318 Eh      7.31 kcal/mol|
 linear molecules ---------------------------------------
|  Dinfh | S(rot)=       0.00900854 Eh      5.65 kcal/mol|
|  Cinfv | S(rot)=       0.00966300 Eh      6.06 kcal/mol|

                             ****ORCA TERMINATED NORMALLY****
TOTAL RUN TIME: 0 days 0 hours 10 minutes 41 seconds 332 msec
