                         Program Version 6.0.0  -   RELEASE  -
|  1> !B3LYP aug-cc-pVTZ d3 TightSCF SlowConv RIJCOSX defgrid2
|  2>
|  3> %pal
|  4> nprocs 4
|  5> end
|  6>
|  7> %scf
|  8> MaxIter 1500
|  9> end
| 10>
| 11> %maxcore 3000
| 12>
| 13> !CPCM
| 14> %cpcm smd true
| 15> SMDsolvent "MeCN"
| 16> surfacetype gepol_ses
| 17> rsolv 2.19
| 18> end
| 19>
| 20> * xyz -1 2
| 21> C          -0.01331421056281      1.21015152275559     -0.00003912841012
| 22> C           1.37407426915828      1.22077182581697      0.00009471803504
| 23> C           2.08268728216500      0.01623593632828      0.00008078293558
| 24> C           1.39800867624770     -1.21018542596672     -0.00005492668248
| 25> C           0.01763373542032     -1.22524409629627     -0.00018246787257
| 26> C          -0.75988843497050     -0.01763719993150     -0.00018385015586
| 27> C          -2.18998893121825     -0.10468719257966     -0.00029823993913
| 28> O          -2.82191384294989     -1.19348424477804     -0.00032077578394
| 29> C          -2.98040993394950      1.20193760901241     -0.00023396308602
| 30> H          -2.77113925068928      1.83311429650402      0.88831166373856
| 31> H          -2.77095660989795      1.83331313895105     -0.88859326031545
| 32> H          -4.05230547218906      0.94280281896802     -0.00037251615162
| 33> H          -0.53955758793286     -2.16627118900373     -0.00028423650614
| 34> H           1.97817281356228     -2.14018774357936     -0.00004958149680
| 35> F           3.44427090335711      0.03016813897025      0.00021925839865
| 36> H           1.93269491180525      2.16366570442592      0.00021265957610
| 37> H          -0.54367651735585      2.16766590040277     -0.00001523628380
| 38> *
| 39>
| 40>                          ****END OF INPUT****

CARTESIAN COORDINATES (ANGSTROEM)
---------------------------------
  C     -0.013314    1.210152   -0.000039
  C      1.374074    1.220772    0.000095
  C      2.082687    0.016236    0.000081
  C      1.398009   -1.210185   -0.000055
  C      0.017634   -1.225244   -0.000182
  C     -0.759888   -0.017637   -0.000184
  C     -2.189989   -0.104687   -0.000298
  O     -2.821914   -1.193484   -0.000321
  C     -2.980410    1.201938   -0.000234
  H     -2.771139    1.833114    0.888312
  H     -2.770957    1.833313   -0.888593
  H     -4.052305    0.942803   -0.000373
  H     -0.539558   -2.166271   -0.000284
  H      1.978173   -2.140188   -0.000050
  F      3.444271    0.030168    0.000219
  H      1.932695    2.163666    0.000213
  H     -0.543677    2.167666   -0.000015

 Total Charge           Charge          ....   -1
 Multiplicity           Mult            ....    2
 Number of Electrons    NEL             ....   73
 Basis Dimension        Dim             ....  621

ORBITAL ENERGIES
----------------
                 SPIN UP ORBITALS
  NO   OCC          E(Eh)            E(eV)
   0   1.0000     -24.679875      -671.5735
   1   1.0000     -19.046751      -518.2884
   2   1.0000     -10.223256      -278.1889
   3   1.0000     -10.184899      -277.1452
   4   1.0000     -10.159811      -276.4625
   5   1.0000     -10.159756      -276.4610
   6   1.0000     -10.155701      -276.3507
   7   1.0000     -10.150466      -276.2082
   8   1.0000     -10.142106      -275.9807
   9   1.0000     -10.141390      -275.9613
  10   1.0000      -1.208546       -32.8862
  11   1.0000      -0.963318       -26.2132
  12   1.0000      -0.831337       -22.6218
  13   1.0000      -0.738189       -20.0872
  14   1.0000      -0.729389       -19.8477
  15   1.0000      -0.687854       -18.7175
  16   1.0000      -0.609393       -16.5824
  17   1.0000      -0.590166       -16.0592
  18   1.0000      -0.523972       -14.2580
  19   1.0000      -0.521552       -14.1922
  20   1.0000      -0.467013       -12.7081
  21   1.0000      -0.457584       -12.4515
  22   1.0000      -0.439552       -11.9608
  23   1.0000      -0.420112       -11.4318
  24   1.0000      -0.403091       -10.9687
  25   1.0000      -0.403067       -10.9680
  26   1.0000      -0.392841       -10.6897
  27   1.0000      -0.378082       -10.2881
  28   1.0000      -0.359523        -9.7831
  29   1.0000      -0.347429        -9.4540
  30   1.0000      -0.341119        -9.2823
  31   1.0000      -0.314387        -8.5549
  32   1.0000      -0.309604        -8.4248
  33   1.0000      -0.248695        -6.7673
  34   1.0000      -0.231106        -6.2887
  35   1.0000      -0.207905        -5.6574
  36   1.0000      -0.090710        -2.4683
  37   0.0000      -0.000285        -0.0077
  38   0.0000      -0.000275        -0.0075
  39   0.0000       0.012599         0.3428
  40   0.0000       0.016777         0.4565
  41   0.0000       0.028600         0.7782

                 SPIN DOWN ORBITALS
  NO   OCC          E(Eh)            E(eV)
   0   1.0000     -24.678979      -671.5492
   1   1.0000     -19.041127      -518.1354
   2   1.0000     -10.218644      -278.0634
   3   1.0000     -10.180744      -277.0321
   4   1.0000     -10.161047      -276.4961
   5   1.0000     -10.160970      -276.4941
   6   1.0000     -10.153319      -276.2859
   7   1.0000     -10.148051      -276.1425
   8   1.0000     -10.141741      -275.9708
   9   1.0000     -10.141089      -275.9531
  10   1.0000      -1.206355       -32.8266
  11   1.0000      -0.952533       -25.9197
  12   1.0000      -0.827540       -22.5185
  13   1.0000      -0.731933       -19.9169
  14   1.0000      -0.725984       -19.7550
  15   1.0000      -0.685039       -18.6409
  16   1.0000      -0.602065       -16.3830
  17   1.0000      -0.587894       -15.9974
  18   1.0000      -0.520355       -14.1596
  19   1.0000      -0.517857       -14.0916
  20   1.0000      -0.465632       -12.6705
  21   1.0000      -0.449040       -12.2190
  22   1.0000      -0.435419       -11.8484
  23   1.0000      -0.418543       -11.3891
  24   1.0000      -0.402532       -10.9534
  25   1.0000      -0.392795       -10.6885
  26   1.0000      -0.390564       -10.6278
  27   1.0000      -0.376484       -10.2446
  28   1.0000      -0.355872        -9.6838
  29   1.0000      -0.338823        -9.2198
  30   1.0000      -0.338330        -9.2064
  31   1.0000      -0.308222        -8.3872
  32   1.0000      -0.291039        -7.9196
  33   1.0000      -0.240210        -6.5364
  34   1.0000      -0.210204        -5.7199
  35   1.0000      -0.202929        -5.5220
  36   0.0000      -0.018784        -0.5111
  37   0.0000      -0.000332        -0.0090
  38   0.0000       0.004452         0.1211
  39   0.0000       0.012496         0.3400
  40   0.0000       0.016516         0.4494

MULLIKEN ATOMIC CHARGES AND SPIN POPULATIONS
--------------------------------------------
   0 C :   -0.513294    0.212321
   1 C :   -0.854932   -0.086279
   2 C :    0.657369    0.262278
   3 C :   -0.748635   -0.079740
   4 C :   -0.916767    0.206021
   5 C :    1.619022    0.069004
   6 C :    0.426649    0.220501
   7 O :   -1.080941    0.217271
   8 C :   -0.647360   -0.019267
   9 H :    0.221156    0.011713
  10 H :    0.222123    0.011685
  11 H :    0.143254    0.000445
  12 H :    0.163019   -0.021091
  13 H :    0.395289   -0.000151
  14 F :   -0.551448    0.013516
  15 H :    0.409229    0.002644
  16 H :    0.056268   -0.020869
Sum of atomic charges         :   -1.0000000

LOEWDIN ATOMIC CHARGES AND SPIN POPULATIONS
-------------------------------------------
   0 C :    0.144357    0.092188
   1 C :    0.127619    0.027278
   2 C :   -0.579166    0.130665
   3 C :    0.126899    0.026700
   4 C :    0.128145    0.090343
   5 C :   -0.210951    0.118247
   6 C :   -0.679218    0.188240
   7 O :    0.330774    0.201366
   8 C :    0.484423    0.036775
   9 H :   -0.177018    0.009520
  10 H :   -0.177062    0.009517
  11 H :   -0.203116   -0.000740
  12 H :   -0.214701    0.020528
  13 H :   -0.186942   -0.004657
  14 F :    0.473528    0.038133
  15 H :   -0.185669   -0.004415
  16 H :   -0.201904    0.020313

  Mayer bond orders larger than 0.100000
B(  0-C ,  1-C ) :   1.0388 B(  0-C ,  2-C ) :  -0.1989 B(  0-C ,  3-C ) :  -0.1339
B(  0-C ,  4-C ) :  -0.3324 B(  0-C ,  5-C ) :   0.2119 B(  0-C ,  6-C ) :   0.2670
B(  0-C , 12-H ) :   0.1020 B(  0-C , 16-H ) :   1.3576 B(  1-C ,  2-C ) :   1.2838
B(  1-C ,  3-C ) :   0.2756 B(  1-C ,  5-C ) :   0.1711 B(  1-C , 14-F ) :   0.1853
B(  1-C , 15-H ) :   0.5950 B(  2-C ,  3-C ) :   1.2862 B(  2-C ,  4-C ) :  -0.2441
B(  2-C ,  6-C ) :   0.1123 B(  2-C , 14-F ) :   0.1717 B(  3-C ,  4-C ) :   1.3879
B(  3-C , 13-H ) :   0.6253 B(  3-C , 14-F ) :   0.1734 B(  3-C , 16-H ) :  -0.1202
B(  4-C ,  5-C ) :   0.1048 B(  4-C ,  6-C ) :   0.3783 B(  4-C , 12-H ) :   1.0523
B(  4-C , 16-H ) :   0.1651 B(  5-C ,  6-C ) :   0.3072 B(  5-C ,  7-O ) :   0.1531
B(  5-C , 16-H ) :  -0.2388 B(  6-C ,  7-O ) :   0.6219 B(  6-C ,  8-C ) :   0.9432
B(  7-O , 12-H ) :   0.1325 B(  8-C ,  9-H ) :   0.9663 B(  8-C , 10-H ) :   0.9658
B(  8-C , 11-H ) :   0.9981 B( 12-H , 16-H ) :   0.1272 B( 13-H , 14-F ) :   0.1115

Dispersion correction           -0.030104755
FINAL SINGLE POINT ENERGY      -484.169725666373

DIPOLE MOMENT
-------------

Method             : SCF
Type of density    : Electron Density
Multiplicity       :   2
Irrep              :   0
Energy             :  -484.1396209109866504 Eh
Relativity type    :
Basis              : AO
                                X                 Y                 Z
Electronic contribution:     11.368607602      -2.862305973       0.001179565
Nuclear contribution   :     -9.605928906       4.332386022      -0.000475554
                        -----------------------------------------
Total Dipole Moment    :      1.762678695       1.470080050       0.000704012
                        -----------------------------------------
Magnitude (a.u.)       :      2.295249884
Magnitude (Debye)      :      5.834061565

Rotational constants in cm-1:             0.120873             0.025381             0.021060
Rotational constants in MHz :          3623.689684           760.893162           631.349310

                             ****ORCA TERMINATED NORMALLY****
TOTAL RUN TIME: 0 days 0 hours 4 minutes 52 seconds 151 msec
