                         Program Version 6.0.0  -   RELEASE  -
|  1> !PBE0 def2-SV(p) Opt Freq d3 TightSCF SlowConv RIJCOSX defgrid2
|  2>
|  3> %pal
|  4> nprocs 4
|  5> end
|  6>
|  7> %scf
|  8> MaxIter 1500
|  9> end
| 10>
| 11> %maxcore 3000
| 12>
| 13>
| 14>
| 15> * xyz 1 2
| 16> C    -1.0632731   -0.8986633   -0.0022302
| 17> C     0.2470578   -1.3898903   -0.0024861
| 18> C     0.5255731   -2.8427953    0.0009109
| 19> H    -0.3859896   -3.4324435   -0.0321534
| 20> H     1.0950362   -3.1128289    0.8938929
| 21> H     1.1611305   -3.1084251   -0.8468627
| 22> C     1.3097465   -0.4714429   -0.0028015
| 23> C     1.0798817    0.9090818   -0.0036497
| 24> C     2.1992192    1.8763334   -0.0001508
| 25> H     3.1646475    1.3823352   -0.0611406
| 26> H     2.0959799    2.5802342   -0.8287153
| 27> H     2.1657270    2.4822243    0.9091901
| 28> C    -0.2466937    1.3702611   -0.0030888
| 29> C    -1.3272514    0.4809560   -0.0031125
| 30> C    -2.7246511    0.9663552   -0.0002394
| 31> H    -3.2750120    0.5421993   -0.8430329
| 32> H    -2.7794930    2.0503772   -0.0407695
| 33> H    -3.2408517    0.6151039    0.8969176
| 34> H    -0.4338651    2.4338994   -0.0024620
| 35> H     2.3244960   -0.8411188   -0.0020606
| 36> H    -1.8910892   -1.5922912   -0.0007504
| 37> *
| 38>
| 39>                          ****END OF INPUT****
 Total Charge           Charge          ....    1
 Multiplicity           Mult            ....    2
 Number of Electrons    NEL             ....   65
Dispersion correction           -0.018052032
FINAL SINGLE POINT ENERGY      -349.203896947200
Dispersion correction             ... done (  0.1 sec)
Dispersion correction           -0.017929801
FINAL SINGLE POINT ENERGY      -349.210048797089
Dispersion correction             ... done (  0.1 sec)
Dispersion correction           -0.017905349
FINAL SINGLE POINT ENERGY      -349.210477670059
Dispersion correction             ... done (  0.1 sec)
FINAL SINGLE POINT ENERGY      -349.210556567106
FINAL SINGLE POINT ENERGY      -349.210577784396
FINAL SINGLE POINT ENERGY      -349.210587017552
FINAL SINGLE POINT ENERGY      -349.210617186303
FINAL SINGLE POINT ENERGY      -349.210710611764
FINAL SINGLE POINT ENERGY      -349.210823942551
FINAL SINGLE POINT ENERGY      -349.211170206073
FINAL SINGLE POINT ENERGY      -349.211822688873
FINAL SINGLE POINT ENERGY      -349.211824054748
FINAL SINGLE POINT ENERGY      -349.211824877545
FINAL SINGLE POINT ENERGY      -349.211825424875
FINAL SINGLE POINT ENERGY      -349.211825814173
FINAL SINGLE POINT ENERGY      -349.211826573684
FINAL SINGLE POINT ENERGY      -349.211827324092
Dispersion correction             ... done (  0.1 sec)
Dispersion correction           -0.017913884
FINAL SINGLE POINT ENERGY      -349.211825519310
Dispersion correction             ... done (  0.1 sec)
Dispersion correction           -0.017913463
FINAL SINGLE POINT ENERGY      -349.211828647306
Dispersion correction             ... done (  0.1 sec)
                    ***********************HURRAY********************

CARTESIAN COORDINATES (ANGSTROEM)
---------------------------------
  C     -1.063863   -0.913299    0.003548
  C      0.221635   -1.403372    0.048580
  C      0.539450   -2.861979    0.101691
  H     -0.372595   -3.477154    0.085891
  H      1.104756   -3.104972    1.019268
  H      1.171097   -3.156217   -0.755411
  C      1.273607   -0.444657    0.043523
  C      1.047303    0.979735   -0.004827
  C      2.218268    1.894954   -0.005019
  H      2.878528    1.677731   -0.865950
  H      1.917525    2.951878   -0.048850
  H      2.830713    1.738029    0.903202
  C     -0.257149    1.422088   -0.048429
  C     -1.332125    0.500204   -0.045140
  C     -2.734381    0.959600   -0.091321
  H     -3.245579    0.526017   -0.974885
  H     -2.827925    2.054489   -0.120057
  H     -3.290935    0.567197    0.783775
  H     -0.474416    2.492749   -0.086181
  H      2.309929   -0.800411    0.077384
  H     -1.913516   -1.603149    0.004415

 Multiplicity           Mult            ....    2
 Number of Electrons    NEL             ....   65
 Basis Dimension        Dim             ....  150

ORBITAL ENERGIES
----------------
                 SPIN UP ORBITALS
  NO   OCC          E(Eh)            E(eV)
   0   1.0000     -10.477628      -285.1107
   1   1.0000     -10.467786      -284.8429
   2   1.0000     -10.456748      -284.5426
   3   1.0000     -10.443378      -284.1788
   4   1.0000     -10.437207      -284.0108
   5   1.0000     -10.424606      -283.6680
   6   1.0000     -10.397087      -282.9191
   7   1.0000     -10.388117      -282.6750
   8   1.0000     -10.381471      -282.4942
   9   1.0000      -1.089066       -29.6350
  10   1.0000      -1.002287       -27.2736
  11   1.0000      -0.992838       -27.0165
  12   1.0000      -0.894372       -24.3371
  13   1.0000      -0.884738       -24.0749
  14   1.0000      -0.879875       -23.9426
  15   1.0000      -0.780160       -21.2292
  16   1.0000      -0.775513       -21.1028
  17   1.0000      -0.705008       -19.1842
  18   1.0000      -0.694109       -18.8877
  19   1.0000      -0.631968       -17.1967
  20   1.0000      -0.629793       -17.1375
  21   1.0000      -0.609280       -16.5794
  22   1.0000      -0.607009       -16.5176
  23   1.0000      -0.601713       -16.3734
  24   1.0000      -0.588729       -16.0201
  25   1.0000      -0.580190       -15.7878
  26   1.0000      -0.576679       -15.6922
  27   1.0000      -0.546948       -14.8832
  28   1.0000      -0.539983       -14.6937
  29   1.0000      -0.536528       -14.5997
  30   1.0000      -0.535326       -14.5670
  31   1.0000      -0.465345       -12.6627
  32   1.0000      -0.450492       -12.2585
  33   0.0000      -0.230630        -6.2758
  34   0.0000      -0.188499        -5.1293
  35   0.0000      -0.077068        -2.0971
  36   0.0000      -0.067927        -1.8484
  37   0.0000      -0.053199        -1.4476

                 SPIN DOWN ORBITALS
  NO   OCC          E(Eh)            E(eV)
   0   1.0000     -10.472361      -284.9674
   1   1.0000     -10.459151      -284.6080
   2   1.0000     -10.455950      -284.5209
   3   1.0000     -10.444874      -284.2195
   4   1.0000     -10.434903      -283.9481
   5   1.0000     -10.424927      -283.6767
   6   1.0000     -10.397092      -282.9193
   7   1.0000     -10.387990      -282.6716
   8   1.0000     -10.381327      -282.4903
   9   1.0000      -1.078838       -29.3567
  10   1.0000      -0.991863       -26.9900
  11   1.0000      -0.988784       -26.9062
  12   1.0000      -0.891960       -24.2715
  13   1.0000      -0.877355       -23.8741
  14   1.0000      -0.873445       -23.7677
  15   1.0000      -0.773644       -21.0519
  16   1.0000      -0.771553       -20.9950
  17   1.0000      -0.701284       -19.0829
  18   1.0000      -0.690665       -18.7939
  19   1.0000      -0.626754       -17.0548
  20   1.0000      -0.613704       -16.6997
  21   1.0000      -0.608688       -16.5632
  22   1.0000      -0.602701       -16.4003
  23   1.0000      -0.590112       -16.0578
  24   1.0000      -0.586993       -15.9729
  25   1.0000      -0.579047       -15.7567
  26   1.0000      -0.575590       -15.6626
  27   1.0000      -0.545448       -14.8424
  28   1.0000      -0.538760       -14.6604
  29   1.0000      -0.533940       -14.5292
  30   1.0000      -0.514313       -13.9952
  31   1.0000      -0.446204       -12.1418
  32   0.0000      -0.360084        -9.7984
  33   0.0000      -0.189520        -5.1571
  34   0.0000      -0.176237        -4.7956
  35   0.0000      -0.075237        -2.0473
  36   0.0000      -0.053922        -1.4673

MULLIKEN ATOMIC CHARGES AND SPIN POPULATIONS
--------------------------------------------
   0 C :   -0.109006    0.157577
   1 C :   -0.007842   -0.134931
   2 C :   -0.293075    0.009508
   3 H :    0.173556   -0.001171
   4 H :    0.187501   -0.001158
   5 H :    0.186754   -0.001170
   6 C :   -0.037640    0.594498
   7 C :    0.003980    0.037530
   8 C :   -0.302706    0.001560
   9 H :    0.194529    0.009038
  10 H :    0.180605   -0.001368
  11 H :    0.194767    0.009180
  12 C :   -0.130030   -0.036823
  13 C :    0.029876    0.356608
  14 C :   -0.320916   -0.019934
  15 H :    0.209236    0.029703
  16 H :    0.188067   -0.000879
  17 H :    0.208709    0.029117
  18 H :    0.141139   -0.000588
  19 H :    0.157653   -0.027668
  20 H :    0.144844   -0.008627
Sum of atomic charges         :    1.0000000

LOEWDIN ATOMIC CHARGES AND SPIN POPULATIONS
-------------------------------------------
   0 C :   -0.057466    0.142060
   1 C :   -0.022383   -0.051973
   2 C :   -0.323902    0.005909
   3 H :    0.152015   -0.000822
   4 H :    0.162748   -0.000951
   5 H :    0.162278   -0.000953
   6 C :    0.055636    0.488230
   7 C :    0.020917    0.065588
   8 C :   -0.321790    0.008973
   9 H :    0.169014    0.008122
  10 H :    0.155318   -0.000818
  11 H :    0.169241    0.008244
  12 C :   -0.105096   -0.000744
  13 C :    0.095501    0.288134
  14 C :   -0.320321    0.009425
  15 H :    0.181880    0.025909
  16 H :    0.157311   -0.000373
  17 H :    0.181401    0.025408
  18 H :    0.161079   -0.000587
  19 H :    0.165156   -0.014150
  20 H :    0.161461   -0.004631

  Mayer bond orders larger than 0.100000
B(  0-C ,  1-C ) :   1.5316 B(  0-C , 13-C ) :   1.1619 B(  0-C , 20-H ) :   0.9533
B(  1-C ,  2-C ) :   1.0750 B(  1-C ,  6-C ) :   1.2220 B(  2-C ,  3-H ) :   0.9382
B(  2-C ,  4-H ) :   0.9196 B(  2-C ,  5-H ) :   0.9203 B(  6-C ,  7-C ) :   1.1609
B(  6-C , 19-H ) :   0.9513 B(  7-C ,  8-C ) :   1.0938 B(  7-C , 12-C ) :   1.5121
B(  8-C ,  9-H ) :   0.9092 B(  8-C , 10-H ) :   0.9366 B(  8-C , 11-H ) :   0.9089
B( 12-C , 13-C ) :   1.2691 B( 12-C , 18-H ) :   0.9507 B( 13-C , 14-C ) :   1.1277
B( 14-C , 15-H ) :   0.8928 B( 14-C , 16-H ) :   0.9344 B( 14-C , 17-H ) :   0.8936

Dispersion correction           -0.017913297
FINAL SINGLE POINT ENERGY      -349.211828946306

DIPOLE MOMENT
-------------

Method             : SCF
Type of density    : Electron Density
Multiplicity       :   2
Irrep              :   0
Energy             :  -349.1939156488186882 Eh
Relativity type    :
Basis              : AO
                                X                 Y                 Z
Electronic contribution:     -0.229756695       0.299454250      -0.017920380
Nuclear contribution   :      0.172059902      -0.262839703       0.016137258
                        -----------------------------------------
Total Dipole Moment    :     -0.057696793       0.036614546      -0.001783121
                        -----------------------------------------
Magnitude (a.u.)       :      0.068357329
Magnitude (Debye)      :      0.173750521

VIBRATIONAL FREQUENCIES
-----------------------

Scaling factor for frequencies =  1.000000000  (already applied!)

     0:       0.00 cm**-1
     1:       0.00 cm**-1
     2:       0.00 cm**-1
     3:       0.00 cm**-1
     4:       0.00 cm**-1
     5:       0.00 cm**-1
     6:      33.36 cm**-1
     7:      86.90 cm**-1
     8:     105.80 cm**-1
     9:     155.87 cm**-1
    10:     174.62 cm**-1
    11:     204.11 cm**-1
    12:     257.99 cm**-1
    13:     268.51 cm**-1
    14:     328.49 cm**-1
    15:     454.96 cm**-1
    16:     464.68 cm**-1
    17:     493.84 cm**-1
    18:     509.61 cm**-1
    19:     583.69 cm**-1
    20:     596.77 cm**-1
    21:     841.14 cm**-1
    22:     888.07 cm**-1
    23:     924.75 cm**-1
    24:     927.78 cm**-1
    25:     941.98 cm**-1
    26:     958.16 cm**-1
    27:     996.89 cm**-1
    28:    1012.04 cm**-1
    29:    1026.32 cm**-1
    30:    1042.97 cm**-1
    31:    1050.43 cm**-1
    32:    1060.44 cm**-1
    33:    1184.32 cm**-1
    34:    1188.71 cm**-1
    35:    1283.08 cm**-1
    36:    1316.47 cm**-1
    37:    1338.75 cm**-1
    38:    1370.54 cm**-1
    39:    1391.61 cm**-1
    40:    1408.02 cm**-1
    41:    1423.78 cm**-1
    42:    1425.04 cm**-1
    43:    1440.80 cm**-1
    44:    1441.48 cm**-1
    45:    1455.89 cm**-1
    46:    1456.85 cm**-1
    47:    1464.00 cm**-1
    48:    1492.17 cm**-1
    49:    1582.70 cm**-1
    50:    1699.48 cm**-1
    51:    3008.35 cm**-1
    52:    3027.18 cm**-1
    53:    3043.74 cm**-1
    54:    3076.42 cm**-1
    55:    3105.00 cm**-1
    56:    3128.10 cm**-1
    57:    3171.94 cm**-1
    58:    3176.85 cm**-1
    59:    3181.75 cm**-1
    60:    3201.18 cm**-1
    61:    3212.80 cm**-1
    62:    3224.10 cm**-1

IR SPECTRUM
-----------

 Mode   freq       eps      Int      T**2         TX        TY        TZ
       cm**-1   L/(mol*cm) km/mol    a.u.
----------------------------------------------------------------------------
  6:     33.36   0.000707    3.57  0.006610  ( 0.001233 -0.002498 -0.081252)
  7:     86.90   0.000140    0.71  0.000502  ( 0.001221 -0.001114 -0.022339)
  8:    105.80   0.000381    1.92  0.001122  ( 0.001508 -0.000922 -0.033454)
  9:    155.87   0.000112    0.57  0.000225  (-0.000510  0.000060  0.014980)
 10:    174.62   0.000001    0.00  0.000001  (-0.000039 -0.000411 -0.001125)
 11:    204.11   0.000026    0.13  0.000040  (-0.000363 -0.000923 -0.006211)
 12:    257.99   0.001899    9.60  0.002297  (-0.024791 -0.041011  0.000966)
 13:    268.51   0.000141    0.71  0.000164  (-0.007438 -0.010436  0.000144)
 14:    328.49   0.006247   31.57  0.005934  ( 0.036774  0.067676 -0.001381)
 15:    454.96   0.001475    7.45  0.001012  ( 0.000532 -0.001101 -0.031784)
 16:    464.68   0.000095    0.48  0.000064  (-0.001711 -0.007804  0.000179)
 17:    493.84   0.000165    0.83  0.000104  ( 0.000297 -0.000179 -0.010206)
 18:    509.61   0.000026    0.13  0.000016  (-0.003077 -0.002501 -0.000023)
 19:    583.69   0.000028    0.14  0.000015  (-0.003672  0.001145  0.000340)
 20:    596.77   0.001646    8.32  0.000861  ( 0.000400 -0.000883 -0.029323)
 21:    841.14   0.000735    3.71  0.000273  (-0.000807  0.000809  0.016474)
 22:    888.07   0.000002    0.01  0.000001  (-0.000054 -0.000398 -0.000712)
 23:    924.75   0.000116    0.59  0.000039  (-0.000135 -0.000062  0.006262)
 24:    927.78   0.007714   38.98  0.002595  ( 0.047168  0.019227  0.000397)
 25:    941.98   0.001561    7.89  0.000517  (-0.007073  0.021604 -0.000705)
 26:    958.16   0.007183   36.30  0.002339  ( 0.020566 -0.043732  0.002016)
 27:    996.89   0.000303    1.53  0.000095  (-0.009575  0.001719 -0.000291)
 28:   1012.04   0.002517   12.72  0.000776  ( 0.000634  0.000783  0.027840)
 29:   1026.32   0.004237   21.41  0.001288  (-0.035861 -0.001395 -0.000577)
 30:   1042.97   0.000951    4.80  0.000284  (-0.000352  0.000853  0.016841)
 31:   1050.43   0.000541    2.73  0.000161  (-0.011747  0.004679 -0.000870)
 32:   1060.44   0.002052   10.37  0.000604  ( 0.000447 -0.000192 -0.024570)
 33:   1184.32   0.010631   53.72  0.002801  (-0.052759 -0.004027 -0.001186)
 34:   1188.71   0.002280   11.52  0.000599  ( 0.007841 -0.023153  0.001013)
 35:   1283.08   0.028463  143.84  0.006923  ( 0.048824  0.067364 -0.000962)
 36:   1316.47   0.000876    4.43  0.000208  (-0.000437  0.014397 -0.000470)
 37:   1338.75   0.007065   35.70  0.001647  ( 0.040304 -0.004532  0.001348)
 38:   1370.54   0.015419   77.92  0.003511  (-0.057481  0.014199 -0.002252)
 39:   1391.61   0.002617   13.22  0.000587  ( 0.018256  0.015922 -0.000020)
 40:   1408.02   0.002826   14.28  0.000626  (-0.007861 -0.023728  0.001207)
 41:   1423.78   0.004839   24.46  0.001061  (-0.014608  0.000226  0.029107)
 42:   1425.04   0.021364  107.96  0.004678  (-0.067822 -0.002589 -0.008475)
 43:   1440.80   0.001410    7.13  0.000305  ( 0.012861  0.010108 -0.006150)
 44:   1441.48   0.003420   17.29  0.000740  ( 0.001521  0.003723  0.026913)
 45:   1455.89   0.004070   20.57  0.000872  ( 0.002603 -0.000015 -0.029423)
 46:   1456.85   0.000854    4.32  0.000183  (-0.005883  0.011899  0.002593)
 47:   1464.00   0.012059   60.94  0.002570  ( 0.047889 -0.016458  0.002510)
 48:   1492.17   0.018996   96.00  0.003973  (-0.063007 -0.000818 -0.001422)
 49:   1582.70   0.034491  174.30  0.006801  (-0.047950 -0.067086  0.000941)
 50:   1699.48   0.012016   60.72  0.002206  (-0.043851  0.016763 -0.001578)
 51:   3008.35   0.015638   79.03  0.001622  ( 0.039765 -0.006232  0.001419)
 52:   3027.18   0.004255   21.50  0.000439  ( 0.018123  0.010495  0.000146)
 53:   3043.74   0.000820    4.14  0.000084  ( 0.005921 -0.006985  0.000443)
 54:   3076.42   0.001504    7.60  0.000153  ( 0.000364 -0.000323 -0.012341)
 55:   3105.00   0.000335    1.69  0.000034  (-0.000125  0.000148  0.005799)
 56:   3128.10   0.000068    0.34  0.000007  ( 0.000029 -0.000238  0.002584)
 57:   3171.94   0.000819    4.14  0.000081  ( 0.002187 -0.008699  0.000362)
 58:   3176.85   0.001688    8.53  0.000166  ( 0.011873  0.004982  0.000159)
 59:   3181.75   0.002164   10.94  0.000212  ( 0.014400 -0.002173  0.000400)
 60:   3201.18   0.000055    0.28  0.000005  (-0.001695  0.001566 -0.000083)
 61:   3212.80   0.000086    0.43  0.000008  ( 0.001807  0.002248 -0.000032)
 62:   3224.10   0.000148    0.75  0.000014  (-0.001119  0.003615 -0.000153)

--------------------------
THERMOCHEMISTRY AT 298.15K
--------------------------

Temperature         ...   298.15 K
Pressure            ...     1.00 atm
Total Mass          ...   120.19 AMU
Quasi RRHO          ...     True
Cut-Off Frequency   ...     1.00 cm^-1

Throughout the following assumptions are being made:
  (1) The electronic state is orbitally nondegenerate
      but the spin degeneracy is treated
  (2) There are no thermally accessible electronically excited states
  (3) Hindered rotations indicated by low frequency modes are not
      treated as such but are treated as vibrations and this may
      cause some error
  (4) All equations used are the standard statistical mechanics
      equations for an ideal gas
  (5) All vibrations are strictly harmonic

freq.      33.36  E(vib)   ...       0.55
freq.      86.90  E(vib)   ...       0.48
freq.     105.80  E(vib)   ...       0.45
freq.     155.87  E(vib)   ...       0.40
freq.     174.62  E(vib)   ...       0.38
freq.     204.11  E(vib)   ...       0.35
freq.     257.99  E(vib)   ...       0.30
freq.     268.51  E(vib)   ...       0.29
freq.     328.49  E(vib)   ...       0.24
freq.     454.96  E(vib)   ...       0.16
freq.     464.68  E(vib)   ...       0.16
freq.     493.84  E(vib)   ...       0.14
freq.     509.61  E(vib)   ...       0.14
freq.     583.69  E(vib)   ...       0.11
freq.     596.77  E(vib)   ...       0.10
freq.     841.14  E(vib)   ...       0.04
freq.     888.07  E(vib)   ...       0.04
freq.     924.75  E(vib)   ...       0.03
freq.     927.78  E(vib)   ...       0.03
freq.     941.98  E(vib)   ...       0.03
freq.     958.16  E(vib)   ...       0.03
freq.     996.89  E(vib)   ...       0.02
freq.    1012.04  E(vib)   ...       0.02
freq.    1026.32  E(vib)   ...       0.02
freq.    1042.97  E(vib)   ...       0.02
freq.    1050.43  E(vib)   ...       0.02
freq.    1060.44  E(vib)   ...       0.02
freq.    1184.32  E(vib)   ...       0.01
freq.    1188.71  E(vib)   ...       0.01
freq.    1283.08  E(vib)   ...       0.01
freq.    1316.47  E(vib)   ...       0.01
freq.    1338.75  E(vib)   ...       0.01
freq.    1370.54  E(vib)   ...       0.01
freq.    1391.61  E(vib)   ...       0.00
freq.    1408.02  E(vib)   ...       0.00
freq.    1423.78  E(vib)   ...       0.00
freq.    1425.04  E(vib)   ...       0.00
freq.    1440.80  E(vib)   ...       0.00
freq.    1441.48  E(vib)   ...       0.00
freq.    1455.89  E(vib)   ...       0.00
freq.    1456.85  E(vib)   ...       0.00
freq.    1464.00  E(vib)   ...       0.00
freq.    1492.17  E(vib)   ...       0.00
freq.    1582.70  E(vib)   ...       0.00
freq.    1699.48  E(vib)   ...       0.00
freq.    3008.35  E(vib)   ...       0.00
freq.    3027.18  E(vib)   ...       0.00
freq.    3043.74  E(vib)   ...       0.00
freq.    3076.42  E(vib)   ...       0.00
freq.    3105.00  E(vib)   ...       0.00
freq.    3128.10  E(vib)   ...       0.00
freq.    3171.94  E(vib)   ...       0.00
freq.    3176.85  E(vib)   ...       0.00
freq.    3181.75  E(vib)   ...       0.00
freq.    3201.18  E(vib)   ...       0.00
freq.    3212.80  E(vib)   ...       0.00
freq.    3224.10  E(vib)   ...       0.00

------------
INNER ENERGY
------------

The inner energy is: U= E(el) + E(ZPE) + E(vib) + E(rot) + E(trans)
    E(el)   - is the total energy from the electronic structure calculation
              = E(kin-el) + E(nuc-el) + E(el-el) + E(nuc-nuc)
    E(ZPE)  - the the zero temperature vibrational energy from the frequency calculation
    E(vib)  - the the finite temperature correction to E(ZPE) due to population
              of excited vibrational states
    E(rot)  - is the rotational thermal energy
    E(trans)- is the translational thermal energy

Summary of contributions to the inner energy U:
Electronic energy                ...   -349.21182895 Eh
Zero point energy                ...      0.18068432 Eh     113.38 kcal/mol
Thermal vibrational correction   ...      0.00740534 Eh       4.65 kcal/mol
Thermal rotational correction    ...      0.00141627 Eh       0.89 kcal/mol
Thermal translational correction ...      0.00141627 Eh       0.89 kcal/mol
-----------------------------------------------------------------------
Total thermal energy                   -349.02090674 Eh

Summary of corrections to the electronic energy:
(perhaps to be used in another calculation)
Total thermal correction                  0.01023788 Eh       6.42 kcal/mol
Non-thermal (ZPE) correction              0.18068432 Eh     113.38 kcal/mol
-----------------------------------------------------------------------
Total correction                          0.19092221 Eh     119.81 kcal/mol

--------
ENTHALPY
--------

The enthalpy is H = U + kB*T
                kB is Boltzmann's constant
Total thermal energy              ...   -349.02090674 Eh
Thermal Enthalpy correction       ...      0.00094421 Eh       0.59 kcal/mol
-----------------------------------------------------------------------
Total Enthalpy                    ...   -349.01996253 Eh

Note: Only C1 symmetry has been detected, increase convergence thresholds
      if your molecule has a higher symmetry. Symmetry factor of 1.0 is
      used for the rotational entropy correction.

Note: Rotational entropy computed according to Herzberg
Infrared and Raman Spectra, Chapter V,1, Van Nostrand Reinhold, 1945
Point Group:  C1, Symmetry Number:   1
Rotational constants in cm-1:     0.058615     0.057378     0.029475

Vibrational entropy computed according to the QRRHO of S. Grimme
Chem.Eur.J. 2012 18 9955 using a reference frequency of 100.0 cm-1

-------
ENTROPY
-------

The entropy contributions are T*S = T*(S(el)+S(vib)+S(rot)+S(trans))
     S(el)   - electronic entropy
     S(vib)  - vibrational entropy
     S(rot)  - rotational entropy
     S(trans)- translational entropy
The entropies will be listed as multiplied by the temperature to get
units of energy

Electronic entropy                ...      0.00065446 Eh      0.41 kcal/mol
Vibrational entropy               ...      0.01300536 Eh      8.16 kcal/mol
Rotational entropy                ...      0.01386305 Eh      8.70 kcal/mol
Translational entropy             ...      0.01913176 Eh     12.01 kcal/mol
-----------------------------------------------------------------------
Final entropy term                ...      0.04665462 Eh     29.28 kcal/mol

In case the symmetry of your molecule has not been determined correctly
or in case you have a reason to use a different symmetry number we print
out the resulting rotational entropy values for sn=1,12:

 non-linear molecules -----------------------------------
|  sn= 1 | S(rot)=       0.01386305 Eh      8.70 kcal/mol|
|  sn= 2 | S(rot)=       0.01320859 Eh      8.29 kcal/mol|

                             ****ORCA TERMINATED NORMALLY****
TOTAL RUN TIME: 0 days 0 hours 31 minutes 47 seconds 210 msec
