                         Program Version 6.0.0  -   RELEASE  -
|  1> !PBE0 aug-cc-pVTZ d3 TightSCF SlowConv RIJCOSX defgrid2
|  2>
|  3> %pal
|  4> nprocs 4
|  5> end
|  6>
|  7> %scf
|  8> MaxIter 1500
|  9> end
| 10>
| 11> %maxcore 3000
| 12>
| 13> !CPCM
| 14> %cpcm smd true
| 15> SMDsolvent "MeCN"
| 16> surfacetype gepol_ses
| 17> rsolv 2.19
| 18> end
| 19>
| 20> * xyz 1 2
| 21> C           0.87744843065952     -1.21883020305656     -0.00000377931808
| 22> C           1.23614385256415      0.16954678831828     -0.00005753568123
| 23> C           0.19424149048169      1.13860709962105     -0.00010423188513
| 24> C          -1.13871229830849      0.78765011017298     -0.00010761886515
| 25> C          -1.47639805753200     -0.61212175919558     -0.00004559988331
| 26> C          -0.44313247207265     -1.58385318757954     -0.00000224391858
| 27> H          -0.71685810144297     -2.64212602539406      0.00003056402544
| 28> C          -2.89571606376255     -1.03893857261662      0.00008867922043
| 29> H          -3.00213765434000     -2.13324643661373     -0.00058232712929
| 30> H          -3.42610981706820     -0.62983884560970     -0.88112182092760
| 31> H          -3.42539618531857     -0.63109402296886      0.88234176195400
| 32> C          -2.21290888782919      1.82515453001126     -0.00014347524999
| 33> H          -2.86411247883622      1.72648441322314      0.88680265880356
| 34> H          -2.86402349010390      1.72654581117049     -0.88716064088710
| 35> H          -1.78890328618740      2.84026297434392     -0.00008728403417
| 36> H           0.46977060139751      2.19725330423840     -0.00014030748002
| 37> C           2.58814654556121      0.62001515372005     -0.00006319236512
| 38> C           3.70337676945614     -0.17841322402212     -0.00002927580579
| 39> H           3.65253331490638     -1.27227115038024      0.00001025225905
| 40> H           4.70281234102144      0.26973736826902     -0.00003315173613
| 41> H           2.73668489690756      1.70605493317894     -0.00009332036310
| 42> H           1.65048734984656     -1.99000785883051      0.00003538926729
| 43> *
| 44>
| 45>                          ****END OF INPUT****

CARTESIAN COORDINATES (ANGSTROEM)
---------------------------------
  C      0.877448   -1.218830   -0.000004
  C      1.236144    0.169547   -0.000058
  C      0.194241    1.138607   -0.000104
  C     -1.138712    0.787650   -0.000108
  C     -1.476398   -0.612122   -0.000046
  C     -0.443132   -1.583853   -0.000002
  H     -0.716858   -2.642126    0.000031
  C     -2.895716   -1.038939    0.000089
  H     -3.002138   -2.133246   -0.000582
  H     -3.426110   -0.629839   -0.881122
  H     -3.425396   -0.631094    0.882342
  C     -2.212909    1.825155   -0.000143
  H     -2.864112    1.726484    0.886803
  H     -2.864023    1.726546   -0.887161
  H     -1.788903    2.840263   -0.000087
  H      0.469771    2.197253   -0.000140
  C      2.588147    0.620015   -0.000063
  C      3.703377   -0.178413   -0.000029
  H      3.652533   -1.272271    0.000010
  H      4.702812    0.269737   -0.000033
  H      2.736685    1.706055   -0.000093
  H      1.650487   -1.990008    0.000035

 Total Charge           Charge          ....    1
 Multiplicity           Mult            ....    2
 Number of Electrons    NEL             ....   71
 Basis Dimension        Dim             ....  736

ORBITAL ENERGIES
----------------
                 SPIN UP ORBITALS
  NO   OCC          E(Eh)            E(eV)
   0   1.0000     -10.304082      -280.3883
   1   1.0000     -10.299664      -280.2681
   2   1.0000     -10.285698      -279.8881
   3   1.0000     -10.280549      -279.7480
   4   1.0000     -10.280164      -279.7375
   5   1.0000     -10.277277      -279.6589
   6   1.0000     -10.266034      -279.3530
   7   1.0000     -10.262001      -279.2432
   8   1.0000     -10.237112      -278.5660
   9   1.0000     -10.231624      -278.4166
  10   1.0000      -0.934853       -25.4386
  11   1.0000      -0.872992       -23.7553
  12   1.0000      -0.825643       -22.4669
  13   1.0000      -0.810367       -22.0512
  14   1.0000      -0.750157       -20.4128
  15   1.0000      -0.719560       -19.5802
  16   1.0000      -0.660359       -17.9693
  17   1.0000      -0.648947       -17.6588
  18   1.0000      -0.592834       -16.1318
  19   1.0000      -0.548751       -14.9323
  20   1.0000      -0.531549       -14.4642
  21   1.0000      -0.496888       -13.5210
  22   1.0000      -0.473782       -12.8923
  23   1.0000      -0.472539       -12.8584
  24   1.0000      -0.461392       -12.5551
  25   1.0000      -0.453409       -12.3379
  26   1.0000      -0.424596       -11.5538
  27   1.0000      -0.418648       -11.3920
  28   1.0000      -0.418527       -11.3887
  29   1.0000      -0.413306       -11.2466
  30   1.0000      -0.402736       -10.9590
  31   1.0000      -0.382021       -10.3953
  32   1.0000      -0.372219       -10.1286
  33   1.0000      -0.350797        -9.5457
  34   1.0000      -0.297980        -8.1084
  35   1.0000      -0.280410        -7.6304
  36   0.0000      -0.094767        -2.5787
  37   0.0000      -0.036693        -0.9985
  38   0.0000      -0.001634        -0.0445
  39   0.0000       0.005094         0.1386
  40   0.0000       0.007596         0.2067

                 SPIN DOWN ORBITALS
  NO   OCC          E(Eh)            E(eV)
   0   1.0000     -10.299151      -280.2541
   1   1.0000     -10.296291      -280.1763
   2   1.0000     -10.281739      -279.7803
   3   1.0000     -10.279844      -279.7288
   4   1.0000     -10.278748      -279.6990
   5   1.0000     -10.275298      -279.6051
   6   1.0000     -10.266029      -279.3529
   7   1.0000     -10.262846      -279.2662
   8   1.0000     -10.237258      -278.5699
   9   1.0000     -10.231635      -278.4169
  10   1.0000      -0.927838       -25.2478
  11   1.0000      -0.864517       -23.5247
  12   1.0000      -0.824264       -22.4294
  13   1.0000      -0.799570       -21.7574
  14   1.0000      -0.745667       -20.2906
  15   1.0000      -0.713824       -19.4241
  16   1.0000      -0.655456       -17.8359
  17   1.0000      -0.644824       -17.5465
  18   1.0000      -0.588309       -16.0087
  19   1.0000      -0.546826       -14.8799
  20   1.0000      -0.528682       -14.3862
  21   1.0000      -0.493826       -13.4377
  22   1.0000      -0.469766       -12.7830
  23   1.0000      -0.462514       -12.5856
  24   1.0000      -0.458881       -12.4868
  25   1.0000      -0.452470       -12.3123
  26   1.0000      -0.419801       -11.4234
  27   1.0000      -0.416373       -11.3301
  28   1.0000      -0.412896       -11.2355
  29   1.0000      -0.401905       -10.9364
  30   1.0000      -0.401027       -10.9125
  31   1.0000      -0.381111       -10.3706
  32   1.0000      -0.370018       -10.0687
  33   1.0000      -0.323569        -8.8048
  34   1.0000      -0.293219        -7.9789
  35   0.0000      -0.190304        -5.1784
  36   0.0000      -0.063792        -1.7359
  37   0.0000      -0.026447        -0.7197
  38   0.0000      -0.000953        -0.0259
  39   0.0000       0.008795         0.2393

MULLIKEN ATOMIC CHARGES AND SPIN POPULATIONS
--------------------------------------------
   0 C :   -0.394566    0.112218
   1 C :    1.592986    0.212466
   2 C :   -0.891703   -0.003293
   3 C :    0.373521    0.009645
   4 C :    0.548620    0.348758
   5 C :   -1.138907   -0.071923
   6 H :    0.332897    0.006324
   7 C :   -0.708845   -0.026270
   8 H :    0.149645   -0.007593
   9 H :    0.283057    0.023877
  10 H :    0.285857    0.023899
  11 C :   -0.720915   -0.004078
  12 H :    0.278645    0.002575
  13 H :    0.279053    0.002574
  14 H :    0.140475   -0.000023
  15 H :   -0.025532    0.004876
  16 C :   -0.017578    0.000803
  17 C :   -0.860756    0.379470
  18 H :    0.395213    0.001151
  19 H :    0.283483   -0.014317
  20 H :    0.319481    0.014455
  21 H :    0.495870   -0.015594
Sum of atomic charges         :    1.0000000

LOEWDIN ATOMIC CHARGES AND SPIN POPULATIONS
-------------------------------------------
   0 C :    0.275828    0.085925
   1 C :   -0.082297    0.122707
   2 C :    0.278299    0.036092
   3 C :   -0.053165    0.054304
   4 C :   -0.036029    0.159637
   5 C :    0.282314    0.039965
   6 H :   -0.143239   -0.003447
   7 C :    0.615239    0.052160
   8 H :   -0.146466    0.001378
   9 H :   -0.131714    0.012268
  10 H :   -0.131608    0.012290
  11 C :    0.598965    0.005095
  12 H :   -0.140562    0.001664
  13 H :   -0.140567    0.001663
  14 H :   -0.151142   -0.000011
  15 H :   -0.141162    0.001363
  16 C :    0.251218    0.077560
  17 C :    0.641345    0.231205
  18 H :   -0.177755    0.046394
  19 H :   -0.159733    0.051521
  20 H :   -0.153081   -0.001856
  21 H :   -0.154690    0.012120

  Mayer bond orders larger than 0.100000
B(  0-C ,  1-C ) :   0.5004 B(  0-C ,  2-C ) :  -0.6947 B(  0-C ,  3-C ) :  -0.1607
B(  0-C ,  5-C ) :   1.2017 B(  0-C , 16-C ) :   0.2026 B(  0-C , 21-H ) :   0.9083
B(  1-C ,  3-C ) :   0.2941 B(  1-C ,  4-C ) :  -0.4282 B(  1-C ,  7-C ) :   0.1050
B(  1-C , 15-H ) :  -0.1558 B(  1-C , 16-C ) :   0.4066 B(  1-C , 17-C ) :  -0.1808
B(  1-C , 21-H ) :   0.1490 B(  2-C ,  3-C ) :   0.9615 B(  2-C ,  4-C ) :  -0.2375
B(  2-C ,  5-C ) :   0.1712 B(  2-C , 11-C ) :  -0.3168 B(  2-C , 15-H ) :   1.8070
B(  2-C , 20-H ) :  -0.1356 B(  3-C ,  4-C ) :   1.3649 B(  3-C ,  5-C ) :   0.2129
B(  3-C ,  7-C ) :   0.1579 B(  3-C , 11-C ) :   0.2993 B(  3-C , 20-H ) :   0.1432
B(  3-C , 21-H ) :  -0.1679 B(  4-C ,  5-C ) :   0.8141 B(  4-C ,  6-H ) :   0.1854
B(  4-C ,  7-C ) :   0.5654 B(  4-C , 11-C ) :   0.3561 B(  4-C , 16-C ) :   0.1700
B(  5-C ,  6-H ) :   0.7183 B(  5-C ,  7-C ) :  -0.2535 B(  5-C , 21-H ) :  -0.1430
B(  7-C ,  8-H ) :   1.0131 B(  7-C ,  9-H ) :   0.9159 B(  7-C , 10-H ) :   0.9102
B( 11-C , 12-H ) :   0.9303 B( 11-C , 13-H ) :   0.9289 B( 11-C , 14-H ) :   1.0112
B( 15-H , 16-C ) :  -0.1717 B( 16-C , 17-C ) :   1.0514 B( 16-C , 20-H ) :   0.8338
B( 17-C , 18-H ) :   0.8796 B( 17-C , 19-H ) :   0.8940 B( 17-C , 20-H ) :  -0.1633

Dispersion correction           -0.020249345
FINAL SINGLE POINT ENERGY      -387.754236907512

DIPOLE MOMENT
-------------

Method             : SCF
Type of density    : Electron Density
Multiplicity       :   2
Irrep              :   0
Energy             :  -387.7339875628748018 Eh
Relativity type    :
Basis              : AO
                                X                 Y                 Z
Electronic contribution:      5.472868712      -1.255550825      -0.000562342
Nuclear contribution   :     -4.597722468       1.088585918       0.000480466
                        -----------------------------------------
Total Dipole Moment    :      0.875146244      -0.166964907      -0.000081876
                        -----------------------------------------
Magnitude (a.u.)       :      0.890931106
Magnitude (Debye)      :      2.264566903

Rotational constants in cm-1:             0.095239             0.029097             0.022475
Rotational constants in MHz :          2855.203991           872.315502           673.794268

                             ****ORCA TERMINATED NORMALLY****
TOTAL RUN TIME: 0 days 0 hours 10 minutes 16 seconds 266 msec
