                         Program Version 6.0.0  -   RELEASE  -
|  1> !r2SCANh aug-cc-pVTZ d3 TightSCF SlowConv RIJCOSX defgrid2
|  2>
|  3> %pal
|  4> nprocs 15
|  5> end
|  6>
|  7> %scf
|  8> MaxIter 1500
|  9> end
| 10>
| 11> %maxcore 3500
| 12>
| 13> !CPCM
| 14> %cpcm smd true
| 15> SMDsolvent "WATER"
| 16> surfacetype gepol_ses
| 17> rsolv 1.40
| 18> end
| 19>
| 20> * xyz 0 1
| 21> C          -0.70221578029714     -1.27137338689409     -1.64597061061339
| 22> C          -0.84845136777775     -1.37115966451546      2.54973958440251
| 23> C           0.15259783512686     -0.68335711742679      3.28861563215234
| 24> C           0.07599304676575     -0.73632666977901      4.69600426690252
| 25> C          -0.94794284945570     -1.44026936179531      5.29150860970573
| 26> C          -1.88482068115033     -2.08384823172722      4.45797199169649
| 27> N          -1.84062401823598     -2.05300130163141      3.14506781946973
| 28> H           0.83076678593274     -0.21756410750992      5.29593236316618
| 29> H          -1.03983766734326     -1.50382384093195      6.37916241782430
| 30> H          -2.71147090586821     -2.65207963836198      4.90545942856367
| 31> C          -0.79700541461204     -1.33574559017925      1.09594053855288
| 32> C           0.25272338782719     -0.61458983536816      0.46402567600272
| 33> C           0.27592476493802     -0.59903395891095     -0.94615465995929
| 34> C          -1.69468523511231     -1.95299131995214     -0.91309590762066
| 35> N          -1.74344800729213     -1.98614929368638      0.39960781073108
| 36> H           1.07040887752629     -0.05329454733419     -1.46544045359095
| 37> H          -0.71690094151293     -1.28186330233680     -2.73919465539259
| 38> H          -2.48671429614632     -2.49728707022392     -1.44500129727560
| 39> C           1.19105099618849      0.03039450570530      2.60874274845559
| 40> C           1.23921917155320      0.06350156660395      1.24952954829313
| 41> H           1.94654977095063      0.54952317690862      3.20655609141936
| 42> H           2.03412974399493      0.60974382634704      0.73244528911423
| 43> *
| 44>
| 45>                          ****END OF INPUT****

CARTESIAN COORDINATES (ANGSTROEM)
---------------------------------
  C     -0.702216   -1.271373   -1.645971
  C     -0.848451   -1.371160    2.549740
  C      0.152598   -0.683357    3.288616
  C      0.075993   -0.736327    4.696004
  C     -0.947943   -1.440269    5.291509
  C     -1.884821   -2.083848    4.457972
  N     -1.840624   -2.053001    3.145068
  H      0.830767   -0.217564    5.295932
  H     -1.039838   -1.503824    6.379162
  H     -2.711471   -2.652080    4.905459
  C     -0.797005   -1.335746    1.095941
  C      0.252723   -0.614590    0.464026
  C      0.275925   -0.599034   -0.946155
  C     -1.694685   -1.952991   -0.913096
  N     -1.743448   -1.986149    0.399608
  H      1.070409   -0.053295   -1.465440
  H     -0.716901   -1.281863   -2.739195
  H     -2.486714   -2.497287   -1.445001
  C      1.191051    0.030395    2.608743
  C      1.239219    0.063502    1.249530
  H      1.946550    0.549523    3.206556
  H      2.034130    0.609744    0.732445

 Total Charge           Charge          ....    0
 Multiplicity           Mult            ....    1
 Number of Electrons    NEL             ....   94
 Basis Dimension        Dim             ....  828

ORBITAL ENERGIES
----------------

  NO   OCC          E(Eh)            E(eV)
   0   2.0000     -14.307101      -389.3160
   1   2.0000     -14.307072      -389.3152
   2   2.0000     -10.204778      -277.6861
   3   2.0000     -10.204448      -277.6771
   4   2.0000     -10.197022      -277.4751
   5   2.0000     -10.196995      -277.4743
   6   2.0000     -10.183229      -277.0997
   7   2.0000     -10.183210      -277.0992
   8   2.0000     -10.179449      -276.9969
   9   2.0000     -10.179439      -276.9966
  10   2.0000     -10.171088      -276.7694
  11   2.0000     -10.170398      -276.7506
  12   2.0000     -10.169399      -276.7234
  13   2.0000     -10.169384      -276.7230
  14   2.0000      -0.968976       -26.3672
  15   2.0000      -0.945476       -25.7277
  16   2.0000      -0.854595       -23.2547
  17   2.0000      -0.812766       -22.1165
  18   2.0000      -0.804520       -21.8921
  19   2.0000      -0.750845       -20.4315
  20   2.0000      -0.747440       -20.3389
  21   2.0000      -0.655498       -17.8370
  22   2.0000      -0.645506       -17.5651
  23   2.0000      -0.630619       -17.1600
  24   2.0000      -0.598481       -16.2855
  25   2.0000      -0.549393       -14.9497
  26   2.0000      -0.528756       -14.3882
  27   2.0000      -0.509223       -13.8566
  28   2.0000      -0.478402       -13.0180
  29   2.0000      -0.473589       -12.8870
  30   2.0000      -0.460641       -12.5347
  31   2.0000      -0.431889       -11.7523
  32   2.0000      -0.427832       -11.6419
  33   2.0000      -0.411749       -11.2043
  34   2.0000      -0.396905       -10.8003
  35   2.0000      -0.396570       -10.7912
  36   2.0000      -0.391970       -10.6661
  37   2.0000      -0.387049       -10.5322
  38   2.0000      -0.358264        -9.7489
  39   2.0000      -0.343006        -9.3337
  40   2.0000      -0.341979        -9.3057
  41   2.0000      -0.302393        -8.2285
  42   2.0000      -0.298418        -8.1204
  43   2.0000      -0.262941        -7.1550
  44   2.0000      -0.247724        -6.7409
  45   2.0000      -0.245205        -6.6724
  46   2.0000      -0.233688        -6.3590
  47   0.0000      -0.074745        -2.0339
  48   0.0000      -0.073370        -1.9965
  49   0.0000      -0.030748        -0.8367
  50   0.0000      -0.003978        -0.1083
  51   0.0000       0.008319         0.2264

MULLIKEN ATOMIC CHARGES
-----------------------
   0 C :   -0.325087
   1 C :    1.121770
   2 C :    1.948135
   3 C :   -1.175023
   4 C :   -0.326413
   5 C :   -0.820165
   6 N :   -0.858075
   7 H :    0.352125
   8 H :    0.288832
   9 H :    0.577079
  10 C :    1.119604
  11 C :    1.943728
  12 C :   -1.176447
  13 C :   -0.816476
  14 N :   -0.853715
  15 H :    0.356867
  16 H :    0.288491
  17 H :    0.575776
  18 C :   -1.218152
  19 C :   -1.219754
  20 H :    0.106955
  21 H :    0.109947
Sum of atomic charges:   -0.0000000

LOEWDIN ATOMIC CHARGES
----------------------
   0 C :    0.221348
   1 C :   -0.287380
   2 C :   -0.119795
   3 C :    0.226909
   4 C :    0.221382
   5 C :    0.010954
   6 N :    0.367383
   7 H :   -0.148641
   8 H :   -0.165486
   9 H :   -0.179127
  10 C :   -0.287355
  11 C :   -0.119747
  12 C :    0.226944
  13 C :    0.011022
  14 N :    0.367442
  15 H :   -0.148655
  16 H :   -0.165514
  17 H :   -0.179111
  18 C :    0.231574
  19 C :    0.231556
  20 H :   -0.157844
  21 H :   -0.157861

  Mayer bond orders larger than 0.100000
B(  0-C , 11-C ) :  -0.2406 B(  0-C , 12-C ) :   1.3259 B(  0-C , 13-C ) :   0.5868
B(  0-C , 14-N ) :  -0.2138 B(  0-C , 16-H ) :   0.9474 B(  1-C ,  2-C ) :   0.7582
B(  1-C ,  3-C ) :   0.5855 B(  1-C ,  5-C ) :  -0.1836 B(  1-C ,  6-N ) :  -0.8935
B(  1-C ,  9-H ) :   0.2159 B(  1-C , 10-C ) :   0.5840 B(  1-C , 11-C ) :   0.3545
B(  1-C , 12-C ) :  -0.1268 B(  1-C , 13-C ) :   0.1267 B(  1-C , 14-N ) :   0.2993
B(  1-C , 18-C ) :  -0.4708 B(  1-C , 19-C ) :  -0.1045 B(  1-C , 21-H ) :  -0.1120
B(  2-C ,  3-C ) :  -0.4044 B(  2-C ,  4-C ) :  -0.2443 B(  2-C ,  5-C ) :  -0.6221
B(  2-C ,  9-H ) :   0.1402 B(  2-C , 10-C ) :   0.3563 B(  2-C , 11-C ) :  -0.3454
B(  2-C , 13-C ) :  -0.1443 B(  2-C , 18-C ) :  -0.3420 B(  2-C , 20-H ) :  -0.1183
B(  3-C ,  4-C ) :   1.3294 B(  3-C ,  5-C ) :   0.5140 B(  3-C ,  7-H ) :   0.8396
B(  3-C ,  9-H ) :  -0.1205 B(  3-C , 10-C ) :  -0.1264 B(  3-C , 18-C ) :   0.4481
B(  4-C ,  5-C ) :   0.5846 B(  4-C ,  6-N ) :  -0.2142 B(  4-C ,  8-H ) :   0.9474
B(  5-C ,  6-N ) :   2.0736 B(  5-C ,  7-H ) :  -0.1107 B(  5-C ,  9-H ) :   0.3206
B(  5-C , 10-C ) :   0.1273 B(  5-C , 11-C ) :  -0.1440 B(  5-C , 19-C ) :   0.1632
B(  6-N , 10-C ) :   0.2948 B(  6-N , 14-N ) :  -0.2935 B( 10-C , 11-C ) :   0.7594
B( 10-C , 12-C ) :   0.5854 B( 10-C , 13-C ) :  -0.1868 B( 10-C , 14-N ) :  -0.8936
B( 10-C , 17-H ) :   0.2175 B( 10-C , 18-C ) :  -0.1063 B( 10-C , 19-C ) :  -0.4709
B( 10-C , 20-H ) :  -0.1098 B( 11-C , 12-C ) :  -0.3871 B( 11-C , 13-C ) :  -0.6199
B( 11-C , 17-H ) :   0.1389 B( 11-C , 19-C ) :  -0.3498 B( 11-C , 21-H ) :  -0.1182
B( 12-C , 13-C ) :   0.5138 B( 12-C , 15-H ) :   0.8297 B( 12-C , 17-H ) :  -0.1195
B( 12-C , 19-C ) :   0.4453 B( 13-C , 14-N ) :   2.0630 B( 13-C , 15-H ) :  -0.1099
B( 13-C , 17-H ) :   0.3226 B( 13-C , 18-C ) :   0.1632 B( 18-C , 19-C ) :   1.5363
B( 18-C , 20-H ) :   1.3860 B( 19-C , 21-H ) :   1.3824

Dispersion correction           -0.009412679
FINAL SINGLE POINT ENERGY      -571.480614296329

DIPOLE MOMENT
-------------

Method             : SCF
Type of density    : Electron Density
Multiplicity       :   1
Irrep              :   0
Energy             :  -571.4712016176799807 Eh
Relativity type    :
Basis              : AO
                                X                 Y                 Z
Electronic contribution:     -1.234729994      -0.847297385      -0.064325972
Nuclear contribution   :      2.959925509       2.031814141       0.154119783
                        -----------------------------------------
Total Dipole Moment    :      1.725195515       1.184516756       0.089793811
                        -----------------------------------------
Magnitude (a.u.)       :      2.094622266
Magnitude (Debye)      :      5.324106687

Rotational constants in cm-1:             0.054161             0.019423             0.014296
Rotational constants in MHz :          1623.694457           582.293820           428.591246

                             ****ORCA TERMINATED NORMALLY****
TOTAL RUN TIME: 0 days 0 hours 4 minutes 53 seconds 168 msec
