                         Program Version 6.0.0  -   RELEASE  -
|  1> !PBE0 aug-cc-pVTZ d3 TightSCF SlowConv RIJCOSX defgrid2
|  2>
|  3> %pal
|  4> nprocs 15
|  5> end
|  6>
|  7> %scf
|  8> MaxIter 1500
|  9> end
| 10>
| 11> %maxcore 3500
| 12>
| 13> !CPCM
| 14> %cpcm smd true
| 15> SMDsolvent "WATER"
| 16> surfacetype gepol_ses
| 17> rsolv 1.40
| 18> end
| 19>
| 20> * xyz -1 2
| 21> C          -0.03973046046840      0.10892812040704     -0.07338476870276
| 22> C          -1.16098921528207     -0.36942550235928      0.71209175660899
| 23> C           1.12950619870235      0.46906063473388      0.70766297682295
| 24> H          -2.06041411321376     -0.64988443685068      0.14997121109878
| 25> H           1.99092702988929      0.83408061571124      0.13293381113983
| 26> C          -1.11212024378879     -0.46999723963456      2.07962395432224
| 27> C           1.19382481607047      0.37407440355199      2.07622299159295
| 28> H          -1.97201412595405     -0.83453656930806      2.65522434724164
| 29> C           0.05609683638602     -0.10970890072807      2.85428687501407
| 30> O           0.10372480477544     -0.20102139334893      4.10562446305031
| 31> O          -0.07494807117445      0.20434515385365     -1.32351109494325
| 32> C           2.41507813745815      0.75326139926788      2.85674776584986
| 33> H           2.18096706491750      1.54375255830692      3.59412318045315
| 34> H           2.78389777303057     -0.10350094502541      3.45115835416892
| 35> H           3.22614155265174      1.10750873042238      2.19600586528230
| 36> *
| 37>
| 38>                          ****END OF INPUT****

CARTESIAN COORDINATES (ANGSTROEM)
---------------------------------
  C     -0.039730    0.108928   -0.073385
  C     -1.160989   -0.369426    0.712092
  C      1.129506    0.469061    0.707663
  H     -2.060414   -0.649884    0.149971
  H      1.990927    0.834081    0.132934
  C     -1.112120   -0.469997    2.079624
  C      1.193825    0.374074    2.076223
  H     -1.972014   -0.834537    2.655224
  C      0.056097   -0.109709    2.854287
  O      0.103725   -0.201021    4.105624
  O     -0.074948    0.204345   -1.323511
  C      2.415078    0.753261    2.856748
  H      2.180967    1.543753    3.594123
  H      2.783898   -0.103501    3.451158
  H      3.226142    1.107509    2.196006

 Total Charge           Charge          ....   -1
 Multiplicity           Mult            ....    2
 Number of Electrons    NEL             ....   65
 Basis Dimension        Dim             ....  552

ORBITAL ENERGIES
----------------
                 SPIN UP ORBITALS
  NO   OCC          E(Eh)            E(eV)
   0   1.0000     -19.173134      -521.7275
   1   1.0000     -19.173104      -521.7267
   2   1.0000     -10.279383      -279.7162
   3   1.0000     -10.277453      -279.6637
   4   1.0000     -10.232549      -278.4418
   5   1.0000     -10.221943      -278.1532
   6   1.0000     -10.221040      -278.1287
   7   1.0000     -10.216795      -278.0131
   8   1.0000     -10.211219      -277.8614
   9   1.0000      -1.040712       -28.3192
  10   1.0000      -1.038590       -28.2615
  11   1.0000      -0.851271       -23.1642
  12   1.0000      -0.786279       -21.3957
  13   1.0000      -0.719928       -19.5902
  14   1.0000      -0.685322       -18.6486
  15   1.0000      -0.608925       -16.5697
  16   1.0000      -0.571972       -15.5641
  17   1.0000      -0.496105       -13.4997
  18   1.0000      -0.487886       -13.2761
  19   1.0000      -0.458606       -12.4793
  20   1.0000      -0.443113       -12.0577
  21   1.0000      -0.423439       -11.5224
  22   1.0000      -0.415631       -11.3099
  23   1.0000      -0.410055       -11.1582
  24   1.0000      -0.400380       -10.8949
  25   1.0000      -0.389949       -10.6111
  26   1.0000      -0.377460       -10.2712
  27   1.0000      -0.363536        -9.8923
  28   1.0000      -0.302721        -8.2375
  29   1.0000      -0.267427        -7.2770
  30   1.0000      -0.263750        -7.1770
  31   1.0000      -0.257023        -6.9940
  32   1.0000      -0.178406        -4.8547
  33   0.0000      -0.005593        -0.1522
  34   0.0000       0.005602         0.1524
  35   0.0000       0.017598         0.4789
  36   0.0000       0.020703         0.5634
  37   0.0000       0.024927         0.6783

                 SPIN DOWN ORBITALS
  NO   OCC          E(Eh)            E(eV)
   0   1.0000     -19.166428      -521.5450
   1   1.0000     -19.166319      -521.5420
   2   1.0000     -10.277684      -279.6700
   3   1.0000     -10.275549      -279.6119
   4   1.0000     -10.231322      -278.4084
   5   1.0000     -10.220793      -278.1219
   6   1.0000     -10.219660      -278.0911
   7   1.0000     -10.216120      -277.9948
   8   1.0000     -10.211317      -277.8641
   9   1.0000      -1.028464       -27.9859
  10   1.0000      -1.026076       -27.9209
  11   1.0000      -0.844570       -22.9819
  12   1.0000      -0.783207       -21.3121
  13   1.0000      -0.713431       -19.4134
  14   1.0000      -0.677056       -18.4236
  15   1.0000      -0.604334       -16.4448
  16   1.0000      -0.567201       -15.4343
  17   1.0000      -0.493881       -13.4392
  18   1.0000      -0.483188       -13.1482
  19   1.0000      -0.453466       -12.3394
  20   1.0000      -0.428477       -11.6594
  21   1.0000      -0.419638       -11.4189
  22   1.0000      -0.413350       -11.2478
  23   1.0000      -0.398546       -10.8450
  24   1.0000      -0.389547       -10.6001
  25   1.0000      -0.375303       -10.2125
  26   1.0000      -0.364191        -9.9101
  27   1.0000      -0.361358        -9.8330
  28   1.0000      -0.268045        -7.2939
  29   1.0000      -0.261472        -7.1150
  30   1.0000      -0.254861        -6.9351
  31   1.0000      -0.251424        -6.8416
  32   0.0000      -0.090148        -2.4530
  33   0.0000       0.006274         0.1707
  34   0.0000       0.010669         0.2903
  35   0.0000       0.017892         0.4869
  36   0.0000       0.021119         0.5747

MULLIKEN ATOMIC CHARGES AND SPIN POPULATIONS
--------------------------------------------
   0 C :    0.930084    0.111934
   1 C :   -0.648374    0.095464
   2 C :   -0.883055    0.061567
   3 H :    0.533672   -0.000973
   4 H :    0.385345    0.002183
   5 C :   -0.734384    0.059750
   6 C :    0.665416    0.084101
   7 H :    0.568415    0.003654
   8 C :    0.524936    0.110146
   9 O :   -1.138744    0.243733
  10 O :   -1.127147    0.231863
  11 C :   -0.785587   -0.012895
  12 H :    0.237530    0.005204
  13 H :    0.238139    0.005237
  14 H :    0.233754   -0.000970
Sum of atomic charges         :   -1.0000000

LOEWDIN ATOMIC CHARGES AND SPIN POPULATIONS
-------------------------------------------
   0 C :   -0.707172    0.122802
   1 C :    0.140170    0.083596
   2 C :    0.165394    0.059023
   3 H :   -0.192525    0.009627
   4 H :   -0.187197    0.004779
   5 C :    0.145017    0.078042
   6 C :   -0.179868    0.071547
   7 H :   -0.191709    0.007347
   8 C :   -0.674145    0.130852
   9 O :    0.343975    0.213480
  10 O :    0.307946    0.206622
  11 C :    0.527832    0.008121
  12 H :   -0.165156    0.002239
  13 H :   -0.165162    0.002241
  14 H :   -0.167399   -0.000319

  Mayer bond orders larger than 0.100000
B(  0-C ,  1-C ) :   1.0562 B(  0-C ,  2-C ) :   1.0395 B(  0-C ,  5-C ) :  -0.1308
B(  0-C ,  8-C ) :   0.1171 B(  0-C , 10-O ) :   0.4293 B(  1-C ,  2-C ) :   0.3027
B(  1-C ,  3-H ) :   0.3662 B(  1-C ,  5-C ) :   1.5583 B(  1-C ,  8-C ) :  -0.1209
B(  1-C , 10-O ) :   0.1720 B(  2-C ,  4-H ) :   0.5679 B(  2-C ,  5-C ) :  -0.1336
B(  2-C ,  6-C ) :   1.1483 B(  2-C , 10-O ) :   0.1283 B(  4-H , 10-O ) :   0.1046
B(  5-C ,  6-C ) :   0.2595 B(  5-C ,  7-H ) :   0.2961 B(  5-C ,  8-C ) :   1.1973
B(  5-C ,  9-O ) :   0.1897 B(  6-C ,  8-C ) :   1.0810 B(  6-C , 10-O ) :   0.1051
B(  6-C , 11-C ) :   0.5696 B(  8-C ,  9-O ) :   0.4928 B(  8-C , 11-C ) :   0.1973
B( 11-C , 12-H ) :   0.9406 B( 11-C , 13-H ) :   0.9399 B( 11-C , 14-H ) :   0.9574

Dispersion correction           -0.013343410
FINAL SINGLE POINT ENERGY      -420.617711886419

DIPOLE MOMENT
-------------

Method             : SCF
Type of density    : Electron Density
Multiplicity       :   2
Irrep              :   0
Energy             :  -420.6043684764754857 Eh
Relativity type    :
Basis              : AO
                                X                 Y                 Z
Electronic contribution:     -3.358346846      -1.053667626      -2.015844062
Nuclear contribution   :      4.080055806       1.268229623       2.595706688
                        -----------------------------------------
Total Dipole Moment    :      0.721708960       0.214561997       0.579862626
                        -----------------------------------------
Magnitude (a.u.)       :      0.950337487
Magnitude (Debye)      :      2.415565924

Rotational constants in cm-1:             0.102982             0.046318             0.032139
Rotational constants in MHz :          3087.332210          1388.578907           963.495969

                             ****ORCA TERMINATED NORMALLY****
TOTAL RUN TIME: 0 days 0 hours 19 minutes 40 seconds 786 msec
