                         Program Version 6.0.0  -   RELEASE  -
|  1> !PBE0 def2-SV(p) Opt Freq d3 TightSCF SlowConv RIJCOSX defgrid2
|  2>
|  3> %pal
|  4> nprocs 4
|  5> end
|  6>
|  7> %scf
|  8> MaxIter 1500
|  9> end
| 10>
| 11> %maxcore 3000
| 12>
| 13>
| 14>
| 15> * xyz 1 2
| 16> C    -0.9041340   -0.4628610   -0.0002356
| 17> C    -2.1731118    0.1339619    0.0062563
| 18> C    -2.2936796    1.5026105    0.0291006
| 19> C    -1.1522146    2.3248319    0.0482090
| 20> C     0.1010662    1.7685930    0.0410046
| 21> C     0.2805733    0.3721693    0.0145705
| 22> C     1.5513496   -0.2667566   -0.0022054
| 23> C     2.7689248    0.3487617    0.0255487
| 24> C     4.0373639   -0.3807118   -0.0010772
| 25> H     3.9028319   -1.4576875   -0.0480229
| 26> H     4.6367268   -0.0444386   -0.8512125
| 27> H     4.6315269   -0.1188335    0.8786218
| 28> H     2.8426443    1.4264483    0.0723953
| 29> H     1.5311823   -1.3487817   -0.0391577
| 30> H     0.9644356    2.4124961    0.0528262
| 31> H    -1.2717532    3.3963690    0.0669191
| 32> H    -3.2735727    1.9538322    0.0327330
| 33> H    -3.0600449   -0.4783976   -0.0069142
| 34> O    -0.6904457   -1.7637261   -0.0168417
| 35> C    -1.7584882   -2.6921957   -0.0239068
| 36> H    -2.3841062   -2.5654784   -0.9104901
| 37> H    -2.3700641   -2.5924740    0.8759672
| 38> H    -1.2884998   -3.6735440   -0.0424047
| 39> *
| 40>
| 41>                          ****END OF INPUT****
 Total Charge           Charge          ....    1
 Multiplicity           Mult            ....    2
 Number of Electrons    NEL             ....   79
Dispersion correction           -0.020361213
FINAL SINGLE POINT ENERGY      -462.329948951904
Dispersion correction             ... done (  0.0 sec)
Dispersion correction           -0.020297674
FINAL SINGLE POINT ENERGY      -462.332293390169
Dispersion correction             ... done (  0.1 sec)
Dispersion correction           -0.020290302
FINAL SINGLE POINT ENERGY      -462.332392214370
Dispersion correction             ... done (  0.0 sec)
Dispersion correction           -0.020291053
FINAL SINGLE POINT ENERGY      -462.332416859603
Dispersion correction             ... done (  0.1 sec)
Dispersion correction           -0.020292283
FINAL SINGLE POINT ENERGY      -462.332418794105
Dispersion correction             ... done (  0.0 sec)
                    ***********************HURRAY********************

CARTESIAN COORDINATES (ANGSTROEM)
---------------------------------
  C     -0.914477   -0.472120    0.003057
  C     -2.189597    0.119714    0.014091
  C     -2.293887    1.495795    0.037194
  C     -1.142089    2.328209    0.049951
  C      0.109473    1.768813    0.039605
  C      0.282130    0.357262    0.016005
  C      1.547607   -0.287243    0.004232
  C      2.773321    0.342138    0.015716
  C      4.066222   -0.363162    0.003049
  H      3.960020   -1.458450   -0.017938
  H      4.666376   -0.036723   -0.869539
  H      4.665268   -0.070441    0.888301
  H      2.817846    1.438403    0.035775
  H      1.536551   -1.381393   -0.015272
  H      0.987494    2.417415    0.049361
  H     -1.261529    3.414172    0.067882
  H     -3.286417    1.955848    0.045771
  H     -3.089608   -0.496029    0.004631
  O     -0.706445   -1.764040   -0.018925
  C     -1.784048   -2.693401   -0.034658
  H     -2.398345   -2.551181   -0.939256
  H     -2.398453   -2.582077    0.874185
  H     -1.318903   -3.687320   -0.051536

 Multiplicity           Mult            ....    2
 Number of Electrons    NEL             ....   79
 Basis Dimension        Dim             ....  178

ORBITAL ENERGIES
----------------
                 SPIN UP ORBITALS
  NO   OCC          E(Eh)            E(eV)
   0   1.0000     -19.440530      -529.0037
   1   1.0000     -10.498306      -285.6734
   2   1.0000     -10.442783      -284.1626
   3   1.0000     -10.437612      -284.0219
   4   1.0000     -10.433092      -283.8989
   5   1.0000     -10.423364      -283.6342
   6   1.0000     -10.418330      -283.4972
   7   1.0000     -10.411295      -283.3057
   8   1.0000     -10.407512      -283.2028
   9   1.0000     -10.404390      -283.1179
  10   1.0000     -10.373324      -282.2725
  11   1.0000      -1.292550       -35.1721
  12   1.0000      -1.060057       -28.8456
  13   1.0000      -1.002950       -27.2917
  14   1.0000      -0.956277       -26.0216
  15   1.0000      -0.942710       -25.6524
  16   1.0000      -0.890523       -24.2324
  17   1.0000      -0.862103       -23.4590
  18   1.0000      -0.807684       -21.9782
  19   1.0000      -0.774115       -21.0647
  20   1.0000      -0.738186       -20.0871
  21   1.0000      -0.724147       -19.7050
  22   1.0000      -0.688064       -18.7232
  23   1.0000      -0.674492       -18.3539
  24   1.0000      -0.668495       -18.1907
  25   1.0000      -0.635947       -17.3050
  26   1.0000      -0.623961       -16.9788
  27   1.0000      -0.606849       -16.5132
  28   1.0000      -0.592535       -16.1237
  29   1.0000      -0.588495       -16.0138
  30   1.0000      -0.572832       -15.5875
  31   1.0000      -0.566903       -15.4262
  32   1.0000      -0.551283       -15.0012
  33   1.0000      -0.544080       -14.8052
  34   1.0000      -0.522773       -14.2254
  35   1.0000      -0.520641       -14.1673
  36   1.0000      -0.508656       -13.8412
  37   1.0000      -0.492438       -13.3999
  38   1.0000      -0.427326       -11.6281
  39   1.0000      -0.403280       -10.9738
  40   0.0000      -0.224565        -6.1107
  41   0.0000      -0.165562        -4.5052
  42   0.0000      -0.122077        -3.3219
  43   0.0000      -0.069645        -1.8951
  44   0.0000      -0.056380        -1.5342

                 SPIN DOWN ORBITALS
  NO   OCC          E(Eh)            E(eV)
   0   1.0000     -19.436731      -528.9003
   1   1.0000     -10.495821      -285.6058
   2   1.0000     -10.439336      -284.0688
   3   1.0000     -10.433249      -283.9031
   4   1.0000     -10.431321      -283.8507
   5   1.0000     -10.420755      -283.5632
   6   1.0000     -10.418609      -283.5048
   7   1.0000     -10.411913      -283.3226
   8   1.0000     -10.406208      -283.1673
   9   1.0000     -10.405470      -283.1472
  10   1.0000     -10.373606      -282.2802
  11   1.0000      -1.285522       -34.9808
  12   1.0000      -1.053427       -28.6652
  13   1.0000      -0.994847       -27.0712
  14   1.0000      -0.949334       -25.8327
  15   1.0000      -0.939053       -25.5529
  16   1.0000      -0.888850       -24.1868
  17   1.0000      -0.857026       -23.3209
  18   1.0000      -0.802402       -21.8345
  19   1.0000      -0.770324       -20.9616
  20   1.0000      -0.733626       -19.9630
  21   1.0000      -0.721476       -19.6324
  22   1.0000      -0.686003       -18.6671
  23   1.0000      -0.671764       -18.2796
  24   1.0000      -0.654328       -17.8052
  25   1.0000      -0.633298       -17.2329
  26   1.0000      -0.622737       -16.9455
  27   1.0000      -0.605292       -16.4708
  28   1.0000      -0.590424       -16.0662
  29   1.0000      -0.573815       -15.6143
  30   1.0000      -0.564688       -15.3659
  31   1.0000      -0.560702       -15.2575
  32   1.0000      -0.549758       -14.9597
  33   1.0000      -0.542551       -14.7636
  34   1.0000      -0.520877       -14.1738
  35   1.0000      -0.506512       -13.7829
  36   1.0000      -0.506433       -13.7808
  37   1.0000      -0.473261       -12.8781
  38   1.0000      -0.417090       -11.3496
  39   0.0000      -0.319914        -8.7053
  40   0.0000      -0.197084        -5.3629
  41   0.0000      -0.150882        -4.1057
  42   0.0000      -0.101972        -2.7748
  43   0.0000      -0.068460        -1.8629

MULLIKEN ATOMIC CHARGES AND SPIN POPULATIONS
--------------------------------------------
   0 C :    0.277892    0.156858
   1 C :   -0.194829   -0.089530
   2 C :   -0.034449    0.180755
   3 C :   -0.051645    0.087497
   4 C :   -0.114644   -0.062701
   5 C :    0.030472    0.230300
   6 C :   -0.087880   -0.021160
   7 C :   -0.093620    0.411768
   8 C :   -0.335137   -0.036904
   9 H :    0.176491    0.000293
  10 H :    0.198252    0.026634
  11 H :    0.198319    0.026690
  12 H :    0.173524   -0.020060
  13 H :    0.156283   -0.000130
  14 H :    0.139056    0.001280
  15 H :    0.155961   -0.005048
  16 H :    0.165310   -0.009271
  17 H :    0.141387    0.002607
  18 O :   -0.268517    0.112933
  19 C :   -0.190350   -0.009171
  20 H :    0.180580    0.008190
  21 H :    0.180586    0.008180
  22 H :    0.196958   -0.000009
Sum of atomic charges         :    1.0000000

LOEWDIN ATOMIC CHARGES AND SPIN POPULATIONS
-------------------------------------------
   0 C :    0.110478    0.140420
   1 C :   -0.164108   -0.045849
   2 C :   -0.023322    0.147703
   3 C :   -0.086583    0.078981
   4 C :   -0.081372   -0.022169
   5 C :   -0.002296    0.186854
   6 C :   -0.085039    0.014030
   7 C :    0.002910    0.346059
   8 C :   -0.335851   -0.002254
   9 H :    0.149391    0.000208
  10 H :    0.173363    0.023236
  11 H :    0.173407    0.023286
  12 H :    0.149266   -0.010049
  13 H :    0.158101   -0.000153
  14 H :    0.153067    0.000316
  15 H :    0.162005   -0.002530
  16 H :    0.164159   -0.004564
  17 H :    0.160285    0.001087
  18 O :   -0.021968    0.117074
  19 C :   -0.190245   -0.003716
  20 H :    0.141006    0.006037
  21 H :    0.140995    0.006031
  22 H :    0.152354   -0.000037

  Mayer bond orders larger than 0.100000
B(  0-C ,  1-C ) :   1.2674 B(  0-C ,  5-C ) :   1.1561 B(  0-C , 18-O ) :   1.2989
B(  1-C ,  2-C ) :   1.4515 B(  1-C , 17-H ) :   0.9540 B(  2-C ,  3-C ) :   1.2224
B(  2-C , 16-H ) :   0.9478 B(  3-C ,  4-C ) :   1.5323 B(  3-C , 15-H ) :   0.9521
B(  4-C ,  5-C ) :   1.2528 B(  4-C , 14-H ) :   0.9441 B(  5-C ,  6-C ) :   1.3371
B(  6-C ,  7-C ) :   1.5539 B(  6-C , 13-H ) :   0.9165 B(  7-C ,  8-C ) :   1.1338
B(  7-C , 12-H ) :   0.9034 B(  8-C ,  9-H ) :   0.9439 B(  8-C , 10-H ) :   0.9009
B(  8-C , 11-H ) :   0.9008 B( 18-O , 19-C ) :   0.8748 B( 19-C , 20-H ) :   0.9351
B( 19-C , 21-H ) :   0.9351 B( 19-C , 22-H ) :   0.9448

Dispersion correction           -0.020292918
FINAL SINGLE POINT ENERGY      -462.332419165157

DIPOLE MOMENT
-------------

Method             : SCF
Type of density    : Electron Density
Multiplicity       :   2
Irrep              :   0
Energy             :  -462.3121262468949908 Eh
Relativity type    :
Basis              : AO
                                X                 Y                 Z
Electronic contribution:     -4.506071880       2.836296817       0.049966925
Nuclear contribution   :      4.638279725      -2.868122594      -0.050338921
                        -----------------------------------------
Total Dipole Moment    :      0.132207845      -0.031825778      -0.000371995
                        -----------------------------------------
Magnitude (a.u.)       :      0.135985046
Magnitude (Debye)      :      0.345646518

VIBRATIONAL FREQUENCIES
-----------------------

Scaling factor for frequencies =  1.000000000  (already applied!)

     0:       0.00 cm**-1
     1:       0.00 cm**-1
     2:       0.00 cm**-1
     3:       0.00 cm**-1
     4:       0.00 cm**-1
     5:       0.00 cm**-1
     6:      78.16 cm**-1
     7:     100.05 cm**-1
     8:     129.34 cm**-1
     9:     133.19 cm**-1
    10:     167.99 cm**-1
    11:     195.09 cm**-1
    12:     223.81 cm**-1
    13:     249.31 cm**-1
    14:     290.40 cm**-1
    15:     347.55 cm**-1
    16:     366.45 cm**-1
    17:     483.93 cm**-1
    18:     490.06 cm**-1
    19:     503.55 cm**-1
    20:     588.45 cm**-1
    21:     614.90 cm**-1
    22:     761.65 cm**-1
    23:     780.06 cm**-1
    24:     801.40 cm**-1
    25:     833.34 cm**-1
    26:     845.13 cm**-1
    27:     885.82 cm**-1
    28:     955.70 cm**-1
    29:     973.35 cm**-1
    30:     997.23 cm**-1
    31:    1032.96 cm**-1
    32:    1033.66 cm**-1
    33:    1054.66 cm**-1
    34:    1060.50 cm**-1
    35:    1138.78 cm**-1
    36:    1167.48 cm**-1
    37:    1173.67 cm**-1
    38:    1189.24 cm**-1
    39:    1208.10 cm**-1
    40:    1240.38 cm**-1
    41:    1304.62 cm**-1
    42:    1322.45 cm**-1
    43:    1360.12 cm**-1
    44:    1378.25 cm**-1
    45:    1386.68 cm**-1
    46:    1422.19 cm**-1
    47:    1434.75 cm**-1
    48:    1464.74 cm**-1
    49:    1472.76 cm**-1
    50:    1482.44 cm**-1
    51:    1483.11 cm**-1
    52:    1520.02 cm**-1
    53:    1557.50 cm**-1
    54:    1595.44 cm**-1
    55:    1655.13 cm**-1
    56:    1665.02 cm**-1
    57:    3015.99 cm**-1
    58:    3059.04 cm**-1
    59:    3084.53 cm**-1
    60:    3162.28 cm**-1
    61:    3164.90 cm**-1
    62:    3190.25 cm**-1
    63:    3213.83 cm**-1
    64:    3214.62 cm**-1
    65:    3223.36 cm**-1
    66:    3233.78 cm**-1
    67:    3245.25 cm**-1
    68:    3252.35 cm**-1

IR SPECTRUM
-----------

 Mode   freq       eps      Int      T**2         TX        TY        TZ
       cm**-1   L/(mol*cm) km/mol    a.u.
----------------------------------------------------------------------------
  6:     78.16   0.000714    3.61  0.002850  ( 0.000091  0.000900 -0.053380)
  7:    100.05   0.000212    1.07  0.000662  (-0.000134 -0.000614  0.025715)
  8:    129.34   0.000406    2.05  0.000980  ( 0.000175  0.000547 -0.031292)
  9:    133.19   0.000118    0.60  0.000276  (-0.004523 -0.015978 -0.000323)
 10:    167.99   0.000039    0.20  0.000072  ( 0.000070 -0.000164  0.008492)
 11:    195.09   0.000487    2.46  0.000778  ( 0.000008  0.000475 -0.027894)
 12:    223.81   0.000151    0.76  0.000210  (-0.000006  0.000409 -0.014500)
 13:    249.31   0.000224    1.13  0.000280  (-0.000388 -0.016733 -0.000234)
 14:    290.40   0.000005    0.03  0.000005  (-0.000055 -0.000016  0.002343)
 15:    347.55   0.000624    3.15  0.000560  ( 0.018103  0.015250  0.000238)
 16:    366.45   0.000807    4.08  0.000687  ( 0.007833  0.025018  0.000431)
 17:    483.93   0.000018    0.09  0.000012  (-0.000202 -0.000028 -0.003404)
 18:    490.06   0.001938    9.79  0.001234  ( 0.031814  0.014890  0.000253)
 19:    503.55   0.000629    3.18  0.000390  ( 0.000055  0.000342 -0.019738)
 20:    588.45   0.004311   21.79  0.002286  (-0.038720 -0.028051 -0.000490)
 21:    614.90   0.000860    4.35  0.000437  (-0.000458 -0.020884 -0.000383)
 22:    761.65   0.000406    2.05  0.000166  (-0.000322  0.000185 -0.012889)
 23:    780.06   0.013339   67.41  0.005336  (-0.000069  0.001225 -0.073039)
 24:    801.40   0.005135   25.95  0.002000  (-0.043953  0.008222  0.000251)
 25:    833.34   0.000132    0.67  0.000049  (-0.000086  0.000146 -0.007025)
 26:    845.13   0.000481    2.43  0.000178  ( 0.012908 -0.003326 -0.000070)
 27:    885.82   0.001025    5.18  0.000361  (-0.000075 -0.000363  0.018995)
 28:    955.70   0.005746   29.04  0.001876  ( 0.042262  0.009497  0.000220)
 29:    973.35   0.002175   10.99  0.000697  ( 0.000022 -0.000470  0.026402)
 30:    997.23   0.000383    1.94  0.000120  ( 0.000010  0.000197 -0.010946)
 31:   1032.96   0.000012    0.06  0.000004  ( 0.000101 -0.000024  0.001913)
 32:   1033.66   0.000666    3.37  0.000201  (-0.000028  0.000278 -0.014176)
 33:   1054.66   0.003150   15.92  0.000932  ( 0.013581  0.027340  0.000474)
 34:   1060.50   0.019184   96.95  0.005645  ( 0.061306  0.043428  0.000724)
 35:   1138.78   0.001629    8.23  0.000446  (-0.008555 -0.019317 -0.000311)
 36:   1167.48   0.000125    0.63  0.000033  (-0.000043 -0.000100  0.005768)
 37:   1173.67   0.005506   27.83  0.001464  ( 0.025454  0.028563  0.000452)
 38:   1189.24   0.011027   55.73  0.002894  (-0.048216 -0.023847 -0.000379)
 39:   1208.10   0.000324    1.64  0.000084  (-0.009033 -0.001417 -0.000034)
 40:   1240.38   0.010369   52.40  0.002609  ( 0.048874  0.014833  0.000245)
 41:   1304.62   0.031206  157.70  0.007464  ( 0.083973  0.020318  0.000339)
 42:   1322.45   0.002153   10.88  0.000508  (-0.014188 -0.017515 -0.000294)
 43:   1360.12   0.011916   60.22  0.002734  (-0.040027 -0.033637 -0.000561)
 44:   1378.25   0.007416   37.48  0.001679  (-0.034974  0.021353  0.000296)
 45:   1386.68   0.009408   47.55  0.002117  (-0.012142 -0.044377 -0.000763)
 46:   1422.19   0.022913  115.79  0.005028  (-0.068180 -0.019468 -0.000252)
 47:   1434.75   0.003776   19.08  0.000821  ( 0.000171 -0.000519  0.028652)
 48:   1464.74   0.009360   47.30  0.001994  ( 0.000931 -0.044641 -0.000725)
 49:   1472.76   0.011131   56.25  0.002358  (-0.022375 -0.043094 -0.000865)
 50:   1482.44   0.000325    1.64  0.000068  ( 0.007188 -0.002995 -0.002785)
 51:   1483.11   0.004056   20.50  0.000853  ( 0.000666 -0.000918  0.029193)
 52:   1520.02   0.002820   14.25  0.000579  (-0.018386  0.015518  0.000283)
 53:   1557.50   0.077103  389.65  0.015449  (-0.078070 -0.096701 -0.001606)
 54:   1595.44   0.060992  308.23  0.011930  (-0.105403  0.028629  0.000543)
 55:   1655.13   0.026389  133.36  0.004975  (-0.063720  0.030247  0.000533)
 56:   1665.02   0.012608   63.72  0.002363  ( 0.008665  0.047826  0.000824)
 57:   3015.99   0.008601   43.46  0.000890  ( 0.029777 -0.001802 -0.000023)
 58:   3059.04   0.002482   12.54  0.000253  (-0.012286 -0.010113 -0.000162)
 59:   3084.53   0.000619    3.13  0.000063  ( 0.000002 -0.000163  0.007912)
 60:   3162.28   0.000407    2.06  0.000040  ( 0.000003 -0.000123  0.006339)
 61:   3164.90   0.002495   12.61  0.000246  (-0.015324  0.003338  0.000057)
 62:   3190.25   0.000737    3.72  0.000072  ( 0.006165 -0.005837 -0.000090)
 63:   3213.83   0.000029    0.14  0.000003  ( 0.000964  0.001357  0.000020)
 64:   3214.62   0.000740    3.74  0.000072  (-0.006942 -0.004862 -0.000092)
 65:   3223.36   0.000003    0.02  0.000000  (-0.000107 -0.000549 -0.000010)
 66:   3233.78   0.000291    1.47  0.000028  ( 0.004582 -0.002656 -0.000055)
 67:   3245.25   0.000183    0.93  0.000018  ( 0.002020  0.003682  0.000059)
 68:   3252.35   0.000505    2.55  0.000048  (-0.006806  0.001452  0.000031)

--------------------------
THERMOCHEMISTRY AT 298.15K
--------------------------

Temperature         ...   298.15 K
Pressure            ...     1.00 atm
Total Mass          ...   148.21 AMU
Quasi RRHO          ...     True
Cut-Off Frequency   ...     1.00 cm^-1

Throughout the following assumptions are being made:
  (1) The electronic state is orbitally nondegenerate
      but the spin degeneracy is treated
  (2) There are no thermally accessible electronically excited states
  (3) Hindered rotations indicated by low frequency modes are not
      treated as such but are treated as vibrations and this may
      cause some error
  (4) All equations used are the standard statistical mechanics
      equations for an ideal gas
  (5) All vibrations are strictly harmonic

freq.      78.16  E(vib)   ...       0.49
freq.     100.05  E(vib)   ...       0.46
freq.     129.34  E(vib)   ...       0.43
freq.     133.19  E(vib)   ...       0.42
freq.     167.99  E(vib)   ...       0.38
freq.     195.09  E(vib)   ...       0.36
freq.     223.81  E(vib)   ...       0.33
freq.     249.31  E(vib)   ...       0.31
freq.     290.40  E(vib)   ...       0.27
freq.     347.55  E(vib)   ...       0.23
freq.     366.45  E(vib)   ...       0.22
freq.     483.93  E(vib)   ...       0.15
freq.     490.06  E(vib)   ...       0.15
freq.     503.55  E(vib)   ...       0.14
freq.     588.45  E(vib)   ...       0.10
freq.     614.90  E(vib)   ...       0.10
freq.     761.65  E(vib)   ...       0.06
freq.     780.06  E(vib)   ...       0.05
freq.     801.40  E(vib)   ...       0.05
freq.     833.34  E(vib)   ...       0.04
freq.     845.13  E(vib)   ...       0.04
freq.     885.82  E(vib)   ...       0.04
freq.     955.70  E(vib)   ...       0.03
freq.     973.35  E(vib)   ...       0.03
freq.     997.23  E(vib)   ...       0.02
freq.    1032.96  E(vib)   ...       0.02
freq.    1033.66  E(vib)   ...       0.02
freq.    1054.66  E(vib)   ...       0.02
freq.    1060.50  E(vib)   ...       0.02
freq.    1138.78  E(vib)   ...       0.01
freq.    1167.48  E(vib)   ...       0.01
freq.    1173.67  E(vib)   ...       0.01
freq.    1189.24  E(vib)   ...       0.01
freq.    1208.10  E(vib)   ...       0.01
freq.    1240.38  E(vib)   ...       0.01
freq.    1304.62  E(vib)   ...       0.01
freq.    1322.45  E(vib)   ...       0.01
freq.    1360.12  E(vib)   ...       0.01
freq.    1378.25  E(vib)   ...       0.01
freq.    1386.68  E(vib)   ...       0.00
freq.    1422.19  E(vib)   ...       0.00
freq.    1434.75  E(vib)   ...       0.00
freq.    1464.74  E(vib)   ...       0.00
freq.    1472.76  E(vib)   ...       0.00
freq.    1482.44  E(vib)   ...       0.00
freq.    1483.11  E(vib)   ...       0.00
freq.    1520.02  E(vib)   ...       0.00
freq.    1557.50  E(vib)   ...       0.00
freq.    1595.44  E(vib)   ...       0.00
freq.    1655.13  E(vib)   ...       0.00
freq.    1665.02  E(vib)   ...       0.00
freq.    3015.99  E(vib)   ...       0.00
freq.    3059.04  E(vib)   ...       0.00
freq.    3084.53  E(vib)   ...       0.00
freq.    3162.28  E(vib)   ...       0.00
freq.    3164.90  E(vib)   ...       0.00
freq.    3190.25  E(vib)   ...       0.00
freq.    3213.83  E(vib)   ...       0.00
freq.    3214.62  E(vib)   ...       0.00
freq.    3223.36  E(vib)   ...       0.00
freq.    3233.78  E(vib)   ...       0.00
freq.    3245.25  E(vib)   ...       0.00
freq.    3252.35  E(vib)   ...       0.00

------------
INNER ENERGY
------------

The inner energy is: U= E(el) + E(ZPE) + E(vib) + E(rot) + E(trans)
    E(el)   - is the total energy from the electronic structure calculation
              = E(kin-el) + E(nuc-el) + E(el-el) + E(nuc-nuc)
    E(ZPE)  - the the zero temperature vibrational energy from the frequency calculation
    E(vib)  - the the finite temperature correction to E(ZPE) due to population
              of excited vibrational states
    E(rot)  - is the rotational thermal energy
    E(trans)- is the translational thermal energy

Summary of contributions to the inner energy U:
Electronic energy                ...   -462.33241917 Eh
Zero point energy                ...      0.19514961 Eh     122.46 kcal/mol
Thermal vibrational correction   ...      0.00810088 Eh       5.08 kcal/mol
Thermal rotational correction    ...      0.00141627 Eh       0.89 kcal/mol
Thermal translational correction ...      0.00141627 Eh       0.89 kcal/mol
-----------------------------------------------------------------------
Total thermal energy                   -462.12633613 Eh

Summary of corrections to the electronic energy:
(perhaps to be used in another calculation)
Total thermal correction                  0.01093342 Eh       6.86 kcal/mol
Non-thermal (ZPE) correction              0.19514961 Eh     122.46 kcal/mol
-----------------------------------------------------------------------
Total correction                          0.20608303 Eh     129.32 kcal/mol

--------
ENTHALPY
--------

The enthalpy is H = U + kB*T
                kB is Boltzmann's constant
Total thermal energy              ...   -462.12633613 Eh
Thermal Enthalpy correction       ...      0.00094421 Eh       0.59 kcal/mol
-----------------------------------------------------------------------
Total Enthalpy                    ...   -462.12539192 Eh

Note: Only C1 symmetry has been detected, increase convergence thresholds
      if your molecule has a higher symmetry. Symmetry factor of 1.0 is
      used for the rotational entropy correction.

Note: Rotational entropy computed according to Herzberg
Infrared and Raman Spectra, Chapter V,1, Van Nostrand Reinhold, 1945
Point Group:  C1, Symmetry Number:   1
Rotational constants in cm-1:     0.050628     0.027043     0.017747

Vibrational entropy computed according to the QRRHO of S. Grimme
Chem.Eur.J. 2012 18 9955 using a reference frequency of 100.0 cm-1

-------
ENTROPY
-------

The entropy contributions are T*S = T*(S(el)+S(vib)+S(rot)+S(trans))
     S(el)   - electronic entropy
     S(vib)  - vibrational entropy
     S(rot)  - rotational entropy
     S(trans)- translational entropy
The entropies will be listed as multiplied by the temperature to get
units of energy

Electronic entropy                ...      0.00065446 Eh      0.41 kcal/mol
Vibrational entropy               ...      0.01399013 Eh      8.78 kcal/mol
Rotational entropy                ...      0.01452682 Eh      9.12 kcal/mol
Translational entropy             ...      0.01942844 Eh     12.19 kcal/mol
-----------------------------------------------------------------------
Final entropy term                ...      0.04859985 Eh     30.50 kcal/mol

In case the symmetry of your molecule has not been determined correctly

                             ****ORCA TERMINATED NORMALLY****
TOTAL RUN TIME: 0 days 0 hours 12 minutes 21 seconds 424 msec
