                         Program Version 6.0.0  -   RELEASE  -
|  1> !TPSSh freq aug-cc-pVTZ d3 TightSCF SlowConv RIJCOSX defgrid2
|  2>
|  3> %pal
|  4> nprocs 12
|  5> end
|  6>
|  7> %scf
|  8> MaxIter 1500
|  9> end
| 10>
| 11> %maxcore 5000
| 12>
| 13> !CPCM
| 14> %cpcm smd true
| 15> SMDsolvent "MeCN"
| 16> surfacetype gepol_ses
| 17> rsolv 2.19
| 18> end
| 19>
| 20> * xyz 1 2
| 21> C          -0.22381504505562     -1.23975545375570     -0.03913579051996
| 22> C           1.14522923058098     -1.22440374742342      0.00229965726110
| 23> C           1.83915248937225     -0.00003922552342      0.02326359713568
| 24> C           1.14527237981799      1.22434907219554      0.00229878069653
| 25> C          -0.22377175785315      1.23974759708822     -0.03913802007608
| 26> C          -0.93307945942870      0.00000842272250     -0.05993298174596
| 27> N          -2.25923940952765      0.00003186429037     -0.09840812502581
| 28> H          -2.78549408391981      0.86519436838028     -0.11494960352969
| 29> H          -2.78552488569695     -0.86511198987840     -0.11493738823656
| 30> H          -0.78304633709339      2.16602602830245     -0.05617317261649
| 31> H           1.69721287182779      2.15430315487736      0.01888479768685
| 32> H           2.92065686748363     -0.00005944400676      0.05532825705902
| 33> H           1.69713856059393     -2.15437629945273      0.01888896680239
| 34> H          -0.78312312110130     -2.16601434781626     -0.05616417489104
| 35> *
| 36>
| 37>                          ****END OF INPUT****

CARTESIAN COORDINATES (ANGSTROEM)
---------------------------------
  C     -0.223815   -1.239755   -0.039136
  C      1.145229   -1.224404    0.002300
  C      1.839152   -0.000039    0.023264
  C      1.145272    1.224349    0.002299
  C     -0.223772    1.239748   -0.039138
  C     -0.933079    0.000008   -0.059933
  N     -2.259239    0.000032   -0.098408
  H     -2.785494    0.865194   -0.114950
  H     -2.785525   -0.865112   -0.114937
  H     -0.783046    2.166026   -0.056173
  H      1.697213    2.154303    0.018885
  H      2.920657   -0.000059    0.055328
  H      1.697139   -2.154376    0.018889
  H     -0.783123   -2.166014   -0.056164

 Total Charge           Charge          ....    1
 Multiplicity           Mult            ....    2
 Number of Electrons    NEL             ....   49
 Basis Dimension        Dim             ....  483

ORBITAL ENERGIES
----------------
                 SPIN UP ORBITALS
  NO   OCC          E(Eh)            E(eV)
   0   1.0000     -14.344175      -390.3248
   1   1.0000     -10.216788      -278.0129
   2   1.0000     -10.163866      -276.5729
   3   1.0000     -10.159772      -276.4615
   4   1.0000     -10.159770      -276.4614
   5   1.0000     -10.147990      -276.1409
   6   1.0000     -10.147988      -276.1408
   7   1.0000      -0.979774       -26.6610
   8   1.0000      -0.863864       -23.5069
   9   1.0000      -0.770944       -20.9784
  10   1.0000      -0.751227       -20.4419
  11   1.0000      -0.637043       -17.3348
  12   1.0000      -0.632524       -17.2118
  13   1.0000      -0.553896       -15.0723
  14   1.0000      -0.547203       -14.8901
  15   1.0000      -0.504708       -13.7338
  16   1.0000      -0.451603       -12.2887
  17   1.0000      -0.446428       -12.1479
  18   1.0000      -0.439033       -11.9467
  19   1.0000      -0.437621       -11.9083
  20   1.0000      -0.377518       -10.2728
  21   1.0000      -0.361437        -9.8352
  22   1.0000      -0.357371        -9.7246
  23   1.0000      -0.288671        -7.8551
  24   1.0000      -0.251885        -6.8542
  25   0.0000      -0.055471        -1.5094
  26   0.0000      -0.054046        -1.4707
  27   0.0000      -0.007808        -0.2125
  28   0.0000       0.005031         0.1369
  29   0.0000       0.010650         0.2898

                 SPIN DOWN ORBITALS
  NO   OCC          E(Eh)            E(eV)
   0   1.0000     -14.335241      -390.0817
   1   1.0000     -10.216310      -277.9999
   2   1.0000     -10.157907      -276.4107
   3   1.0000     -10.156331      -276.3678
   4   1.0000     -10.156330      -276.3678
   5   1.0000     -10.149659      -276.1863
   6   1.0000     -10.149651      -276.1860
   7   1.0000      -0.965997       -26.2861
   8   1.0000      -0.856189       -23.2981
   9   1.0000      -0.767611       -20.8877
  10   1.0000      -0.738706       -20.1012
  11   1.0000      -0.634221       -17.2580
  12   1.0000      -0.626628       -17.0514
  13   1.0000      -0.551652       -15.0112
  14   1.0000      -0.542972       -14.7750
  15   1.0000      -0.500848       -13.6288
  16   1.0000      -0.448714       -12.2101
  17   1.0000      -0.443859       -12.0780
  18   1.0000      -0.438389       -11.9292
  19   1.0000      -0.409884       -11.1535
  20   1.0000      -0.375690       -10.2230
  21   1.0000      -0.355834        -9.6827
  22   1.0000      -0.330728        -8.9996
  23   1.0000      -0.279165        -7.5965
  24   0.0000      -0.185149        -5.0382
  25   0.0000      -0.043815        -1.1923
  26   0.0000      -0.029713        -0.8085
  27   0.0000      -0.006443        -0.1753
  28   0.0000       0.006485         0.1765

MULLIKEN ATOMIC CHARGES AND SPIN POPULATIONS
--------------------------------------------
   0 C :   -0.475595    0.189757
   1 C :   -0.300739   -0.115202
   2 C :   -0.252660    0.373592
   3 C :   -0.300874   -0.115203
   4 C :   -0.475786    0.189760
   5 C :    0.900424    0.103217
   6 N :   -0.226987    0.364843
   7 H :    0.037194    0.000228
   8 H :    0.037177    0.000226
   9 H :    0.465178   -0.001392
  10 H :    0.323928   -0.001802
  11 H :    0.479200    0.015164
  12 H :    0.324361   -0.001801
  13 H :    0.465180   -0.001388
Sum of atomic charges         :    1.0000000

LOEWDIN ATOMIC CHARGES AND SPIN POPULATIONS
-------------------------------------------
   0 C :    0.286790    0.109540
   1 C :    0.251258    0.039581
   2 C :    0.269425    0.178720
   3 C :    0.251259    0.039580
   4 C :    0.286791    0.109541
   5 C :   -0.160932    0.130299
   6 N :    0.973000    0.256142
   7 H :   -0.197332    0.034844
   8 H :   -0.197332    0.034844
   9 H :   -0.146843    0.019706
  10 H :   -0.158479   -0.007468
  11 H :   -0.152286    0.042432
  12 H :   -0.158478   -0.007468
  13 H :   -0.146842    0.019706

  Mayer bond orders larger than 0.100000
B(  0-C ,  1-C ) :   1.6792 B(  0-C ,  2-C ) :   0.2240 B(  0-C ,  4-C ) :   0.2222
B(  0-C ,  5-C ) :   0.8549 B(  0-C ,  6-N ) :  -0.1219 B(  0-C , 12-H ) :   0.1022
B(  0-C , 13-H ) :   0.3377 B(  1-C ,  2-C ) :   1.2258 B(  1-C ,  3-C ) :  -0.1023
B(  1-C ,  5-C ) :  -0.2294 B(  1-C , 12-H ) :   0.7631 B(  1-C , 13-H ) :   0.1068
B(  2-C ,  3-C ) :   1.2255 B(  2-C ,  4-C ) :   0.2239 B(  2-C , 11-H ) :   0.4899
B(  3-C ,  4-C ) :   1.6792 B(  3-C ,  5-C ) :  -0.2293 B(  3-C ,  9-H ) :   0.1067
B(  3-C , 10-H ) :   0.7638 B(  4-C ,  5-C ) :   0.8553 B(  4-C ,  6-N ) :  -0.1217
B(  4-C ,  9-H ) :   0.3378 B(  4-C , 10-H ) :   0.1022 B(  5-C ,  6-N ) :   0.9525
B(  6-N ,  7-H ) :   1.1129 B(  6-N ,  8-H ) :   1.1129

Dispersion correction           -0.015324525
FINAL SINGLE POINT ENERGY      -287.567491703754

DIPOLE MOMENT
-------------

Method             : SCF
Type of density    : Electron Density
Multiplicity       :   2
Irrep              :   0
Energy             :  -287.5521671784506452 Eh
Relativity type    :
Basis              : AO
                                X                 Y                 Z
Electronic contribution:     -0.916373389       0.000016957      -0.027436134
Nuclear contribution   :     -0.822196526       0.000014388      -0.025717566
                        -----------------------------------------
Total Dipole Moment    :     -1.738569915       0.000031346      -0.053153700
                        -----------------------------------------
Magnitude (a.u.)       :      1.739382266
Magnitude (Debye)      :      4.421158364

VIBRATIONAL FREQUENCIES
-----------------------

Scaling factor for frequencies =  1.000000000  (already applied!)

     0:       0.00 cm**-1
     1:       0.00 cm**-1
     2:       0.00 cm**-1
     3:       0.00 cm**-1
     4:       0.00 cm**-1
     5:       0.00 cm**-1
     6:     169.47 cm**-1
     7:     347.59 cm**-1
     8:     360.04 cm**-1
     9:     426.95 cm**-1
    10:     518.79 cm**-1
    11:     520.21 cm**-1
    12:     552.68 cm**-1
    13:     586.35 cm**-1
    14:     616.30 cm**-1
    15:     780.79 cm**-1
    16:     800.42 cm**-1
    17:     825.30 cm**-1
    18:     927.82 cm**-1
    19:     991.12 cm**-1
    20:     993.03 cm**-1
    21:    1002.42 cm**-1
    22:    1008.36 cm**-1
    23:    1010.95 cm**-1
    24:    1117.37 cm**-1
    25:    1155.00 cm**-1
    26:    1180.58 cm**-1
    27:    1353.47 cm**-1
    28:    1380.27 cm**-1
    29:    1390.17 cm**-1
    30:    1473.39 cm**-1
    31:    1506.47 cm**-1
    32:    1546.29 cm**-1
    33:    1610.69 cm**-1
    34:    1632.57 cm**-1
    35:    3188.60 cm**-1
    36:    3191.70 cm**-1
    37:    3198.03 cm**-1
    38:    3206.18 cm**-1
    39:    3212.54 cm**-1
    40:    3504.05 cm**-1
    41:    3619.33 cm**-1

IR SPECTRUM
-----------

 Mode   freq       eps      Int      T**2         TX        TY        TZ
       cm**-1   L/(mol*cm) km/mol    a.u.
----------------------------------------------------------------------------
  6:    169.47   0.003298   16.67  0.006073  (-0.003296  0.000002  0.077862)
  7:    347.59   0.000003    0.01  0.000003  ( 0.000001 -0.001603 -0.000003)
  8:    360.04   0.001723    8.71  0.001493  (-0.000000  0.038644  0.000002)
  9:    426.95   0.007656   38.69  0.005596  ( 0.001926 -0.000002 -0.074783)
 10:    518.79   0.000440    2.22  0.000265  ( 0.016256  0.000000  0.000648)
 11:    520.21   0.000000    0.00  0.000000  ( 0.000006  0.000132 -0.000001)
 12:    552.68   0.048104  243.10  0.027162  ( 0.005566  0.000000 -0.164714)
 13:    586.35   0.000060    0.30  0.000032  (-0.000001  0.005644 -0.000001)
 14:    616.30   0.008390   42.40  0.004248  (-0.002304  0.000002  0.065140)
 15:    780.79   0.016143   81.58  0.006452  (-0.002516 -0.000001  0.080285)
 16:    800.42   0.000000    0.00  0.000000  ( 0.000000 -0.000199  0.000005)
 17:    825.30   0.000402    2.03  0.000152  (-0.012326  0.000000 -0.000424)
 18:    927.82   0.001673    8.45  0.000563  ( 0.000413 -0.000000 -0.023715)
 19:    991.12   0.000000    0.00  0.000000  ( 0.000098  0.000000  0.000016)
 20:    993.03   0.000000    0.00  0.000000  (-0.000002 -0.000244  0.000006)
 21:   1002.42   0.000201    1.02  0.000063  ( 0.000357 -0.000001 -0.007900)
 22:   1008.36   0.000583    2.95  0.000180  ( 0.013414 -0.000000  0.000685)
 23:   1010.95   0.000055    0.28  0.000017  ( 0.000002 -0.004107  0.000001)
 24:   1117.37   0.005192   26.24  0.001450  ( 0.000001 -0.038079  0.000000)
 25:   1155.00   0.000105    0.53  0.000028  ( 0.000001  0.005325 -0.000000)
 26:   1180.58   0.000426    2.15  0.000113  ( 0.010605  0.000002  0.000285)
 27:   1353.47   0.000091    0.46  0.000021  (-0.000001  0.004591 -0.000000)
 28:   1380.27   0.006196   31.31  0.001401  (-0.000000 -0.037427  0.000002)
 29:   1390.17   0.000983    4.97  0.000221  ( 0.014851 -0.000001  0.000431)
 30:   1473.39   0.001543    7.80  0.000327  ( 0.000002  0.018076  0.000000)
 31:   1506.47   0.020504  103.62  0.004247  ( 0.065144 -0.000002  0.001900)
 32:   1546.29   0.002064   10.43  0.000417  ( 0.000000 -0.020410 -0.000000)
 33:   1610.69   0.021754  109.94  0.004215  (-0.064891  0.000001 -0.001962)
 34:   1632.57   0.029094  147.03  0.005561  (-0.074542  0.000001 -0.002196)
 35:   3188.60   0.000226    1.14  0.000022  ( 0.004704 -0.000002  0.000108)
 36:   3191.70   0.000178    0.90  0.000017  ( 0.000004  0.004172  0.000000)
 37:   3198.03   0.001197    6.05  0.000117  (-0.010801  0.000001 -0.000364)
 38:   3206.18   0.000579    2.93  0.000056  (-0.000005  0.007507 -0.000000)
 39:   3212.54   0.000889    4.49  0.000086  ( 0.009289  0.000003  0.000294)
 40:   3504.05   0.087484  442.11  0.007791  ( 0.088228 -0.000003  0.002650)
 41:   3619.33   0.032189  162.67  0.002775  (-0.000003 -0.052682  0.000001)

--------------------------
THERMOCHEMISTRY AT 298.15K
--------------------------

Temperature         ...   298.15 K
Pressure            ...     1.00 atm
Total Mass          ...    93.13 AMU
Quasi RRHO          ...     True
Cut-Off Frequency   ...     1.00 cm^-1

Throughout the following assumptions are being made:
  (1) The electronic state is orbitally nondegenerate
      but the spin degeneracy is treated
  (2) There are no thermally accessible electronically excited states
  (3) Hindered rotations indicated by low frequency modes are not
      treated as such but are treated as vibrations and this may
      cause some error
  (4) All equations used are the standard statistical mechanics
      equations for an ideal gas
  (5) All vibrations are strictly harmonic

freq.     169.47  E(vib)   ...       0.38
freq.     347.59  E(vib)   ...       0.23
freq.     360.04  E(vib)   ...       0.22
freq.     426.95  E(vib)   ...       0.18
freq.     518.79  E(vib)   ...       0.13
freq.     520.21  E(vib)   ...       0.13
freq.     552.68  E(vib)   ...       0.12
freq.     586.35  E(vib)   ...       0.11
freq.     616.30  E(vib)   ...       0.09
freq.     780.79  E(vib)   ...       0.05
freq.     800.42  E(vib)   ...       0.05
freq.     825.30  E(vib)   ...       0.04
freq.     927.82  E(vib)   ...       0.03
freq.     991.12  E(vib)   ...       0.02
freq.     993.03  E(vib)   ...       0.02
freq.    1002.42  E(vib)   ...       0.02
freq.    1008.36  E(vib)   ...       0.02
freq.    1010.95  E(vib)   ...       0.02
freq.    1117.37  E(vib)   ...       0.01
freq.    1155.00  E(vib)   ...       0.01
freq.    1180.58  E(vib)   ...       0.01
freq.    1353.47  E(vib)   ...       0.01
freq.    1380.27  E(vib)   ...       0.01
freq.    1390.17  E(vib)   ...       0.00
freq.    1473.39  E(vib)   ...       0.00
freq.    1506.47  E(vib)   ...       0.00
freq.    1546.29  E(vib)   ...       0.00
freq.    1610.69  E(vib)   ...       0.00
freq.    1632.57  E(vib)   ...       0.00
freq.    3188.60  E(vib)   ...       0.00
freq.    3191.70  E(vib)   ...       0.00
freq.    3198.03  E(vib)   ...       0.00
freq.    3206.18  E(vib)   ...       0.00
freq.    3212.54  E(vib)   ...       0.00
freq.    3504.05  E(vib)   ...       0.00
freq.    3619.33  E(vib)   ...       0.00

------------
INNER ENERGY
------------

The inner energy is: U= E(el) + E(ZPE) + E(vib) + E(rot) + E(trans)
    E(el)   - is the total energy from the electronic structure calculation
              = E(kin-el) + E(nuc-el) + E(el-el) + E(nuc-nuc)
    E(ZPE)  - the the zero temperature vibrational energy from the frequency calculation
    E(vib)  - the the finite temperature correction to E(ZPE) due to population
              of excited vibrational states
    E(rot)  - is the rotational thermal energy
    E(trans)- is the translational thermal energy

Summary of contributions to the inner energy U:
Electronic energy                ...   -287.56749170 Eh
Zero point energy                ...      0.11597075 Eh      72.77 kcal/mol
Thermal vibrational correction   ...      0.00310801 Eh       1.95 kcal/mol
Thermal rotational correction    ...      0.00141627 Eh       0.89 kcal/mol
Thermal translational correction ...      0.00141627 Eh       0.89 kcal/mol
-----------------------------------------------------------------------
Total thermal energy                   -287.44558040 Eh

Summary of corrections to the electronic energy:
(perhaps to be used in another calculation)
Total thermal correction                  0.00594056 Eh       3.73 kcal/mol
Non-thermal (ZPE) correction              0.11597075 Eh      72.77 kcal/mol
-----------------------------------------------------------------------
Total correction                          0.12191130 Eh      76.50 kcal/mol

--------
ENTHALPY
--------

The enthalpy is H = U + kB*T
                kB is Boltzmann's constant
Total thermal energy              ...   -287.44558040 Eh
Thermal Enthalpy correction       ...      0.00094421 Eh       0.59 kcal/mol
-----------------------------------------------------------------------
Total Enthalpy                    ...   -287.44463619 Eh

Note: Rotational entropy computed according to Herzberg
Infrared and Raman Spectra, Chapter V,1, Van Nostrand Reinhold, 1945
Point Group:  Cs, Symmetry Number:   1
Rotational constants in cm-1:     0.180766     0.090276     0.060208

Vibrational entropy computed according to the QRRHO of S. Grimme
Chem.Eur.J. 2012 18 9955 using a reference frequency of 100.0 cm-1

-------
ENTROPY
-------

The entropy contributions are T*S = T*(S(el)+S(vib)+S(rot)+S(trans))
     S(el)   - electronic entropy
     S(vib)  - vibrational entropy
     S(rot)  - rotational entropy
     S(trans)- translational entropy
The entropies will be listed as multiplied by the temperature to get
units of energy

Electronic entropy                ...      0.00065446 Eh      0.41 kcal/mol
Vibrational entropy               ...      0.00462587 Eh      2.90 kcal/mol
Rotational entropy                ...      0.01278022 Eh      8.02 kcal/mol
Translational entropy             ...      0.01877043 Eh     11.78 kcal/mol
-----------------------------------------------------------------------
Final entropy term                ...      0.03683097 Eh     23.11 kcal/mol

In case the symmetry of your molecule has not been determined correctly
or in case you have a reason to use a different symmetry number we print
out the resulting rotational entropy values for sn=1,12:

 non-linear molecules -----------------------------------
|  sn= 1 | S(rot)=       0.01278022 Eh      8.02 kcal/mol|
|  sn= 2 | S(rot)=       0.01212576 Eh      7.61 kcal/mol|
|  sn= 3 | S(rot)=       0.01174293 Eh      7.37 kcal/mol|
|  sn= 4 | S(rot)=       0.01147131 Eh      7.20 kcal/mol|
|  sn= 5 | S(rot)=       0.01126062 Eh      7.07 kcal/mol|
|  sn= 6 | S(rot)=       0.01108848 Eh      6.96 kcal/mol|
|  sn= 7 | S(rot)=       0.01094293 Eh      6.87 kcal/mol|
|  sn= 8 | S(rot)=       0.01081685 Eh      6.79 kcal/mol|
|  sn= 9 | S(rot)=       0.01070564 Eh      6.72 kcal/mol|
|  sn=10 | S(rot)=       0.01060616 Eh      6.66 kcal/mol|
|  sn=11 | S(rot)=       0.01051617 Eh      6.60 kcal/mol|
|  sn=12 | S(rot)=       0.01043402 Eh      6.55 kcal/mol|
 linear molecules ---------------------------------------
|  Dinfh | S(rot)=       0.00797891 Eh      5.01 kcal/mol|
|  Cinfv | S(rot)=       0.00863337 Eh      5.42 kcal/mol|
 --------------------------------------------------------

-------------------
GIBBS FREE ENERGY
-------------------

The Gibbs free energy is G = H - T*S

Total enthalpy                    ...   -287.44463619 Eh
Total entropy correction          ...     -0.03683097 Eh    -23.11 kcal/mol
-----------------------------------------------------------------------
Final Gibbs free energy         ...   -287.48146716 Eh

                             ****ORCA TERMINATED NORMALLY****
TOTAL RUN TIME: 0 days 0 hours 30 minutes 20 seconds 697 msec
