                         Program Version 6.0.0  -   RELEASE  -
|  1> !B3LYP freq aug-cc-pVTZ d3 TightSCF SlowConv RIJCOSX defgrid2
|  2>
|  3> %pal
|  4> nprocs 12
|  5>
|  6> end
|  7>
|  8> %scf
|  9> MaxIter 1500
| 10> end
| 11>
| 12> %maxcore 5000
| 13>
| 14> !CPCM
| 15> %cpcm smd true
| 16> SMDsolvent "MeCN"
| 17> surfacetype gepol_ses
| 18> rsolv 2.19
| 19> end
| 20>
| 21> * xyz -1 2
| 22> C          -0.02181724140056      1.19977767996775     -0.00030143897900
| 23> C           1.35998085443313      1.22119911046386      0.00018882959028
| 24> C           2.05642547810201      0.01605132677392      0.00013773306815
| 25> C           1.40048930615046     -1.21065155982971     -0.00082404667176
| 26> C           0.01980166540373     -1.23482030931309     -0.00121007778361
| 27> C          -0.75864224107289     -0.02951636743789     -0.00038274751056
| 28> C          -2.18375135821569     -0.08780338034885      0.00139279252163
| 29> O          -2.82565034645465     -1.19378313342425      0.00446303546187
| 30> C          -2.97180975127445      1.21033110707209     -0.00064204481740
| 31> H          -2.76061432640517      1.83060291999670      0.87761181645035
| 32> H          -2.75645635808240      1.83053612277209     -0.87792595406469
| 33> H          -4.03584413410033      0.97699274021004     -0.00303185448080
| 34> H          -0.50317098197897     -2.18034842326048     -0.00181173828094
| 35> H           1.97508916147792     -2.12839492383106     -0.00129259202919
| 36> F           3.43753773828165      0.04008879203698      0.00109579105005
| 37> H           1.90152134613865      2.15839726508818      0.00070380218141
| 38> H          -0.54869701100244      2.14347083306372      0.00011959429422
| 39> *
| 40>
| 41>                          ****END OF INPUT****

CARTESIAN COORDINATES (ANGSTROEM)
---------------------------------
  C     -0.021817    1.199778   -0.000301
  C      1.359981    1.221199    0.000189
  C      2.056425    0.016051    0.000138
  C      1.400489   -1.210652   -0.000824
  C      0.019802   -1.234820   -0.001210
  C     -0.758642   -0.029516   -0.000383
  C     -2.183751   -0.087803    0.001393
  O     -2.825650   -1.193783    0.004463
  C     -2.971810    1.210331   -0.000642
  H     -2.760614    1.830603    0.877612
  H     -2.756456    1.830536   -0.877926
  H     -4.035844    0.976993   -0.003032
  H     -0.503171   -2.180348   -0.001812
  H      1.975089   -2.128395   -0.001293
  F      3.437538    0.040089    0.001096
  H      1.901521    2.158397    0.000704
  H     -0.548697    2.143471    0.000120

 Total Charge           Charge          ....   -1
 Multiplicity           Mult            ....    2
 Number of Electrons    NEL             ....   73
 Basis Dimension        Dim             ....  621

ORBITAL ENERGIES
----------------
                 SPIN UP ORBITALS
  NO   OCC          E(Eh)            E(eV)
   0   1.0000     -24.675626      -671.4579
   1   1.0000     -19.044166      -518.2181
   2   1.0000     -10.222331      -278.1638
   3   1.0000     -10.183281      -277.1012
   4   1.0000     -10.158185      -276.4183
   5   1.0000     -10.157952      -276.4119
   6   1.0000     -10.153824      -276.2996
   7   1.0000     -10.149266      -276.1756
   8   1.0000     -10.142540      -275.9925
   9   1.0000     -10.137669      -275.8600
  10   1.0000      -1.199177       -32.6313
  11   1.0000      -0.951982       -25.9047
  12   1.0000      -0.834802       -22.7161
  13   1.0000      -0.741223       -20.1697
  14   1.0000      -0.732011       -19.9190
  15   1.0000      -0.691227       -18.8092
  16   1.0000      -0.609567       -16.5872
  17   1.0000      -0.592651       -16.1269
  18   1.0000      -0.525924       -14.3111
  19   1.0000      -0.520029       -14.1507
  20   1.0000      -0.465227       -12.6595
  21   1.0000      -0.451829       -12.2949
  22   1.0000      -0.438844       -11.9416
  23   1.0000      -0.423467       -11.5231
  24   1.0000      -0.407260       -11.0821
  25   1.0000      -0.404459       -11.0059
  26   1.0000      -0.392068       -10.6687
  27   1.0000      -0.377673       -10.2770
  28   1.0000      -0.357362        -9.7243
  29   1.0000      -0.349080        -9.4990
  30   1.0000      -0.341970        -9.3055
  31   1.0000      -0.312938        -8.5155
  32   1.0000      -0.310864        -8.4590
  33   1.0000      -0.250010        -6.8031
  34   1.0000      -0.231555        -6.3009
  35   1.0000      -0.206039        -5.6066
  36   1.0000      -0.092231        -2.5097
  37   0.0000      -0.000559        -0.0152
  38   0.0000      -0.000101        -0.0027
  39   0.0000       0.012714         0.3460
  40   0.0000       0.016839         0.4582
  41   0.0000       0.028658         0.7798

                 SPIN DOWN ORBITALS
  NO   OCC          E(Eh)            E(eV)
   0   1.0000     -24.674811      -671.4357
   1   1.0000     -19.038394      -518.0610
   2   1.0000     -10.217877      -278.0426
   3   1.0000     -10.178896      -276.9818
   4   1.0000     -10.159454      -276.4528
   5   1.0000     -10.159090      -276.4429
   6   1.0000     -10.151596      -276.2390
   7   1.0000     -10.146676      -276.1051
   8   1.0000     -10.141665      -275.9687
   9   1.0000     -10.138021      -275.8696
  10   1.0000      -1.197161       -32.5764
  11   1.0000      -0.940755       -25.5992
  12   1.0000      -0.831075       -22.6147
  13   1.0000      -0.735533       -20.0149
  14   1.0000      -0.728105       -19.8128
  15   1.0000      -0.688477       -18.7344
  16   1.0000      -0.601970       -16.3804
  17   1.0000      -0.590358       -16.0644
  18   1.0000      -0.523037       -14.2326
  19   1.0000      -0.515758       -14.0345
  20   1.0000      -0.463832       -12.6215
  21   1.0000      -0.443733       -12.0746
  22   1.0000      -0.434722       -11.8294
  23   1.0000      -0.421966       -11.4823
  24   1.0000      -0.406702       -11.0669
  25   1.0000      -0.394838       -10.7441
  26   1.0000      -0.389980       -10.6119
  27   1.0000      -0.376153       -10.2356
  28   1.0000      -0.354069        -9.6347
  29   1.0000      -0.340116        -9.2550
  30   1.0000      -0.339142        -9.2285
  31   1.0000      -0.311402        -8.4737
  32   1.0000      -0.286416        -7.7938
  33   1.0000      -0.241526        -6.5723
  34   1.0000      -0.210377        -5.7246
  35   1.0000      -0.200900        -5.4668
  36   0.0000      -0.019799        -0.5388
  37   0.0000      -0.000143        -0.0039
  38   0.0000       0.004362         0.1187
  39   0.0000       0.012616         0.3433
  40   0.0000       0.016594         0.4515

MULLIKEN ATOMIC CHARGES AND SPIN POPULATIONS
--------------------------------------------
   0 C :   -0.455640    0.197729
   1 C :   -0.873470   -0.080816
   2 C :    0.633350    0.251761
   3 C :   -0.750467   -0.082086
   4 C :   -0.894437    0.219230
   5 C :    1.627367    0.062711
   6 C :    0.402296    0.231919
   7 O :   -1.097418    0.223010
   8 C :   -0.641604   -0.020307
   9 H :    0.217657    0.011704
  10 H :    0.218332    0.011581
  11 H :    0.150431    0.000434
  12 H :    0.161864   -0.022421
  13 H :    0.405079    0.000339
  14 F :   -0.566248    0.012155
  15 H :    0.411068    0.002101
  16 H :    0.051842   -0.019044
Sum of atomic charges         :   -1.0000000

LOEWDIN ATOMIC CHARGES AND SPIN POPULATIONS
-------------------------------------------
   0 C :    0.152121    0.086154
   1 C :    0.138163    0.027070
   2 C :   -0.562700    0.125679
   3 C :    0.132251    0.027039
   4 C :    0.141262    0.094667
   5 C :   -0.206540    0.114798
   6 C :   -0.663575    0.193187
   7 O :    0.312633    0.207103
   8 C :    0.495064    0.038050
   9 H :   -0.184172    0.009582
  10 H :   -0.184382    0.009528
  11 H :   -0.206675   -0.000639
  12 H :   -0.221923    0.022679
  13 H :   -0.193365   -0.004967
  14 F :    0.455274    0.034804
  15 H :   -0.192972   -0.004023
  16 H :   -0.210464    0.019290

  Mayer bond orders larger than 0.100000
B(  0-C ,  1-C ) :   1.0322 B(  0-C ,  2-C ) :  -0.2179 B(  0-C ,  3-C ) :  -0.1365
B(  0-C ,  4-C ) :  -0.3503 B(  0-C ,  5-C ) :   0.2084 B(  0-C ,  6-C ) :   0.2376
B(  0-C , 12-H ) :   0.1108 B(  0-C , 16-H ) :   1.3913 B(  1-C ,  2-C ) :   1.3173
B(  1-C ,  3-C ) :   0.2915 B(  1-C ,  5-C ) :   0.1587 B(  1-C , 14-F ) :   0.1775
B(  1-C , 15-H ) :   0.5875 B(  2-C ,  3-C ) :   1.3399 B(  2-C ,  4-C ) :  -0.2686
B(  2-C ,  6-C ) :   0.1071 B(  2-C , 14-F ) :   0.1747 B(  3-C ,  4-C ) :   1.3835
B(  3-C , 13-H ) :   0.6004 B(  3-C , 14-F ) :   0.1730 B(  3-C , 16-H ) :  -0.1271
B(  4-C ,  6-C ) :   0.4094 B(  4-C , 12-H ) :   1.0833 B(  4-C , 16-H ) :   0.1683
B(  5-C ,  6-C ) :   0.3200 B(  5-C ,  7-O ) :   0.1350 B(  5-C , 16-H ) :  -0.2539
B(  6-C ,  7-O ) :   0.6537 B(  6-C ,  8-C ) :   0.9115 B(  7-O , 12-H ) :   0.1294
B(  8-C ,  9-H ) :   0.9809 B(  8-C , 10-H ) :   0.9806 B(  8-C , 11-H ) :   0.9880
B( 12-H , 16-H ) :   0.1363 B( 13-H , 14-F ) :   0.1161 B( 14-F , 15-H ) :   0.1008

Dispersion correction           -0.030187656
FINAL SINGLE POINT ENERGY      -484.171619840450

DIPOLE MOMENT
-------------

Method             : SCF
Type of density    : Electron Density
Multiplicity       :   2
Irrep              :   0
Energy             :  -484.1414321848039322 Eh
Relativity type    :
Basis              : AO
                                X                 Y                 Z
Electronic contribution:     11.333556594      -2.765466916       0.005237755
Nuclear contribution   :     -9.543614509       4.316448189      -0.008964758
                        -----------------------------------------
Total Dipole Moment    :      1.789942085       1.550981273      -0.003727002
                        -----------------------------------------
Magnitude (a.u.)       :      2.368427636
Magnitude (Debye)      :      6.020064628

VIBRATIONAL FREQUENCIES
-----------------------

Scaling factor for frequencies =  1.000000000  (already applied!)

     0:       0.00 cm**-1
     1:       0.00 cm**-1
     2:       0.00 cm**-1
     3:       0.00 cm**-1
     4:       0.00 cm**-1
     5:       0.00 cm**-1
     6:      92.84 cm**-1
     7:      96.78 cm**-1
     8:     120.19 cm**-1
     9:     184.79 cm**-1
    10:     254.24 cm**-1
    11:     333.38 cm**-1
    12:     354.89 cm**-1
    13:     376.64 cm**-1
    14:     446.03 cm**-1
    15:     467.33 cm**-1
    16:     535.06 cm**-1
    17:     544.64 cm**-1
    18:     634.70 cm**-1
    19:     676.50 cm**-1
    20:     682.48 cm**-1
    21:     768.41 cm**-1
    22:     782.58 cm**-1
    23:     790.28 cm**-1
    24:     932.98 cm**-1
    25:     944.38 cm**-1
    26:     951.17 cm**-1
    27:     991.18 cm**-1
    28:    1007.26 cm**-1
    29:    1065.55 cm**-1
    30:    1098.55 cm**-1
    31:    1146.27 cm**-1
    32:    1189.24 cm**-1
    33:    1274.26 cm**-1
    34:    1298.72 cm**-1
    35:    1328.59 cm**-1
    36:    1368.54 cm**-1
    37:    1409.16 cm**-1
    38:    1441.59 cm**-1
    39:    1460.51 cm**-1
    40:    1487.29 cm**-1
    41:    1498.70 cm**-1
    42:    1527.14 cm**-1
    43:    1609.70 cm**-1
    44:    2980.28 cm**-1
    45:    3012.44 cm**-1
    46:    3092.61 cm**-1
    47:    3164.85 cm**-1
    48:    3166.71 cm**-1
    49:    3185.90 cm**-1
    50:    3188.92 cm**-1

IR SPECTRUM
-----------

 Mode   freq       eps      Int      T**2         TX        TY        TZ
       cm**-1   L/(mol*cm) km/mol    a.u.
----------------------------------------------------------------------------
  6:     92.84   0.000008    0.04  0.000028  ( 0.000115  0.000103 -0.005316)
  7:     96.78   0.000851    4.30  0.002745  (-0.000136  0.000399 -0.052391)
  8:    120.19   0.000904    4.57  0.002348  (-0.000119  0.000246 -0.048459)
  9:    184.79   0.001472    7.44  0.002486  ( 0.048402 -0.011964 -0.000283)
 10:    254.24   0.000000    0.00  0.000000  ( 0.000191  0.000075  0.000582)
 11:    333.38   0.000241    1.22  0.000225  ( 0.002842 -0.014736 -0.000419)
 12:    354.89   0.001481    7.48  0.001302  (-0.000034 -0.000014  0.036087)
 13:    376.64   0.001127    5.69  0.000934  ( 0.024339  0.018469 -0.000039)
 14:    446.03   0.000188    0.95  0.000132  (-0.000025  0.000141  0.011467)
 15:    467.33   0.000357    1.80  0.000238  ( 0.013825 -0.006874  0.000034)
 16:    535.06   0.008302   41.95  0.004842  (-0.000351 -0.000084 -0.069582)
 17:    544.64   0.010543   53.28  0.006041  ( 0.070452 -0.032827  0.000129)
 18:    634.70   0.000104    0.53  0.000051  (-0.001610  0.006973 -0.000161)
 19:    676.50   0.020878  105.51  0.009631  (-0.096395 -0.018401 -0.000029)
 20:    682.48   0.003258   16.47  0.001490  ( 0.000366  0.000125  0.038597)
 21:    768.41   0.016551   83.64  0.006722  ( 0.000511 -0.000127 -0.081984)
 22:    782.58   0.010121   51.15  0.004036  (-0.001369 -0.000290 -0.063512)
 23:    790.28   0.035980  181.83  0.014208  (-0.119106 -0.004589  0.000320)
 24:    932.98   0.000328    1.66  0.000110  (-0.000533  0.000288 -0.010452)
 25:    944.38   0.024657  124.60  0.008148  ( 0.090080 -0.005767 -0.000123)
 26:    951.17   0.000046    0.23  0.000015  (-0.003492  0.000154 -0.001675)
 27:    991.18   0.009891   49.98  0.003114  ( 0.055438 -0.006369 -0.000182)
 28:   1007.26   0.000316    1.59  0.000098  ( 0.000394 -0.000077  0.009879)
 29:   1065.55   0.001187    6.00  0.000348  ( 0.003419 -0.018326 -0.000085)
 30:   1098.55   0.015713   79.40  0.004463  ( 0.031519  0.058907 -0.000015)
 31:   1146.27   0.002761   13.95  0.000752  ( 0.027242  0.003099  0.000169)
 32:   1189.24   0.040544  204.89  0.010639  ( 0.103132  0.001663  0.000088)
 33:   1274.26   0.016125   81.49  0.003949  (-0.047327 -0.041342  0.000170)
 34:   1298.72   0.005103   25.79  0.001226  ( 0.034181 -0.007601 -0.000034)
 35:   1328.59   0.026553  134.19  0.006237  (-0.003460  0.078898 -0.000091)
 36:   1368.54   0.009135   46.17  0.002083  (-0.031138 -0.033370 -0.000066)
 37:   1409.16   0.013499   68.22  0.002989  (-0.033465 -0.043238  0.000111)
 38:   1441.59   0.092869  469.32  0.020104  (-0.132645 -0.050089  0.000253)
 39:   1460.51   0.001723    8.71  0.000368  (-0.000517 -0.000076 -0.019180)
 40:   1487.29   0.068304  345.18  0.014332  ( 0.114760  0.034084 -0.000234)
 41:   1498.70   0.001255    6.34  0.000261  ( 0.013962  0.008142 -0.000002)
 42:   1527.14   0.045990  232.42  0.009398  (-0.081817 -0.051998  0.000285)
 43:   1609.70   0.004802   24.27  0.000931  (-0.014345 -0.026929 -0.000015)
 44:   2980.28   0.029798  150.59  0.003120  ( 0.038957 -0.040030 -0.000305)
 45:   3012.44   0.018399   92.98  0.001906  ( 0.000067 -0.000025  0.043658)
 46:   3092.61   0.008074   40.80  0.000815  (-0.025889 -0.012020 -0.000060)
 47:   3164.85   0.003588   18.13  0.000354  (-0.016505  0.009021 -0.000006)
 48:   3166.71   0.003214   16.24  0.000317  (-0.017289 -0.004217 -0.000042)
 49:   3185.90   0.006229   31.48  0.000610  (-0.000751  0.024690 -0.000024)
 50:   3188.92   0.001116    5.64  0.000109  (-0.005319  0.008998  0.000043)

--------------------------
THERMOCHEMISTRY AT 298.15K
--------------------------

Temperature         ...   298.15 K
Pressure            ...     1.00 atm
Total Mass          ...   138.14 AMU
Quasi RRHO          ...     True
Cut-Off Frequency   ...     1.00 cm^-1

Throughout the following assumptions are being made:
  (1) The electronic state is orbitally nondegenerate
      but the spin degeneracy is treated
  (2) There are no thermally accessible electronically excited states
  (3) Hindered rotations indicated by low frequency modes are not
      treated as such but are treated as vibrations and this may
      cause some error
  (4) All equations used are the standard statistical mechanics
      equations for an ideal gas
  (5) All vibrations are strictly harmonic

freq.      92.84  E(vib)   ...       0.47
freq.      96.78  E(vib)   ...       0.46
freq.     120.19  E(vib)   ...       0.44
freq.     184.79  E(vib)   ...       0.37
freq.     254.24  E(vib)   ...       0.30
freq.     333.38  E(vib)   ...       0.24
freq.     354.89  E(vib)   ...       0.22
freq.     376.64  E(vib)   ...       0.21
freq.     446.03  E(vib)   ...       0.17
freq.     467.33  E(vib)   ...       0.16
freq.     535.06  E(vib)   ...       0.13
freq.     544.64  E(vib)   ...       0.12
freq.     634.70  E(vib)   ...       0.09
freq.     676.50  E(vib)   ...       0.08
freq.     682.48  E(vib)   ...       0.08
freq.     768.41  E(vib)   ...       0.06
freq.     782.58  E(vib)   ...       0.05
freq.     790.28  E(vib)   ...       0.05
freq.     932.98  E(vib)   ...       0.03
freq.     944.38  E(vib)   ...       0.03
freq.     951.17  E(vib)   ...       0.03
freq.     991.18  E(vib)   ...       0.02
freq.    1007.26  E(vib)   ...       0.02
freq.    1065.55  E(vib)   ...       0.02
freq.    1098.55  E(vib)   ...       0.02
freq.    1146.27  E(vib)   ...       0.01
freq.    1189.24  E(vib)   ...       0.01
freq.    1274.26  E(vib)   ...       0.01
freq.    1298.72  E(vib)   ...       0.01
freq.    1328.59  E(vib)   ...       0.01
freq.    1368.54  E(vib)   ...       0.01
freq.    1409.16  E(vib)   ...       0.00
freq.    1441.59  E(vib)   ...       0.00
freq.    1460.51  E(vib)   ...       0.00
freq.    1487.29  E(vib)   ...       0.00
freq.    1498.70  E(vib)   ...       0.00
freq.    1527.14  E(vib)   ...       0.00
freq.    1609.70  E(vib)   ...       0.00
freq.    2980.28  E(vib)   ...       0.00
freq.    3012.44  E(vib)   ...       0.00
freq.    3092.61  E(vib)   ...       0.00
freq.    3164.85  E(vib)   ...       0.00
freq.    3166.71  E(vib)   ...       0.00
freq.    3185.90  E(vib)   ...       0.00
freq.    3188.92  E(vib)   ...       0.00

------------
INNER ENERGY
------------

The inner energy is: U= E(el) + E(ZPE) + E(vib) + E(rot) + E(trans)
    E(el)   - is the total energy from the electronic structure calculation
              = E(kin-el) + E(nuc-el) + E(el-el) + E(nuc-nuc)
    E(ZPE)  - the the zero temperature vibrational energy from the frequency calculation
    E(vib)  - the the finite temperature correction to E(ZPE) due to population
              of excited vibrational states
    E(rot)  - is the rotational thermal energy
    E(trans)- is the translational thermal energy

Summary of contributions to the inner energy U:
Electronic energy                ...   -484.17161984 Eh
Zero point energy                ...      0.12521778 Eh      78.58 kcal/mol
Thermal vibrational correction   ...      0.00624926 Eh       3.92 kcal/mol
Thermal rotational correction    ...      0.00141627 Eh       0.89 kcal/mol
Thermal translational correction ...      0.00141627 Eh       0.89 kcal/mol
-----------------------------------------------------------------------
Total thermal energy                   -484.03732025 Eh

Summary of corrections to the electronic energy:
(perhaps to be used in another calculation)
Total thermal correction                  0.00908181 Eh       5.70 kcal/mol
Non-thermal (ZPE) correction              0.12521778 Eh      78.58 kcal/mol
-----------------------------------------------------------------------
Total correction                          0.13429959 Eh      84.27 kcal/mol

--------
ENTHALPY
--------

The enthalpy is H = U + kB*T
                kB is Boltzmann's constant
Total thermal energy              ...   -484.03732025 Eh
Thermal Enthalpy correction       ...      0.00094421 Eh       0.59 kcal/mol
-----------------------------------------------------------------------
Total Enthalpy                    ...   -484.03637604 Eh

Note: Only C1 symmetry has been detected, increase convergence thresholds
      if your molecule has a higher symmetry. Symmetry factor of 1.0 is
      used for the rotational entropy correction.

Note: Rotational entropy computed according to Herzberg
Infrared and Raman Spectra, Chapter V,1, Van Nostrand Reinhold, 1945
Point Group:  C1, Symmetry Number:   1
Rotational constants in cm-1:     0.120753     0.025521     0.021151

Vibrational entropy computed according to the QRRHO of S. Grimme
Chem.Eur.J. 2012 18 9955 using a reference frequency of 100.0 cm-1

-------
ENTROPY
-------

The entropy contributions are T*S = T*(S(el)+S(vib)+S(rot)+S(trans))
     S(el)   - electronic entropy
     S(vib)  - vibrational entropy
     S(rot)  - rotational entropy
     S(trans)- translational entropy
The entropies will be listed as multiplied by the temperature to get
units of energy

Electronic entropy                ...      0.00065446 Eh      0.41 kcal/mol
Vibrational entropy               ...      0.01053323 Eh      6.61 kcal/mol
Rotational entropy                ...      0.01406097 Eh      8.82 kcal/mol
Translational entropy             ...      0.01932885 Eh     12.13 kcal/mol
-----------------------------------------------------------------------
Final entropy term                ...      0.04457751 Eh     27.97 kcal/mol

In case the symmetry of your molecule has not been determined correctly
or in case you have a reason to use a different symmetry number we print
out the resulting rotational entropy values for sn=1,12:

 non-linear molecules -----------------------------------
|  sn= 1 | S(rot)=       0.01406097 Eh      8.82 kcal/mol|
|  sn= 2 | S(rot)=       0.01340651 Eh      8.41 kcal/mol|
|  sn= 3 | S(rot)=       0.01302368 Eh      8.17 kcal/mol|
|  sn= 4 | S(rot)=       0.01275206 Eh      8.00 kcal/mol|
|  sn= 5 | S(rot)=       0.01254137 Eh      7.87 kcal/mol|
|  sn= 6 | S(rot)=       0.01236923 Eh      7.76 kcal/mol|
|  sn= 7 | S(rot)=       0.01222368 Eh      7.67 kcal/mol|
|  sn= 8 | S(rot)=       0.01209760 Eh      7.59 kcal/mol|
|  sn= 9 | S(rot)=       0.01198639 Eh      7.52 kcal/mol|
|  sn=10 | S(rot)=       0.01188691 Eh      7.46 kcal/mol|
|  sn=11 | S(rot)=       0.01179692 Eh      7.40 kcal/mol|
|  sn=12 | S(rot)=       0.01171477 Eh      7.35 kcal/mol|
 linear molecules ---------------------------------------
|  Dinfh | S(rot)=       0.00896665 Eh      5.63 kcal/mol|

                             ****ORCA TERMINATED NORMALLY****
TOTAL RUN TIME: 0 days 0 hours 40 minutes 56 seconds 681 msec
