                         Program Version 6.0.0  -   RELEASE  -
|  1> !r2SCAN aug-cc-pVTZ d3 TightSCF SlowConv RIJCOSX defgrid2
|  2>
|  3> %pal
|  4> nprocs 4
|  5> end
|  6>
|  7> %scf
|  8> MaxIter 1500
|  9> end
| 10>
| 11> %maxcore 3000
| 12>
| 13> !CPCM
| 14> %cpcm smd true
| 15> SMDsolvent "MeCN"
| 16> surfacetype gepol_ses
| 17> rsolv 2.19
| 18> end
| 19>
| 20> * xyz 0 1
| 21> C          -1.64824126618017      1.17962905218596     -0.27640852251821
| 22> C          -2.36732067057951      0.01222657741033      0.01013723312640
| 23> C          -1.65681369830039     -1.16061817519344      0.29208568093245
| 24> C          -0.26626323928183     -1.16443624467977      0.28791791148105
| 25> C           0.45854663028887      0.00217454247658      0.00256283796462
| 26> C          -0.26127971202858      1.17549258128224     -0.27984384623215
| 27> H           0.28089631587743      2.09137892779172     -0.53113220855770
| 28> C           1.93696149154138     -0.00279971672945      0.00051608331538
| 29> C           2.65303791085162     -1.10978954515941     -0.47925860702356
| 30> C           4.04531433476339     -1.11398347683307     -0.48167578797554
| 31> C           4.75102098587613     -0.01129559121339     -0.00116086906809
| 32> C           4.05248382144489      1.09572154879970      0.47984618566416
| 33> C           2.66020581714669      1.10014601648294      0.47888547594482
| 34> H           2.12182100458790      1.96339836557137      0.88035790986018
| 35> H           4.59686021513246      1.96228462828998      0.86676809069055
| 36> H           5.84493441172309     -0.01451276377516     -0.00190011189447
| 37> H           4.58410302781916     -1.98346854512299     -0.86991334409081
| 38> H           2.10898948157834     -1.96925435572582     -0.88135237996202
| 39> H           0.27006313897588     -2.08418650265354      0.53693846273009
| 40> H          -2.18747776526920     -2.08664808126969      0.52830693817217
| 41> C          -3.86122618809550      0.08310521129981     -0.00075253917882
| 42> O          -4.42728606147296      1.12411459370127     -0.25389321491014
| 43> C          -4.64225327233386     -1.17234258475983      0.31143142335015
| 44> H          -5.71614646164934     -0.94073069402301      0.26216108811743
| 45> H          -4.40777348323050     -1.97432489828778     -0.41030103402591
| 46> H          -4.39571168425506     -1.55218269043734      1.31835323175607
| 47> H          -2.21343058493032      2.08711072057180     -0.50408998766811
| 48> *
| 49>
| 50>                          ****END OF INPUT****

CARTESIAN COORDINATES (ANGSTROEM)
---------------------------------
  C     -1.648241    1.179629   -0.276409
  C     -2.367321    0.012227    0.010137
  C     -1.656814   -1.160618    0.292086
  C     -0.266263   -1.164436    0.287918
  C      0.458547    0.002175    0.002563
  C     -0.261280    1.175493   -0.279844
  H      0.280896    2.091379   -0.531132
  C      1.936961   -0.002800    0.000516
  C      2.653038   -1.109790   -0.479259
  C      4.045314   -1.113983   -0.481676
  C      4.751021   -0.011296   -0.001161
  C      4.052484    1.095722    0.479846
  C      2.660206    1.100146    0.478885
  H      2.121821    1.963398    0.880358
  H      4.596860    1.962285    0.866768
  H      5.844934   -0.014513   -0.001900
  H      4.584103   -1.983469   -0.869913
  H      2.108989   -1.969254   -0.881352
  H      0.270063   -2.084187    0.536938
  H     -2.187478   -2.086648    0.528307
  C     -3.861226    0.083105   -0.000753
  O     -4.427286    1.124115   -0.253893
  C     -4.642253   -1.172343    0.311431
  H     -5.716146   -0.940731    0.262161
  H     -4.407773   -1.974325   -0.410301
  H     -4.395712   -1.552183    1.318353
  H     -2.213431    2.087111   -0.504090

 Total Charge           Charge          ....    0
 Multiplicity           Mult            ....    1
 Number of Electrons    NEL             ....  104
 Basis Dimension        Dim             ....  966

ORBITAL ENERGIES
----------------

  NO   OCC          E(Eh)            E(eV)
   0   2.0000     -18.942974      -515.4645
   1   2.0000     -10.124571      -275.5036
   2   2.0000     -10.063689      -273.8469
   3   2.0000     -10.057272      -273.6723
   4   2.0000     -10.051588      -273.5176
   5   2.0000     -10.051143      -273.5055
   6   2.0000     -10.047624      -273.4098
   7   2.0000     -10.046977      -273.3921
   8   2.0000     -10.046728      -273.3854
   9   2.0000     -10.044168      -273.3157
  10   2.0000     -10.044125      -273.3145
  11   2.0000     -10.043320      -273.2926
  12   2.0000     -10.043132      -273.2875
  13   2.0000     -10.042596      -273.2729
  14   2.0000     -10.029636      -272.9203
  15   2.0000      -1.009797       -27.4780
  16   2.0000      -0.843988       -22.9661
  17   2.0000      -0.821271       -22.3479
  18   2.0000      -0.758724       -20.6459
  19   2.0000      -0.724929       -19.7263
  20   2.0000      -0.715914       -19.4810
  21   2.0000      -0.711477       -19.3603
  22   2.0000      -0.685592       -18.6559
  23   2.0000      -0.608955       -16.5705
  24   2.0000      -0.590268       -16.0620
  25   2.0000      -0.562607       -15.3093
  26   2.0000      -0.556586       -15.1455
  27   2.0000      -0.519825       -14.1452
  28   2.0000      -0.495147       -13.4736
  29   2.0000      -0.458707       -12.4821
  30   2.0000      -0.443941       -12.0803
  31   2.0000      -0.434235       -11.8161
  32   2.0000      -0.415743       -11.3130
  33   2.0000      -0.410641       -11.1741
  34   2.0000      -0.409925       -11.1546
  35   2.0000      -0.403810       -10.9882
  36   2.0000      -0.393920       -10.7191
  37   2.0000      -0.386958       -10.5297
  38   2.0000      -0.384960       -10.4753
  39   2.0000      -0.361534        -9.8379
  40   2.0000      -0.358720        -9.7613
  41   2.0000      -0.346276        -9.4227
  42   2.0000      -0.338611        -9.2141
  43   2.0000      -0.329667        -8.9707
  44   2.0000      -0.318897        -8.6776
  45   2.0000      -0.311552        -8.4778
  46   2.0000      -0.303050        -8.2464
  47   2.0000      -0.267020        -7.2660
  48   2.0000      -0.247210        -6.7269
  49   2.0000      -0.243049        -6.6137
  50   2.0000      -0.222457        -6.0533
  51   2.0000      -0.221348        -6.0232
  52   0.0000      -0.092956        -2.5295
  53   0.0000      -0.045430        -1.2362
  54   0.0000      -0.039676        -1.0796
  55   0.0000      -0.038953        -1.0600
  56   0.0000       0.003877         0.1055

MULLIKEN ATOMIC CHARGES
-----------------------
   0 C :   -1.217587
   1 C :    1.576173
   2 C :   -0.621853
   3 C :   -1.052487
   4 C :    2.132507
   5 C :   -0.959981
   6 H :    0.081729
   7 C :    2.309450
   8 C :   -0.907103
   9 C :   -0.763908
  10 C :   -0.120380
  11 C :   -0.762860
  12 C :   -0.927743
  13 H :   -0.017426
  14 H :    0.408714
  15 H :    0.555931
  16 H :    0.390907
  17 H :   -0.024220
  18 H :    0.061624
  19 H :   -0.072461
  20 C :    0.912597
  21 O :   -0.983772
  22 C :   -0.559827
  23 H :    0.163159
  24 H :    0.233264
  25 H :    0.233251
  26 H :   -0.067698
Sum of atomic charges:   -0.0000000

LOEWDIN ATOMIC CHARGES
----------------------
   0 C :    0.206158
   1 C :   -0.132499
   2 C :    0.220177
   3 C :    0.233899
   4 C :   -0.114466
   5 C :    0.230681
   6 H :   -0.165354
   7 C :   -0.125288
   8 C :    0.209429
   9 C :    0.197463
  10 C :    0.189154
  11 C :    0.197464
  12 C :    0.209430
  13 H :   -0.168233
  14 H :   -0.168824
  15 H :   -0.170485
  16 H :   -0.168800
  17 H :   -0.168132
  18 H :   -0.164034
  19 H :   -0.172252
  20 C :   -0.551261
  21 O :    0.484105
  22 C :    0.570691
  23 H :   -0.178176
  24 H :   -0.158076
  25 H :   -0.158432
  26 H :   -0.184340

  Mayer bond orders larger than 0.100000
B(  0-C ,  1-C ) :   0.1248 B(  0-C ,  2-C ) :  -0.3998 B(  0-C ,  4-C ) :  -0.2742
B(  0-C ,  5-C ) :   1.6121 B(  0-C , 18-H ) :  -0.1054 B(  0-C , 20-C ) :   0.2443
B(  0-C , 26-H ) :   1.3102 B(  1-C ,  2-C ) :   0.4149 B(  1-C ,  3-C ) :   0.1587
B(  1-C ,  5-C ) :   0.1492 B(  1-C ,  7-C ) :   0.2052 B(  1-C , 19-H ) :  -0.3608
B(  1-C , 20-C ) :   0.3646 B(  1-C , 21-O ) :   0.4256 B(  1-C , 22-C ) :   0.1091
B(  1-C , 26-H ) :  -0.2758 B(  2-C ,  3-C ) :   0.9912 B(  2-C ,  4-C ) :  -0.2116
B(  2-C ,  6-H ) :  -0.1402 B(  2-C , 19-H ) :   1.5415 B(  2-C , 20-C ) :   0.1851
B(  2-C , 26-H ) :   0.1172 B(  3-C ,  4-C ) :  -0.2026 B(  3-C ,  5-C ) :  -0.5669
B(  3-C ,  7-C ) :   0.2283 B(  3-C ,  8-C ) :  -0.1185 B(  3-C , 17-H ) :  -0.1031
B(  3-C , 18-H ) :   1.3213 B(  3-C , 19-H ) :  -0.1117 B(  3-C , 20-C ) :  -0.1257
B(  4-C ,  6-H ) :  -0.1276 B(  4-C ,  7-C ) :  -0.3466 B(  4-C ,  8-C ) :   0.4954
B(  4-C , 10-C ) :   0.1161 B(  4-C , 12-C ) :   0.4023 B(  4-C , 15-H ) :   0.1228
B(  4-C , 18-H ) :  -0.1105 B(  4-C , 20-C ) :   0.2255 B(  4-C , 26-H ) :  -0.1205
B(  5-C ,  6-H ) :   1.2891 B(  5-C ,  7-C ) :   0.2539 B(  6-H ,  7-C ) :  -0.1143
B(  6-H , 18-H ) :   0.1147 B(  7-C ,  8-C ) :  -0.1060 B(  7-C ,  9-C ) :  -0.1310
B(  7-C , 10-C ) :  -0.1754 B(  7-C , 11-C ) :  -0.1144 B(  7-C , 12-C ) :  -0.1243
B(  7-C , 13-H ) :  -0.1616 B(  7-C , 14-H ) :   0.1017 B(  7-C , 16-H ) :   0.1092
B(  7-C , 17-H ) :  -0.1668 B(  7-C , 18-H ) :  -0.1032 B(  8-C ,  9-C ) :   1.2093
B(  8-C , 12-C ) :  -0.5987 B(  8-C , 17-H ) :   1.4562 B(  9-C , 10-C ) :   1.1065
B(  9-C , 11-C ) :   0.1286 B(  9-C , 16-H ) :   0.7060 B( 10-C , 11-C ) :   1.1116
B( 10-C , 15-H ) :   0.4575 B( 11-C , 12-C ) :   1.2113 B( 11-C , 14-H ) :   0.6683
B( 11-C , 17-H ) :  -0.1028 B( 12-C , 13-H ) :   1.4641 B( 13-H , 17-H ) :   0.1578
B( 19-H , 26-H ) :   0.1119 B( 20-C , 21-O ) :   0.6277 B( 20-C , 22-C ) :   0.9051
B( 20-C , 26-H ) :  -0.1128 B( 21-O , 26-H ) :   0.2194 B( 22-C , 23-H ) :   0.9366
B( 22-C , 24-H ) :   0.9693 B( 22-C , 25-H ) :   0.9755

Dispersion correction           -0.010220067
FINAL SINGLE POINT ENERGY      -615.848401191677

DIPOLE MOMENT
-------------

Method             : SCF
Type of density    : Electron Density
Multiplicity       :   1
Irrep              :   0
Energy             :  -615.8381811251700810 Eh
Relativity type    :
Basis              : AO
                                X                 Y                 Z
Electronic contribution:      0.516714161       2.944224588      -0.731827780
Nuclear contribution   :      0.745176245      -4.228888147       1.043265209
                        -----------------------------------------
Total Dipole Moment    :      1.261890406      -1.284663559       0.311437430
                        -----------------------------------------
Magnitude (a.u.)       :      1.827490391
Magnitude (Debye)      :      4.645111421

Rotational constants in cm-1:             0.074921             0.008604             0.007886
Rotational constants in MHz :          2246.083248           257.938515           236.409814

                             ****ORCA TERMINATED NORMALLY****
TOTAL RUN TIME: 0 days 0 hours 6 minutes 21 seconds 725 msec
