                         Program Version 6.0.0  -   RELEASE  -
|  1> !r2SCAN aug-cc-pVTZ d3 TightSCF SlowConv RIJCOSX defgrid2
|  2>
|  3> %pal
|  4> nprocs 15
|  5> end
|  6>
|  7> %scf
|  8> MaxIter 1500
|  9> end
| 10>
| 11> %maxcore 3500
| 12>
| 13> !CPCM
| 14> %cpcm smd true
| 15> SMDsolvent "WATER"
| 16> surfacetype gepol_ses
| 17> rsolv 1.40
| 18> end
| 19>
| 20> * xyz -1 2
| 21> C          -0.03973046046840      0.10892812040704     -0.07338476870276
| 22> C          -1.16098921528207     -0.36942550235928      0.71209175660899
| 23> C           1.12950619870235      0.46906063473388      0.70766297682295
| 24> H          -2.06041411321376     -0.64988443685068      0.14997121109878
| 25> H           1.99092702988929      0.83408061571124      0.13293381113983
| 26> C          -1.11212024378879     -0.46999723963456      2.07962395432224
| 27> C           1.19382481607047      0.37407440355199      2.07622299159295
| 28> H          -1.97201412595405     -0.83453656930806      2.65522434724164
| 29> C           0.05609683638602     -0.10970890072807      2.85428687501407
| 30> O           0.10372480477544     -0.20102139334893      4.10562446305031
| 31> O          -0.07494807117445      0.20434515385365     -1.32351109494325
| 32> C           2.41507813745815      0.75326139926788      2.85674776584986
| 33> H           2.18096706491750      1.54375255830692      3.59412318045315
| 34> H           2.78389777303057     -0.10350094502541      3.45115835416892
| 35> H           3.22614155265174      1.10750873042238      2.19600586528230
| 36> *
| 37>
| 38>                          ****END OF INPUT****

CARTESIAN COORDINATES (ANGSTROEM)
---------------------------------
  C     -0.039730    0.108928   -0.073385
  C     -1.160989   -0.369426    0.712092
  C      1.129506    0.469061    0.707663
  H     -2.060414   -0.649884    0.149971
  H      1.990927    0.834081    0.132934
  C     -1.112120   -0.469997    2.079624
  C      1.193825    0.374074    2.076223
  H     -1.972014   -0.834537    2.655224
  C      0.056097   -0.109709    2.854287
  O      0.103725   -0.201021    4.105624
  O     -0.074948    0.204345   -1.323511
  C      2.415078    0.753261    2.856748
  H      2.180967    1.543753    3.594123
  H      2.783898   -0.103501    3.451158
  H      3.226142    1.107509    2.196006

 Total Charge           Charge          ....   -1
 Multiplicity           Mult            ....    2
 Number of Electrons    NEL             ....   65
 Basis Dimension        Dim             ....  552

ORBITAL ENERGIES
----------------
                 SPIN UP ORBITALS
  NO   OCC          E(Eh)            E(eV)
   0   1.0000     -18.919605      -514.8286
   1   1.0000     -18.919557      -514.8273
   2   1.0000     -10.087644      -274.4987
   3   1.0000     -10.085800      -274.4486
   4   1.0000     -10.040991      -273.2293
   5   1.0000     -10.030296      -272.9382
   6   1.0000     -10.029647      -272.9206
   7   1.0000     -10.024947      -272.7927
   8   1.0000     -10.022638      -272.7299
   9   1.0000      -0.974074       -26.5059
  10   1.0000      -0.971992       -26.4493
  11   1.0000      -0.790372       -21.5071
  12   1.0000      -0.728763       -19.8306
  13   1.0000      -0.664168       -18.0729
  14   1.0000      -0.630810       -17.1652
  15   1.0000      -0.556227       -15.1357
  16   1.0000      -0.520628       -14.1670
  17   1.0000      -0.443779       -12.0758
  18   1.0000      -0.436867       -11.8878
  19   1.0000      -0.409242       -11.1360
  20   1.0000      -0.397241       -10.8095
  21   1.0000      -0.375541       -10.2190
  22   1.0000      -0.369663       -10.0590
  23   1.0000      -0.363666        -9.8958
  24   1.0000      -0.354597        -9.6491
  25   1.0000      -0.344813        -9.3828
  26   1.0000      -0.331908        -9.0317
  27   1.0000      -0.317331        -8.6350
  28   1.0000      -0.260412        -7.0862
  29   1.0000      -0.232009        -6.3133
  30   1.0000      -0.217936        -5.9303
  31   1.0000      -0.209937        -5.7127
  32   1.0000      -0.149755        -4.0750
  33   0.0000      -0.031000        -0.8436
  34   0.0000       0.002194         0.0597
  35   0.0000       0.009252         0.2518
  36   0.0000       0.023196         0.6312
  37   0.0000       0.025725         0.7000

                 SPIN DOWN ORBITALS
  NO   OCC          E(Eh)            E(eV)
   0   1.0000     -18.912271      -514.6291
   1   1.0000     -18.912089      -514.6241
   2   1.0000     -10.085662      -274.4448
   3   1.0000     -10.083581      -274.3882
   4   1.0000     -10.039542      -273.1898
   5   1.0000     -10.028958      -272.9018
   6   1.0000     -10.028036      -272.8767
   7   1.0000     -10.024172      -272.7716
   8   1.0000     -10.022739      -272.7326
   9   1.0000      -0.963057       -26.2061
  10   1.0000      -0.960802       -26.1447
  11   1.0000      -0.783967       -21.3328
  12   1.0000      -0.725316       -19.7368
  13   1.0000      -0.658312       -17.9136
  14   1.0000      -0.622860       -16.9489
  15   1.0000      -0.551705       -15.0127
  16   1.0000      -0.515676       -14.0323
  17   1.0000      -0.442244       -12.0341
  18   1.0000      -0.433181       -11.7874
  19   1.0000      -0.404555       -11.0085
  20   1.0000      -0.384951       -10.4750
  21   1.0000      -0.372498       -10.1362
  22   1.0000      -0.367118        -9.9898
  23   1.0000      -0.353023        -9.6062
  24   1.0000      -0.347487        -9.4556
  25   1.0000      -0.329691        -8.9714
  26   1.0000      -0.323766        -8.8101
  27   1.0000      -0.315437        -8.5835
  28   1.0000      -0.237580        -6.4649
  29   1.0000      -0.222278        -6.0485
  30   1.0000      -0.212174        -5.7735
  31   1.0000      -0.204352        -5.5607
  32   0.0000      -0.116649        -3.1742
  33   0.0000      -0.014909        -0.4057
  34   0.0000       0.010435         0.2840
  35   0.0000       0.023935         0.6513
  36   0.0000       0.025625         0.6973

MULLIKEN ATOMIC CHARGES AND SPIN POPULATIONS
--------------------------------------------
   0 C :    1.116744    0.109782
   1 C :   -0.603739    0.105019
   2 C :   -0.906992    0.058718
   3 H :    0.416770   -0.003886
   4 H :    0.142668   -0.001760
   5 C :   -0.671931    0.057369
   6 C :    1.073172    0.084903
   7 H :    0.447757    0.000607
   8 C :    0.556371    0.123624
   9 O :   -1.166961    0.246244
  10 O :   -1.167151    0.236223
  11 C :   -0.761412   -0.030193
  12 H :    0.183313    0.007441
  13 H :    0.183423    0.007384
  14 H :    0.157968   -0.001475
Sum of atomic charges         :   -1.0000000

LOEWDIN ATOMIC CHARGES AND SPIN POPULATIONS
-------------------------------------------
   0 C :   -0.702008    0.122292
   1 C :    0.140922    0.085960
   2 C :    0.165756    0.059188
   3 H :   -0.197172    0.009907
   4 H :   -0.192212    0.004640
   5 C :    0.145912    0.079469
   6 C :   -0.179456    0.074073
   7 H :   -0.196467    0.007348
   8 C :   -0.668933    0.131031
   9 O :    0.345022    0.209372
  10 O :    0.309116    0.203208
  11 C :    0.534967    0.008839
  12 H :   -0.167608    0.002498
  13 H :   -0.167641    0.002501
  14 H :   -0.170198   -0.000327

  Mayer bond orders larger than 0.100000
B(  0-C ,  1-C ) :   0.9135 B(  0-C ,  2-C ) :   0.8659 B(  0-C ,  5-C ) :  -0.1615
B(  0-C , 10-O ) :   0.3959 B(  1-C ,  2-C ) :   0.3902 B(  1-C ,  3-H ) :   0.4918
B(  1-C ,  5-C ) :   1.3694 B(  1-C ,  6-C ) :  -0.1307 B(  1-C ,  8-C ) :  -0.1176
B(  1-C , 10-O ) :   0.1777 B(  2-C ,  4-H ) :   0.8715 B(  2-C ,  5-C ) :  -0.2054
B(  2-C ,  6-C ) :   0.8673 B(  2-C , 10-O ) :   0.1022 B(  5-C ,  6-C ) :   0.2917
B(  5-C ,  7-H ) :   0.4257 B(  5-C ,  8-C ) :   1.1607 B(  5-C ,  9-O ) :   0.1633
B(  6-C ,  8-C ) :   0.9952 B(  6-C , 10-O ) :   0.1011 B(  6-C , 11-C ) :   0.2787
B(  8-C ,  9-O ) :   0.4832 B(  8-C , 11-C ) :   0.2442 B( 11-C , 12-H ) :   0.9827
B( 11-C , 13-H ) :   0.9829 B( 11-C , 14-H ) :   1.0320

Dispersion correction           -0.004481815
FINAL SINGLE POINT ENERGY      -420.870381020269

DIPOLE MOMENT
-------------

Method             : SCF
Type of density    : Electron Density
Multiplicity       :   2
Irrep              :   0
Energy             :  -420.8658992047845686 Eh
Relativity type    :
Basis              : AO
                                X                 Y                 Z
Electronic contribution:     -3.346331417      -1.050300483      -2.002658059
Nuclear contribution   :      4.080055806       1.268229623       2.595706688
                        -----------------------------------------
Total Dipole Moment    :      0.733724389       0.217929141       0.593048629
                        -----------------------------------------
Magnitude (a.u.)       :      0.968272310
Magnitude (Debye)      :      2.461152621

Rotational constants in cm-1:             0.102982             0.046318             0.032139
Rotational constants in MHz :          3087.332210          1388.578907           963.495969

                             ****ORCA TERMINATED NORMALLY****
TOTAL RUN TIME: 0 days 0 hours 2 minutes 37 seconds 107 msec
