                         Program Version 6.0.0  -   RELEASE  -
|  1> !r2SCANh aug-cc-pVTZ d3 TightSCF SlowConv RIJCOSX defgrid2
|  2>
|  3> %pal
|  4> nprocs 4
|  5> end
|  6>
|  7> %scf
|  8> MaxIter 1500
|  9> end
| 10>
| 11> %maxcore 3000
| 12>
| 13> !CPCM
| 14> %cpcm smd true
| 15> SMDsolvent "MeCN"
| 16> surfacetype gepol_ses
| 17> rsolv 2.19
| 18> end
| 19>
| 20> * xyz 0 1
| 21> C           0.72846885788564     -1.15784028584735      0.21465716565288
| 22> C          -0.72838872754133     -1.15789194996047     -0.21471105742009
| 23> H          -1.26566912672840     -2.02298179548787      0.20783755053784
| 24> H          -0.78257562442601     -1.21600334985238     -1.32347491994052
| 25> O          -1.37931475672951     -0.00004060434601      0.24203966695526
| 26> C          -0.72847338747200      1.15785118517467     -0.21468108863207
| 27> C           0.72838447904102      1.15790308826059      0.21468626317123
| 28> H           1.26566574586215      2.02299188926254     -0.20786185075861
| 29> H           0.78257095760651      1.21601527999336      1.32345042944719
| 30> O           1.37931078309740      0.00005102545162     -0.24206320741713
| 31> H          -1.26580107006212      2.02291673363735      0.20786353677761
| 32> H          -0.78266679653089      1.21602011387656     -1.32344454690673
| 33> H           1.26579800052310     -2.02290574756220     -0.20788628184953
| 34> H           0.78266216547443     -1.21600808260041      1.32342094038269
| 35> *
| 36>
| 37>                          ****END OF INPUT****

CARTESIAN COORDINATES (ANGSTROEM)
---------------------------------
  C      0.728469   -1.157840    0.214657
  C     -0.728389   -1.157892   -0.214711
  H     -1.265669   -2.022982    0.207838
  H     -0.782576   -1.216003   -1.323475
  O     -1.379315   -0.000041    0.242040
  C     -0.728473    1.157851   -0.214681
  C      0.728384    1.157903    0.214686
  H      1.265666    2.022992   -0.207862
  H      0.782571    1.216015    1.323450
  O      1.379311    0.000051   -0.242063
  H     -1.265801    2.022917    0.207864
  H     -0.782667    1.216020   -1.323445
  H      1.265798   -2.022906   -0.207886
  H      0.782662   -1.216008    1.323421

 Total Charge           Charge          ....    0
 Multiplicity           Mult            ....    1
 Number of Electrons    NEL             ....   48
 Basis Dimension        Dim             ....  460

ORBITAL ENERGIES
----------------

  NO   OCC          E(Eh)            E(eV)
   0   2.0000     -19.122036      -520.3371
   1   2.0000     -19.122036      -520.3371
   2   2.0000     -10.193556      -277.3808
   3   2.0000     -10.193556      -277.3807
   4   2.0000     -10.193359      -277.3754
   5   2.0000     -10.193353      -277.3752
   6   2.0000      -1.066685       -29.0260
   7   2.0000      -1.029274       -28.0080
   8   2.0000      -0.771411       -20.9912
   9   2.0000      -0.683129       -18.5889
  10   2.0000      -0.656546       -17.8655
  11   2.0000      -0.561947       -15.2914
  12   2.0000      -0.496698       -13.5158
  13   2.0000      -0.473578       -12.8867
  14   2.0000      -0.460316       -12.5258
  15   2.0000      -0.457420       -12.4470
  16   2.0000      -0.434045       -11.8110
  17   2.0000      -0.378198       -10.2913
  18   2.0000      -0.362426        -9.8621
  19   2.0000      -0.350831        -9.5466
  20   2.0000      -0.338553        -9.2125
  21   2.0000      -0.286371        -7.7925
  22   2.0000      -0.272737        -7.4215
  23   2.0000      -0.224553        -6.1104
  24   0.0000       0.016769         0.4563
  25   0.0000       0.027272         0.7421
  26   0.0000       0.031676         0.8620
  27   0.0000       0.033638         0.9153
  28   0.0000       0.051872         1.4115

MULLIKEN ATOMIC CHARGES
-----------------------
   0 C :   -0.179014
   1 C :   -0.179029
   2 H :    0.284495
   3 H :    0.176529
   4 O :   -0.563926
   5 C :   -0.179067
   6 C :   -0.179094
   7 H :    0.284535
   8 H :    0.176502
   9 O :   -0.563884
  10 H :    0.284529
  11 H :    0.176474
  12 H :    0.284484
  13 H :    0.176466
Sum of atomic charges:    0.0000000

LOEWDIN ATOMIC CHARGES
----------------------
   0 C :    0.003933
   1 C :    0.003957
   2 H :   -0.146800
   3 H :   -0.144895
   4 O :    0.575496
   5 C :    0.003934
   6 C :    0.003957
   7 H :   -0.146801
   8 H :   -0.144895
   9 O :    0.575496
  10 H :   -0.146799
  11 H :   -0.144892
  12 H :   -0.146799
  13 H :   -0.144892

  Mayer bond orders larger than 0.100000
B(  0-C ,  1-C ) :   0.9157 B(  0-C ,  6-C ) :   0.1100 B(  0-C ,  9-O ) :   0.8631
B(  0-C , 12-H ) :   0.9183 B(  0-C , 13-H ) :   0.9753 B(  1-C ,  2-H ) :   0.9183
B(  1-C ,  3-H ) :   0.9752 B(  1-C ,  4-O ) :   0.8632 B(  1-C ,  5-C ) :   0.1100
B(  4-O ,  5-C ) :   0.8631 B(  5-C ,  6-C ) :   0.9157 B(  5-C , 10-H ) :   0.9183
B(  5-C , 11-H ) :   0.9753 B(  6-C ,  7-H ) :   0.9183 B(  6-C ,  8-H ) :   0.9753
B(  6-C ,  9-O ) :   0.8632

Dispersion correction           -0.002997051
FINAL SINGLE POINT ENERGY      -307.602712087823

DIPOLE MOMENT
-------------

Method             : SCF
Type of density    : Electron Density
Multiplicity       :   1
Irrep              :   0
Energy             :  -307.5997150372943452 Eh
Relativity type    :
Basis              : AO
                                X                 Y                 Z
Electronic contribution:     -0.000001586      -0.000000420      -0.000001786
Nuclear contribution   :      0.000000978       0.000001632       0.000000845
                        -----------------------------------------
Total Dipole Moment    :     -0.000000608       0.000001212      -0.000000941
                        -----------------------------------------
Magnitude (a.u.)       :      0.000001651
Magnitude (Debye)      :      0.000004196

Rotational constants in cm-1:             0.171669             0.158105             0.092537
Rotational constants in MHz :          5146.503570          4739.855940          2774.198272

                             ****ORCA TERMINATED NORMALLY****
TOTAL RUN TIME: 0 days 0 hours 2 minutes 39 seconds 475 msec
