                         Program Version 6.0.0  -   RELEASE  -
|  1> !r2SCAN freq aug-cc-pVTZ d3 TightSCF SlowConv RIJCOSX defgrid2
|  2>
|  3> %pal
|  4> nprocs 12
|  5> end
|  6>
|  7> %scf
|  8> MaxIter 1500
|  9> end
| 10>
| 11> %maxcore 5000
| 12>
| 13> !CPCM
| 14> %cpcm smd true
| 15> SMDsolvent "MeCN"
| 16> surfacetype gepol_ses
| 17> rsolv 2.19
| 18> end
| 19>
| 20> * xyz 0 1
| 21> C          -0.02681716311645      1.19523619317427     -0.00006953652293
| 22> C           1.36075250358599      1.22483403407787      0.00008731347257
| 23> C           2.03692335824194      0.01840496381050      0.00007161614857
| 24> C           1.39546539569675     -1.20978910139722      0.00036942353294
| 25> C           0.01136869657501     -1.21852592127554     -0.00005877886901
| 26> C          -0.71651458908022     -0.02229395468779     -0.00038883146827
| 27> C          -2.20350096161076     -0.08730764444235     -0.00099773994344
| 28> O          -2.77860960839862     -1.16788359841594     -0.00203918545655
| 29> C          -2.97673187148724      1.20020129935237     -0.00017295633234
| 30> H          -2.72604927105717      1.80064936195600      0.87761256828478
| 31> H          -2.72805501827851      1.80076003460005     -0.87855783795185
| 32> H          -4.04230394072297      0.98273629689606      0.00105976423295
| 33> H          -0.52707712621995     -2.15771996623890      0.00008853059644
| 34> H           1.97364327929206     -2.12489745146014      0.00075769362350
| 35> F           3.38791502258915      0.03742049515737     -0.00016446934350
| 36> H           1.91031225395073      2.15718997628209      0.00009229577618
| 37> H          -0.56635285995971      2.13307708261130      0.00058373021994
| 38> *
| 39>
| 40>                          ****END OF INPUT****

CARTESIAN COORDINATES (ANGSTROEM)
---------------------------------
  C     -0.026817    1.195236   -0.000070
  C      1.360753    1.224834    0.000087
  C      2.036923    0.018405    0.000072
  C      1.395465   -1.209789    0.000369
  C      0.011369   -1.218526   -0.000059
  C     -0.716515   -0.022294   -0.000389
  C     -2.203501   -0.087308   -0.000998
  O     -2.778610   -1.167884   -0.002039
  C     -2.976732    1.200201   -0.000173
  H     -2.726049    1.800649    0.877613
  H     -2.728055    1.800760   -0.878558
  H     -4.042304    0.982736    0.001060
  H     -0.527077   -2.157720    0.000089
  H      1.973643   -2.124897    0.000758
  F      3.387915    0.037420   -0.000164
  H      1.910312    2.157190    0.000092
  H     -0.566353    2.133077    0.000584

 Total Charge           Charge          ....    0
 Multiplicity           Mult            ....    1
 Number of Electrons    NEL             ....   72
 Basis Dimension        Dim             ....  621

ORBITAL ENERGIES
----------------

  NO   OCC          E(Eh)            E(eV)
   0   2.0000     -24.514890      -667.0841
   1   2.0000     -18.942274      -515.4455
   2   2.0000     -10.134998      -275.7873
   3   2.0000     -10.125464      -275.5279
   4   2.0000     -10.057520      -273.6790
   5   2.0000     -10.054608      -273.5998
   6   2.0000     -10.053317      -273.5647
   7   2.0000     -10.051497      -273.5151
   8   2.0000     -10.051432      -273.5134
   9   2.0000     -10.026698      -272.8403
  10   2.0000      -1.198453       -32.6116
  11   2.0000      -1.003008       -27.2932
  12   2.0000      -0.842211       -22.9177
  13   2.0000      -0.746400       -20.3106
  14   2.0000      -0.734536       -19.9877
  15   2.0000      -0.697044       -18.9675
  16   2.0000      -0.606123       -16.4934
  17   2.0000      -0.597746       -16.2655
  18   2.0000      -0.527308       -14.3488
  19   2.0000      -0.519020       -14.1233
  20   2.0000      -0.468017       -12.7354
  21   2.0000      -0.449285       -12.2257
  22   2.0000      -0.442236       -12.0339
  23   2.0000      -0.423522       -11.5246
  24   2.0000      -0.411499       -11.1974
  25   2.0000      -0.405600       -11.0369
  26   2.0000      -0.397712       -10.8223
  27   2.0000      -0.377627       -10.2757
  28   2.0000      -0.365667        -9.9503
  29   2.0000      -0.351366        -9.5611
  30   2.0000      -0.345357        -9.3977
  31   2.0000      -0.326279        -8.8785
  32   2.0000      -0.317277        -8.6336
  33   2.0000      -0.255217        -6.9448
  34   2.0000      -0.240981        -6.5574
  35   2.0000      -0.222407        -6.0520
  36   0.0000      -0.086524        -2.3544
  37   0.0000      -0.049979        -1.3600
  38   0.0000       0.006327         0.1722
  39   0.0000       0.007132         0.1941
  40   0.0000       0.019877         0.5409

MULLIKEN ATOMIC CHARGES
-----------------------
   0 C :   -0.275680
   1 C :   -0.905184
   2 C :    0.678938
   3 C :   -0.707153
   4 C :   -0.746305
   5 C :    1.408491
   6 C :    0.777022
   7 O :   -0.958824
   8 C :   -0.521125
   9 H :    0.234984
  10 H :    0.235846
  11 H :    0.151082
  12 H :    0.160601
  13 H :    0.449683
  14 F :   -0.520785
  15 H :    0.419491
  16 H :    0.118915
Sum of atomic charges:    0.0000000

LOEWDIN ATOMIC CHARGES
----------------------
   0 C :    0.208479
   1 C :    0.215121
   2 C :   -0.524995
   3 C :    0.210761
   4 C :    0.195889
   5 C :   -0.132290
   6 C :   -0.543965
   7 O :    0.476396
   8 C :    0.578814
   9 H :   -0.163859
  10 H :   -0.163648
  11 H :   -0.181363
  12 H :   -0.187452
  13 H :   -0.171563
  14 F :    0.534741
  15 H :   -0.170729
  16 H :   -0.180339

  Mayer bond orders larger than 0.100000
B(  0-C ,  1-C ) :   0.7594 B(  0-C ,  2-C ) :  -0.2630 B(  0-C ,  3-C ) :  -0.1769
B(  0-C ,  4-C ) :  -0.3185 B(  0-C ,  5-C ) :   0.4673 B(  0-C , 16-H ) :   1.2293
B(  1-C ,  2-C ) :   1.3577 B(  1-C ,  3-C ) :   0.2944 B(  1-C , 14-F ) :   0.1895
B(  1-C , 15-H ) :   0.5204 B(  2-C ,  3-C ) :   1.3569 B(  2-C ,  4-C ) :  -0.3491
B(  2-C , 14-F ) :   0.2941 B(  3-C ,  4-C ) :   1.2328 B(  3-C , 13-H ) :   0.4757
B(  3-C , 14-F ) :   0.1848 B(  3-C , 16-H ) :  -0.1010 B(  4-C ,  5-C ) :   0.2315
B(  4-C ,  6-C ) :   0.2277 B(  4-C , 12-H ) :   0.9982 B(  4-C , 16-H ) :   0.1131
B(  5-C ,  6-C ) :   0.3422 B(  5-C ,  7-O ) :   0.1592 B(  5-C ,  8-C ) :   0.1315
B(  5-C , 16-H ) :  -0.1533 B(  6-C ,  7-O ) :   0.8215 B(  6-C ,  8-C ) :   0.9033
B(  7-O , 12-H ) :   0.1300 B(  8-C ,  9-H ) :   0.9689 B(  8-C , 10-H ) :   0.9681
B(  8-C , 11-H ) :   0.9576 B( 12-H , 16-H ) :   0.1197 B( 13-H , 14-F ) :   0.1113
B( 14-F , 15-H ) :   0.1028

Dispersion correction           -0.005224290
FINAL SINGLE POINT ENERGY      -484.077096287798

DIPOLE MOMENT
-------------

Method             : SCF
Type of density    : Electron Density
Multiplicity       :   1
Irrep              :   0
Energy             :  -484.0718719981908293 Eh
Relativity type    :
Basis              : AO
                                X                 Y                 Z
Electronic contribution:      9.832069192      -2.902216801      -0.001558086
Nuclear contribution   :     -9.459463611       4.261059345       0.003623980
                        -----------------------------------------
Total Dipole Moment    :      0.372605582       1.358842544       0.002065894
                        -----------------------------------------
Magnitude (a.u.)       :      1.409003991
Magnitude (Debye)      :      3.581403527

VIBRATIONAL FREQUENCIES
-----------------------

Scaling factor for frequencies =  1.000000000  (already applied!)

     0:       0.00 cm**-1
     1:       0.00 cm**-1
     2:       0.00 cm**-1
     3:       0.00 cm**-1
     4:       0.00 cm**-1
     5:       0.00 cm**-1
     6:      40.52 cm**-1
     7:     101.10 cm**-1
     8:     156.10 cm**-1
     9:     196.64 cm**-1
    10:     287.95 cm**-1
    11:     339.66 cm**-1
    12:     398.27 cm**-1
    13:     418.86 cm**-1
    14:     468.70 cm**-1
    15:     493.75 cm**-1
    16:     571.58 cm**-1
    17:     589.69 cm**-1
    18:     639.23 cm**-1
    19:     688.23 cm**-1
    20:     735.91 cm**-1
    21:     818.14 cm**-1
    22:     838.71 cm**-1
    23:     846.74 cm**-1
    24:     955.58 cm**-1
    25:     965.10 cm**-1
    26:     986.80 cm**-1
    27:    1023.49 cm**-1
    28:    1029.59 cm**-1
    29:    1087.58 cm**-1
    30:    1109.40 cm**-1
    31:    1157.08 cm**-1
    32:    1223.14 cm**-1
    33:    1270.87 cm**-1
    34:    1305.98 cm**-1
    35:    1355.30 cm**-1
    36:    1378.20 cm**-1
    37:    1431.64 cm**-1
    38:    1438.60 cm**-1
    39:    1444.12 cm**-1
    40:    1519.16 cm**-1
    41:    1618.00 cm**-1
    42:    1625.67 cm**-1
    43:    1698.14 cm**-1
    44:    3031.60 cm**-1
    45:    3097.17 cm**-1
    46:    3145.43 cm**-1
    47:    3186.40 cm**-1
    48:    3190.15 cm**-1
    49:    3199.26 cm**-1
    50:    3202.76 cm**-1

IR SPECTRUM
-----------

 Mode   freq       eps      Int      T**2         TX        TY        TZ
       cm**-1   L/(mol*cm) km/mol    a.u.
----------------------------------------------------------------------------
  6:     40.52   0.001186    5.99  0.009134  (-0.000743 -0.000604  0.095569)
  7:    101.10   0.000364    1.84  0.001124  ( 0.000245 -0.000265  0.033522)
  8:    156.10   0.000089    0.45  0.000178  ( 0.000883 -0.000106  0.013329)
  9:    196.64   0.001809    9.14  0.002871  ( 0.050554 -0.017753  0.000060)
 10:    287.95   0.000149    0.75  0.000161  ( 0.000233  0.000113  0.012684)
 11:    339.66   0.000625    3.16  0.000574  ( 0.014793  0.018856  0.000219)
 12:    398.27   0.001397    7.06  0.001095  (-0.009630 -0.031658 -0.000049)
 13:    418.86   0.000003    0.01  0.000002  (-0.000074  0.000098  0.001381)
 14:    468.70   0.000646    3.27  0.000430  (-0.019942  0.005705  0.000333)
 15:    493.75   0.003472   17.55  0.002194  (-0.000008  0.000019 -0.046844)
 16:    571.58   0.014120   71.36  0.007709  (-0.085686  0.019152 -0.000062)
 17:    589.69   0.004691   23.71  0.002483  (-0.000035 -0.000062  0.049825)
 18:    639.23   0.000095    0.48  0.000046  (-0.001610  0.006611 -0.000132)
 19:    688.23   0.000460    2.33  0.000209  ( 0.011821  0.008302  0.000117)
 20:    735.91   0.000024    0.12  0.000010  (-0.000235 -0.000041  0.003153)
 21:    818.14   0.001203    6.08  0.000459  ( 0.000335 -0.000343 -0.021415)
 22:    838.71   0.009393   47.47  0.003495  (-0.058942 -0.003631  0.002760)
 23:    846.74   0.023536  118.94  0.008674  ( 0.001455  0.000251  0.093122)
 24:    955.58   0.016666   84.22  0.005443  (-0.068922  0.026314 -0.000003)
 25:    965.10   0.000125    0.63  0.000041  ( 0.004215 -0.001233  0.004614)
 26:    986.80   0.000076    0.38  0.000024  (-0.000374 -0.000542  0.004853)
 27:   1023.49   0.003648   18.44  0.001112  (-0.033112  0.003977  0.000258)
 28:   1029.59   0.000692    3.49  0.000210  ( 0.000408 -0.000170  0.014471)
 29:   1087.58   0.000306    1.55  0.000088  (-0.001565  0.009235  0.000062)
 30:   1109.40   0.005083   25.69  0.001430  ( 0.005728 -0.037376 -0.000086)
 31:   1157.08   0.030033  151.77  0.008100  (-0.089998  0.000372 -0.000182)
 32:   1223.14   0.038429  194.20  0.009804  ( 0.098877  0.005271 -0.000030)
 33:   1270.87   0.074567  376.83  0.018310  (-0.134534  0.014504 -0.000058)
 34:   1305.98   0.002206   11.15  0.000527  (-0.019067  0.012788  0.000051)
 35:   1355.30   0.023982  121.19  0.005522  (-0.047930  0.056786  0.000209)
 36:   1378.20   0.004043   20.43  0.000916  ( 0.029773  0.005397 -0.000020)
 37:   1431.64   0.006993   35.34  0.001524  ( 0.034513 -0.018249  0.000085)
 38:   1438.60   0.007886   39.85  0.001711  ( 0.030099  0.028364  0.000501)
 39:   1444.12   0.003358   16.97  0.000726  (-0.000679 -0.000907  0.026912)
 40:   1519.16   0.010962   55.40  0.002252  (-0.047308 -0.003706 -0.000017)
 41:   1618.00   0.060849  307.51  0.011736  ( 0.107559  0.012925 -0.000004)
 42:   1625.67   0.005950   30.07  0.001142  (-0.024526 -0.023253  0.000069)
 43:   1698.14   0.074119  374.57  0.013621  (-0.063882 -0.097671 -0.000155)
 44:   3031.60   0.000118    0.60  0.000012  (-0.001913 -0.002911  0.000030)
 45:   3097.17   0.000967    4.89  0.000097  ( 0.000009 -0.000169 -0.009872)
 46:   3145.43   0.004952   25.02  0.000491  (-0.022142 -0.001007 -0.000078)
 47:   3186.40   0.000268    1.35  0.000026  (-0.003863 -0.003365 -0.000070)
 48:   3190.15   0.000728    3.68  0.000071  ( 0.007089 -0.004577  0.000070)
 49:   3199.26   0.001323    6.69  0.000129  ( 0.009226 -0.006630 -0.000030)
 50:   3202.76   0.000668    3.38  0.000065  ( 0.006723  0.004462 -0.000067)

--------------------------
THERMOCHEMISTRY AT 298.15K
--------------------------

Temperature         ...   298.15 K
Pressure            ...     1.00 atm
Total Mass          ...   138.14 AMU
Quasi RRHO          ...     True
Cut-Off Frequency   ...     1.00 cm^-1

Throughout the following assumptions are being made:
  (1) The electronic state is orbitally nondegenerate
  (2) There are no thermally accessible electronically excited states
  (3) Hindered rotations indicated by low frequency modes are not
      treated as such but are treated as vibrations and this may
      cause some error
  (4) All equations used are the standard statistical mechanics
      equations for an ideal gas
  (5) All vibrations are strictly harmonic

freq.      40.52  E(vib)   ...       0.54
freq.     101.10  E(vib)   ...       0.46
freq.     156.10  E(vib)   ...       0.40
freq.     196.64  E(vib)   ...       0.36
freq.     287.95  E(vib)   ...       0.27
freq.     339.66  E(vib)   ...       0.23
freq.     398.27  E(vib)   ...       0.20
freq.     418.86  E(vib)   ...       0.18
freq.     468.70  E(vib)   ...       0.16
freq.     493.75  E(vib)   ...       0.14
freq.     571.58  E(vib)   ...       0.11
freq.     589.69  E(vib)   ...       0.10
freq.     639.23  E(vib)   ...       0.09
freq.     688.23  E(vib)   ...       0.07
freq.     735.91  E(vib)   ...       0.06
freq.     818.14  E(vib)   ...       0.05
freq.     838.71  E(vib)   ...       0.04
freq.     846.74  E(vib)   ...       0.04
freq.     955.58  E(vib)   ...       0.03
freq.     965.10  E(vib)   ...       0.03
freq.     986.80  E(vib)   ...       0.02
freq.    1023.49  E(vib)   ...       0.02
freq.    1029.59  E(vib)   ...       0.02
freq.    1087.58  E(vib)   ...       0.02
freq.    1109.40  E(vib)   ...       0.02
freq.    1157.08  E(vib)   ...       0.01
freq.    1223.14  E(vib)   ...       0.01
freq.    1270.87  E(vib)   ...       0.01
freq.    1305.98  E(vib)   ...       0.01
freq.    1355.30  E(vib)   ...       0.01
freq.    1378.20  E(vib)   ...       0.01
freq.    1431.64  E(vib)   ...       0.00
freq.    1438.60  E(vib)   ...       0.00
freq.    1444.12  E(vib)   ...       0.00
freq.    1519.16  E(vib)   ...       0.00
freq.    1618.00  E(vib)   ...       0.00
freq.    1625.67  E(vib)   ...       0.00
freq.    1698.14  E(vib)   ...       0.00
freq.    3031.60  E(vib)   ...       0.00
freq.    3097.17  E(vib)   ...       0.00
freq.    3145.43  E(vib)   ...       0.00
freq.    3186.40  E(vib)   ...       0.00
freq.    3190.15  E(vib)   ...       0.00
freq.    3199.26  E(vib)   ...       0.00
freq.    3202.76  E(vib)   ...       0.00

------------
INNER ENERGY
------------

The inner energy is: U= E(el) + E(ZPE) + E(vib) + E(rot) + E(trans)
    E(el)   - is the total energy from the electronic structure calculation
              = E(kin-el) + E(nuc-el) + E(el-el) + E(nuc-nuc)
    E(ZPE)  - the the zero temperature vibrational energy from the frequency calculation
    E(vib)  - the the finite temperature correction to E(ZPE) due to population
              of excited vibrational states
    E(rot)  - is the rotational thermal energy
    E(trans)- is the translational thermal energy

Summary of contributions to the inner energy U:
Electronic energy                ...   -484.07709629 Eh
Zero point energy                ...      0.12827460 Eh      80.49 kcal/mol
Thermal vibrational correction   ...      0.00592846 Eh       3.72 kcal/mol
Thermal rotational correction    ...      0.00141627 Eh       0.89 kcal/mol
Thermal translational correction ...      0.00141627 Eh       0.89 kcal/mol
-----------------------------------------------------------------------
Total thermal energy                   -483.94006068 Eh

Summary of corrections to the electronic energy:
(perhaps to be used in another calculation)
Total thermal correction                  0.00876101 Eh       5.50 kcal/mol
Non-thermal (ZPE) correction              0.12827460 Eh      80.49 kcal/mol
-----------------------------------------------------------------------
Total correction                          0.13703561 Eh      85.99 kcal/mol

--------
ENTHALPY
--------

The enthalpy is H = U + kB*T
                kB is Boltzmann's constant
Total thermal energy              ...   -483.94006068 Eh
Thermal Enthalpy correction       ...      0.00094421 Eh       0.59 kcal/mol
-----------------------------------------------------------------------
Total Enthalpy                    ...   -483.93911647 Eh

Note: Only C1 symmetry has been detected, increase convergence thresholds
      if your molecule has a higher symmetry. Symmetry factor of 1.0 is
      used for the rotational entropy correction.

Note: Rotational entropy computed according to Herzberg
Infrared and Raman Spectra, Chapter V,1, Van Nostrand Reinhold, 1945
Point Group:  C1, Symmetry Number:   1
Rotational constants in cm-1:     0.122665     0.025967     0.021515

Vibrational entropy computed according to the QRRHO of S. Grimme
Chem.Eur.J. 2012 18 9955 using a reference frequency of 100.0 cm-1

-------
ENTROPY
-------

The entropy contributions are T*S = T*(S(el)+S(vib)+S(rot)+S(trans))
     S(el)   - electronic entropy
     S(vib)  - vibrational entropy
     S(rot)  - rotational entropy
     S(trans)- translational entropy
The entropies will be listed as multiplied by the temperature to get
units of energy

Electronic entropy                ...      0.00000000 Eh      0.00 kcal/mol
Vibrational entropy               ...      0.00999073 Eh      6.27 kcal/mol
Rotational entropy                ...      0.01403731 Eh      8.81 kcal/mol
Translational entropy             ...      0.01932885 Eh     12.13 kcal/mol
-----------------------------------------------------------------------
Final entropy term                ...      0.04335689 Eh     27.21 kcal/mol

In case the symmetry of your molecule has not been determined correctly
or in case you have a reason to use a different symmetry number we print
out the resulting rotational entropy values for sn=1,12:

 non-linear molecules -----------------------------------
|  sn= 1 | S(rot)=       0.01403731 Eh      8.81 kcal/mol|
|  sn= 2 | S(rot)=       0.01338286 Eh      8.40 kcal/mol|
|  sn= 3 | S(rot)=       0.01300003 Eh      8.16 kcal/mol|
|  sn= 4 | S(rot)=       0.01272840 Eh      7.99 kcal/mol|
|  sn= 5 | S(rot)=       0.01251771 Eh      7.85 kcal/mol|
|  sn= 6 | S(rot)=       0.01234557 Eh      7.75 kcal/mol|
|  sn= 7 | S(rot)=       0.01220002 Eh      7.66 kcal/mol|
|  sn= 8 | S(rot)=       0.01207395 Eh      7.58 kcal/mol|
|  sn= 9 | S(rot)=       0.01196274 Eh      7.51 kcal/mol|
|  sn=10 | S(rot)=       0.01186326 Eh      7.44 kcal/mol|
|  sn=11 | S(rot)=       0.01177327 Eh      7.39 kcal/mol|
|  sn=12 | S(rot)=       0.01169111 Eh      7.34 kcal/mol|
 linear molecules ---------------------------------------
|  Dinfh | S(rot)=       0.00895050 Eh      5.62 kcal/mol|
|  Cinfv | S(rot)=       0.00960496 Eh      6.03 kcal/mol|

                             ****ORCA TERMINATED NORMALLY****
TOTAL RUN TIME: 0 days 0 hours 18 minutes 26 seconds 789 msec
