                         Program Version 6.0.0  -   RELEASE  -
|  1> !PBE0 aug-cc-pVTZ d3 TightSCF SlowConv RIJCOSX defgrid2
|  2>
|  3> %pal
|  4> nprocs 4
|  5> end
|  6>
|  7> %scf
|  8> MaxIter 1500
|  9> end
| 10>
| 11> %maxcore 3000
| 12>
| 13> !CPCM
| 14> %cpcm smd true
| 15> SMDsolvent "MeCN"
| 16> surfacetype gepol_ses
| 17> rsolv 2.19
| 18> end
| 19>
| 20> * xyz 0 1
| 21> C          -1.26495799748714      1.18303865458515      0.05080403605519
| 22> C          -2.60642333061191      1.31935448376271     -0.29959738324645
| 23> C          -3.44041280440145      0.20926539307814     -0.40161517964085
| 24> C          -2.90144082973563     -1.04973716221060     -0.13432170008440
| 25> C          -1.56825148928729     -1.19660014660261      0.22866378768858
| 26> C          -0.70934318580896     -0.08154664486827      0.33051202673951
| 27> N           0.61300953805947     -0.24105226876837      0.73119077146847
| 28> C           1.39986976374892     -1.37999096255953      0.29877427512661
| 29> H           2.04607670863121     -1.70992958583228      1.13451664570021
| 30> H           0.75114664396039     -2.22334685848636      0.02620697927589
| 31> C           2.27342120561242     -0.99223084807636     -0.89055156639513
| 32> H           1.61932266943223     -0.77011165873748     -1.76181164136710
| 33> H           2.95180872338646     -1.81692724050040     -1.16544343627529
| 34> O           3.08315300113024      0.11581273484299     -0.59570720798542
| 35> C           2.32868138086657      1.23424748204123     -0.20294123693064
| 36> H           3.04807602292032      2.03579294537700      0.03304751449273
| 37> H           1.68319853015679      1.57652212178956     -1.04065762734244
| 38> C           1.46842283993869      0.89253788749959      1.00660143146740
| 39> H           0.87499689376841      1.75339469243703      1.34646905231102
| 40> H           2.14234577335657      0.61412921846987      1.83973084130833
| 41> H          -1.19667964735529     -2.19528020638703      0.46959053777193
| 42> H          -3.53417239713040     -1.94099462889459     -0.19414702188547
| 43> H          -4.49070441202665      0.32074363292367     -0.68354523209589
| 44> H          -2.99695664778230      2.31986039355180     -0.51119940816597
| 45> H          -0.64456005334168      2.08028887156514      0.08361514200918
| 46> *
| 47>
| 48>                          ****END OF INPUT****

CARTESIAN COORDINATES (ANGSTROEM)
---------------------------------
  C     -1.264958    1.183039    0.050804
  C     -2.606423    1.319354   -0.299597
  C     -3.440413    0.209265   -0.401615
  C     -2.901441   -1.049737   -0.134322
  C     -1.568251   -1.196600    0.228664
  C     -0.709343   -0.081547    0.330512
  N      0.613010   -0.241052    0.731191
  C      1.399870   -1.379991    0.298774
  H      2.046077   -1.709930    1.134517
  H      0.751147   -2.223347    0.026207
  C      2.273421   -0.992231   -0.890552
  H      1.619323   -0.770112   -1.761812
  H      2.951809   -1.816927   -1.165443
  O      3.083153    0.115813   -0.595707
  C      2.328681    1.234247   -0.202941
  H      3.048076    2.035793    0.033048
  H      1.683199    1.576522   -1.040658
  C      1.468423    0.892538    1.006601
  H      0.874997    1.753395    1.346469
  H      2.142346    0.614129    1.839731
  H     -1.196680   -2.195280    0.469591
  H     -3.534172   -1.940995   -0.194147
  H     -4.490704    0.320744   -0.683545
  H     -2.996957    2.319860   -0.511199
  H     -0.644560    2.080289    0.083615

 Total Charge           Charge          ....    0
 Multiplicity           Mult            ....    1
 Number of Electrons    NEL             ....   88
 Basis Dimension        Dim             ....  851

ORBITAL ENERGIES
----------------

  NO   OCC          E(Eh)            E(eV)
   0   2.0000     -19.214404      -522.8505
   1   2.0000     -14.401364      -391.8810
   2   2.0000     -10.271789      -279.5096
   3   2.0000     -10.263646      -279.2880
   4   2.0000     -10.263567      -279.2859
   5   2.0000     -10.249056      -278.8910
   6   2.0000     -10.248182      -278.8672
   7   2.0000     -10.227771      -278.3118
   8   2.0000     -10.227733      -278.3108
   9   2.0000     -10.222089      -278.1572
  10   2.0000     -10.221903      -278.1521
  11   2.0000     -10.217461      -278.0313
  12   2.0000      -1.077522       -29.3209
  13   2.0000      -0.975966       -26.5574
  14   2.0000      -0.871431       -23.7128
  15   2.0000      -0.796164       -21.6647
  16   2.0000      -0.775333       -21.0979
  17   2.0000      -0.764422       -20.8010
  18   2.0000      -0.700264       -19.0551
  19   2.0000      -0.679598       -18.4928
  20   2.0000      -0.627659       -17.0795
  21   2.0000      -0.614652       -16.7255
  22   2.0000      -0.578768       -15.7491
  23   2.0000      -0.546072       -14.8594
  24   2.0000      -0.504776       -13.7357
  25   2.0000      -0.493419       -13.4266
  26   2.0000      -0.487101       -13.2547
  27   2.0000      -0.481019       -13.0892
  28   2.0000      -0.472205       -12.8493
  29   2.0000      -0.449971       -12.2443
  30   2.0000      -0.442048       -12.0287
  31   2.0000      -0.428441       -11.6585
  32   2.0000      -0.419117       -11.4048
  33   2.0000      -0.400152       -10.8887
  34   2.0000      -0.385270       -10.4837
  35   2.0000      -0.372802       -10.1444
  36   2.0000      -0.365640        -9.9496
  37   2.0000      -0.360061        -9.7978
  38   2.0000      -0.340204        -9.2574
  39   2.0000      -0.333166        -9.0659
  40   2.0000      -0.304233        -8.2786
  41   2.0000      -0.274168        -7.4605
  42   2.0000      -0.266542        -7.2530
  43   2.0000      -0.201262        -5.4766
  44   0.0000      -0.009337        -0.2541
  45   0.0000       0.000336         0.0091
  46   0.0000       0.003989         0.1085
  47   0.0000       0.012897         0.3510
  48   0.0000       0.015492         0.4215

MULLIKEN ATOMIC CHARGES
-----------------------
   0 C :   -0.485621
   1 C :   -0.954615
   2 C :   -0.659109
   3 C :   -0.757910
   4 C :   -0.847649
   5 C :    1.541591
   6 N :   -0.004994
   7 C :   -0.621436
   8 H :    0.244559
   9 H :    0.217399
  10 C :   -0.143031
  11 H :    0.244320
  12 H :    0.241566
  13 O :   -0.667804
  14 C :   -0.093889
  15 H :    0.284250
  16 H :    0.266276
  17 C :   -0.697574
  18 H :    0.169429
  19 H :    0.209247
  20 H :    0.445161
  21 H :    0.511867
  22 H :    0.637262
  23 H :    0.487230
  24 H :    0.433474
Sum of atomic charges:    0.0000000

LOEWDIN ATOMIC CHARGES
----------------------
   0 C :    0.206549
   1 C :    0.168784
   2 C :    0.162238
   3 C :    0.167547
   4 C :    0.207360
   5 C :   -0.221163
   6 N :    0.275321
   7 C :    0.186399
   8 H :   -0.117226
   9 H :   -0.159339
  10 C :    0.030518
  11 H :   -0.130827
  12 H :   -0.139600
  13 O :    0.594806
  14 C :    0.028272
  15 H :   -0.138372
  16 H :   -0.134783
  17 C :    0.175050
  18 H :   -0.149729
  19 H :   -0.120454
  20 H :   -0.181677
  21 H :   -0.169197
  22 H :   -0.180314
  23 H :   -0.168921
  24 H :   -0.191241

  Mayer bond orders larger than 0.100000
B(  0-C ,  1-C ) :   1.2049 B(  0-C ,  2-C ) :   0.2240 B(  0-C ,  5-C ) :   0.5902
B(  0-C ,  6-N ) :  -0.2945 B(  0-C , 24-H ) :   0.6218 B(  1-C ,  2-C ) :   1.4081
B(  1-C ,  5-C ) :  -0.3090 B(  1-C , 23-H ) :   0.5831 B(  2-C ,  3-C ) :   1.3350
B(  2-C ,  4-C ) :   0.1981 B(  2-C ,  5-C ) :  -0.1675 B(  2-C , 22-H ) :   0.3089
B(  3-C ,  4-C ) :   1.3822 B(  3-C ,  5-C ) :  -0.2848 B(  3-C , 21-H ) :   0.5695
B(  4-C ,  5-C ) :   0.4853 B(  4-C , 20-H ) :   0.5562 B(  5-C ,  6-N ) :   0.3665
B(  5-C ,  7-C ) :  -0.1528 B(  6-N ,  7-C ) :   1.0938 B(  6-N , 17-C ) :   1.0832
B(  7-C ,  8-H ) :   0.9365 B(  7-C ,  9-H ) :   0.9271 B(  7-C , 10-C ) :   1.0070
B(  7-C , 13-O ) :   0.1141 B(  7-C , 17-C ) :   0.2297 B( 10-C , 11-H ) :   0.9257
B( 10-C , 12-H ) :   0.9378 B( 10-C , 13-O ) :   0.8689 B( 13-O , 14-C ) :   0.8222
B( 13-O , 17-C ) :   0.1148 B( 14-C , 15-H ) :   0.9155 B( 14-C , 16-H ) :   0.9350
B( 14-C , 17-C ) :   0.9464 B( 17-C , 18-H ) :   1.0040 B( 17-C , 19-H ) :   0.9100

Dispersion correction           -0.024747265
FINAL SINGLE POINT ENERGY      -518.455802477883

DIPOLE MOMENT
-------------

Method             : SCF
Type of density    : Electron Density
Multiplicity       :   1
Irrep              :   0
Energy             :  -518.4310552128044947 Eh
Relativity type    :
Basis              : AO
                                X                 Y                 Z
Electronic contribution:     -1.879981798      -0.096933209       0.503961433
Nuclear contribution   :      2.172114398       0.028135231      -0.411191187
                        -----------------------------------------
Total Dipole Moment    :      0.292132600      -0.068797978       0.092770247
                        -----------------------------------------
Magnitude (a.u.)       :      0.314135220
Magnitude (Debye)      :      0.798468274

Rotational constants in cm-1:             0.074060             0.019927             0.017479
Rotational constants in MHz :          2220.259535           597.392551           524.016525

                             ****ORCA TERMINATED NORMALLY****
TOTAL RUN TIME: 0 days 0 hours 10 minutes 17 seconds 531 msec
