                         Program Version 6.0.0  -   RELEASE  -
|  1> !TPSSh aug-cc-pVTZ d3 TightSCF SlowConv RIJCOSX defgrid2
|  2>
|  3> %pal
|  4> nprocs 4
|  5> end
|  6>
|  7> %scf
|  8> MaxIter 1500
|  9> end
| 10>
| 11> %maxcore 3000
| 12>
| 13> !CPCM
| 14> %cpcm smd true
| 15> SMDsolvent "MeCN"
| 16> surfacetype gepol_ses
| 17> rsolv 2.19
| 18> end
| 19>
| 20> * xyz 1 2
| 21> C           4.10305459754862      1.22314281313599      0.00027521208978
| 22> C           4.79422039490347      0.00010404925663      0.00001474520982
| 23> C           4.10316750393443     -1.22299872812941     -0.00027809333468
| 24> C           2.72290951060849     -1.23322125226980     -0.00030728966902
| 25> C           2.00889918594533     -0.00002719804681     -0.00003028315102
| 26> C           2.72279658019783      1.23323312421706      0.00025720757138
| 27> H           2.16604305248318      2.17317802213121      0.00045841677356
| 28> C           0.61901432200333     -0.00007429013767     -0.00003574573307
| 29> C          -0.61901896459109     -0.00007733941421     -0.00002817694639
| 30> C          -2.00890183862324     -0.00001737756946      0.00000366265820
| 31> C          -2.72291439835066     -1.23320607784155      0.00031293455070
| 32> C          -4.10317069141964     -1.22298169255025      0.00034320554116
| 33> C          -4.79421968584138      0.00012496763477      0.00007504669623
| 34> C          -4.10304842490867      1.22316147289229     -0.00022860923121
| 35> C          -2.72279167353165      1.23324700039037     -0.00027265723971
| 36> H          -2.16603414552242      2.17318982303946     -0.00050220004345
| 37> H          -4.65909006495211      2.16415224923801     -0.00043329601508
| 38> H          -5.88829015885600      0.00017960004272      0.00010113825142
| 39> H          -4.65930720000531     -2.16391674544739      0.00057854154628
| 40> H          -2.16624983163931     -2.17320454462336      0.00052121598527
| 41> H           2.16624496851568     -2.17322025060010     -0.00052876061055
| 42> H           4.65930013671208     -2.16393287374248     -0.00048580415313
| 43> H           5.88829198918564      0.00015431021773      0.00003862697270
| 44> H           4.65910043620338      2.16413103817623      0.00049636228080
| 45> *
| 46>
| 47>                          ****END OF INPUT****

CARTESIAN COORDINATES (ANGSTROEM)
---------------------------------
  C      4.103055    1.223143    0.000275
  C      4.794220    0.000104    0.000015
  C      4.103168   -1.222999   -0.000278
  C      2.722910   -1.233221   -0.000307
  C      2.008899   -0.000027   -0.000030
  C      2.722797    1.233233    0.000257
  H      2.166043    2.173178    0.000458
  C      0.619014   -0.000074   -0.000036
  C     -0.619019   -0.000077   -0.000028
  C     -2.008902   -0.000017    0.000004
  C     -2.722914   -1.233206    0.000313
  C     -4.103171   -1.222982    0.000343
  C     -4.794220    0.000125    0.000075
  C     -4.103048    1.223161   -0.000229
  C     -2.722792    1.233247   -0.000273
  H     -2.166034    2.173190   -0.000502
  H     -4.659090    2.164152   -0.000433
  H     -5.888290    0.000180    0.000101
  H     -4.659307   -2.163917    0.000579
  H     -2.166250   -2.173205    0.000521
  H      2.166245   -2.173220   -0.000529
  H      4.659300   -2.163933   -0.000486
  H      5.888292    0.000154    0.000039
  H      4.659100    2.164131    0.000496

 Total Charge           Charge          ....    1
 Multiplicity           Mult            ....    2
 Number of Electrons    NEL             ....   93
 Basis Dimension        Dim             ....  874

ORBITAL ENERGIES
----------------
                 SPIN UP ORBITALS
  NO   OCC          E(Eh)            E(eV)
   0   1.0000     -10.186286      -277.1829
   1   1.0000     -10.186281      -277.1828
   2   1.0000     -10.180561      -277.0272
   3   1.0000     -10.178834      -276.9802
   4   1.0000     -10.161045      -276.4961
   5   1.0000     -10.161042      -276.4960
   6   1.0000     -10.159344      -276.4498
   7   1.0000     -10.159337      -276.4496
   8   1.0000     -10.159335      -276.4495
   9   1.0000     -10.159333      -276.4495
  10   1.0000     -10.145080      -276.0617
  11   1.0000     -10.145077      -276.0616
  12   1.0000     -10.145076      -276.0616
  13   1.0000     -10.145072      -276.0614
  14   1.0000      -0.881096       -23.9758
  15   1.0000      -0.875173       -23.8147
  16   1.0000      -0.817557       -22.2469
  17   1.0000      -0.783501       -21.3201
  18   1.0000      -0.761132       -20.7114
  19   1.0000      -0.760948       -20.7064
  20   1.0000      -0.737083       -20.0570
  21   1.0000      -0.654742       -17.8164
  22   1.0000      -0.624177       -16.9847
  23   1.0000      -0.617024       -16.7901
  24   1.0000      -0.615376       -16.7452
  25   1.0000      -0.555021       -15.1029
  26   1.0000      -0.539160       -14.6713
  27   1.0000      -0.495094       -13.4722
  28   1.0000      -0.485930       -13.2228
  29   1.0000      -0.471997       -12.8437
  30   1.0000      -0.465995       -12.6804
  31   1.0000      -0.441247       -12.0069
  32   1.0000      -0.436832       -11.8868
  33   1.0000      -0.431636       -11.7454
  34   1.0000      -0.431316       -11.7367
  35   1.0000      -0.417336       -11.3563
  36   1.0000      -0.397245       -10.8096
  37   1.0000      -0.368141       -10.0176
  38   1.0000      -0.365032        -9.9330
  39   1.0000      -0.360798        -9.8178
  40   1.0000      -0.354846        -9.6558
  41   1.0000      -0.351686        -9.5699
  42   1.0000      -0.300774        -8.1845
  43   1.0000      -0.300431        -8.1751
  44   1.0000      -0.279827        -7.6145
  45   1.0000      -0.279706        -7.6112
  46   1.0000      -0.247326        -6.7301
  47   0.0000      -0.111536        -3.0351
  48   0.0000      -0.051701        -1.4068
  49   0.0000      -0.050265        -1.3678
  50   0.0000      -0.050214        -1.3664
  51   0.0000      -0.015464        -0.4208

                 SPIN DOWN ORBITALS
  NO   OCC          E(Eh)            E(eV)
   0   1.0000     -10.185471      -277.1607
   1   1.0000     -10.185465      -277.1606
   2   1.0000     -10.177911      -276.9551
   3   1.0000     -10.176193      -276.9083
   4   1.0000     -10.157916      -276.4109
   5   1.0000     -10.157913      -276.4109
   6   1.0000     -10.157765      -276.4068
   7   1.0000     -10.157759      -276.4067
   8   1.0000     -10.157756      -276.4066
   9   1.0000     -10.157754      -276.4065
  10   1.0000     -10.145860      -276.0829
  11   1.0000     -10.145856      -276.0828
  12   1.0000     -10.145854      -276.0827
  13   1.0000     -10.145849      -276.0826
  14   1.0000      -0.876758       -23.8578
  15   1.0000      -0.871556       -23.7162
  16   1.0000      -0.810503       -22.0549
  17   1.0000      -0.779488       -21.2110
  18   1.0000      -0.759719       -20.6730
  19   1.0000      -0.759546       -20.6683
  20   1.0000      -0.727579       -19.7984
  21   1.0000      -0.650748       -17.7077
  22   1.0000      -0.620674       -16.8894
  23   1.0000      -0.615142       -16.7389
  24   1.0000      -0.613455       -16.6929
  25   1.0000      -0.553704       -15.0671
  26   1.0000      -0.538272       -14.6471
  27   1.0000      -0.493015       -13.4156
  28   1.0000      -0.484265       -13.1775
  29   1.0000      -0.470639       -12.8067
  30   1.0000      -0.464698       -12.6451
  31   1.0000      -0.439739       -11.9659
  32   1.0000      -0.435341       -11.8462
  33   1.0000      -0.431340       -11.7374
  34   1.0000      -0.431045       -11.7293
  35   1.0000      -0.402635       -10.9562
  36   1.0000      -0.386587       -10.5196
  37   1.0000      -0.367191        -9.9918
  38   1.0000      -0.364287        -9.9127
  39   1.0000      -0.359686        -9.7875
  40   1.0000      -0.353980        -9.6323
  41   1.0000      -0.333193        -9.0666
  42   1.0000      -0.297248        -8.0885
  43   1.0000      -0.284056        -7.7295
  44   1.0000      -0.275526        -7.4974
  45   1.0000      -0.275446        -7.4953
  46   0.0000      -0.206857        -5.6289
  47   0.0000      -0.095110        -2.5881
  48   0.0000      -0.045745        -1.2448
  49   0.0000      -0.044140        -1.2011
  50   0.0000      -0.036117        -0.9828

MULLIKEN ATOMIC CHARGES AND SPIN POPULATIONS
--------------------------------------------
   0 C :   -0.635049   -0.055380
   1 C :    0.144160    0.204916
   2 C :   -0.653913   -0.055400
   3 C :   -0.734569    0.090263
   4 C :    1.209001    0.068593
   5 C :   -0.756921    0.090434
   6 H :   -0.387305    0.000465
   7 C :    1.267265    0.160677
   8 C :    1.238889    0.160592
   9 C :    1.227808    0.067561
  10 C :   -0.745819    0.090630
  11 C :   -0.691065   -0.054441
  12 C :    0.140301    0.204346
  13 C :   -0.674666   -0.054852
  14 C :   -0.753463    0.090737
  15 H :   -0.409216    0.000740
  16 H :    0.531453   -0.002313
  17 H :    0.461907   -0.000895
  18 H :    0.550758   -0.002014
  19 H :   -0.401976    0.000121
  20 H :   -0.297762   -0.000517
  21 H :    0.480884   -0.002756
  22 H :    0.375991    0.001334
  23 H :    0.513306   -0.002840
Sum of atomic charges         :    1.0000000

LOEWDIN ATOMIC CHARGES AND SPIN POPULATIONS
-------------------------------------------
   0 C :    0.242942    0.021924
   1 C :    0.252482    0.095857
   2 C :    0.242941    0.021925
   3 C :    0.243432    0.053922
   4 C :   -0.159627    0.079528
   5 C :    0.243431    0.053923
   6 H :   -0.144214    0.008761
   7 C :    0.173606    0.140116
   8 C :    0.173606    0.140125
   9 C :   -0.159652    0.079518
  10 C :    0.243416    0.053917
  11 C :    0.242922    0.021923
  12 C :    0.252474    0.095848
  13 C :    0.242928    0.021922
  14 C :    0.243417    0.053920
  15 H :   -0.144218    0.008761
  16 H :   -0.153043   -0.003351
  17 H :   -0.144633    0.021997
  18 H :   -0.153034   -0.003351
  19 H :   -0.144218    0.008760
  20 H :   -0.144190    0.008760
  21 H :   -0.153060   -0.003351
  22 H :   -0.144655    0.021999
  23 H :   -0.153053   -0.003352

  Mayer bond orders larger than 0.100000
B(  0-C ,  1-C ) :   1.2579 B(  0-C ,  2-C ) :   0.2549 B(  0-C ,  3-C ) :   0.1201
B(  0-C ,  4-C ) :   0.1969 B(  0-C ,  5-C ) :   1.6207 B(  0-C ,  7-C ) :   0.2232
B(  0-C ,  8-C ) :  -0.4411 B(  0-C , 23-H ) :   0.3807 B(  1-C ,  2-C ) :   1.2335
B(  1-C ,  3-C ) :  -0.2746 B(  1-C ,  4-C ) :  -0.3541 B(  1-C ,  5-C ) :  -0.2877
B(  1-C ,  6-H ) :  -0.1555 B(  1-C ,  8-C ) :   0.6800 B(  1-C , 20-H ) :  -0.1353
B(  1-C , 21-H ) :   0.1644 B(  1-C , 22-H ) :   0.6366 B(  1-C , 23-H ) :   0.1808
B(  2-C ,  3-C ) :   1.6324 B(  2-C ,  4-C ) :   0.2053 B(  2-C ,  5-C ) :   0.1673
B(  2-C ,  7-C ) :   0.2568 B(  2-C ,  8-C ) :  -0.5141 B(  2-C , 21-H ) :   0.4172
B(  3-C ,  4-C ) :   0.4317 B(  3-C ,  5-C ) :  -0.6049 B(  3-C ,  6-H ) :   0.2229
B(  3-C ,  7-C ) :   0.1086 B(  3-C ,  9-C ) :   0.1268 B(  3-C , 20-H ) :   1.8382
B(  3-C , 21-H ) :  -0.1828 B(  4-C ,  5-C ) :   0.3609 B(  4-C ,  6-H ) :   0.3095
B(  4-C ,  7-C ) :   0.2029 B(  4-C ,  8-C ) :  -0.1194 B(  4-C ,  9-C ) :   0.2269
B(  4-C , 10-C ) :   0.1084 B(  4-C , 14-C ) :   0.1031 B(  4-C , 15-H ) :  -0.1016
B(  4-C , 16-H ) :   0.1189 B(  4-C , 18-H ) :   0.1192 B(  4-C , 20-H ) :   0.3244
B(  4-C , 21-H ) :   0.1267 B(  4-C , 23-H ) :   0.1390 B(  5-C ,  6-H ) :   2.0293
B(  5-C ,  7-C ) :   0.1413 B(  5-C ,  9-C ) :   0.1102 B(  5-C , 20-H ) :   0.1948
B(  5-C , 23-H ) :  -0.2309 B(  6-H ,  7-C ) :  -0.4935 B(  6-H ,  8-C ) :  -0.4944
B(  6-H ,  9-C ) :  -0.1016 B(  6-H , 20-H ) :   0.4064 B(  6-H , 23-H ) :  -0.1377
B(  7-C ,  8-C ) :   4.0275 B(  7-C , 11-C ) :  -0.5641 B(  7-C , 12-C ) :   0.6115
B(  7-C , 13-C ) :  -0.5658 B(  7-C , 15-H ) :  -0.5514 B(  7-C , 17-H ) :   0.4894
B(  7-C , 18-H ) :   0.1025 B(  7-C , 19-H ) :  -0.5271 B(  7-C , 20-H ) :  -0.5950
B(  7-C , 21-H ) :   0.2740 B(  7-C , 22-H ) :  -0.2367 B(  7-C , 23-H ) :   0.1993
B(  8-C ,  9-C ) :   0.1889 B(  8-C , 11-C ) :   0.3240 B(  8-C , 13-C ) :   0.3260
B(  8-C , 14-C ) :   0.1109 B(  8-C , 15-H ) :  -0.4656 B(  8-C , 16-H ) :   0.1986
B(  8-C , 17-H ) :  -0.3862 B(  8-C , 18-H ) :   0.1740 B(  8-C , 19-H ) :  -0.4796
B(  8-C , 20-H ) :  -0.2581 B(  8-C , 22-H ) :   0.2713 B(  9-C , 10-C ) :   0.3820
B(  9-C , 11-C ) :   0.2184 B(  9-C , 12-C ) :  -0.3386 B(  9-C , 13-C ) :   0.2160
B(  9-C , 14-C ) :   0.3669 B(  9-C , 15-H ) :   0.2873 B(  9-C , 16-H ) :   0.1389
B(  9-C , 18-H ) :   0.1272 B(  9-C , 19-H ) :   0.2896 B(  9-C , 22-H ) :  -0.1023
B(  9-C , 23-H ) :   0.1045 B( 10-C , 11-C ) :   1.6643 B( 10-C , 12-C ) :  -0.2844
B( 10-C , 13-C ) :   0.1377 B( 10-C , 14-C ) :  -0.6251 B( 10-C , 15-H ) :   0.2315
B( 10-C , 18-H ) :  -0.2147 B( 10-C , 19-H ) :   2.0229 B( 11-C , 12-C ) :   1.2774
B( 11-C , 13-C ) :   0.2985 B( 11-C , 14-C ) :   0.1459 B( 11-C , 18-H ) :   0.2808
B( 12-C , 13-C ) :   1.2695 B( 12-C , 14-C ) :  -0.3031 B( 12-C , 15-H ) :  -0.1200
B( 12-C , 16-H ) :   0.2040 B( 12-C , 17-H ) :   0.5545 B( 12-C , 18-H ) :   0.2079
B( 12-C , 19-H ) :  -0.1194 B( 13-C , 14-C ) :   1.6477 B( 13-C , 16-H ) :   0.3006
B( 14-C , 15-H ) :   2.0646 B( 14-C , 16-H ) :  -0.2247 B( 14-C , 19-H ) :   0.2408
B( 15-H , 16-H ) :  -0.1510 B( 15-H , 18-H ) :  -0.1353 B( 15-H , 19-H ) :   0.4868
B( 16-H , 19-H ) :  -0.1237 B( 18-H , 19-H ) :  -0.1612

Dispersion correction           -0.032170691
FINAL SINGLE POINT ENERGY      -539.521867672859

DIPOLE MOMENT
-------------

Method             : SCF
Type of density    : Electron Density
Multiplicity       :   2
Irrep              :   0
Energy             :  -539.4896969821312496 Eh
Relativity type    :
Basis              : AO
                                X                 Y                 Z
Electronic contribution:      0.000325848      -0.000217403      -0.000137908
Nuclear contribution   :      0.000010392       0.000370111       0.000152227
                        -----------------------------------------
Total Dipole Moment    :      0.000336240       0.000152708       0.000014319
                        -----------------------------------------
Magnitude (a.u.)       :      0.000369571
Magnitude (Debye)      :      0.000939374

Rotational constants in cm-1:             0.092188             0.008430             0.007724
Rotational constants in MHz :          2763.733748           252.731480           231.556631

                             ****ORCA TERMINATED NORMALLY****
TOTAL RUN TIME: 0 days 0 hours 14 minutes 1 seconds 738 msec
