                         Program Version 6.0.0  -   RELEASE  -
|  1> !PBE0 aug-cc-pVTZ d3 TightSCF SlowConv RIJCOSX defgrid2
|  2>
|  3> %pal
|  4> nprocs 4
|  5> end
|  6>
|  7> %scf
|  8> MaxIter 1500
|  9> end
| 10>
| 11> %maxcore 3000
| 12>
| 13> !CPCM
| 14> %cpcm smd true
| 15> SMDsolvent "MeCN"
| 16> surfacetype gepol_ses
| 17> rsolv 2.19
| 18> end
| 19>
| 20> * xyz 1 2
| 21> C           1.36337197862367      0.00925782782262      0.00042331345329
| 22> C           0.74822645901465      1.29296895528656      0.00038316234352
| 23> C          -0.61529602246028      1.39626207073000      0.00023060917101
| 24> C          -1.42835414240665      0.22289484643639      0.00009324782531
| 25> C          -0.81975705014986     -1.06228254929373      0.00009847310954
| 26> C           0.54832834357610     -1.16073135173507      0.00023403456932
| 27> H           1.01965556748509     -2.14817388841103      0.00023835116044
| 28> H          -1.42717703035162     -1.96898347753981      0.00000365697629
| 29> O          -2.71426815111900      0.42982708435483     -0.00003024655139
| 30> C          -3.65743877124361     -0.63904368121668     -0.00016458675956
| 31> H          -4.64491010243250     -0.16049105257969     -0.00025717007063
| 32> H          -3.53752517507174     -1.25276547158578     -0.90821236062697
| 33> H          -3.53771725035146     -1.25281703649443      0.90787613291043
| 34> H          -1.11664261012245      2.36720004312394      0.00019734665612
| 35> H           1.36186872975284      2.19800021241604      0.00046058429736
| 36> S           3.05618464536732     -0.23274264105176      0.00049319565771
| 37> H           3.42654608188951      1.07420050973759     -0.00198104412179
| 38> *
| 39>
| 40>                          ****END OF INPUT****

CARTESIAN COORDINATES (ANGSTROEM)
---------------------------------
  C      1.363372    0.009258    0.000423
  C      0.748226    1.292969    0.000383
  C     -0.615296    1.396262    0.000231
  C     -1.428354    0.222895    0.000093
  C     -0.819757   -1.062283    0.000098
  C      0.548328   -1.160731    0.000234
  H      1.019656   -2.148174    0.000238
  H     -1.427177   -1.968983    0.000004
  O     -2.714268    0.429827   -0.000030
  C     -3.657439   -0.639044   -0.000165
  H     -4.644910   -0.160491   -0.000257
  H     -3.537525   -1.252765   -0.908212
  H     -3.537717   -1.252817    0.907876
  H     -1.116643    2.367200    0.000197
  H      1.361869    2.198000    0.000461
  S      3.056185   -0.232743    0.000493
  H      3.426546    1.074201   -0.001981

 Total Charge           Charge          ....    1
 Multiplicity           Mult            ....    2
 Number of Electrons    NEL             ....   73
 Basis Dimension        Dim             ....  602

ORBITAL ENERGIES
----------------
                 SPIN UP ORBITALS
  NO   OCC          E(Eh)            E(eV)
   0   1.0000     -89.125262     -2425.2217
   1   1.0000     -19.309267      -525.4319
   2   1.0000     -10.357244      -281.8349
   3   1.0000     -10.332300      -281.1562
   4   1.0000     -10.290781      -280.0264
   5   1.0000     -10.285822      -279.8914
   6   1.0000     -10.281628      -279.7773
   7   1.0000     -10.276399      -279.6350
   8   1.0000     -10.276007      -279.6244
   9   1.0000      -8.082532      -219.9369
  10   1.0000      -6.018568      -163.7736
  11   1.0000      -6.016540      -163.7184
  12   1.0000      -6.014615      -163.6660
  13   1.0000      -1.171864       -31.8880
  14   1.0000      -0.942985       -25.6599
  15   1.0000      -0.870590       -23.6900
  16   1.0000      -0.824963       -22.4484
  17   1.0000      -0.796446       -21.6724
  18   1.0000      -0.736418       -20.0390
  19   1.0000      -0.677941       -18.4477
  20   1.0000      -0.643737       -17.5170
  21   1.0000      -0.589691       -16.0463
  22   1.0000      -0.559173       -15.2159
  23   1.0000      -0.533492       -14.5171
  24   1.0000      -0.532607       -14.4930
  25   1.0000      -0.491678       -13.3792
  26   1.0000      -0.478517       -13.0211
  27   1.0000      -0.471627       -12.8336
  28   1.0000      -0.450060       -12.2468
  29   1.0000      -0.444483       -12.0950
  30   1.0000      -0.411825       -11.2063
  31   1.0000      -0.406785       -11.0692
  32   1.0000      -0.402662       -10.9570
  33   1.0000      -0.374039       -10.1781
  34   1.0000      -0.345952        -9.4138
  35   1.0000      -0.318194        -8.6585
  36   1.0000      -0.266108        -7.2412
  37   0.0000      -0.057967        -1.5774
  38   0.0000      -0.050251        -1.3674
  39   0.0000      -0.017721        -0.4822
  40   0.0000       0.001503         0.0409
  41   0.0000       0.005215         0.1419

                 SPIN DOWN ORBITALS
  NO   OCC          E(Eh)            E(eV)
   0   1.0000     -89.123454     -2425.1725
   1   1.0000     -19.304356      -525.2982
   2   1.0000     -10.354404      -281.7576
   3   1.0000     -10.328271      -281.0465
   4   1.0000     -10.290958      -280.0312
   5   1.0000     -10.285127      -279.8725
   6   1.0000     -10.281661      -279.7782
   7   1.0000     -10.275385      -279.6074
   8   1.0000     -10.275282      -279.6046
   9   1.0000      -8.080664      -219.8861
  10   1.0000      -6.017517      -163.7450
  11   1.0000      -6.013646      -163.6396
  12   1.0000      -6.010092      -163.5429
  13   1.0000      -1.162550       -31.6346
  14   1.0000      -0.935308       -25.4510
  15   1.0000      -0.861912       -23.4538
  16   1.0000      -0.822739       -22.3879
  17   1.0000      -0.791706       -21.5434
  18   1.0000      -0.727414       -19.7939
  19   1.0000      -0.673478       -18.3263
  20   1.0000      -0.638896       -17.3852
  21   1.0000      -0.586971       -15.9723
  22   1.0000      -0.557149       -15.1608
  23   1.0000      -0.529072       -14.3968
  24   1.0000      -0.514975       -14.0132
  25   1.0000      -0.489097       -13.3090
  26   1.0000      -0.477553       -12.9949
  27   1.0000      -0.469247       -12.7689
  28   1.0000      -0.442634       -12.0447
  29   1.0000      -0.431800       -11.7499
  30   1.0000      -0.409777       -11.1506
  31   1.0000      -0.398183       -10.8351
  32   1.0000      -0.387128       -10.5343
  33   1.0000      -0.371118       -10.0986
  34   1.0000      -0.315864        -8.5951
  35   1.0000      -0.312191        -8.4951
  36   0.0000      -0.182827        -4.9750
  37   0.0000      -0.039517        -1.0753
  38   0.0000      -0.029599        -0.8054
  39   0.0000      -0.015865        -0.4317
  40   0.0000       0.002588         0.0704

MULLIKEN ATOMIC CHARGES AND SPIN POPULATIONS
--------------------------------------------
   0 C :    0.604947    0.195865
   1 C :   -0.674759   -0.010252
   2 C :   -0.814858    0.051520
   3 C :    1.019175    0.175709
   4 C :   -0.404372    0.032204
   5 C :   -0.768424    0.048500
   6 H :    0.610852   -0.002489
   7 H :    0.575864    0.012208
   8 O :   -0.549349    0.156714
   9 C :   -0.704847   -0.012774
  10 H :    0.277139    0.001008
  11 H :    0.330921    0.007706
  12 H :    0.330625    0.007445
  13 H :    0.677279    0.005060
  14 H :    0.536950    0.000658
  15 S :   -0.228287    0.357401
  16 H :    0.181144   -0.026484
Sum of atomic charges         :    1.0000000

LOEWDIN ATOMIC CHARGES AND SPIN POPULATIONS
-------------------------------------------
   0 C :   -0.547333    0.167804
   1 C :    0.176279    0.044101
   2 C :    0.259158    0.065971
   3 C :   -0.349953    0.132634
   4 C :    0.261361    0.061966
   5 C :    0.157022    0.060925
   6 H :   -0.156656    0.003450
   7 H :   -0.155359    0.005783
   8 O :    0.648268    0.141295
   9 C :    0.413774    0.014800
  10 H :   -0.155056   -0.000364
  11 H :   -0.144772    0.003925
  12 H :   -0.144723    0.003925
  13 H :   -0.140263    0.007224
  14 H :   -0.157326   -0.000232
  15 S :    1.494380    0.250059
  16 H :   -0.458800    0.036733

  Mayer bond orders larger than 0.100000
B(  0-C ,  1-C ) :   0.9597 B(  0-C ,  5-C ) :   1.1510 B(  0-C , 15-S ) :   0.7578
B(  1-C ,  2-C ) :   1.6964 B(  1-C ,  3-C ) :  -0.2443 B(  1-C , 13-H ) :   0.1031
B(  1-C , 14-H ) :   0.4843 B(  2-C ,  3-C ) :   0.7782 B(  2-C ,  4-C ) :   0.1028
B(  2-C ,  8-O ) :   0.2676 B(  2-C , 13-H ) :   0.1602 B(  3-C ,  4-C ) :   0.9932
B(  3-C ,  5-C ) :  -0.2253 B(  3-C ,  8-O ) :   0.6431 B(  4-C ,  5-C ) :   1.3268
B(  4-C ,  7-H ) :   0.3222 B(  4-C ,  8-O ) :  -0.1229 B(  5-C ,  6-H ) :   0.4383
B(  8-O ,  9-C ) :   0.9842 B(  9-C , 10-H ) :   0.9475 B(  9-C , 11-H ) :   0.8613
B(  9-C , 12-H ) :   0.8616 B( 15-S , 16-H ) :   1.0157

Dispersion correction           -0.016008096
FINAL SINGLE POINT ENERGY      -744.384236826749

DIPOLE MOMENT
-------------

Method             : SCF
Type of density    : Electron Density
Multiplicity       :   2
Irrep              :   0
Energy             :  -744.3682287306760372 Eh
Relativity type    :
Basis              : AO
                                X                 Y                 Z
Electronic contribution:      7.768838211       0.888832943       0.001676855
Nuclear contribution   :     -8.043505047      -1.005233306      -0.003147719
                        -----------------------------------------
Total Dipole Moment    :     -0.274666837      -0.116400363      -0.001470864
                        -----------------------------------------
Magnitude (a.u.)       :      0.298317078
Magnitude (Debye)      :      0.758261752

Rotational constants in cm-1:             0.155356             0.023594             0.020567
Rotational constants in MHz :          4657.467859           707.342014           616.570776

                             ****ORCA TERMINATED NORMALLY****
TOTAL RUN TIME: 0 days 0 hours 6 minutes 29 seconds 60 msec
