                         Program Version 6.0.0  -   RELEASE  -
|  1> !B3LYP aug-cc-pVTZ d3 TightSCF SlowConv RIJCOSX defgrid2
|  2>
|  3> %pal
|  4> nprocs 4
|  5> end
|  6>
|  7> %scf
|  8> MaxIter 1500
|  9> end
| 10>
| 11> %maxcore 3000
| 12>
| 13> !CPCM
| 14> %cpcm smd true
| 15> SMDsolvent "MeCN"
| 16> surfacetype gepol_ses
| 17> rsolv 2.19
| 18> end
| 19>
| 20> * xyz 0 1
| 21> C           1.70794904224376      1.04467574002160     -0.00082115823630
| 22> C           0.54506091843343      1.80041636987342      0.00092727542514
| 23> C          -0.71995737134675      1.20789382518015      0.00266725175734
| 24> C          -0.79928034034382     -0.18958869725345      0.00203404950996
| 25> C           0.36555187029785     -0.96292788679972     -0.00127682462626
| 26> C           1.62853570763603     -0.36210788791669     -0.00033727635058
| 27> N           2.77536570496609     -1.13072452733301      0.04605337906448
| 28> H           2.68782736481958     -2.09774939602609     -0.24334837672475
| 29> H           3.63153622370525     -0.68698285577236     -0.26446400959356
| 30> H           0.26012985099536     -2.05117646749275      0.00119199205899
| 31> O          -1.95887797909201     -0.88292631196206      0.00111465750073
| 32> C          -3.16473217214371     -0.17733625608172      0.00517658162857
| 33> H          -3.96763161416444     -0.93012200833219      0.00565020749220
| 34> H          -3.27146637162925      0.46046835612956     -0.89370073464759
| 35> H          -3.26716187551626      0.45698983325543      0.90693586054833
| 36> H          -1.61360225529630      1.83287965977611      0.00353042246975
| 37> H           0.61871381842504      2.89254399544489      0.00007743154790
| 38> H           2.68668417801016      1.53365321528886      0.00373907117562
| 39> *
| 40>
| 41>                          ****END OF INPUT****

CARTESIAN COORDINATES (ANGSTROEM)
---------------------------------
  C      1.707949    1.044676   -0.000821
  C      0.545061    1.800416    0.000927
  C     -0.719957    1.207894    0.002667
  C     -0.799280   -0.189589    0.002034
  C      0.365552   -0.962928   -0.001277
  C      1.628536   -0.362108   -0.000337
  N      2.775366   -1.130725    0.046053
  H      2.687827   -2.097749   -0.243348
  H      3.631536   -0.686983   -0.264464
  H      0.260130   -2.051176    0.001192
  O     -1.958878   -0.882926    0.001115
  C     -3.164732   -0.177336    0.005177
  H     -3.967632   -0.930122    0.005650
  H     -3.271466    0.460468   -0.893701
  H     -3.267162    0.456990    0.906936
  H     -1.613602    1.832880    0.003530
  H      0.618714    2.892544    0.000077
  H      2.686684    1.533653    0.003739

 Total Charge           Charge          ....    0
 Multiplicity           Mult            ....    1
 Number of Electrons    NEL             ....   66
 Basis Dimension        Dim             ....  621

ORBITAL ENERGIES
----------------

  NO   OCC          E(Eh)            E(eV)
   0   2.0000     -19.157000      -521.2885
   1   2.0000     -14.315175      -389.5357
   2   2.0000     -10.232910      -278.4516
   3   2.0000     -10.215387      -277.9748
   4   2.0000     -10.212796      -277.9043
   5   2.0000     -10.174200      -276.8541
   6   2.0000     -10.160776      -276.4888
   7   2.0000     -10.160531      -276.4821
   8   2.0000     -10.160504      -276.4814
   9   2.0000      -1.072882       -29.1946
  10   2.0000      -0.915427       -24.9100
  11   2.0000      -0.832941       -22.6655
  12   2.0000      -0.753354       -20.4998
  13   2.0000      -0.722717       -19.6661
  14   2.0000      -0.686494       -18.6804
  15   2.0000      -0.608138       -16.5483
  16   2.0000      -0.585921       -15.9437
  17   2.0000      -0.533455       -14.5161
  18   2.0000      -0.512239       -13.9387
  19   2.0000      -0.479579       -13.0500
  20   2.0000      -0.465824       -12.6757
  21   2.0000      -0.464282       -12.6338
  22   2.0000      -0.455527       -12.3955
  23   2.0000      -0.416371       -11.3300
  24   2.0000      -0.401528       -10.9261
  25   2.0000      -0.388393       -10.5687
  26   2.0000      -0.366724        -9.9791
  27   2.0000      -0.358475        -9.7546
  28   2.0000      -0.339965        -9.2509
  29   2.0000      -0.323815        -8.8114
  30   2.0000      -0.298177        -8.1138
  31   2.0000      -0.227003        -6.1771
  32   2.0000      -0.205615        -5.5951
  33   0.0000      -0.007388        -0.2010
  34   0.0000      -0.003997        -0.1088
  35   0.0000       0.005922         0.1611
  36   0.0000       0.011408         0.3104
  37   0.0000       0.011800         0.3211

MULLIKEN ATOMIC CHARGES
-----------------------
   0 C :   -0.827184
   1 C :   -0.375951
   2 C :   -0.502353
   3 C :    1.134316
   4 C :   -1.160672
   5 C :    1.223407
   6 N :   -0.611146
   7 H :    0.042258
   8 H :    0.044797
   9 H :    0.350042
  10 O :   -0.668438
  11 C :   -0.642991
  12 H :    0.253928
  13 H :    0.255268
  14 H :    0.257572
  15 H :    0.420060
  16 H :    0.420657
  17 H :    0.386429
Sum of atomic charges:    0.0000000

LOEWDIN ATOMIC CHARGES
----------------------
   0 C :    0.190947
   1 C :    0.155796
   2 C :    0.177817
   3 C :   -0.423530
   4 C :    0.205612
   5 C :   -0.280828
   6 N :    0.848242
   7 H :   -0.283225
   8 H :   -0.284009
   9 H :   -0.170597
  10 O :    0.590829
  11 C :    0.305722
  12 H :   -0.169550
  13 H :   -0.160511
  14 H :   -0.160528
  15 H :   -0.198829
  16 H :   -0.170057
  17 H :   -0.173300

  Mayer bond orders larger than 0.100000
B(  0-C ,  1-C ) :   1.1475 B(  0-C ,  2-C ) :   0.3327 B(  0-C ,  3-C ) :  -0.1794
B(  0-C ,  4-C ) :   0.5668 B(  0-C ,  5-C ) :   0.6014 B(  0-C , 17-H ) :   0.6310
B(  1-C ,  2-C ) :   0.8676 B(  1-C ,  3-C ) :  -0.2582 B(  1-C ,  4-C ) :  -0.1588
B(  1-C ,  5-C ) :  -0.1928 B(  1-C , 16-H ) :   0.6972 B(  2-C ,  3-C ) :   0.8504
B(  2-C ,  4-C ) :   0.4953 B(  2-C ,  5-C ) :  -0.1602 B(  2-C , 10-O ) :  -0.1088
B(  2-C , 15-H ) :   0.5868 B(  3-C ,  4-C ) :   0.4472 B(  3-C ,  5-C ) :  -0.1091
B(  3-C , 10-O ) :   0.3457 B(  4-C ,  5-C ) :   0.6092 B(  4-C ,  9-H ) :   0.5710
B(  4-C , 10-O ) :   0.3005 B(  5-C ,  6-N ) :   0.5423 B(  5-C ,  9-H ) :   0.1049
B(  6-N ,  7-H ) :   1.1062 B(  6-N ,  8-H ) :   1.1094 B( 10-O , 11-C ) :   1.0073
B( 11-C , 12-H ) :   0.9498 B( 11-C , 13-H ) :   0.9328 B( 11-C , 14-H ) :   0.9319

Dispersion correction           -0.029634214
FINAL SINGLE POINT ENERGY      -402.085036470436

DIPOLE MOMENT
-------------

Method             : SCF
Type of density    : Electron Density
Multiplicity       :   1
Irrep              :   0
Energy             :  -402.0554022567204697 Eh
Relativity type    :
Basis              : AO
                                X                 Y                 Z
Electronic contribution:      2.266845607      -1.312523421       0.028798803
Nuclear contribution   :     -2.112843888       1.316658506      -0.469607068
                        -----------------------------------------
Total Dipole Moment    :      0.154001720       0.004135085      -0.440808265
                        -----------------------------------------
Magnitude (a.u.)       :      0.466953483
Magnitude (Debye)      :      1.186901430

Rotational constants in cm-1:             0.120502             0.037824             0.028965
Rotational constants in MHz :          3612.547947          1133.927652           868.354096

                             ****ORCA TERMINATED NORMALLY****
TOTAL RUN TIME: 0 days 0 hours 3 minutes 11 seconds 162 msec
