                         Program Version 6.0.0  -   RELEASE  -
|  1> !r2SCAN freq aug-cc-pVTZ d3 TightSCF SlowConv RIJCOSX defgrid2
|  2>
|  3> %pal
|  4> nprocs 12
|  5> end
|  6>
|  7> %scf
|  8> MaxIter 1500
|  9> end
| 10>
| 11> %maxcore 5000
| 12>
| 13> !CPCM
| 14> %cpcm smd true
| 15> SMDsolvent "MeCN"
| 16> surfacetype gepol_ses
| 17> rsolv 2.19
| 18> end
| 19>
| 20> * xyz -1 2
| 21> C          -0.02209031189497      1.20103549471552     -0.00039342790321
| 22> C           1.36095182691816      1.22375361961308      0.00016349986117
| 23> C           2.05584477830694      0.01586524145800      0.00009246172658
| 24> C           1.40105242515963     -1.21247353600492     -0.00101627854856
| 25> C           0.01906104170465     -1.23461671136680     -0.00136609275864
| 26> C          -0.75771191726383     -0.02818259919930     -0.00045797248655
| 27> C          -2.18520264956955     -0.08953013054024      0.00168492626163
| 28> O          -2.82430017589905     -1.19652971287463      0.00576319011910
| 29> C          -2.97039795569546      1.20877730002224     -0.00076521330209
| 30> H          -2.75954956052127      1.83095928012921      0.87782029706777
| 31> H          -2.75416125966457      1.83110004839273     -0.87791871541015
| 32> H          -4.03550628365318      0.97528683200990     -0.00389266733316
| 33> H          -0.50994279576951     -2.18009034647918     -0.00207888810379
| 34> H           1.97902885602859     -2.13066477182254     -0.00161426707540
| 35> F           3.43261725654679      0.03967885258486      0.00124050388582
| 36> H           1.90628430710037      2.16117356249509      0.00087393905348
| 37> H          -0.55158578183376      2.14658737686699      0.00015560494601
| 38> *
| 39>
| 40>                          ****END OF INPUT****

CARTESIAN COORDINATES (ANGSTROEM)
---------------------------------
  C     -0.022090    1.201035   -0.000393
  C      1.360952    1.223754    0.000163
  C      2.055845    0.015865    0.000092
  C      1.401052   -1.212474   -0.001016
  C      0.019061   -1.234617   -0.001366
  C     -0.757712   -0.028183   -0.000458
  C     -2.185203   -0.089530    0.001685
  O     -2.824300   -1.196530    0.005763
  C     -2.970398    1.208777   -0.000765
  H     -2.759550    1.830959    0.877820
  H     -2.754161    1.831100   -0.877919
  H     -4.035506    0.975287   -0.003893
  H     -0.509943   -2.180090   -0.002079
  H      1.979029   -2.130665   -0.001614
  F      3.432617    0.039679    0.001241
  H      1.906284    2.161174    0.000874
  H     -0.551586    2.146587    0.000156

 Total Charge           Charge          ....   -1
 Multiplicity           Mult            ....    2
 Number of Electrons    NEL             ....   73
 Basis Dimension        Dim             ....  621

ORBITAL ENERGIES
----------------
                 SPIN UP ORBITALS
  NO   OCC          E(Eh)            E(eV)
   0   1.0000     -24.484483      -666.2566
   1   1.0000     -18.871586      -513.5220
   2   1.0000     -10.088102      -274.5112
   3   1.0000     -10.046805      -273.3875
   4   1.0000     -10.022212      -272.7183
   5   1.0000     -10.021831      -272.7079
   6   1.0000     -10.019784      -272.6522
   7   1.0000     -10.015011      -272.5223
   8   1.0000     -10.006904      -272.3017
   9   1.0000     -10.001482      -272.1542
  10   1.0000      -1.161218       -31.5984
  11   1.0000      -0.915410       -24.9096
  12   1.0000      -0.801276       -21.8038
  13   1.0000      -0.708480       -19.2787
  14   1.0000      -0.699828       -19.0433
  15   1.0000      -0.659186       -17.9374
  16   1.0000      -0.576374       -15.6839
  17   1.0000      -0.560652       -15.2561
  18   1.0000      -0.494118       -13.4456
  19   1.0000      -0.486369       -13.2348
  20   1.0000      -0.429102       -11.6765
  21   1.0000      -0.413170       -11.2429
  22   1.0000      -0.406687       -11.0665
  23   1.0000      -0.391866       -10.6632
  24   1.0000      -0.375273       -10.2117
  25   1.0000      -0.375082       -10.2065
  26   1.0000      -0.354833        -9.6555
  27   1.0000      -0.345883        -9.4119
  28   1.0000      -0.321781        -8.7561
  29   1.0000      -0.321462        -8.7474
  30   1.0000      -0.308709        -8.4004
  31   1.0000      -0.280218        -7.6251
  32   1.0000      -0.279895        -7.6163
  33   1.0000      -0.230808        -6.2806
  34   1.0000      -0.208618        -5.6768
  35   1.0000      -0.170759        -4.6466
  36   1.0000      -0.076344        -2.0774
  37   0.0000      -0.023810        -0.6479
  38   0.0000       0.005443         0.1481
  39   0.0000       0.020152         0.5484
  40   0.0000       0.023436         0.6377
  41   0.0000       0.029068         0.7910

                 SPIN DOWN ORBITALS
  NO   OCC          E(Eh)            E(eV)
   0   1.0000     -24.483432      -666.2281
   1   1.0000     -18.865155      -513.3470
   2   1.0000     -10.082800      -274.3669
   3   1.0000     -10.041471      -273.2423
   4   1.0000     -10.023978      -272.7663
   5   1.0000     -10.023372      -272.7498
   6   1.0000     -10.017033      -272.5773
   7   1.0000     -10.011673      -272.4315
   8   1.0000     -10.005978      -272.2765
   9   1.0000     -10.001926      -272.1663
  10   1.0000      -1.159248       -31.5447
  11   1.0000      -0.904828       -24.6216
  12   1.0000      -0.797603       -21.7039
  13   1.0000      -0.702991       -19.1294
  14   1.0000      -0.695664       -18.9300
  15   1.0000      -0.656372       -17.8608
  16   1.0000      -0.568131       -15.4596
  17   1.0000      -0.558150       -15.1880
  18   1.0000      -0.490895       -13.3579
  19   1.0000      -0.482031       -13.1167
  20   1.0000      -0.428111       -11.6495
  21   1.0000      -0.403660       -10.9841
  22   1.0000      -0.402511       -10.9529
  23   1.0000      -0.390277       -10.6200
  24   1.0000      -0.374762       -10.1978
  25   1.0000      -0.364630        -9.9221
  26   1.0000      -0.353020        -9.6062
  27   1.0000      -0.344379        -9.3710
  28   1.0000      -0.319206        -8.6860
  29   1.0000      -0.313148        -8.5212
  30   1.0000      -0.305909        -8.3242
  31   1.0000      -0.278398        -7.5756
  32   1.0000      -0.258771        -7.0415
  33   1.0000      -0.223228        -6.0744
  34   1.0000      -0.191040        -5.1985
  35   1.0000      -0.165789        -4.5114
  36   0.0000      -0.036876        -1.0034
  37   0.0000      -0.017801        -0.4844
  38   0.0000       0.008351         0.2272
  39   0.0000       0.021749         0.5918
  40   0.0000       0.026040         0.7086

MULLIKEN ATOMIC CHARGES AND SPIN POPULATIONS
--------------------------------------------
   0 C :   -0.423174    0.265383
   1 C :   -0.881034   -0.179934
   2 C :    0.595845    0.328252
   3 C :   -0.712479   -0.184572
   4 C :   -0.900842    0.286038
   5 C :    1.680729    0.004989
   6 C :    0.430258    0.289986
   7 O :   -1.100910    0.228589
   8 C :   -0.547947   -0.059501
   9 H :    0.197000    0.023529
  10 H :    0.197500    0.023275
  11 H :    0.133611   -0.008378
  12 H :    0.095735   -0.020651
  13 H :    0.407610   -0.002440
  14 F :   -0.552584    0.020066
  15 H :    0.396973   -0.003108
  16 H :   -0.016291   -0.011522
Sum of atomic charges         :   -1.0000000

LOEWDIN ATOMIC CHARGES AND SPIN POPULATIONS
-------------------------------------------
   0 C :    0.151202    0.088285
   1 C :    0.140822    0.020672
   2 C :   -0.565461    0.129547
   3 C :    0.134742    0.020227
   4 C :    0.141051    0.100555
   5 C :   -0.211443    0.116621
   6 C :   -0.665970    0.196951
   7 O :    0.315279    0.199568
   8 C :    0.502638    0.038804
   9 H :   -0.186219    0.009926
  10 H :   -0.186515    0.009841
  11 H :   -0.208728   -0.000791
  12 H :   -0.222426    0.024150
  13 H :   -0.195293   -0.007284
  14 F :    0.462490    0.038807
  15 H :   -0.195286   -0.005951
  16 H :   -0.210883    0.020069

  Mayer bond orders larger than 0.100000
B(  0-C ,  1-C ) :   0.8664 B(  0-C ,  2-C ) :  -0.2670 B(  0-C ,  3-C ) :  -0.1913
B(  0-C ,  4-C ) :  -0.3771 B(  0-C ,  5-C ) :   0.1585 B(  0-C ,  6-C ) :   0.2382
B(  0-C , 12-H ) :   0.1247 B(  0-C , 16-H ) :   1.4804 B(  1-C ,  2-C ) :   1.2578
B(  1-C ,  3-C ) :   0.2994 B(  1-C ,  4-C ) :  -0.1194 B(  1-C ,  5-C ) :   0.1854
B(  1-C , 12-H ) :  -0.1085 B(  1-C , 14-F ) :   0.1635 B(  1-C , 15-H ) :   0.5611
B(  1-C , 16-H ) :  -0.1066 B(  2-C ,  3-C ) :   1.3040 B(  2-C ,  4-C ) :  -0.3148
B(  2-C ,  6-C ) :   0.1063 B(  2-C , 14-F ) :   0.2587 B(  3-C ,  4-C ) :   1.2715
B(  3-C , 13-H ) :   0.5462 B(  3-C , 14-F ) :   0.1556 B(  3-C , 16-H ) :  -0.1465
B(  4-C ,  5-C ) :  -0.1371 B(  4-C ,  6-C ) :   0.4398 B(  4-C , 12-H ) :   1.1162
B(  4-C , 16-H ) :   0.1782 B(  5-C ,  6-C ) :   0.3306 B(  5-C ,  7-O ) :   0.1794
B(  5-C , 12-H ) :  -0.1156 B(  5-C , 16-H ) :  -0.2850 B(  6-C ,  7-O ) :   0.6511
B(  6-C ,  8-C ) :   0.8550 B(  6-C , 13-H ) :   0.1083 B(  7-O , 12-H ) :   0.1290
B(  8-C ,  9-H ) :   0.9905 B(  8-C , 10-H ) :   0.9908 B(  8-C , 11-H ) :   0.9653
B( 12-H , 16-H ) :   0.1470 B( 13-H , 14-F ) :   0.1027

Dispersion correction           -0.005206435
FINAL SINGLE POINT ENERGY      -484.159261127447

DIPOLE MOMENT
-------------

Method             : SCF
Type of density    : Electron Density
Multiplicity       :   2
Irrep              :   0
Energy             :  -484.1540546921203827 Eh
Relativity type    :
Basis              : AO
                                X                 Y                 Z
Electronic contribution:     11.358042724      -2.802640756       0.006112354
Nuclear contribution   :     -9.534043923       4.321651544      -0.010760483
                        -----------------------------------------
Total Dipole Moment    :      1.823998800       1.519010788      -0.004648129
                        -----------------------------------------
Magnitude (a.u.)       :      2.373686374
Magnitude (Debye)      :      6.033431279

VIBRATIONAL FREQUENCIES
-----------------------

Scaling factor for frequencies =  1.000000000  (already applied!)

     0:       0.00 cm**-1
     1:       0.00 cm**-1
     2:       0.00 cm**-1
     3:       0.00 cm**-1
     4:       0.00 cm**-1
     5:       0.00 cm**-1
     6:      92.22 cm**-1
     7:     102.00 cm**-1
     8:     130.68 cm**-1
     9:     186.74 cm**-1
    10:     250.66 cm**-1
    11:     332.57 cm**-1
    12:     349.39 cm**-1
    13:     378.70 cm**-1
    14:     440.72 cm**-1
    15:     465.23 cm**-1
    16:     527.11 cm**-1
    17:     543.16 cm**-1
    18:     634.52 cm**-1
    19:     672.87 cm**-1
    20:     676.55 cm**-1
    21:     756.75 cm**-1
    22:     773.73 cm**-1
    23:     793.04 cm**-1
    24:     917.48 cm**-1
    25:     936.83 cm**-1
    26:     937.55 cm**-1
    27:     988.52 cm**-1
    28:     991.43 cm**-1
    29:    1058.93 cm**-1
    30:    1089.49 cm**-1
    31:    1140.46 cm**-1
    32:    1187.24 cm**-1
    33:    1264.89 cm**-1
    34:    1301.84 cm**-1
    35:    1341.57 cm**-1
    36:    1351.57 cm**-1
    37:    1407.35 cm**-1
    38:    1434.00 cm**-1
    39:    1451.37 cm**-1
    40:    1480.96 cm**-1
    41:    1489.92 cm**-1
    42:    1522.91 cm**-1
    43:    1606.03 cm**-1
    44:    2973.23 cm**-1
    45:    3017.42 cm**-1
    46:    3099.66 cm**-1
    47:    3156.28 cm**-1
    48:    3157.88 cm**-1
    49:    3174.64 cm**-1
    50:    3176.83 cm**-1

IR SPECTRUM
-----------

 Mode   freq       eps      Int      T**2         TX        TY        TZ
       cm**-1   L/(mol*cm) km/mol    a.u.
----------------------------------------------------------------------------
  6:     92.22   0.000036    0.18  0.000123  ( 0.000144  0.000186 -0.011079)
  7:    102.00   0.001138    5.75  0.003482  (-0.000212  0.000480 -0.059006)
  8:    130.68   0.000470    2.37  0.001121  ( 0.000101  0.000146 -0.033483)
  9:    186.74   0.001473    7.44  0.002462  ( 0.048047 -0.012381 -0.000213)
 10:    250.66   0.000012    0.06  0.000015  ( 0.000259  0.000073  0.003884)
 11:    332.57   0.000254    1.29  0.000239  ( 0.002935 -0.015151 -0.000712)
 12:    349.39   0.002229   11.26  0.001991  (-0.000071 -0.000104  0.044617)
 13:    378.70   0.001144    5.78  0.000942  ( 0.024712  0.018214 -0.000017)
 14:    440.72   0.000240    1.21  0.000170  (-0.000003  0.000113  0.013039)
 15:    465.23   0.000264    1.33  0.000177  ( 0.012272 -0.005141  0.000029)
 16:    527.11   0.006626   33.48  0.003923  (-0.000171 -0.000116 -0.062631)
 17:    543.16   0.010246   51.78  0.005887  ( 0.070337 -0.030649  0.000295)
 18:    634.52   0.000106    0.54  0.000052  (-0.000978  0.007166 -0.000183)
 19:    672.87   0.003723   18.81  0.001726  ( 0.000309  0.000066  0.041549)
 20:    676.55   0.018531   93.65  0.008547  (-0.090876 -0.016999 -0.000080)
 21:    756.75   0.020322  102.70  0.008380  ( 0.000256 -0.000107 -0.091543)
 22:    773.73   0.006075   30.70  0.002450  (-0.000804 -0.000255 -0.049494)
 23:    793.04   0.033580  169.70  0.013214  (-0.114814 -0.005617  0.000114)
 24:    917.48   0.000368    1.86  0.000125  (-0.000334  0.000273 -0.011181)
 25:    936.83   0.003698   18.69  0.001232  ( 0.034858 -0.003376 -0.002329)
 26:    937.55   0.020036  101.26  0.006669  (-0.081286  0.007804 -0.000925)
 27:    988.52   0.009050   45.74  0.002857  ( 0.052874 -0.007829 -0.000306)
 28:    991.43   0.000306    1.55  0.000096  ( 0.001108 -0.000207  0.009753)
 29:   1058.93   0.001340    6.77  0.000395  ( 0.008195 -0.018105 -0.000055)
 30:   1089.49   0.014486   73.20  0.004149  ( 0.028188  0.057919 -0.000029)
 31:   1140.46   0.003458   17.48  0.000946  ( 0.030717  0.001638  0.000179)
 32:   1187.24   0.039856  201.41  0.010476  ( 0.102308  0.003012  0.000108)
 33:   1264.89   0.011027   55.72  0.002720  (-0.039857 -0.033643  0.000193)
 34:   1301.84   0.007984   40.35  0.001914  ( 0.023347  0.036996 -0.000119)
 35:   1341.57   0.013803   69.75  0.003211  (-0.029994  0.048073 -0.000094)
 36:   1351.57   0.010958   55.38  0.002530  (-0.013982 -0.048318 -0.000045)
 37:   1407.35   0.012966   65.52  0.002875  (-0.026504 -0.046610  0.000140)
 38:   1434.00   0.083232  420.62  0.018113  (-0.124428 -0.051286  0.000323)
 39:   1451.37   0.001909    9.65  0.000410  (-0.000866 -0.000208 -0.020239)
 40:   1480.96   0.056435  285.20  0.011892  ( 0.104502  0.031162 -0.000256)
 41:   1489.92   0.004373   22.10  0.000916  ( 0.029644  0.006088 -0.000072)
 42:   1522.91   0.063244  319.61  0.012959  (-0.097090 -0.059437  0.000391)
 43:   1606.03   0.005950   30.07  0.001156  (-0.022250 -0.025710 -0.000015)
 44:   2973.23   0.030936  156.34  0.003247  ( 0.039957 -0.040625 -0.000298)
 45:   3017.42   0.016665   84.22  0.001724  ( 0.000011 -0.000026  0.041515)
 46:   3099.66   0.008206   41.47  0.000826  (-0.025988 -0.012278 -0.000067)
 47:   3156.28   0.003856   19.48  0.000381  (-0.018576  0.006011 -0.000014)
 48:   3157.88   0.002880   14.55  0.000285  (-0.016864  0.000442 -0.000046)
 49:   3174.64   0.010044   50.76  0.000987  (-0.000905  0.031409  0.000000)
 50:   3176.83   0.000955    4.83  0.000094  (-0.009176  0.003099  0.000045)

--------------------------
THERMOCHEMISTRY AT 298.15K
--------------------------

Temperature         ...   298.15 K
Pressure            ...     1.00 atm
Total Mass          ...   138.14 AMU
Quasi RRHO          ...     True
Cut-Off Frequency   ...     1.00 cm^-1

Throughout the following assumptions are being made:
  (1) The electronic state is orbitally nondegenerate
      but the spin degeneracy is treated
  (2) There are no thermally accessible electronically excited states
  (3) Hindered rotations indicated by low frequency modes are not
      treated as such but are treated as vibrations and this may
      cause some error
  (4) All equations used are the standard statistical mechanics
      equations for an ideal gas
  (5) All vibrations are strictly harmonic

freq.      92.22  E(vib)   ...       0.47
freq.     102.00  E(vib)   ...       0.46
freq.     130.68  E(vib)   ...       0.43
freq.     186.74  E(vib)   ...       0.37
freq.     250.66  E(vib)   ...       0.30
freq.     332.57  E(vib)   ...       0.24
freq.     349.39  E(vib)   ...       0.23
freq.     378.70  E(vib)   ...       0.21
freq.     440.72  E(vib)   ...       0.17
freq.     465.23  E(vib)   ...       0.16
freq.     527.11  E(vib)   ...       0.13
freq.     543.16  E(vib)   ...       0.12
freq.     634.52  E(vib)   ...       0.09
freq.     672.87  E(vib)   ...       0.08
freq.     676.55  E(vib)   ...       0.08
freq.     756.75  E(vib)   ...       0.06
freq.     773.73  E(vib)   ...       0.05
freq.     793.04  E(vib)   ...       0.05
freq.     917.48  E(vib)   ...       0.03
freq.     936.83  E(vib)   ...       0.03
freq.     937.55  E(vib)   ...       0.03
freq.     988.52  E(vib)   ...       0.02
freq.     991.43  E(vib)   ...       0.02
freq.    1058.93  E(vib)   ...       0.02
freq.    1089.49  E(vib)   ...       0.02
freq.    1140.46  E(vib)   ...       0.01
freq.    1187.24  E(vib)   ...       0.01
freq.    1264.89  E(vib)   ...       0.01
freq.    1301.84  E(vib)   ...       0.01
freq.    1341.57  E(vib)   ...       0.01
freq.    1351.57  E(vib)   ...       0.01
freq.    1407.35  E(vib)   ...       0.00
freq.    1434.00  E(vib)   ...       0.00
freq.    1451.37  E(vib)   ...       0.00
freq.    1480.96  E(vib)   ...       0.00
freq.    1489.92  E(vib)   ...       0.00
freq.    1522.91  E(vib)   ...       0.00
freq.    1606.03  E(vib)   ...       0.00
freq.    2973.23  E(vib)   ...       0.00
freq.    3017.42  E(vib)   ...       0.00
freq.    3099.66  E(vib)   ...       0.00
freq.    3156.28  E(vib)   ...       0.00
freq.    3157.88  E(vib)   ...       0.00
freq.    3174.64  E(vib)   ...       0.00
freq.    3176.83  E(vib)   ...       0.00

------------
INNER ENERGY
------------

The inner energy is: U= E(el) + E(ZPE) + E(vib) + E(rot) + E(trans)
    E(el)   - is the total energy from the electronic structure calculation
              = E(kin-el) + E(nuc-el) + E(el-el) + E(nuc-nuc)
    E(ZPE)  - the the zero temperature vibrational energy from the frequency calculation
    E(vib)  - the the finite temperature correction to E(ZPE) due to population
              of excited vibrational states
    E(rot)  - is the rotational thermal energy
    E(trans)- is the translational thermal energy

Summary of contributions to the inner energy U:
Electronic energy                ...   -484.15926113 Eh
Zero point energy                ...      0.12475910 Eh      78.29 kcal/mol
Thermal vibrational correction   ...      0.00626353 Eh       3.93 kcal/mol
Thermal rotational correction    ...      0.00141627 Eh       0.89 kcal/mol
Thermal translational correction ...      0.00141627 Eh       0.89 kcal/mol
-----------------------------------------------------------------------
Total thermal energy                   -484.02540595 Eh

Summary of corrections to the electronic energy:
(perhaps to be used in another calculation)
Total thermal correction                  0.00909607 Eh       5.71 kcal/mol
Non-thermal (ZPE) correction              0.12475910 Eh      78.29 kcal/mol
-----------------------------------------------------------------------
Total correction                          0.13385517 Eh      84.00 kcal/mol

--------
ENTHALPY
--------

The enthalpy is H = U + kB*T
                kB is Boltzmann's constant
Total thermal energy              ...   -484.02540595 Eh
Thermal Enthalpy correction       ...      0.00094421 Eh       0.59 kcal/mol
-----------------------------------------------------------------------
Total Enthalpy                    ...   -484.02446174 Eh

Note: Only C1 symmetry has been detected, increase convergence thresholds
      if your molecule has a higher symmetry. Symmetry factor of 1.0 is
      used for the rotational entropy correction.

Note: Rotational entropy computed according to Herzberg
Infrared and Raman Spectra, Chapter V,1, Van Nostrand Reinhold, 1945
Point Group:  C1, Symmetry Number:   1
Rotational constants in cm-1:     0.120534     0.025551     0.021164

Vibrational entropy computed according to the QRRHO of S. Grimme
Chem.Eur.J. 2012 18 9955 using a reference frequency of 100.0 cm-1

-------
ENTROPY
-------

The entropy contributions are T*S = T*(S(el)+S(vib)+S(rot)+S(trans))
     S(el)   - electronic entropy
     S(vib)  - vibrational entropy
     S(rot)  - rotational entropy
     S(trans)- translational entropy
The entropies will be listed as multiplied by the temperature to get
units of energy

Electronic entropy                ...      0.00065446 Eh      0.41 kcal/mol
Vibrational entropy               ...      0.01052402 Eh      6.60 kcal/mol
Rotational entropy                ...      0.01406098 Eh      8.82 kcal/mol
Translational entropy             ...      0.01932885 Eh     12.13 kcal/mol
-----------------------------------------------------------------------
Final entropy term                ...      0.04456831 Eh     27.97 kcal/mol

In case the symmetry of your molecule has not been determined correctly
or in case you have a reason to use a different symmetry number we print
out the resulting rotational entropy values for sn=1,12:

 non-linear molecules -----------------------------------
|  sn= 1 | S(rot)=       0.01406098 Eh      8.82 kcal/mol|
|  sn= 2 | S(rot)=       0.01340653 Eh      8.41 kcal/mol|
|  sn= 3 | S(rot)=       0.01302370 Eh      8.17 kcal/mol|
|  sn= 4 | S(rot)=       0.01275207 Eh      8.00 kcal/mol|
|  sn= 5 | S(rot)=       0.01254138 Eh      7.87 kcal/mol|
|  sn= 6 | S(rot)=       0.01236924 Eh      7.76 kcal/mol|
|  sn= 7 | S(rot)=       0.01222369 Eh      7.67 kcal/mol|
|  sn= 8 | S(rot)=       0.01209761 Eh      7.59 kcal/mol|
|  sn= 9 | S(rot)=       0.01198641 Eh      7.52 kcal/mol|
|  sn=10 | S(rot)=       0.01188693 Eh      7.46 kcal/mol|
|  sn=11 | S(rot)=       0.01179694 Eh      7.40 kcal/mol|
|  sn=12 | S(rot)=       0.01171478 Eh      7.35 kcal/mol|
 linear molecules ---------------------------------------
|  Dinfh | S(rot)=       0.00896604 Eh      5.63 kcal/mol|

                             ****ORCA TERMINATED NORMALLY****
TOTAL RUN TIME: 0 days 0 hours 37 minutes 52 seconds 116 msec
