                         Program Version 6.0.0  -   RELEASE  -
|  1> !TPSSh freq aug-cc-pVTZ d3 TightSCF SlowConv RIJCOSX defgrid2
|  2>
|  3> %pal
|  4> nprocs 12
|  5> end
|  6>
|  7> %scf
|  8> MaxIter 1500
|  9> end
| 10>
| 11> %maxcore 5000
| 12>
| 13> !CPCM
| 14> %cpcm smd true
| 15> SMDsolvent "MeCN"
| 16> surfacetype gepol_ses
| 17> rsolv 2.19
| 18> end
| 19>
| 20> * xyz 0 1
| 21> C          -0.72988942010251     -1.02100360732575      0.00094610715936
| 22> C          -1.30961804329032      0.25075356321136      0.00084828744372
| 23> C          -0.49270542425432      1.38845631475069      0.00021577526647
| 24> C           0.88212835270050      1.25665557172225     -0.00023306730924
| 25> C           1.48174819149659     -0.01603373718826      0.00000483644024
| 26> C           0.65310766145970     -1.14528339090363      0.00059035856467
| 27> H           1.09645100298623     -2.13293426395180      0.00030356028119
| 28> C           2.89898590059267     -0.15199311522117     -0.00081764127893
| 29> C           4.10133636443804     -0.26612673327215      0.00040913643859
| 30> H           5.16284324514094     -0.36597281136586     -0.00102206185537
| 31> H           1.50623582591864      2.14108879262581     -0.00095446391687
| 32> H          -0.95359374920347      2.36821988523173      0.00028400813385
| 33> O          -2.64664466132984      0.47733790158746      0.00133813261094
| 34> C          -3.51193050402283     -0.66572600251635     -0.00047967575910
| 35> H          -4.52283496795798     -0.26527785388266     -0.00074351789849
| 36> H          -3.35339127167101     -1.27041955023293     -0.89642287975392
| 37> H          -3.35487492849018     -1.27254769789148      0.89429125586492
| 38> H          -1.34159547441083     -1.91173446537726      0.00162404956797
| 39> *
| 40>
| 41>                          ****END OF INPUT****

CARTESIAN COORDINATES (ANGSTROEM)
---------------------------------
  C     -0.729889   -1.021004    0.000946
  C     -1.309618    0.250754    0.000848
  C     -0.492705    1.388456    0.000216
  C      0.882128    1.256656   -0.000233
  C      1.481748   -0.016034    0.000005
  C      0.653108   -1.145283    0.000590
  H      1.096451   -2.132934    0.000304
  C      2.898986   -0.151993   -0.000818
  C      4.101336   -0.266127    0.000409
  H      5.162843   -0.365973   -0.001022
  H      1.506236    2.141089   -0.000954
  H     -0.953594    2.368220    0.000284
  O     -2.646645    0.477338    0.001338
  C     -3.511931   -0.665726   -0.000480
  H     -4.522835   -0.265278   -0.000744
  H     -3.353391   -1.270420   -0.896423
  H     -3.354875   -1.272548    0.894291
  H     -1.341595   -1.911734    0.001624

 Total Charge           Charge          ....    0
 Multiplicity           Mult            ....    1
 Number of Electrons    NEL             ....   70
 Basis Dimension        Dim             ....  644

ORBITAL ENERGIES
----------------

  NO   OCC          E(Eh)            E(eV)
   0   2.0000     -19.089842      -519.4610
   1   2.0000     -10.181496      -277.0526
   2   2.0000     -10.157359      -276.3958
   3   2.0000     -10.139652      -275.9140
   4   2.0000     -10.127082      -275.5719
   5   2.0000     -10.126369      -275.5525
   6   2.0000     -10.122102      -275.4364
   7   2.0000     -10.118757      -275.3454
   8   2.0000     -10.117603      -275.3140
   9   2.0000     -10.110414      -275.1184
  10   2.0000      -1.046588       -28.4791
  11   2.0000      -0.846995       -23.0479
  12   2.0000      -0.768121       -20.9016
  13   2.0000      -0.739581       -20.1250
  14   2.0000      -0.717781       -19.5318
  15   2.0000      -0.678095       -18.4519
  16   2.0000      -0.603231       -16.4147
  17   2.0000      -0.590686       -16.0734
  18   2.0000      -0.534683       -14.5495
  19   2.0000      -0.509507       -13.8644
  20   2.0000      -0.478773       -13.0281
  21   2.0000      -0.470398       -12.8002
  22   2.0000      -0.448561       -12.2060
  23   2.0000      -0.432732       -11.7752
  24   2.0000      -0.411383       -11.1943
  25   2.0000      -0.397756       -10.8235
  26   2.0000      -0.378180       -10.2908
  27   2.0000      -0.375087       -10.2066
  28   2.0000      -0.349933        -9.5222
  29   2.0000      -0.333040        -9.0625
  30   2.0000      -0.314103        -8.5472
  31   2.0000      -0.280373        -7.6293
  32   2.0000      -0.272877        -7.4254
  33   2.0000      -0.255342        -6.9482
  34   2.0000      -0.210567        -5.7298
  35   0.0000      -0.043214        -1.1759
  36   0.0000      -0.030285        -0.8241
  37   0.0000      -0.003862        -0.1051
  38   0.0000       0.006880         0.1872
  39   0.0000       0.011291         0.3072

MULLIKEN ATOMIC CHARGES
-----------------------
   0 C :   -0.105256
   1 C :    1.111231
   2 C :   -0.596378
   3 C :   -0.873935
   4 C :    1.299099
   5 C :   -1.016285
   6 H :   -0.373427
   7 C :    1.191451
   8 C :   -0.632364
   9 H :    0.017580
  10 H :   -0.328568
  11 H :    0.419954
  12 O :   -0.750960
  13 C :   -0.265900
  14 H :    0.027903
  15 H :    0.217270
  16 H :    0.217462
  17 H :    0.441122
Sum of atomic charges:    0.0000000

LOEWDIN ATOMIC CHARGES
----------------------
   0 C :    0.215967
   1 C :   -0.396992
   2 C :    0.210996
   3 C :    0.191814
   4 C :   -0.232778
   5 C :    0.198409
   6 H :   -0.168401
   7 C :   -0.028846
   8 C :    0.397894
   9 H :   -0.295042
  10 H :   -0.169863
  11 H :   -0.176155
  12 O :    0.601782
  13 C :    0.365165
  14 H :   -0.177088
  15 H :   -0.169989
  16 H :   -0.169975
  17 H :   -0.196898

  Mayer bond orders larger than 0.100000
B(  0-C ,  1-C ) :   1.0785 B(  0-C ,  2-C ) :   0.1821 B(  0-C ,  4-C ) :   0.4614
B(  0-C ,  5-C ) :   1.2304 B(  0-C ,  6-H ) :  -0.1340 B(  0-C ,  8-C ) :  -0.1748
B(  0-C , 17-H ) :   0.3867 B(  1-C ,  2-C ) :   0.9074 B(  1-C ,  3-C ) :  -0.4517
B(  1-C ,  4-C ) :  -0.1086 B(  1-C ,  5-C ) :  -0.3778 B(  1-C ,  7-C ) :   0.2357
B(  1-C , 11-H ) :   0.2070 B(  1-C , 13-C ) :   0.1093 B(  1-C , 17-H ) :   0.2143
B(  2-C ,  3-C ) :   1.5467 B(  2-C ,  4-C ) :   0.3631 B(  2-C ,  8-C ) :  -0.1504
B(  2-C , 11-H ) :   0.3815 B(  2-C , 12-O ) :   0.3763 B(  3-C ,  4-C ) :   0.4865
B(  3-C ,  5-C ) :  -0.5069 B(  3-C ,  6-H ) :   0.1487 B(  3-C ,  7-C ) :   0.3627
B(  3-C , 10-H ) :   1.8261 B(  4-C ,  5-C ) :   0.4616 B(  4-C ,  7-C ) :  -0.1766
B(  4-C ,  8-C ) :   0.7029 B(  4-C ,  9-H ) :   0.1186 B(  4-C , 11-H ) :   0.1065
B(  4-C , 12-O ) :   0.1240 B(  5-C ,  6-H ) :   2.0269 B(  5-C ,  7-C ) :   0.2960
B(  5-C , 10-H ) :   0.1479 B(  5-C , 17-H ) :  -0.1795 B(  6-H ,  7-C ) :  -0.2646
B(  6-H ,  8-C ) :  -0.3323 B(  6-H , 10-H ) :   0.5150 B(  7-C ,  8-C ) :   1.7243
B(  7-C ,  9-H ) :  -0.4299 B(  7-C , 10-H ) :  -0.3200 B(  8-C ,  9-H ) :   1.5027
B(  8-C , 10-H ) :  -0.3253 B(  8-C , 11-H ) :   0.1443 B(  8-C , 17-H ) :   0.2207
B( 12-O , 13-C ) :   0.9638 B( 13-C , 14-H ) :   1.0910 B( 13-C , 15-H ) :   0.9150
B( 13-C , 16-H ) :   0.9152

Dispersion correction           -0.021345150
FINAL SINGLE POINT ENERGY      -423.128179409835

DIPOLE MOMENT
-------------

Method             : SCF
Type of density    : Electron Density
Multiplicity       :   1
Irrep              :   0
Energy             :  -423.1068342602777079 Eh
Relativity type    :
Basis              : AO
                                X                 Y                 Z
Electronic contribution:      4.349120122       1.950274497       0.003238813
Nuclear contribution   :     -5.419349181      -2.561062777      -0.004538116
                        -----------------------------------------
Total Dipole Moment    :     -1.070229059      -0.610788280      -0.001299303
                        -----------------------------------------
Magnitude (a.u.)       :      1.232255756
Magnitude (Debye)      :      3.132145217

VIBRATIONAL FREQUENCIES
-----------------------

Scaling factor for frequencies =  1.000000000  (already applied!)

     0:       0.00 cm**-1
     1:       0.00 cm**-1
     2:       0.00 cm**-1
     3:       0.00 cm**-1
     4:       0.00 cm**-1
     5:       0.00 cm**-1
     6:      67.08 cm**-1
     7:     120.42 cm**-1
     8:     128.39 cm**-1
     9:     203.98 cm**-1
    10:     248.11 cm**-1
    11:     268.19 cm**-1
    12:     382.04 cm**-1
    13:     416.51 cm**-1
    14:     460.47 cm**-1
    15:     489.91 cm**-1
    16:     533.95 cm**-1
    17:     543.83 cm**-1
    18:     589.57 cm**-1
    19:     643.90 cm**-1
    20:     670.29 cm**-1
    21:     695.97 cm**-1
    22:     739.08 cm**-1
    23:     820.19 cm**-1
    24:     825.24 cm**-1
    25:     846.17 cm**-1
    26:     959.74 cm**-1
    27:     979.11 cm**-1
    28:    1017.77 cm**-1
    29:    1030.29 cm**-1
    30:    1119.58 cm**-1
    31:    1162.98 cm**-1
    32:    1178.28 cm**-1
    33:    1199.91 cm**-1
    34:    1221.13 cm**-1
    35:    1271.61 cm**-1
    36:    1321.72 cm**-1
    37:    1337.97 cm**-1
    38:    1440.69 cm**-1
    39:    1469.96 cm**-1
    40:    1484.79 cm**-1
    41:    1491.14 cm**-1
    42:    1530.03 cm**-1
    43:    1593.23 cm**-1
    44:    1635.34 cm**-1
    45:    2172.35 cm**-1
    46:    3021.39 cm**-1
    47:    3088.91 cm**-1
    48:    3142.91 cm**-1
    49:    3178.63 cm**-1
    50:    3182.46 cm**-1
    51:    3193.48 cm**-1
    52:    3209.28 cm**-1
    53:    3429.26 cm**-1

IR SPECTRUM
-----------

 Mode   freq       eps      Int      T**2         TX        TY        TZ
       cm**-1   L/(mol*cm) km/mol    a.u.
----------------------------------------------------------------------------
  6:     67.08   0.000577    2.92  0.002684  (-0.000260 -0.000555  0.051808)
  7:    120.42   0.000335    1.69  0.000868  ( 0.000936 -0.002179 -0.029363)
  8:    128.39   0.000467    2.36  0.001134  (-0.008654  0.032482 -0.002089)
  9:    203.98   0.000223    1.13  0.000341  (-0.000721 -0.000059  0.018465)
 10:    248.11   0.000589    2.98  0.000741  ( 0.027145  0.001237  0.001607)
 11:    268.19   0.001978   10.00  0.002302  ( 0.000358 -0.000032 -0.047973)
 12:    382.04   0.000417    2.11  0.000341  ( 0.017256 -0.006569  0.000023)
 13:    416.51   0.000001    0.00  0.000001  ( 0.000126 -0.000119  0.000778)
 14:    460.47   0.001965    9.93  0.001332  ( 0.000074 -0.000018  0.036495)
 15:    489.91   0.002735   13.82  0.001742  (-0.034020  0.024180 -0.000194)
 16:    533.95   0.001297    6.56  0.000758  ( 0.013743  0.023837 -0.001043)
 17:    543.83   0.007132   36.04  0.004093  (-0.000054 -0.000235 -0.063973)
 18:    589.57   0.015014   75.88  0.007947  ( 0.000230 -0.002440  0.089113)
 19:    643.90   0.001847    9.34  0.000895  (-0.001995 -0.029851 -0.000519)
 20:    670.29   0.014526   73.41  0.006763  (-0.008730 -0.081741 -0.002270)
 21:    695.97   0.007488   37.84  0.003357  (-0.055937  0.015114  0.000071)
 22:    739.08   0.000036    0.18  0.000015  ( 0.000113  0.000132  0.003895)
 23:    820.19   0.001464    7.40  0.000557  ( 0.000164  0.000017 -0.023601)
 24:    825.24   0.000840    4.24  0.000317  (-0.013653  0.011449 -0.000048)
 25:    846.17   0.024500  123.81  0.009036  (-0.000037  0.000142  0.095055)
 26:    959.74   0.000169    0.86  0.000055  (-0.000133 -0.000185 -0.007416)
 27:    979.11   0.000003    0.01  0.000001  (-0.000022  0.000439 -0.000829)
 28:   1017.77   0.000024    0.12  0.000007  (-0.000713  0.002590  0.000187)
 29:   1030.29   0.027503  138.99  0.008330  ( 0.074211  0.053132  0.000033)
 30:   1119.58   0.004561   23.05  0.001271  (-0.006706  0.035020  0.000039)
 31:   1162.98   0.000334    1.69  0.000090  (-0.000845  0.000322 -0.009424)
 32:   1178.28   0.021966  111.01  0.005818  ( 0.075979  0.006699 -0.000101)
 33:   1199.91   0.002441   12.33  0.000635  ( 0.022366  0.011598  0.000004)
 34:   1221.13   0.000048    0.24  0.000012  ( 0.003084  0.001696  0.000010)
 35:   1271.61   0.105403  532.66  0.025867  (-0.160303 -0.013027 -0.000053)
 36:   1321.72   0.001096    5.54  0.000259  (-0.012653 -0.009932 -0.000019)
 37:   1337.97   0.010084   50.96  0.002352  ( 0.048220  0.005186  0.000031)
 38:   1440.69   0.001345    6.79  0.000291  ( 0.017035  0.001024  0.000038)
 39:   1469.96   0.007648   38.65  0.001624  (-0.039483  0.008037 -0.000405)
 40:   1484.79   0.002583   13.05  0.000543  (-0.004318  0.000527  0.022892)
 41:   1491.14   0.006431   32.50  0.001346  (-0.036319  0.004691 -0.002170)
 42:   1530.03   0.044679  225.79  0.009113  ( 0.095448  0.001493 -0.000036)
 43:   1593.23   0.005388   27.23  0.001055  (-0.025444  0.020199  0.000003)
 44:   1635.34   0.042145  212.98  0.008042  ( 0.089639  0.002667 -0.000023)
 45:   2172.35   0.023818  120.36  0.003421  ( 0.058377 -0.003680 -0.000003)
 46:   3021.39   0.015561   78.64  0.001607  (-0.030362 -0.026178 -0.000279)
 47:   3088.91   0.009955   50.31  0.001006  ( 0.000070  0.000140  0.031713)
 48:   3142.91   0.005712   28.86  0.000567  (-0.021227  0.010795 -0.000024)
 49:   3178.63   0.001883    9.52  0.000185  (-0.013585 -0.000594 -0.000065)
 50:   3182.46   0.001817    9.18  0.000178  (-0.007133  0.011284 -0.000078)
 51:   3193.48   0.002157   10.90  0.000211  (-0.001936  0.014390 -0.000034)
 52:   3209.28   0.001287    6.50  0.000125  (-0.008685 -0.007051  0.000046)
 53:   3429.26   0.044326  224.00  0.004034  ( 0.063293 -0.005253 -0.000095)

--------------------------
THERMOCHEMISTRY AT 298.15K
--------------------------

Temperature         ...   298.15 K
Pressure            ...     1.00 atm
Total Mass          ...   132.16 AMU
Quasi RRHO          ...     True
Cut-Off Frequency   ...     1.00 cm^-1

Throughout the following assumptions are being made:
  (1) The electronic state is orbitally nondegenerate
  (2) There are no thermally accessible electronically excited states
  (3) Hindered rotations indicated by low frequency modes are not
      treated as such but are treated as vibrations and this may
      cause some error
  (4) All equations used are the standard statistical mechanics
      equations for an ideal gas
  (5) All vibrations are strictly harmonic

freq.      67.08  E(vib)   ...       0.50
freq.     120.42  E(vib)   ...       0.44
freq.     128.39  E(vib)   ...       0.43
freq.     203.98  E(vib)   ...       0.35
freq.     248.11  E(vib)   ...       0.31
freq.     268.19  E(vib)   ...       0.29
freq.     382.04  E(vib)   ...       0.21
freq.     416.51  E(vib)   ...       0.18
freq.     460.47  E(vib)   ...       0.16
freq.     489.91  E(vib)   ...       0.15
freq.     533.95  E(vib)   ...       0.13
freq.     543.83  E(vib)   ...       0.12
freq.     589.57  E(vib)   ...       0.10
freq.     643.90  E(vib)   ...       0.09
freq.     670.29  E(vib)   ...       0.08
freq.     695.97  E(vib)   ...       0.07
freq.     739.08  E(vib)   ...       0.06
freq.     820.19  E(vib)   ...       0.05
freq.     825.24  E(vib)   ...       0.04
freq.     846.17  E(vib)   ...       0.04
freq.     959.74  E(vib)   ...       0.03
freq.     979.11  E(vib)   ...       0.03
freq.    1017.77  E(vib)   ...       0.02
freq.    1030.29  E(vib)   ...       0.02
freq.    1119.58  E(vib)   ...       0.01
freq.    1162.98  E(vib)   ...       0.01
freq.    1178.28  E(vib)   ...       0.01
freq.    1199.91  E(vib)   ...       0.01
freq.    1221.13  E(vib)   ...       0.01
freq.    1271.61  E(vib)   ...       0.01
freq.    1321.72  E(vib)   ...       0.01
freq.    1337.97  E(vib)   ...       0.01
freq.    1440.69  E(vib)   ...       0.00
freq.    1469.96  E(vib)   ...       0.00
freq.    1484.79  E(vib)   ...       0.00
freq.    1491.14  E(vib)   ...       0.00
freq.    1530.03  E(vib)   ...       0.00
freq.    1593.23  E(vib)   ...       0.00
freq.    1635.34  E(vib)   ...       0.00
freq.    2172.35  E(vib)   ...       0.00
freq.    3021.39  E(vib)   ...       0.00
freq.    3088.91  E(vib)   ...       0.00
freq.    3142.91  E(vib)   ...       0.00
freq.    3178.63  E(vib)   ...       0.00
freq.    3182.46  E(vib)   ...       0.00
freq.    3193.48  E(vib)   ...       0.00
freq.    3209.28  E(vib)   ...       0.00
freq.    3429.26  E(vib)   ...       0.00

------------
INNER ENERGY
------------

The inner energy is: U= E(el) + E(ZPE) + E(vib) + E(rot) + E(trans)
    E(el)   - is the total energy from the electronic structure calculation
              = E(kin-el) + E(nuc-el) + E(el-el) + E(nuc-nuc)
    E(ZPE)  - the the zero temperature vibrational energy from the frequency calculation
    E(vib)  - the the finite temperature correction to E(ZPE) due to population
              of excited vibrational states
    E(rot)  - is the rotational thermal energy
    E(trans)- is the translational thermal energy

Summary of contributions to the inner energy U:
Electronic energy                ...   -423.12817941 Eh
Zero point energy                ...      0.14069335 Eh      88.29 kcal/mol
Thermal vibrational correction   ...      0.00634362 Eh       3.98 kcal/mol
Thermal rotational correction    ...      0.00141627 Eh       0.89 kcal/mol
Thermal translational correction ...      0.00141627 Eh       0.89 kcal/mol
-----------------------------------------------------------------------
Total thermal energy                   -422.97830990 Eh

Summary of corrections to the electronic energy:
(perhaps to be used in another calculation)
Total thermal correction                  0.00917617 Eh       5.76 kcal/mol
Non-thermal (ZPE) correction              0.14069335 Eh      88.29 kcal/mol
-----------------------------------------------------------------------
Total correction                          0.14986951 Eh      94.04 kcal/mol

--------
ENTHALPY
--------

The enthalpy is H = U + kB*T
                kB is Boltzmann's constant
Total thermal energy              ...   -422.97830990 Eh
Thermal Enthalpy correction       ...      0.00094421 Eh       0.59 kcal/mol
-----------------------------------------------------------------------
Total Enthalpy                    ...   -422.97736569 Eh

Note: Only C1 symmetry has been detected, increase convergence thresholds
      if your molecule has a higher symmetry. Symmetry factor of 1.0 is
      used for the rotational entropy correction.

Note: Rotational entropy computed according to Herzberg
Infrared and Raman Spectra, Chapter V,1, Van Nostrand Reinhold, 1945
Point Group:  C1, Symmetry Number:   1
Rotational constants in cm-1:     0.160739     0.023678     0.020720

Vibrational entropy computed according to the QRRHO of S. Grimme
Chem.Eur.J. 2012 18 9955 using a reference frequency of 100.0 cm-1

-------
ENTROPY
-------

The entropy contributions are T*S = T*(S(el)+S(vib)+S(rot)+S(trans))
     S(el)   - electronic entropy
     S(vib)  - vibrational entropy
     S(rot)  - rotational entropy
     S(trans)- translational entropy
The entropies will be listed as multiplied by the temperature to get
units of energy

Electronic entropy                ...      0.00000000 Eh      0.00 kcal/mol
Vibrational entropy               ...      0.01060753 Eh      6.66 kcal/mol
Rotational entropy                ...      0.01397105 Eh      8.77 kcal/mol
Translational entropy             ...      0.01926618 Eh     12.09 kcal/mol
-----------------------------------------------------------------------
Final entropy term                ...      0.04384476 Eh     27.51 kcal/mol

In case the symmetry of your molecule has not been determined correctly
or in case you have a reason to use a different symmetry number we print
out the resulting rotational entropy values for sn=1,12:

 non-linear molecules -----------------------------------
|  sn= 1 | S(rot)=       0.01397105 Eh      8.77 kcal/mol|
|  sn= 2 | S(rot)=       0.01331659 Eh      8.36 kcal/mol|
|  sn= 3 | S(rot)=       0.01293376 Eh      8.12 kcal/mol|
|  sn= 4 | S(rot)=       0.01266214 Eh      7.95 kcal/mol|
|  sn= 5 | S(rot)=       0.01245145 Eh      7.81 kcal/mol|
|  sn= 6 | S(rot)=       0.01227930 Eh      7.71 kcal/mol|
|  sn= 7 | S(rot)=       0.01213376 Eh      7.61 kcal/mol|
|  sn= 8 | S(rot)=       0.01200768 Eh      7.53 kcal/mol|
|  sn= 9 | S(rot)=       0.01189647 Eh      7.47 kcal/mol|
|  sn=10 | S(rot)=       0.01179699 Eh      7.40 kcal/mol|
|  sn=11 | S(rot)=       0.01170700 Eh      7.35 kcal/mol|
|  sn=12 | S(rot)=       0.01162485 Eh      7.29 kcal/mol|

                             ****ORCA TERMINATED NORMALLY****
TOTAL RUN TIME: 0 days 0 hours 50 minutes 35 seconds 709 msec
