                         Program Version 6.0.0  -   RELEASE  -
|  1> !PBE0 aug-cc-pVTZ d3 TightSCF SlowConv RIJCOSX defgrid2
|  2>
|  3> %pal
|  4> nprocs 4
|  5> end
|  6>
|  7> %scf
|  8> MaxIter 1500
|  9> end
| 10>
| 11> %maxcore 3000
| 12>
| 13> !CPCM
| 14> %cpcm smd true
| 15> SMDsolvent "MeCN"
| 16> surfacetype gepol_ses
| 17> rsolv 2.19
| 18> end
| 19>
| 20> * xyz 1 2
| 21> C          -1.88926886591052     -0.71829471042902     -0.00000151658975
| 22> C          -0.69976165931068     -1.41947642476781     -0.00004682086503
| 23> C           0.52546620787527     -0.73616642455340     -0.00005070921479
| 24> C           1.80539513424131     -1.47669107886068     -0.00023735663381
| 25> H           2.41895885184776     -1.20629923183368      0.88130420897190
| 26> H           1.65030845286960     -2.56505007458612      0.00054431743935
| 27> H           2.41781413244718     -1.20753960674201     -0.88298442839847
| 28> C           0.52547898558837      0.73614990429939      0.00000366497278
| 29> C           1.80542537047235      1.47665380279544      0.00015411128337
| 30> H           2.41897294335330      1.20625813469298     -0.88139556544038
| 31> H           1.65034488477417      2.56501332425354     -0.00063843565960
| 32> H           2.41785215045554      1.20751683668618      0.88290259762033
| 33> C          -0.69973036540407      1.41946691144153      0.00005351354497
| 34> C          -1.88925441678624      0.71829392037224      0.00005440335703
| 35> H          -2.84458396121263      1.25172450263367      0.00010059257370
| 36> H          -0.70436141297793      2.51237392702987      0.00009399193885
| 37> H          -0.70439462134719     -2.51238326028565     -0.00008450613426
| 38> H          -2.84460951097560     -1.25170515214647     -0.00000996276619
| 39> *
| 40>
| 41>                          ****END OF INPUT****

CARTESIAN COORDINATES (ANGSTROEM)
---------------------------------
  C     -1.889269   -0.718295   -0.000002
  C     -0.699762   -1.419476   -0.000047
  C      0.525466   -0.736166   -0.000051
  C      1.805395   -1.476691   -0.000237
  H      2.418959   -1.206299    0.881304
  H      1.650308   -2.565050    0.000544
  H      2.417814   -1.207540   -0.882984
  C      0.525479    0.736150    0.000004
  C      1.805425    1.476654    0.000154
  H      2.418973    1.206258   -0.881396
  H      1.650345    2.565013   -0.000638
  H      2.417852    1.207517    0.882903
  C     -0.699730    1.419467    0.000054
  C     -1.889254    0.718294    0.000054
  H     -2.844584    1.251725    0.000101
  H     -0.704361    2.512374    0.000094
  H     -0.704395   -2.512383   -0.000085
  H     -2.844610   -1.251705   -0.000010

 Total Charge           Charge          ....    1
 Multiplicity           Mult            ....    2
 Number of Electrons    NEL             ....   57
 Basis Dimension        Dim             ....  598

ORBITAL ENERGIES
----------------
                 SPIN UP ORBITALS
  NO   OCC          E(Eh)            E(eV)
   0   1.0000     -10.318088      -280.7694
   1   1.0000     -10.317692      -280.7587
   2   1.0000     -10.293605      -280.1032
   3   1.0000     -10.293106      -280.0897
   4   1.0000     -10.264612      -279.3143
   5   1.0000     -10.264575      -279.3133
   6   1.0000     -10.242812      -278.7211
   7   1.0000     -10.242725      -278.7187
   8   1.0000      -0.939062       -25.5532
   9   1.0000      -0.849824       -23.1249
  10   1.0000      -0.834625       -22.7113
  11   1.0000      -0.756340       -20.5810
  12   1.0000      -0.727004       -19.7828
  13   1.0000      -0.652812       -17.7639
  14   1.0000      -0.633553       -17.2398
  15   1.0000      -0.549700       -14.9581
  16   1.0000      -0.531063       -14.4510
  17   1.0000      -0.494965       -13.4687
  18   1.0000      -0.484809       -13.1923
  19   1.0000      -0.466544       -12.6953
  20   1.0000      -0.453322       -12.3355
  21   1.0000      -0.433626       -11.7996
  22   1.0000      -0.422410       -11.4944
  23   1.0000      -0.422037       -11.4842
  24   1.0000      -0.409191       -11.1346
  25   1.0000      -0.386855       -10.5269
  26   1.0000      -0.382606       -10.4112
  27   1.0000      -0.307579        -8.3696
  28   1.0000      -0.307567        -8.3693
  29   0.0000      -0.075202        -2.0464
  30   0.0000      -0.042914        -1.1677
  31   0.0000      -0.001916        -0.0521
  32   0.0000       0.009337         0.2541
  33   0.0000       0.013708         0.3730

                 SPIN DOWN ORBITALS
  NO   OCC          E(Eh)            E(eV)
   0   1.0000     -10.312901      -280.6283
   1   1.0000     -10.312545      -280.6186
   2   1.0000     -10.289779      -279.9991
   3   1.0000     -10.289316      -279.9865
   4   1.0000     -10.266325      -279.3609
   5   1.0000     -10.266286      -279.3598
   6   1.0000     -10.242924      -278.7241
   7   1.0000     -10.242837      -278.7218
   8   1.0000      -0.927794       -25.2466
   9   1.0000      -0.836886       -22.7728
  10   1.0000      -0.831039       -22.6137
  11   1.0000      -0.753963       -20.5164
  12   1.0000      -0.719164       -19.5694
  13   1.0000      -0.647105       -17.6086
  14   1.0000      -0.626415       -17.0456
  15   1.0000      -0.546733       -14.8773
  16   1.0000      -0.527762       -14.3611
  17   1.0000      -0.491223       -13.3669
  18   1.0000      -0.465771       -12.6743
  19   1.0000      -0.464731       -12.6460
  20   1.0000      -0.448916       -12.2156
  21   1.0000      -0.425430       -11.5765
  22   1.0000      -0.421281       -11.4636
  23   1.0000      -0.420623       -11.4457
  24   1.0000      -0.384740       -10.4693
  25   1.0000      -0.384613       -10.4658
  26   1.0000      -0.379548       -10.3280
  27   1.0000      -0.302488        -8.2311
  28   0.0000      -0.205961        -5.6045
  29   0.0000      -0.034329        -0.9341
  30   0.0000      -0.028150        -0.7660
  31   0.0000      -0.000934        -0.0254
  32   0.0000       0.010384         0.2825

MULLIKEN ATOMIC CHARGES AND SPIN POPULATIONS
--------------------------------------------
   0 C :   -0.303784    0.243840
   1 C :   -0.887787   -0.144377
   2 C :    0.662890    0.367716
   3 C :   -0.654156   -0.028655
   4 H :    0.299154    0.028832
   5 H :    0.124420   -0.006871
   6 H :    0.300014    0.028894
   7 C :    0.662367    0.367835
   8 C :   -0.652052   -0.028601
   9 H :    0.300231    0.028808
  10 H :    0.123486   -0.006875
  11 H :    0.300683    0.028890
  12 C :   -0.889320   -0.144275
  13 C :   -0.306576    0.243370
  14 H :    0.700321    0.004610
  15 H :    0.260208    0.006054
  16 H :    0.252092    0.006085
  17 H :    0.707809    0.004721
Sum of atomic charges         :    1.0000000

LOEWDIN ATOMIC CHARGES AND SPIN POPULATIONS
-------------------------------------------
   0 C :    0.293245    0.155637
   1 C :    0.275388    0.036434
   2 C :   -0.019188    0.198511
   3 C :    0.620262    0.058313
   4 H :   -0.127489    0.014631
   5 H :   -0.142932    0.001573
   6 H :   -0.127336    0.014657
   7 C :   -0.019087    0.198520
   8 C :    0.620373    0.058326
   9 H :   -0.127378    0.014639
  10 H :   -0.142975    0.001575
  11 H :   -0.127355    0.014661
  12 C :    0.275401    0.036463
  13 C :    0.293247    0.155515
  14 H :   -0.129002    0.029221
  15 H :   -0.143094   -0.008961
  16 H :   -0.143092   -0.008976
  17 H :   -0.128988    0.029260

  Mayer bond orders larger than 0.100000
B(  0-C ,  1-C ) :   1.2926 B(  0-C , 13-C ) :   1.0860 B(  0-C , 17-H ) :   0.2749
B(  1-C ,  2-C ) :   0.7282 B(  1-C , 16-H ) :   1.0068 B(  1-C , 17-H ) :  -0.1087
B(  2-C ,  3-C ) :   0.5763 B(  2-C ,  7-C ) :   1.2083 B(  2-C ,  8-C ) :   0.1033
B(  3-C ,  4-H ) :   0.8854 B(  3-C ,  5-H ) :   1.0438 B(  3-C ,  6-H ) :   0.8832
B(  3-C ,  7-C ) :   0.1056 B(  7-C ,  8-C ) :   0.5806 B(  7-C , 12-C ) :   0.7285
B(  8-C ,  9-H ) :   0.8826 B(  8-C , 10-H ) :   1.0454 B(  8-C , 11-H ) :   0.8816
B( 12-C , 13-C ) :   1.2996 B( 12-C , 14-H ) :  -0.1058 B( 12-C , 15-H ) :   0.9913
B( 13-C , 14-H ) :   0.2880

Dispersion correction           -0.015538046
FINAL SINGLE POINT ENERGY      -310.401495778380

DIPOLE MOMENT
-------------

Method             : SCF
Type of density    : Electron Density
Multiplicity       :   2
Irrep              :   0
Energy             :  -310.3859577322886025 Eh
Relativity type    :
Basis              : AO
                                X                 Y                 Z
Electronic contribution:     -5.595122230       0.000011151      -0.000320807
Nuclear contribution   :      5.537517534      -0.000008895      -0.000066911
                        -----------------------------------------
Total Dipole Moment    :     -0.057604696       0.000002256      -0.000387718
                        -----------------------------------------
Magnitude (a.u.)       :      0.057606001
Magnitude (Debye)      :      0.146422819

Rotational constants in cm-1:             0.102569             0.072675             0.043220
Rotational constants in MHz :          3074.941965          2178.738916          1295.716867

                             ****ORCA TERMINATED NORMALLY****
TOTAL RUN TIME: 0 days 0 hours 5 minutes 55 seconds 966 msec
