                         Program Version 6.0.0  -   RELEASE  -
|  1> !B3LYP aug-cc-pVTZ d3 TightSCF SlowConv RIJCOSX defgrid2
|  2>
|  3> %pal
|  4> nprocs 4
|  5> end
|  6>
|  7> %scf
|  8> MaxIter 1500
|  9> end
| 10>
| 11> %maxcore 3000
| 12>
| 13> !CPCM
| 14> %cpcm smd true
| 15> SMDsolvent "MeCN"
| 16> surfacetype gepol_ses
| 17> rsolv 2.19
| 18> end
| 19>
| 20> * xyz 1 2
| 21> C           0.46714487133843     -1.31596872615065      0.00043307960453
| 22> C           1.40171557217885     -0.23770807732832      0.00025638478659
| 23> C           0.88407949479514      1.09158487284969      0.00004092926418
| 24> C          -0.46712830128476      1.31604469822195      0.00000295911120
| 25> C          -1.40170089628676      0.23778263147851      0.00017108805360
| 26> C          -0.88406255954178     -1.09151075505496      0.00038804805116
| 27> H          -1.56465680467619     -1.94551717434521      0.00051308611121
| 28> C          -2.79688855585044      0.54394549069400      0.00010405022453
| 29> C          -3.82430179119378     -0.36186733524039      0.00028564609405
| 30> C          -5.25538349314657     -0.00243324194906      0.00029381155554
| 31> H          -5.75917453342121     -0.44813816832529     -0.87970790560214
| 32> H          -5.42346358891650      1.08552343691300     -0.00039098136190
| 33> H          -5.75876746290359     -0.44688449439862      0.88117967002482
| 34> H          -3.59373242007271     -1.43478557196118      0.00051686705574
| 35> H          -3.05807707707141      1.60899060395392     -0.00011509029154
| 36> H          -0.84761071039142      2.34119359797197     -0.00016682822425
| 37> H           1.56466696644477      1.94559472915825     -0.00010365132895
| 38> C           2.79689693733142     -0.54387663280000      0.00029128970272
| 39> C           3.82431604801398      0.36192101310663      0.00012996933116
| 40> C           5.25539100174106      0.00246938598978      0.00017091184030
| 41> H           5.75904846017879      0.44783593741242      0.88042381529925
| 42> H           5.75892633220905      0.44725096613417     -0.88045536326881
| 43> H           5.42345877365595     -1.08548600733987      0.00050393935968
| 44> H           3.59376340127937      1.43483964875828     -0.00005091579321
| 45> H           3.05807564363531     -1.60891817616373      0.00047196102492
| 46> H           0.84762319195501     -2.34111455158529      0.00059172937562
| 47> *
| 48>
| 49>                          ****END OF INPUT****

CARTESIAN COORDINATES (ANGSTROEM)
---------------------------------
  C      0.467145   -1.315969    0.000433
  C      1.401716   -0.237708    0.000256
  C      0.884079    1.091585    0.000041
  C     -0.467128    1.316045    0.000003
  C     -1.401701    0.237783    0.000171
  C     -0.884063   -1.091511    0.000388
  H     -1.564657   -1.945517    0.000513
  C     -2.796889    0.543945    0.000104
  C     -3.824302   -0.361867    0.000286
  C     -5.255383   -0.002433    0.000294
  H     -5.759175   -0.448138   -0.879708
  H     -5.423464    1.085523   -0.000391
  H     -5.758767   -0.446884    0.881180
  H     -3.593732   -1.434786    0.000517
  H     -3.058077    1.608991   -0.000115
  H     -0.847611    2.341194   -0.000167
  H      1.564667    1.945595   -0.000104
  C      2.796897   -0.543877    0.000291
  C      3.824316    0.361921    0.000130
  C      5.255391    0.002469    0.000171
  H      5.759048    0.447836    0.880424
  H      5.758926    0.447251   -0.880455
  H      5.423459   -1.085486    0.000504
  H      3.593763    1.434840   -0.000051
  H      3.058076   -1.608918    0.000472
  H      0.847623   -2.341115    0.000592

 Total Charge           Charge          ....    1
 Multiplicity           Mult            ....    2
 Number of Electrons    NEL             ....   85
 Basis Dimension        Dim             ....  874

ORBITAL ENERGIES
----------------
                 SPIN UP ORBITALS
  NO   OCC          E(Eh)            E(eV)
   0   1.0000     -10.233663      -278.4721
   1   1.0000     -10.233628      -278.4712
   2   1.0000     -10.225950      -278.2622
   3   1.0000     -10.225938      -278.2619
   4   1.0000     -10.208575      -277.7894
   5   1.0000     -10.208540      -277.7885
   6   1.0000     -10.206986      -277.7462
   7   1.0000     -10.206979      -277.7460
   8   1.0000     -10.206621      -277.7363
   9   1.0000     -10.206579      -277.7351
  10   1.0000     -10.179370      -276.9947
  11   1.0000     -10.179370      -276.9947
  12   1.0000      -0.898559       -24.4510
  13   1.0000      -0.849208       -23.1081
  14   1.0000      -0.819392       -22.2968
  15   1.0000      -0.783098       -21.3092
  16   1.0000      -0.777043       -21.1444
  17   1.0000      -0.726523       -19.7697
  18   1.0000      -0.683006       -18.5855
  19   1.0000      -0.647922       -17.6309
  20   1.0000      -0.621781       -16.9195
  21   1.0000      -0.585034       -15.9196
  22   1.0000      -0.567978       -15.4555
  23   1.0000      -0.534830       -14.5535
  24   1.0000      -0.504950       -13.7404
  25   1.0000      -0.495003       -13.4697
  26   1.0000      -0.463184       -12.6039
  27   1.0000      -0.445609       -12.1256
  28   1.0000      -0.443544       -12.0695
  29   1.0000      -0.430900       -11.7254
  30   1.0000      -0.427487       -11.6325
  31   1.0000      -0.426637       -11.6094
  32   1.0000      -0.420198       -11.4342
  33   1.0000      -0.411434       -11.1957
  34   1.0000      -0.392706       -10.6861
  35   1.0000      -0.381699       -10.3866
  36   1.0000      -0.375834       -10.2270
  37   1.0000      -0.370287       -10.0760
  38   1.0000      -0.354190        -9.6380
  39   1.0000      -0.353247        -9.6124
  40   1.0000      -0.291285        -7.9263
  41   1.0000      -0.289428        -7.8757
  42   1.0000      -0.238613        -6.4930
  43   0.0000      -0.096465        -2.6249
  44   0.0000      -0.037257        -1.0138
  45   0.0000      -0.023103        -0.6287
  46   0.0000      -0.005523        -0.1503
  47   0.0000       0.000701         0.0191

                 SPIN DOWN ORBITALS
  NO   OCC          E(Eh)            E(eV)
   0   1.0000     -10.231098      -278.4023
   1   1.0000     -10.231066      -278.4015
   2   1.0000     -10.221633      -278.1448
   3   1.0000     -10.221622      -278.1445
   4   1.0000     -10.208077      -277.7759
   5   1.0000     -10.208043      -277.7750
   6   1.0000     -10.207192      -277.7518
   7   1.0000     -10.207185      -277.7516
   8   1.0000     -10.206414      -277.7306
   9   1.0000     -10.206372      -277.7295
  10   1.0000     -10.179513      -276.9986
  11   1.0000     -10.179513      -276.9986
  12   1.0000      -0.893802       -24.3216
  13   1.0000      -0.842783       -22.9333
  14   1.0000      -0.811967       -22.0947
  15   1.0000      -0.779251       -21.2045
  16   1.0000      -0.772704       -21.0263
  17   1.0000      -0.725704       -19.7474
  18   1.0000      -0.678334       -18.4584
  19   1.0000      -0.644351       -17.5337
  20   1.0000      -0.617747       -16.8097
  21   1.0000      -0.581607       -15.8263
  22   1.0000      -0.564790       -15.3687
  23   1.0000      -0.532863       -14.4999
  24   1.0000      -0.503276       -13.6948
  25   1.0000      -0.492756       -13.4086
  26   1.0000      -0.460935       -12.5427
  27   1.0000      -0.445079       -12.1112
  28   1.0000      -0.442054       -12.0289
  29   1.0000      -0.425724       -11.5845
  30   1.0000      -0.420949       -11.4546
  31   1.0000      -0.418507       -11.3881
  32   1.0000      -0.418030       -11.3752
  33   1.0000      -0.401144       -10.9157
  34   1.0000      -0.390747       -10.6328
  35   1.0000      -0.380655       -10.3581
  36   1.0000      -0.374788       -10.1985
  37   1.0000      -0.369044       -10.0422
  38   1.0000      -0.352369        -9.5885
  39   1.0000      -0.337429        -9.1819
  40   1.0000      -0.286783        -7.8038
  41   1.0000      -0.269765        -7.3407
  42   0.0000      -0.178159        -4.8480
  43   0.0000      -0.074801        -2.0354
  44   0.0000      -0.029476        -0.8021
  45   0.0000      -0.009723        -0.2646
  46   0.0000      -0.005281        -0.1437

MULLIKEN ATOMIC CHARGES AND SPIN POPULATIONS
--------------------------------------------
   0 C :   -1.160763   -0.003383
   1 C :    2.137001    0.186635
   2 C :   -0.651365    0.019947
   3 C :   -1.156091   -0.003088
   4 C :    2.119039    0.186780
   5 C :   -0.630173    0.019823
   6 H :   -0.012196   -0.004167
   7 C :    0.091690    0.012839
   8 C :   -0.209659    0.295124
   9 C :   -0.830932   -0.028081
  10 H :    0.207518    0.019958
  11 H :    0.254736   -0.003578
  12 H :    0.207504    0.019926
  13 H :    0.270928   -0.017791
  14 H :    0.124335    0.004481
  15 H :    0.068897   -0.002135
  16 H :   -0.006344   -0.004037
  17 C :    0.075730    0.013001
  18 C :   -0.199681    0.294980
  19 C :   -0.853111   -0.027981
  20 H :    0.204726    0.019942
  21 H :    0.203040    0.019954
  22 H :    0.266901   -0.003598
  23 H :    0.300976   -0.018019
  24 H :    0.100374    0.004589
  25 H :    0.076922   -0.002121
Sum of atomic charges         :    1.0000000

LOEWDIN ATOMIC CHARGES AND SPIN POPULATIONS
-------------------------------------------
   0 C :    0.261580    0.036721
   1 C :   -0.087679    0.096160
   2 C :    0.264623    0.042543
   3 C :    0.261586    0.036721
   4 C :   -0.087695    0.096160
   5 C :    0.264631    0.042543
   6 H :   -0.161537    0.002855
   7 C :    0.262904    0.066403
   8 C :    0.274036    0.153072
   9 C :    0.588865    0.049830
  10 H :   -0.143719    0.010992
  11 H :   -0.157179    0.001084
  12 H :   -0.143655    0.011007
  13 H :   -0.154934    0.026508
  14 H :   -0.158568    0.000899
  15 H :   -0.144731    0.001927
  16 H :   -0.161538    0.002855
  17 C :    0.262897    0.066403
  18 C :    0.274044    0.153071
  19 C :    0.588848    0.049829
  20 H :   -0.143715    0.010996
  21 H :   -0.143666    0.011003
  22 H :   -0.157161    0.001084
  23 H :   -0.154927    0.026508
  24 H :   -0.158581    0.000899
  25 H :   -0.144732    0.001927

  Mayer bond orders larger than 0.100000
B(  0-C ,  1-C ) :  -0.1225 B(  0-C ,  2-C ) :  -0.5606 B(  0-C ,  3-C ) :   0.3205
B(  0-C ,  5-C ) :   1.1352 B(  0-C ,  8-C ) :  -0.1081 B(  0-C , 25-H ) :   1.4419
B(  1-C ,  2-C ) :   0.2233 B(  1-C ,  4-C ) :  -0.2756 B(  1-C ,  7-C ) :   0.3691
B(  1-C , 16-H ) :  -0.2908 B(  1-C , 17-C ) :   0.3444 B(  1-C , 18-C ) :  -0.1509
B(  1-C , 23-H ) :  -0.1055 B(  1-C , 25-H ) :  -0.2675 B(  2-C ,  3-C ) :   1.1299
B(  2-C ,  5-C ) :  -0.2706 B(  2-C ,  6-H ) :  -0.2348 B(  2-C , 15-H ) :  -0.2073
B(  2-C , 16-H ) :   1.6855 B(  2-C , 17-C ) :   0.2627 B(  2-C , 18-C ) :   0.1689
B(  3-C ,  4-C ) :  -0.1096 B(  3-C ,  5-C ) :  -0.5539 B(  3-C , 15-H ) :   1.4505
B(  3-C , 18-C ) :  -0.1403 B(  4-C ,  5-C ) :   0.2329 B(  4-C ,  6-H ) :  -0.2975
B(  4-C ,  7-C ) :   0.3836 B(  4-C ,  8-C ) :  -0.1433 B(  4-C , 13-H ) :  -0.1040
B(  4-C , 15-H ) :  -0.2711 B(  4-C , 17-C ) :   0.3161 B(  5-C ,  6-H ) :   1.6861
B(  5-C ,  7-C ) :   0.2636 B(  5-C ,  8-C ) :   0.1402 B(  5-C , 15-H ) :   0.1094
B(  5-C , 16-H ) :  -0.2542 B(  5-C , 17-C ) :  -0.1102 B(  5-C , 25-H ) :  -0.2007
B(  6-H , 15-H ) :   0.1554 B(  7-C ,  8-C ) :   0.7332 B(  7-C , 14-H ) :   1.1438
B(  8-C ,  9-C ) :   0.6391 B(  8-C , 13-H ) :   1.1355 B(  8-C , 14-H ) :  -0.1366
B(  8-C , 18-C ) :   0.1379 B(  9-C , 10-H ) :   1.0164 B(  9-C , 11-H ) :   0.9524
B(  9-C , 12-H ) :   1.0140 B(  9-C , 13-H ) :  -0.1511 B( 16-H , 25-H ) :   0.1467
B( 17-C , 18-C ) :   0.7660 B( 17-C , 24-H ) :   1.1670 B( 18-C , 19-C ) :   0.6577
B( 18-C , 23-H ) :   1.0942 B( 18-C , 24-H ) :  -0.1399 B( 19-C , 20-H ) :   1.0194
B( 19-C , 21-H ) :   1.0230 B( 19-C , 22-H ) :   0.9366 B( 19-C , 23-H ) :  -0.1708

Dispersion correction           -0.045357741
FINAL SINGLE POINT ENERGY      -465.407752726161

DIPOLE MOMENT
-------------

Method             : SCF
Type of density    : Electron Density
Multiplicity       :   2
Irrep              :   0
Energy             :  -465.3623949856194599 Eh
Relativity type    :
Basis              : AO
                                X                 Y                 Z
Electronic contribution:     -0.000012085       0.000046471      -0.000111942
Nuclear contribution   :     -0.000009580      -0.000053351       0.000182982
                        -----------------------------------------
Total Dipole Moment    :     -0.000021665      -0.000006880       0.000071041
                        -----------------------------------------
Magnitude (a.u.)       :      0.000074589
Magnitude (Debye)      :      0.000189589

Rotational constants in cm-1:             0.145084             0.011081             0.010334
Rotational constants in MHz :          4349.508816           332.191507           309.803376

                             ****ORCA TERMINATED NORMALLY****
TOTAL RUN TIME: 0 days 0 hours 12 minutes 51 seconds 46 msec
