                         Program Version 6.0.0  -   RELEASE  -
|  1> !r2SCAN aug-cc-pVTZ d3 TightSCF SlowConv RIJCOSX defgrid2
|  2>
|  3> %pal
|  4> nprocs 4
|  5> end
|  6>
|  7> %scf
|  8> MaxIter 1500
|  9> end
| 10>
| 11> %maxcore 3000
| 12>
| 13> !CPCM
| 14> %cpcm smd true
| 15> SMDsolvent "MeCN"
| 16> surfacetype gepol_ses
| 17> rsolv 2.19
| 18> end
| 19>
| 20> * xyz -1 2
| 21> C          -0.46059128201799      1.20494017119812      0.00001211596921
| 22> C           0.92271322931352      1.21537673965483      0.00007247103149
| 23> C           1.63885056458078      0.00584757553838      0.00005340465348
| 24> C           0.94016898670995     -1.22082416695804     -0.00001729460884
| 25> C          -0.43745517805739     -1.22871797254679     -0.00008369129513
| 26> C          -1.21082253995963     -0.01928165729328     -0.00007938241516
| 27> C          -2.64176417107169     -0.09933130049804     -0.00014945388498
| 28> O          -3.27680801972250     -1.18193238288940     -0.00022292736286
| 29> C          -3.42795564044194      1.21049531549301     -0.00017211433464
| 30> H          -3.21403956731584      1.83831096883377      0.88847865430575
| 31> H          -3.21389493669869      1.83838205326155     -0.88873743958169
| 32> H          -4.50069805080380      0.95600695488766     -0.00026718717856
| 33> H          -0.99549954367814     -2.16941515727402     -0.00014058350972
| 34> H           1.50562929532190     -2.15884116459823     -0.00002292839518
| 35> Cl          3.39541668285857      0.02068681811563      0.00014426998260
| 36> H           1.47138203008123      2.16312523531408      0.00014024216876
| 37> H          -0.98755245909833      2.16458456976078      0.00003664445548
| 38> *
| 39>
| 40>                          ****END OF INPUT****

CARTESIAN COORDINATES (ANGSTROEM)
---------------------------------
  C     -0.460591    1.204940    0.000012
  C      0.922713    1.215377    0.000072
  C      1.638851    0.005848    0.000053
  C      0.940169   -1.220824   -0.000017
  C     -0.437455   -1.228718   -0.000084
  C     -1.210823   -0.019282   -0.000079
  C     -2.641764   -0.099331   -0.000149
  O     -3.276808   -1.181932   -0.000223
  C     -3.427956    1.210495   -0.000172
  H     -3.214040    1.838311    0.888479
  H     -3.213895    1.838382   -0.888737
  H     -4.500698    0.956007   -0.000267
  H     -0.995500   -2.169415   -0.000141
  H      1.505629   -2.158841   -0.000023
  Cl     3.395417    0.020687    0.000144
  H      1.471382    2.163125    0.000140
  H     -0.987552    2.164585    0.000037

 Total Charge           Charge          ....   -1
 Multiplicity           Mult            ....    2
 Number of Electrons    NEL             ....   81
 Basis Dimension        Dim             ....  625

ORBITAL ENERGIES
----------------
                 SPIN UP ORBITALS
  NO   OCC          E(Eh)            E(eV)
   0   1.0000    -101.210812     -2754.0862
   1   1.0000     -18.878892      -513.7208
   2   1.0000     -10.069313      -273.9999
   3   1.0000     -10.053871      -273.5797
   4   1.0000     -10.026593      -272.8375
   5   1.0000     -10.026328      -272.8302
   6   1.0000     -10.021912      -272.7101
   7   1.0000     -10.016666      -272.5673
   8   1.0000     -10.008787      -272.3530
   9   1.0000     -10.006296      -272.2852
  10   1.0000      -9.363192      -254.7854
  11   1.0000      -7.108025      -193.4192
  12   1.0000      -7.099875      -193.1974
  13   1.0000      -7.099557      -193.1888
  14   1.0000      -0.932584       -25.3769
  15   1.0000      -0.831254       -22.6196
  16   1.0000      -0.777022       -21.1438
  17   1.0000      -0.701142       -19.0790
  18   1.0000      -0.693804       -18.8794
  19   1.0000      -0.652744       -17.7621
  20   1.0000      -0.566484       -15.4148
  21   1.0000      -0.552388       -15.0312
  22   1.0000      -0.492546       -13.4029
  23   1.0000      -0.444915       -12.1067
  24   1.0000      -0.412292       -11.2190
  25   1.0000      -0.398332       -10.8392
  26   1.0000      -0.385419       -10.4878
  27   1.0000      -0.377938       -10.2842
  28   1.0000      -0.371299       -10.1036
  29   1.0000      -0.351856        -9.5745
  30   1.0000      -0.339790        -9.2462
  31   1.0000      -0.335796        -9.1375
  32   1.0000      -0.309228        -8.4145
  33   1.0000      -0.306308        -8.3351
  34   1.0000      -0.289047        -7.8654
  35   1.0000      -0.279296        -7.6000
  36   1.0000      -0.270284        -7.3548
  37   1.0000      -0.230956        -6.2846
  38   1.0000      -0.209261        -5.6943
  39   1.0000      -0.176265        -4.7964
  40   1.0000      -0.081287        -2.2119
  41   0.0000      -0.023680        -0.6444
  42   0.0000       0.002535         0.0690
  43   0.0000       0.010758         0.2927
  44   0.0000       0.019655         0.5348
  45   0.0000       0.020381         0.5546

                 SPIN DOWN ORBITALS
  NO   OCC          E(Eh)            E(eV)
   0   1.0000    -101.210690     -2754.0829
   1   1.0000     -18.872828      -513.5558
   2   1.0000     -10.063715      -273.8476
   3   1.0000     -10.049390      -273.4578
   4   1.0000     -10.028005      -272.8759
   5   1.0000     -10.027624      -272.8655
   6   1.0000     -10.019367      -272.6408
   7   1.0000     -10.013941      -272.4932
   8   1.0000     -10.007231      -272.3106
   9   1.0000     -10.006680      -272.2956
  10   1.0000      -9.363123      -254.7835
  11   1.0000      -7.108143      -193.4224
  12   1.0000      -7.099496      -193.1871
  13   1.0000      -7.099393      -193.1843
  14   1.0000      -0.922816       -25.1111
  15   1.0000      -0.827004       -22.5039
  16   1.0000      -0.773949       -21.0602
  17   1.0000      -0.697704       -18.9855
  18   1.0000      -0.688478       -18.7344
  19   1.0000      -0.650648       -17.7050
  20   1.0000      -0.557240       -15.1633
  21   1.0000      -0.550207       -14.9719
  22   1.0000      -0.488710       -13.2985
  23   1.0000      -0.440422       -11.9845
  24   1.0000      -0.410884       -11.1807
  25   1.0000      -0.394557       -10.7365
  26   1.0000      -0.384299       -10.4573
  27   1.0000      -0.370723       -10.0879
  28   1.0000      -0.366733        -9.9793
  29   1.0000      -0.341560        -9.2943
  30   1.0000      -0.336449        -9.1552
  31   1.0000      -0.334530        -9.1030
  32   1.0000      -0.306818        -8.3490
  33   1.0000      -0.295193        -8.0326
  34   1.0000      -0.288130        -7.8404
  35   1.0000      -0.269495        -7.3333
  36   1.0000      -0.263565        -7.1720
  37   1.0000      -0.223175        -6.0729
  38   1.0000      -0.192536        -5.2392
  39   1.0000      -0.171563        -4.6685
  40   0.0000      -0.044654        -1.2151
  41   0.0000      -0.018739        -0.5099
  42   0.0000       0.005611         0.1527
  43   0.0000       0.016015         0.4358
  44   0.0000       0.021646         0.5890

MULLIKEN ATOMIC CHARGES AND SPIN POPULATIONS
--------------------------------------------
   0 C :   -0.373877    0.250361
   1 C :   -0.934409   -0.143844
   2 C :    0.565961    0.308742
   3 C :   -0.777399   -0.148680
   4 C :   -0.961238    0.237621
   5 C :    1.763532    0.055791
   6 C :    0.424877    0.243875
   7 O :   -1.078109    0.211702
   8 C :   -0.560087   -0.053708
   9 H :    0.197177    0.020473
  10 H :    0.198179    0.020461
  11 H :    0.130298   -0.006969
  12 H :    0.101698   -0.012654
  13 H :    0.400357   -0.004913
  14 Cl:   -0.469595    0.033317
  15 H :    0.367024   -0.003335
  16 H :    0.005611   -0.008239
Sum of atomic charges         :   -1.0000000

LOEWDIN ATOMIC CHARGES AND SPIN POPULATIONS
-------------------------------------------
   0 C :    0.143963    0.088534
   1 C :    0.049977    0.028943
   2 C :   -0.819245    0.148515
   3 C :    0.049982    0.026948
   4 C :    0.129337    0.089594
   5 C :   -0.210181    0.124184
   6 C :   -0.672546    0.177630
   7 O :    0.345621    0.185004
   8 C :    0.501197    0.032877
   9 H :   -0.178650    0.008472
  10 H :   -0.178686    0.008471
  11 H :   -0.203850   -0.000819
  12 H :   -0.214301    0.019573
  13 H :   -0.208617   -0.004768
  14 Cl:    0.876254    0.051975
  15 H :   -0.207716   -0.003953
  16 H :   -0.202537    0.018819

  Mayer bond orders larger than 0.100000
B(  0-C ,  1-C ) :   0.9526 B(  0-C ,  3-C ) :  -0.2156 B(  0-C ,  4-C ) :  -0.4472
B(  0-C ,  5-C ) :   0.1202 B(  0-C ,  6-C ) :   0.1868 B(  0-C , 16-H ) :   1.4303
B(  1-C ,  2-C ) :   1.1727 B(  1-C ,  3-C ) :   0.1564 B(  1-C , 14-Cl) :   0.1419
B(  1-C , 15-H ) :   0.6703 B(  2-C ,  3-C ) :   1.1463 B(  2-C , 14-Cl) :   0.3286
B(  3-C ,  4-C ) :   1.3673 B(  3-C , 13-H ) :   0.6623 B(  3-C , 14-Cl) :   0.1599
B(  4-C ,  5-C ) :  -0.1068 B(  4-C ,  6-C ) :   0.4230 B(  4-C , 12-H ) :   1.1038
B(  5-C ,  6-C ) :   0.3043 B(  5-C ,  7-O ) :   0.2194 B(  5-C , 12-H ) :  -0.1303
B(  5-C , 16-H ) :  -0.2710 B(  6-C ,  7-O ) :   0.6603 B(  6-C ,  8-C ) :   0.9045
B(  7-O , 12-H ) :   0.1041 B(  8-C ,  9-H ) :   0.9823 B(  8-C , 10-H ) :   0.9818
B(  8-C , 11-H ) :   0.9711

Dispersion correction           -0.005804356
FINAL SINGLE POINT ENERGY      -844.515712146043

DIPOLE MOMENT
-------------

Method             : SCF
Type of density    : Electron Density
Multiplicity       :   2
Irrep              :   0
Energy             :  -844.5099077898564701 Eh
Relativity type    :
Basis              : AO
                                X                 Y                 Z
Electronic contribution:     16.035627898      -2.901889610       0.001266064
Nuclear contribution   :    -13.986086072       4.323351945      -0.000564645
                        -----------------------------------------
Total Dipole Moment    :      2.049541826       1.421462335       0.000701420
                        -----------------------------------------
Magnitude (a.u.)       :      2.494228810
Magnitude (Debye)      :      6.339825802

Rotational constants in cm-1:             0.120838             0.018120             0.015805
Rotational constants in MHz :          3622.634829           543.238146           473.808861

                             ****ORCA TERMINATED NORMALLY****
TOTAL RUN TIME: 0 days 0 hours 5 minutes 9 seconds 439 msec
