                         Program Version 6.0.0  -   RELEASE  -
|  1> !PBE0 aug-cc-pVTZ d3 TightSCF SlowConv RIJCOSX defgrid2
|  2>
|  3> %pal
|  4> nprocs 4
|  5> end
|  6>
|  7> %scf
|  8> MaxIter 1500
|  9> end
| 10>
| 11> %maxcore 3000
| 12>
| 13> !CPCM
| 14> %cpcm smd true
| 15> SMDsolvent "MeCN"
| 16> surfacetype gepol_ses
| 17> rsolv 2.19
| 18> end
| 19>
| 20> * xyz 1 2
| 21> C           0.36827679708562      1.12909958561368      0.00001201858489
| 22> C           1.23021186730918     -0.05147463040440     -0.00001068145654
| 23> C           0.32335488869874     -1.13603513764026      0.00001262805170
| 24> N          -0.92044080134995     -0.70993319155687     -0.00001608440871
| 25> N          -0.85103182536878      0.66975840476644     -0.00001794399136
| 26> H          -1.72751346867464      1.19655640497152     -0.00003121087121
| 27> H           0.53889211956751     -2.20626533221750      0.00002437345705
| 28> H           2.32274963721698     -0.05868473826387     -0.00000548893473
| 29> H           0.61922738551534      2.19354113473125      0.00001908956891
| 30> *
| 31>
| 32>                          ****END OF INPUT****

CARTESIAN COORDINATES (ANGSTROEM)
---------------------------------
  C      0.368277    1.129100    0.000012
  C      1.230212   -0.051475   -0.000011
  C      0.323355   -1.136035    0.000013
  N     -0.920441   -0.709933   -0.000016
  N     -0.851032    0.669758   -0.000018
  H     -1.727513    1.196556   -0.000031
  H      0.538892   -2.206265    0.000024
  H      2.322750   -0.058685   -0.000005
  H      0.619227    2.193541    0.000019

 Total Charge           Charge          ....    1
 Multiplicity           Mult            ....    2
 Number of Electrons    NEL             ....   35
 Basis Dimension        Dim             ....  322

ORBITAL ENERGIES
----------------
                 SPIN UP ORBITALS
  NO   OCC          E(Eh)            E(eV)
   0   1.0000     -14.530267      -395.3887
   1   1.0000     -14.491410      -394.3313
   2   1.0000     -10.361391      -281.9478
   3   1.0000     -10.334253      -281.2093
   4   1.0000     -10.305929      -280.4386
   5   1.0000      -1.150270       -31.3005
   6   1.0000      -0.926380       -25.2081
   7   1.0000      -0.873491       -23.7689
   8   1.0000      -0.695850       -18.9350
   9   1.0000      -0.674109       -18.3434
  10   1.0000      -0.623571       -16.9682
  11   1.0000      -0.536186       -14.5904
  12   1.0000      -0.512691       -13.9510
  13   1.0000      -0.507787       -13.8176
  14   1.0000      -0.472015       -12.8442
  15   1.0000      -0.378843       -10.3089
  16   1.0000      -0.358620        -9.7586
  17   1.0000      -0.351856        -9.5745
  18   0.0000      -0.059363        -1.6154
  19   0.0000      -0.011433        -0.3111
  20   0.0000       0.000178         0.0048
  21   0.0000       0.018440         0.5018
  22   0.0000       0.021246         0.5781

                 SPIN DOWN ORBITALS
  NO   OCC          E(Eh)            E(eV)
   0   1.0000     -14.530036      -395.3824
   1   1.0000     -14.484207      -394.1353
   2   1.0000     -10.357958      -281.8544
   3   1.0000     -10.324709      -280.9496
   4   1.0000     -10.308609      -280.5115
   5   1.0000      -1.140828       -31.0435
   6   1.0000      -0.920535       -25.0490
   7   1.0000      -0.849429       -23.1141
   8   1.0000      -0.684105       -18.6155
   9   1.0000      -0.672081       -18.2883
  10   1.0000      -0.616367       -16.7722
  11   1.0000      -0.508851       -13.8465
  12   1.0000      -0.505070       -13.7437
  13   1.0000      -0.503334       -13.6964
  14   1.0000      -0.467495       -12.7212
  15   1.0000      -0.369978       -10.0676
  16   1.0000      -0.343931        -9.3588
  17   0.0000      -0.217105        -5.9077
  18   0.0000      -0.023749        -0.6463
  19   0.0000       0.001363         0.0371
  20   0.0000       0.018896         0.5142
  21   0.0000       0.021669         0.5897

MULLIKEN ATOMIC CHARGES AND SPIN POPULATIONS
--------------------------------------------
   0 C :   -0.298584    0.206802
   1 C :   -0.068800    0.595451
   2 C :   -0.174281   -0.132452
   3 N :   -0.568366    0.320557
   4 N :    0.288561    0.017930
   5 H :    0.190339    0.001762
   6 H :    0.561783    0.002004
   7 H :    0.491649   -0.010711
   8 H :    0.577700   -0.001343
Sum of atomic charges         :    1.0000000

LOEWDIN ATOMIC CHARGES AND SPIN POPULATIONS
-------------------------------------------
   0 C :    0.276251    0.207993
   1 C :    0.364999    0.338526
   2 C :    0.074491    0.066224
   3 N :    0.375714    0.214495
   4 N :    0.429052    0.089407
   5 H :   -0.174436    0.003900
   6 H :   -0.147238   -0.013077
   7 H :   -0.113962    0.066827
   8 H :   -0.084871    0.025707

  Mayer bond orders larger than 0.100000
B(  0-C ,  1-C ) :   0.9188 B(  0-C ,  4-N ) :   1.6138 B(  0-C ,  8-H ) :   0.5772
B(  1-C ,  2-C ) :   1.0097 B(  1-C ,  7-H ) :   0.7335 B(  2-C ,  3-N ) :   1.4491
B(  2-C ,  6-H ) :   0.6190 B(  3-N ,  4-N ) :   0.3353 B(  4-N ,  5-H ) :   1.0359

Dispersion correction           -0.005628670
FINAL SINGLE POINT ENERGY      -225.799073004537

DIPOLE MOMENT
-------------

Method             : SCF
Type of density    : Electron Density
Multiplicity       :   2
Irrep              :   0
Energy             :  -225.7934443348278819 Eh
Relativity type    :
Basis              : AO
                                X                 Y                 Z
Electronic contribution:     -0.716082376       0.398539568       0.000996488
Nuclear contribution   :      1.633121789       1.062560564       0.000022858
                        -----------------------------------------
Total Dipole Moment    :      0.917039413       1.461100132       0.001019346
                        -----------------------------------------
Magnitude (a.u.)       :      1.725043745
Magnitude (Debye)      :      4.384712740

Rotational constants in cm-1:             0.324934             0.302591             0.156683
Rotational constants in MHz :          9741.285807          9071.463346          4697.225081

                             ****ORCA TERMINATED NORMALLY****
TOTAL RUN TIME: 0 days 0 hours 1 minutes 22 seconds 822 msec
