                         Program Version 6.0.0  -   RELEASE  -
|  1> !B3LYP opt aug-cc-pVTZ d3 TightSCF SlowConv RIJCOSX defgrid2
|  2>
|  3> %pal
|  4> nprocs 8
|  5> end
|  6>
|  7> %scf
|  8> MaxIter 1500
|  9> end
| 10>
| 11> %maxcore 3500
| 12>
| 13> !CPCM
| 14> %cpcm smd true
| 15> SMDsolvent "MeCN"
| 16> surfacetype gepol_ses
| 17> rsolv 2.19
| 18> end
| 19>
| 20> * xyz 0 1
| 21>   C           2.40151675442959     -0.84798585379100      0.65753895397887
| 22>   C           1.27266424852961     -0.39481725673195     -0.03583141869382
| 23>   C           1.38011588468201      0.78238816818387     -0.78741687955246
| 24>   C           2.58394783406903      1.47326480307467     -0.85979269046365
| 25>   C           3.70131083914128      1.00832651393014     -0.17045773225976
| 26>   C           3.60452235841405     -0.15428446437148      0.59022014490624
| 27>   H           4.46427632456242     -0.51593666886599      1.14150423927602
| 28>   H           4.63713557146549      1.55173882888937     -0.21931795906959
| 29>   H           2.64948680121802      2.37641308570170     -1.45463453632497
| 30>   H           0.51737616648935      1.15050278742381     -1.32885639310577
| 31>   C          -0.00001304597097     -1.15621871764186      0.00018757468695
| 32>   C           0.00005304400368     -2.49840698904332      0.00014554926908
| 33>   H          -0.92182010055571     -3.06314745934077      0.06701575757582
| 34>   H           0.92198753283710     -3.06304217067142     -0.06678377972214
| 35>   C          -1.27274475342979     -0.39491342174637      0.03611225862761
| 36>   C          -2.40142785222447     -0.84793215190418     -0.65761946587989
| 37>   C          -3.60437014035580     -0.15407643932380     -0.59067195932158
| 38>   C          -3.70128640460221      1.00849870338361      0.17003867439614
| 39>   C          -2.58413111853620      1.47320474173454      0.85985101573710
| 40>   C          -1.38039040462091      0.78217919703926      0.78779983749973
| 41>   H          -0.51785455417022      1.15005732928396      1.32970971316195
| 42>   H          -2.64977022861671      2.37627771772743      1.45478992245956
| 43>   H          -4.63705678031490      1.55203765026455      0.21859473287916
| 44>   H          -4.46396463126485     -0.51556504621463     -1.14230583063618
| 45>   H          -2.32700387529532     -1.74064187324053     -1.26685971631834
| 46>   H           2.32721043011644     -1.74071501374962      1.26676348689389
| 47> *
| 48>
| 49>                          ****END OF INPUT****
 Total Charge           Charge          ....    0
 Multiplicity           Mult            ....    1
 Number of Electrons    NEL             ....   96
Dispersion correction           -0.056041974
FINAL SINGLE POINT ENERGY      -540.612049529928
Dispersion correction             ... done (  0.0 sec)
Dispersion correction           -0.055949026
FINAL SINGLE POINT ENERGY      -540.612147374623
Dispersion correction             ... done (  0.0 sec)
Dispersion correction           -0.055995005
FINAL SINGLE POINT ENERGY      -540.612154201336
Dispersion correction             ... done (  0.0 sec)
Dispersion correction           -0.056002999
FINAL SINGLE POINT ENERGY      -540.612157735081
Dispersion correction             ... done (  0.0 sec)
                    ***********************HURRAY********************

CARTESIAN COORDINATES (ANGSTROEM)
---------------------------------
  C      2.393724   -0.827973    0.675655
  C      1.272621   -0.397101   -0.040692
  C      1.385743    0.760508   -0.817998
  C      2.587051    1.452592   -0.894022
  C      3.696880    1.009322   -0.181719
  C      3.594288   -0.132792    0.605526
  H      4.447190   -0.477497    1.174896
  H      4.630452    1.553146   -0.233975
  H      2.656085    2.339902   -1.509015
  H      0.530614    1.114958   -1.376396
  C     -0.000016   -1.159912    0.000438
  C      0.000044   -2.498724    0.000548
  H     -0.919300   -3.063780    0.070590
  H      0.919449   -3.063691   -0.069372
  C     -1.272724   -0.397218    0.041236
  C     -2.393368   -0.827750   -0.676006
  C     -3.593844   -0.132326   -0.606646
  C     -3.696858    1.009613    0.180821
  C     -2.587506    1.452392    0.894176
  C     -1.386301    0.760092    0.818861
  H     -0.531631    1.114089    1.378232
  H     -2.656886    2.339498    1.509419
  H     -4.630365    1.553650    0.232468
  H     -4.446349   -0.476682   -1.176773
  H     -2.316873   -1.703366   -1.305884
  H      2.317651   -1.703743    1.305354

 Multiplicity           Mult            ....    1
 Number of Electrons    NEL             ....   96
 Basis Dimension        Dim             ....  920

ORBITAL ENERGIES
----------------

  NO   OCC          E(Eh)            E(eV)
   0   2.0000     -10.189710      -277.2761
   1   2.0000     -10.185939      -277.1735
   2   2.0000     -10.185916      -277.1729
   3   2.0000     -10.173793      -276.8430
   4   2.0000     -10.173788      -276.8428
   5   2.0000     -10.173681      -276.8399
   6   2.0000     -10.173681      -276.8399
   7   2.0000     -10.173268      -276.8287
   8   2.0000     -10.173263      -276.8286
   9   2.0000     -10.172994      -276.8213
  10   2.0000     -10.172992      -276.8212
  11   2.0000     -10.172650      -276.8119
  12   2.0000     -10.172646      -276.8118
  13   2.0000     -10.162637      -276.5394
  14   2.0000      -0.871440       -23.7131
  15   2.0000      -0.855350       -23.2753
  16   2.0000      -0.805241       -21.9117
  17   2.0000      -0.748630       -20.3712
  18   2.0000      -0.748284       -20.3618
  19   2.0000      -0.742946       -20.2166
  20   2.0000      -0.717774       -19.5316
  21   2.0000      -0.630931       -17.1685
  22   2.0000      -0.608300       -16.5527
  23   2.0000      -0.599927       -16.3248
  24   2.0000      -0.597011       -16.2455
  25   2.0000      -0.550681       -14.9848
  26   2.0000      -0.523439       -14.2435
  27   2.0000      -0.499563       -13.5938
  28   2.0000      -0.466197       -12.6859
  29   2.0000      -0.461000       -12.5444
  30   2.0000      -0.450351       -12.2547
  31   2.0000      -0.440947       -11.9988
  32   2.0000      -0.437719       -11.9109
  33   2.0000      -0.419090       -11.4040
  34   2.0000      -0.418660       -11.3923
  35   2.0000      -0.415667       -11.3109
  36   2.0000      -0.382229       -10.4010
  37   2.0000      -0.372731       -10.1425
  38   2.0000      -0.372414       -10.1339
  39   2.0000      -0.355384        -9.6705
  40   2.0000      -0.344634        -9.3780
  41   2.0000      -0.337478        -9.1832
  42   2.0000      -0.331077        -9.0091
  43   2.0000      -0.301339        -8.1999
  44   2.0000      -0.262168        -7.1340
  45   2.0000      -0.257985        -7.0201
  46   2.0000      -0.255297        -6.9470
  47   2.0000      -0.225965        -6.1488
  48   0.0000      -0.044281        -1.2049
  49   0.0000      -0.022330        -0.6076
  50   0.0000      -0.017917        -0.4876
  51   0.0000      -0.005078        -0.1382
  52   0.0000      -0.003687        -0.1003

MULLIKEN ATOMIC CHARGES
-----------------------
   0 C :   -1.231497
   1 C :    2.388978
   2 C :   -0.791287
   3 C :   -0.807971
   4 C :   -0.157090
   5 C :   -0.721608
   6 H :    0.465535
   7 H :    0.460305
   8 H :    0.496550
   9 H :   -0.018252
  10 C :    0.871315
  11 C :   -1.327376
  12 H :    0.243509
  13 H :    0.243192
  14 C :    2.367096
  15 C :   -1.262344
  16 C :   -0.756226
  17 C :   -0.180454
  18 C :   -0.836293
  19 C :   -0.766060
  20 H :   -0.027231
  21 H :    0.493532
  22 H :    0.421123
  23 H :    0.665816
  24 H :   -0.135669
  25 H :   -0.097595
Sum of atomic charges:    0.0000000

LOEWDIN ATOMIC CHARGES
----------------------
   0 C :    0.209185
   1 C :   -0.140669
   2 C :    0.207569
   3 C :    0.202302
   4 C :    0.192845
   5 C :    0.200258
   6 H :   -0.176213
   7 H :   -0.178082
   8 H :   -0.175635
   9 H :   -0.168477
  10 C :   -0.139693
  11 C :    0.551393
  12 H :   -0.202951
  13 H :   -0.202982
  14 C :   -0.140717
  15 C :    0.209231
  16 C :    0.200301
  17 C :    0.192885
  18 C :    0.202303
  19 C :    0.207498
  20 H :   -0.168566
  21 H :   -0.175639
  22 H :   -0.178068
  23 H :   -0.176200
  24 H :   -0.175929
  25 H :   -0.175949

  Mayer bond orders larger than 0.100000
B(  0-C ,  2-C ) :  -0.6763 B(  0-C ,  3-C ) :   0.1335 B(  0-C ,  4-C ) :  -0.1645
B(  0-C ,  5-C ) :   1.3521 B(  0-C ,  6-H ) :  -0.1955 B(  0-C ,  9-H ) :   0.1077
B(  0-C , 10-C ) :   0.3813 B(  0-C , 11-C ) :   0.1140 B(  0-C , 14-C ) :  -0.1296
B(  0-C , 25-H ) :   1.8525 B(  1-C ,  2-C ) :   0.3211 B(  1-C ,  4-C ) :  -0.1300
B(  1-C ,  8-H ) :   0.1163 B(  1-C ,  9-H ) :  -0.1773 B(  1-C , 10-C ) :  -0.1791
B(  1-C , 11-C ) :  -0.2840 B(  1-C , 14-C ) :  -0.1532 B(  1-C , 15-C ) :  -0.1179
B(  1-C , 23-H ) :   0.1149 B(  1-C , 25-H ) :  -0.2468 B(  2-C ,  3-C ) :   1.2888
B(  2-C ,  4-C ) :  -0.1329 B(  2-C ,  8-H ) :  -0.1039 B(  2-C ,  9-H ) :   1.6135
B(  2-C , 10-C ) :   0.2689 B(  2-C , 11-C ) :   0.1149 B(  2-C , 19-C ) :   0.1531
B(  3-C ,  4-C ) :   1.2694 B(  3-C ,  5-C ) :   0.2366 B(  3-C ,  8-H ) :   0.4910
B(  3-C , 25-H ) :  -0.1270 B(  4-C ,  5-C ) :   1.1466 B(  4-C ,  7-H ) :   0.6417
B(  4-C , 10-C ) :   0.1969 B(  5-C ,  6-H ) :   0.6176 B(  5-C ,  7-H ) :  -0.1135
B(  9-H , 25-H ) :   0.2275 B( 10-C , 11-C ) :   0.6872 B( 10-C , 14-C ) :  -0.1738
B( 10-C , 15-C ) :   0.3651 B( 10-C , 17-C ) :   0.2089 B( 10-C , 19-C ) :   0.2898
B( 10-C , 24-H ) :  -0.1951 B( 10-C , 25-H ) :  -0.1788 B( 11-C , 12-H ) :   1.0162
B( 11-C , 13-H ) :   1.0181 B( 11-C , 14-C ) :  -0.2831 B( 11-C , 15-C ) :   0.1166
B( 11-C , 19-C ) :   0.1066 B( 14-C , 19-C ) :   0.3422 B( 14-C , 20-H ) :  -0.1738
B( 14-C , 21-H ) :   0.1137 B( 14-C , 24-H ) :  -0.2588 B( 15-C , 16-C ) :   1.3980
B( 15-C , 17-C ) :  -0.2129 B( 15-C , 18-C ) :   0.1551 B( 15-C , 19-C ) :  -0.6835
B( 15-C , 20-H ) :   0.1476 B( 15-C , 22-H ) :   0.1057 B( 15-C , 23-H ) :  -0.1921
B( 15-C , 24-H ) :   1.9329 B( 16-C , 17-C ) :   1.1678 B( 16-C , 18-C ) :   0.2905
B( 16-C , 20-H ) :  -0.1207 B( 16-C , 23-H ) :   0.2472 B( 17-C , 18-C ) :   1.2752
B( 17-C , 19-C ) :  -0.1413 B( 17-C , 20-H ) :  -0.1103 B( 17-C , 22-H ) :   0.6893
B( 17-C , 23-H ) :   0.1110 B( 18-C , 19-C ) :   1.2985 B( 18-C , 21-H ) :   0.4922
B( 18-C , 24-H ) :  -0.1094 B( 19-C , 20-H ) :   1.6073 B( 20-H , 24-H ) :   0.2496
B( 23-H , 24-H ) :  -0.1072

Dispersion correction           -0.055998489
FINAL SINGLE POINT ENERGY      -540.612155491902

DIPOLE MOMENT
-------------

Method             : SCF
Type of density    : Electron Density
Multiplicity       :   1
Irrep              :   0
Energy             :  -540.5561570027110747 Eh
Relativity type    :
Basis              : AO
                                X                 Y                 Z
Electronic contribution:     -0.000849320       0.603040366      -0.000665596
Nuclear contribution   :      0.000233187      -0.467485635      -0.000533359
                        -----------------------------------------
Total Dipole Moment    :     -0.000616133       0.135554731      -0.001198954
                        -----------------------------------------
Magnitude (a.u.)       :      0.135561434
Magnitude (Debye)      :      0.344569781

Rotational constants in cm-1:             0.053487             0.014011             0.012242
Rotational constants in MHz :          1603.507408           420.036437           367.008083

                             ****ORCA TERMINATED NORMALLY****
TOTAL RUN TIME: 0 days 0 hours 41 minutes 41 seconds 975 msec
