                         Program Version 6.0.0  -   RELEASE  -
|  1> !TPSSh opt aug-cc-pVTZ d3 TightSCF SlowConv RIJCOSX defgrid2
|  2>
|  3> %pal
|  4> nprocs 8
|  5> end
|  6>
|  7> %scf
|  8> MaxIter 1500
|  9> end
| 10>
| 11> %maxcore 3500
| 12>
| 13> !CPCM
| 14> %cpcm smd true
| 15> SMDsolvent "MeCN"
| 16> surfacetype gepol_ses
| 17> rsolv 2.19
| 18> end
| 19>
| 20> * xyz 1 2
| 21> C           2.42348472290459     -0.91745853608407      0.59245240880380
| 22> C           1.25995896348321     -0.39202749196625     -0.02333100512405
| 23> C           1.34845533499414      0.85031226217091     -0.70354304574749
| 24> C           2.54901795106357      1.53889253592779     -0.75588972072195
| 25> C           3.68078809059867      1.01347219167219     -0.12249703890860
| 26> C           3.61293527426724     -0.21317645517309      0.55511971135216
| 27> H           4.49963825852970     -0.61051765955941      1.05572901180402
| 28> H           4.62917087127076      1.55697433746367     -0.16496199627931
| 29> H           2.61592640542583      2.48137948500377     -1.30532606762871
| 30> H           0.47393529747941      1.23580556067586     -1.23411925330570
| 31> C          -0.00001731418985     -1.11439032518152     -0.00002747562644
| 32> C          -0.00002568960524     -2.50679262514812     -0.00005487800504
| 33> H          -0.93480054732863     -3.07584961343870     -0.00342574946663
| 34> H           0.93474533226452     -3.07585703929259      0.00329162420143
| 35> C          -1.25998231282226     -0.39200541574857      0.02329276572865
| 36> C          -2.42352655120021     -0.91741544935804     -0.59247757528391
| 37> C          -3.61296415978219     -0.21311035984979     -0.55512705740855
| 38> C          -3.68079177573927      1.01353038434026      0.12250956134291
| 39> C          -2.54900448879428      1.53892565378929      0.75589582496725
| 40> C          -1.34845157706727      0.85032505299238      0.70352498564033
| 41> H          -0.47391984231340      1.23578710201298      1.23410367351677
| 42> H          -2.61589448475022      2.48140107327864      1.30534730547376
| 43> H          -4.62916722704471      1.55704319189423      0.16499523284128
| 44> H          -4.49967994828211     -0.61043350047146     -1.05572841225155
| 45> H          -2.37320187697182     -1.85878167189054     -1.14547741375033
| 46> H           2.37313869360983     -1.85882668805983      1.14544868383589
| 47> *
| 48>
| 49>                          ****END OF INPUT****
 Total Charge           Charge          ....    1
 Multiplicity           Mult            ....    2
 Number of Electrons    NEL             ....   95
Dispersion correction           -0.038747755
FINAL SINGLE POINT ENERGY      -540.767560557675
Dispersion correction             ... done (  0.0 sec)
Dispersion correction           -0.038987642
FINAL SINGLE POINT ENERGY      -540.768632513716
Dispersion correction             ... done (  0.1 sec)
Dispersion correction           -0.038865058
FINAL SINGLE POINT ENERGY      -540.768645477025
Dispersion correction             ... done (  0.1 sec)
Dispersion correction           -0.038909746
FINAL SINGLE POINT ENERGY      -540.768803078942
Dispersion correction             ... done (  0.1 sec)
Dispersion correction           -0.038922537
FINAL SINGLE POINT ENERGY      -540.768797254125
Dispersion correction             ... done (  0.0 sec)
                    ***********************HURRAY********************

CARTESIAN COORDINATES (ANGSTROEM)
---------------------------------
  C      2.422304   -0.939672    0.553957
  C      1.259516   -0.385610   -0.027313
  C      1.345159    0.873345   -0.665441
  C      2.545286    1.556106   -0.705622
  C      3.678568    1.005842   -0.103681
  C      3.611872   -0.241124    0.527361
  H      4.493544   -0.656838    0.997128
  H      4.618860    1.541587   -0.135862
  H      2.608961    2.508440   -1.215209
  H      0.476076    1.275760   -1.167991
  C     -0.000006   -1.102338    0.000196
  C     -0.000035   -2.489333    0.000185
  H     -0.924727   -3.049994   -0.019295
  H      0.924627   -3.050044    0.019686
  C     -1.259524   -0.385589    0.027576
  C     -2.422152   -0.939520   -0.554116
  C     -3.611695   -0.240916   -0.527852
  C     -3.678547    1.005987    0.103281
  C     -2.545446    1.556111    0.705703
  C     -1.345358    0.873270    0.665863
  H     -0.476521    1.275619    1.168904
  H     -2.609241    2.508387    1.215374
  H     -4.618818    1.541785    0.135153
  H     -4.493221   -0.656535   -0.997975
  H     -2.368914   -1.893646   -1.060957
  H      2.369198   -1.893873    1.060671

 Multiplicity           Mult            ....    2
 Number of Electrons    NEL             ....   95
 Basis Dimension        Dim             ....  920

ORBITAL ENERGIES
----------------
                 SPIN UP ORBITALS
  NO   OCC          E(Eh)            E(eV)
   0   1.0000     -10.189179      -277.2617
   1   1.0000     -10.179846      -277.0077
   2   1.0000     -10.165361      -276.6135
   3   1.0000     -10.165356      -276.6134
   4   1.0000     -10.148328      -276.1501
   5   1.0000     -10.148320      -276.1498
   6   1.0000     -10.147756      -276.1345
   7   1.0000     -10.147711      -276.1333
   8   1.0000     -10.146580      -276.1025
   9   1.0000     -10.146578      -276.1024
  10   1.0000     -10.137033      -275.8427
  11   1.0000     -10.137030      -275.8426
  12   1.0000     -10.136512      -275.8285
  13   1.0000     -10.136502      -275.8282
  14   1.0000      -0.888319       -24.1724
  15   1.0000      -0.862573       -23.4718
  16   1.0000      -0.824791       -22.4437
  17   1.0000      -0.760315       -20.6892
  18   1.0000      -0.758361       -20.6361
  19   1.0000      -0.750328       -20.4175
  20   1.0000      -0.735711       -20.0197
  21   1.0000      -0.653673       -17.7873
  22   1.0000      -0.619727       -16.8636
  23   1.0000      -0.610796       -16.6206
  24   1.0000      -0.603911       -16.4333
  25   1.0000      -0.562738       -15.3129
  26   1.0000      -0.533634       -14.5209
  27   1.0000      -0.513047       -13.9607
  28   1.0000      -0.477334       -12.9889
  29   1.0000      -0.475500       -12.9390
  30   1.0000      -0.457782       -12.4569
  31   1.0000      -0.449232       -12.2242
  32   1.0000      -0.448378       -12.2010
  33   1.0000      -0.428205       -11.6520
  34   1.0000      -0.427339       -11.6285
  35   1.0000      -0.425517       -11.5789
  36   1.0000      -0.398408       -10.8412
  37   1.0000      -0.392443       -10.6789
  38   1.0000      -0.384377       -10.4594
  39   1.0000      -0.364084        -9.9072
  40   1.0000      -0.353751        -9.6260
  41   1.0000      -0.348322        -9.4783
  42   1.0000      -0.344033        -9.3616
  43   1.0000      -0.333427        -9.0730
  44   1.0000      -0.277129        -7.5411
  45   1.0000      -0.274676        -7.4743
  46   1.0000      -0.269225        -7.3260
  47   1.0000      -0.256359        -6.9759
  48   0.0000      -0.109192        -2.9713
  49   0.0000      -0.060690        -1.6514
  50   0.0000      -0.050799        -1.3823
  51   0.0000      -0.037525        -1.0211
  52   0.0000      -0.008211        -0.2234

                 SPIN DOWN ORBITALS
  NO   OCC          E(Eh)            E(eV)
   0   1.0000     -10.189580      -277.2726
   1   1.0000     -10.171135      -276.7707
   2   1.0000     -10.164155      -276.5807
   3   1.0000     -10.164150      -276.5806
   4   1.0000     -10.146846      -276.1097
   5   1.0000     -10.146801      -276.1085
   6   1.0000     -10.146416      -276.0980
   7   1.0000     -10.146408      -276.0978
   8   1.0000     -10.145786      -276.0809
   9   1.0000     -10.145784      -276.0808
  10   1.0000     -10.137390      -275.8524
  11   1.0000     -10.137386      -275.8523
  12   1.0000     -10.136944      -275.8403
  13   1.0000     -10.136934      -275.8400
  14   1.0000      -0.884611       -24.0715
  15   1.0000      -0.859985       -23.4014
  16   1.0000      -0.819252       -22.2930
  17   1.0000      -0.758183       -20.6312
  18   1.0000      -0.755930       -20.5699
  19   1.0000      -0.747925       -20.3521
  20   1.0000      -0.724308       -19.7094
  21   1.0000      -0.648155       -17.6372
  22   1.0000      -0.617894       -16.8137
  23   1.0000      -0.607886       -16.5414
  24   1.0000      -0.602358       -16.3910
  25   1.0000      -0.560197       -15.2437
  26   1.0000      -0.532615       -14.4932
  27   1.0000      -0.511025       -13.9057
  28   1.0000      -0.475659       -12.9433
  29   1.0000      -0.473496       -12.8845
  30   1.0000      -0.456394       -12.4191
  31   1.0000      -0.446866       -12.1598
  32   1.0000      -0.445974       -12.1356
  33   1.0000      -0.427227       -11.6254
  34   1.0000      -0.427005       -11.6194
  35   1.0000      -0.422795       -11.5048
  36   1.0000      -0.396247       -10.7824
  37   1.0000      -0.384723       -10.4688
  38   1.0000      -0.377418       -10.2701
  39   1.0000      -0.363548        -9.8926
  40   1.0000      -0.353294        -9.6136
  41   1.0000      -0.344524        -9.3750
  42   1.0000      -0.342902        -9.3308
  43   1.0000      -0.317082        -8.6283
  44   1.0000      -0.273216        -7.4346
  45   1.0000      -0.266954        -7.2642
  46   1.0000      -0.262502        -7.1430
  47   0.0000      -0.202643        -5.5142
  48   0.0000      -0.081281        -2.2118
  49   0.0000      -0.053071        -1.4441
  50   0.0000      -0.046533        -1.2662
  51   0.0000      -0.032649        -0.8884

MULLIKEN ATOMIC CHARGES AND SPIN POPULATIONS
--------------------------------------------
   0 C :   -0.902262    0.025424
   1 C :    1.897490    0.108838
   2 C :   -0.543027    0.052771
   3 C :   -0.854580   -0.028561
   4 C :   -0.074936    0.127530
   5 C :   -0.632821   -0.022198
   6 H :    0.435974   -0.001757
   7 H :    0.506241    0.003613
   8 H :    0.405864   -0.000439
   9 H :    0.087693   -0.001833
  10 C :    0.787282    0.022666
  11 C :   -0.622410    0.498014
  12 H :    0.152076   -0.005820
  13 H :    0.150387   -0.005800
  14 C :    1.884395    0.108788
  15 C :   -0.891501    0.025544
  16 C :   -0.630935   -0.022178
  17 C :   -0.074357    0.127463
  18 C :   -0.848516   -0.028481
  19 C :   -0.536458    0.052940
  20 H :    0.085590   -0.001903
  21 H :    0.413829   -0.000378
  22 H :    0.466523    0.003389
  23 H :    0.457020   -0.001721
  24 H :   -0.062110   -0.018000
  25 H :   -0.056450   -0.017911
Sum of atomic charges         :    1.0000000

LOEWDIN ATOMIC CHARGES AND SPIN POPULATIONS
-------------------------------------------
   0 C :    0.255594    0.033634
   1 C :   -0.090847    0.056828
   2 C :    0.243062    0.037942
   3 C :    0.252207    0.015104
   4 C :    0.249476    0.059908
   5 C :    0.249615    0.016219
   6 H :   -0.162846   -0.001381
   7 H :   -0.157719    0.014052
   8 H :   -0.161892   -0.001705
   9 H :   -0.162642    0.006051
  10 C :   -0.053200    0.104940
  11 C :    0.694610    0.291060
  12 H :   -0.166167    0.060082
  13 H :   -0.166179    0.060082
  14 C :   -0.090862    0.056807
  15 C :    0.255601    0.033627
  16 C :    0.249611    0.016213
  17 C :    0.249472    0.059890
  18 C :    0.252210    0.015098
  19 C :    0.242994    0.037936
  20 H :   -0.162671    0.006048
  21 H :   -0.161885   -0.001705
  22 H :   -0.157732    0.014048
  23 H :   -0.162839   -0.001381
  24 H :   -0.168481    0.005302
  25 H :   -0.168490    0.005300

  Mayer bond orders larger than 0.100000
B(  0-C ,  1-C ) :   0.2723 B(  0-C ,  2-C ) :  -0.5169 B(  0-C ,  3-C ) :   0.1089
B(  0-C ,  5-C ) :   1.6482 B(  0-C , 10-C ) :   0.2876 B(  0-C , 25-H ) :   1.4077
B(  1-C ,  2-C ) :   0.6389 B(  1-C ,  3-C ) :  -0.2298 B(  1-C ,  4-C ) :  -0.2518
B(  1-C ,  5-C ) :  -0.1587 B(  1-C ,  6-H ) :   0.1096 B(  1-C ,  8-H ) :   0.1072
B(  1-C ,  9-H ) :   0.1055 B(  1-C , 10-C ) :   0.1800 B(  1-C , 11-C ) :  -0.2183
B(  1-C , 14-C ) :  -0.2839 B(  1-C , 25-H ) :   0.1028 B(  2-C ,  3-C ) :   1.6450
B(  2-C ,  9-H ) :   1.2608 B(  2-C , 10-C ) :   0.1148 B(  2-C , 19-C ) :   0.1769
B(  3-C ,  4-C ) :   1.4898 B(  3-C ,  5-C ) :   0.2374 B(  3-C ,  8-H ) :   0.4768
B(  4-C ,  5-C ) :   1.3331 B(  4-C ,  6-H ) :   0.1246 B(  4-C ,  7-H ) :   0.4304
B(  4-C ,  8-H ) :   0.1085 B(  4-C , 10-C ) :   0.1808 B(  5-C ,  6-H ) :   0.5108
B(  9-H , 10-C ) :  -0.1549 B(  9-H , 25-H ) :   0.1163 B( 10-C , 11-C ) :   0.8440
B( 10-C , 14-C ) :   0.1810 B( 10-C , 15-C ) :   0.2889 B( 10-C , 17-C ) :   0.1855
B( 10-C , 19-C ) :   0.1161 B( 10-C , 20-H ) :  -0.1539 B( 10-C , 24-H ) :  -0.1512
B( 10-C , 25-H ) :  -0.1507 B( 11-C , 12-H ) :   0.9977 B( 11-C , 13-H ) :   0.9985
B( 11-C , 14-C ) :  -0.2157 B( 14-C , 15-C ) :   0.2732 B( 14-C , 16-C ) :  -0.1492
B( 14-C , 17-C ) :  -0.2321 B( 14-C , 18-C ) :  -0.2226 B( 14-C , 19-C ) :   0.6490
B( 14-C , 20-H ) :   0.1080 B( 14-C , 21-H ) :   0.1061 B( 14-C , 23-H ) :   0.1102
B( 15-C , 16-C ) :   1.6424 B( 15-C , 18-C ) :   0.1118 B( 15-C , 19-C ) :  -0.5193
B( 15-C , 24-H ) :   1.4112 B( 16-C , 17-C ) :   1.3308 B( 16-C , 18-C ) :   0.2456
B( 16-C , 23-H ) :   0.4705 B( 17-C , 18-C ) :   1.4736 B( 17-C , 21-H ) :   0.1098
B( 17-C , 22-H ) :   0.4876 B( 17-C , 23-H ) :   0.1180 B( 18-C , 19-C ) :   1.6424
B( 18-C , 21-H ) :   0.4668 B( 19-C , 20-H ) :   1.2579 B( 20-H , 24-H ) :   0.1186

Dispersion correction           -0.038920882
FINAL SINGLE POINT ENERGY      -540.768799249513

DIPOLE MOMENT
-------------

Method             : SCF
Type of density    : Electron Density
Multiplicity       :   2
Irrep              :   0
Energy             :  -540.7298783673290927 Eh
Relativity type    :
Basis              : AO
                                X                 Y                 Z
Electronic contribution:     -0.000035790      -0.280205486      -0.000141676
Nuclear contribution   :     -0.000108901      -0.590749633      -0.000400214
                        -----------------------------------------
Total Dipole Moment    :     -0.000144691      -0.870955119      -0.000541890
                        -----------------------------------------
Magnitude (a.u.)       :      0.870955300
Magnitude (Debye)      :      2.213792439

Rotational constants in cm-1:             0.054290             0.014353             0.012117
Rotational constants in MHz :          1627.566461           430.292415           363.272037

                             ****ORCA TERMINATED NORMALLY****
TOTAL RUN TIME: 0 days 1 hours 13 minutes 32 seconds 130 msec
