                         Program Version 6.0.0  -   RELEASE  -
|  1> !r2SCAN aug-cc-pVTZ d3 TightSCF SlowConv RIJCOSX defgrid2
|  2>
|  3> %pal
|  4> nprocs 4
|  5> end
|  6>
|  7> %scf
|  8> MaxIter 1500
|  9> end
| 10>
| 11> %maxcore 3000
| 12>
| 13> !CPCM
| 14> %cpcm smd true
| 15> SMDsolvent "MeCN"
| 16> surfacetype gepol_ses
| 17> rsolv 2.19
| 18> end
| 19>
| 20> * xyz 0 1
| 21> C           2.39749463161436     -0.83149819893554      0.67669387485363
| 22> C           1.27172397639116     -0.40047992295486     -0.03969915484816
| 23> C           1.38259238776027      0.76303550152059     -0.81642324820039
| 24> C           2.58576374302039      1.45963699946448     -0.89073073539891
| 25> C           3.70030483512470      1.01412413753758     -0.17987702815859
| 26> C           3.60056124987950     -0.13306932613824      0.60654243714533
| 27> H           4.46466138277505     -0.48209902986176      1.17996120108222
| 28> H           4.64383968195764      1.56540648474814     -0.23276704782048
| 29> H           2.65415437190379      2.35888092106518     -1.51038356423303
| 30> H           0.51264382726920      1.11680700092055     -1.37721808377949
| 31> C          -0.00001123541006     -1.16417502511622     -0.00002273576044
| 32> C          -0.00001884782649     -2.50996676952303     -0.00003277235160
| 33> H          -0.93225135885572     -3.07886784376654      0.08064455143521
| 34> H           0.93220419630722     -3.07888213761201     -0.08071574786352
| 35> C          -1.27174210287451     -0.40047320911747      0.03966757754902
| 36> C          -2.39750985071673     -0.83146289450512     -0.67674719863415
| 37> C          -3.60057439169967     -0.13303092760862     -0.60657919634084
| 38> C          -3.70031659242385      1.01413981080717      0.17987332068473
| 39> C          -2.58577653905984      1.45962201354211      0.89074922577948
| 40> C          -1.38260956202413      0.76301589591316      0.81642903255360
| 41> H          -0.51266418903044      1.11676009652396      1.37724534040847
| 42> H          -2.65416367308445      2.35884547498639      1.51043035509866
| 43> H          -4.64384894904450      1.56542539828851      0.23277593005599
| 44> H          -4.46467229568686     -0.48204204645132     -1.18001194866167
| 45> H          -2.31694066862491     -1.71619568559047     -1.31480317865473
| 46> H           2.31692587235889     -1.71625071813661      1.31472229405965
| 47> *
| 48>
| 49>                          ****END OF INPUT****

CARTESIAN COORDINATES (ANGSTROEM)
---------------------------------
  C      2.397495   -0.831498    0.676694
  C      1.271724   -0.400480   -0.039699
  C      1.382592    0.763036   -0.816423
  C      2.585764    1.459637   -0.890731
  C      3.700305    1.014124   -0.179877
  C      3.600561   -0.133069    0.606542
  H      4.464661   -0.482099    1.179961
  H      4.643840    1.565406   -0.232767
  H      2.654154    2.358881   -1.510384
  H      0.512644    1.116807   -1.377218
  C     -0.000011   -1.164175   -0.000023
  C     -0.000019   -2.509967   -0.000033
  H     -0.932251   -3.078868    0.080645
  H      0.932204   -3.078882   -0.080716
  C     -1.271742   -0.400473    0.039668
  C     -2.397510   -0.831463   -0.676747
  C     -3.600574   -0.133031   -0.606579
  C     -3.700317    1.014140    0.179873
  C     -2.585777    1.459622    0.890749
  C     -1.382610    0.763016    0.816429
  H     -0.512664    1.116760    1.377245
  H     -2.654164    2.358845    1.510430
  H     -4.643849    1.565425    0.232776
  H     -4.464672   -0.482042   -1.180012
  H     -2.316941   -1.716196   -1.314803
  H      2.316926   -1.716251    1.314722

 Total Charge           Charge          ....    0
 Multiplicity           Mult            ....    1
 Number of Electrons    NEL             ....   96
 Basis Dimension        Dim             ....  920

ORBITAL ENERGIES
----------------

  NO   OCC          E(Eh)            E(eV)
   0   2.0000     -10.057871      -273.6886
   1   2.0000     -10.054137      -273.5870
   2   2.0000     -10.054135      -273.5869
   3   2.0000     -10.042069      -273.2586
   4   2.0000     -10.042044      -273.2579
   5   2.0000     -10.041841      -273.2524
   6   2.0000     -10.041837      -273.2523
   7   2.0000     -10.041573      -273.2451
   8   2.0000     -10.041567      -273.2449
   9   2.0000     -10.041367      -273.2395
  10   2.0000     -10.041364      -273.2394
  11   2.0000     -10.040959      -273.2284
  12   2.0000     -10.040953      -273.2282
  13   2.0000     -10.031462      -272.9700
  14   2.0000      -0.838376       -22.8134
  15   2.0000      -0.821979       -22.3672
  16   2.0000      -0.772894       -21.0315
  17   2.0000      -0.716532       -19.4978
  18   2.0000      -0.716474       -19.4962
  19   2.0000      -0.711259       -19.3543
  20   2.0000      -0.685521       -18.6540
  21   2.0000      -0.599688       -16.3184
  22   2.0000      -0.576707       -15.6930
  23   2.0000      -0.568400       -15.4670
  24   2.0000      -0.565527       -15.3888
  25   2.0000      -0.518441       -14.1075
  26   2.0000      -0.490088       -13.3360
  27   2.0000      -0.466698       -12.6995
  28   2.0000      -0.434395       -11.8205
  29   2.0000      -0.428796       -11.6681
  30   2.0000      -0.418635       -11.3916
  31   2.0000      -0.408578       -11.1180
  32   2.0000      -0.405727       -11.0404
  33   2.0000      -0.386425       -10.5152
  34   2.0000      -0.385900       -10.5009
  35   2.0000      -0.383318       -10.4306
  36   2.0000      -0.352291        -9.5863
  37   2.0000      -0.348092        -9.4721
  38   2.0000      -0.346078        -9.4173
  39   2.0000      -0.323436        -8.8011
  40   2.0000      -0.312580        -8.5057
  41   2.0000      -0.305057        -8.3010
  42   2.0000      -0.300507        -8.1772
  43   2.0000      -0.279789        -7.6135
  44   2.0000      -0.245260        -6.6739
  45   2.0000      -0.241469        -6.5707
  46   2.0000      -0.238756        -6.4969
  47   2.0000      -0.210010        -5.7147
  48   0.0000      -0.069770        -1.8985
  49   0.0000      -0.046659        -1.2697
  50   0.0000      -0.042371        -1.1530
  51   0.0000      -0.030834        -0.8390
  52   0.0000       0.004580         0.1246

MULLIKEN ATOMIC CHARGES
-----------------------
   0 C :   -1.206391
   1 C :    2.432715
   2 C :   -0.788776
   3 C :   -0.836849
   4 C :   -0.111116
   5 C :   -0.762255
   6 H :    0.475196
   7 H :    0.486327
   8 H :    0.457102
   9 H :   -0.022950
  10 C :    0.893172
  11 C :   -1.292006
  12 H :    0.199998
  13 H :    0.200185
  14 C :    2.432450
  15 C :   -1.206714
  16 C :   -0.761981
  17 C :   -0.111214
  18 C :   -0.836437
  19 C :   -0.786797
  20 H :   -0.025498
  21 H :    0.457184
  22 H :    0.486252
  23 H :    0.475146
  24 H :   -0.123354
  25 H :   -0.123391
Sum of atomic charges:    0.0000000

LOEWDIN ATOMIC CHARGES
----------------------
   0 C :    0.205122
   1 C :   -0.150528
   2 C :    0.203511
   3 C :    0.197738
   4 C :    0.187571
   5 C :    0.195631
   6 H :   -0.169665
   7 H :   -0.171417
   8 H :   -0.169190
   9 H :   -0.161753
  10 C :   -0.150987
  11 C :    0.550203
  12 H :   -0.196953
  13 H :   -0.196945
  14 C :   -0.150495
  15 C :    0.205146
  16 C :    0.195651
  17 C :    0.187615
  18 C :    0.197786
  19 C :    0.203483
  20 H :   -0.161873
  21 H :   -0.169189
  22 H :   -0.171421
  23 H :   -0.169668
  24 H :   -0.169690
  25 H :   -0.169687

  Mayer bond orders larger than 0.100000
B(  0-C ,  1-C ) :  -0.1302 B(  0-C ,  2-C ) :  -0.7517 B(  0-C ,  4-C ) :  -0.1494
B(  0-C ,  5-C ) :   1.3220 B(  0-C ,  6-H ) :  -0.1308 B(  0-C ,  9-H ) :   0.1105
B(  0-C , 10-C ) :   0.3130 B(  0-C , 11-C ) :   0.1024 B(  0-C , 25-H ) :   1.7918
B(  1-C ,  2-C ) :   0.2728 B(  1-C ,  4-C ) :  -0.1476 B(  1-C , 10-C ) :  -0.2904
B(  1-C , 11-C ) :  -0.3454 B(  1-C , 14-C ) :  -0.1804 B(  1-C , 25-H ) :  -0.1722
B(  2-C ,  3-C ) :   1.2635 B(  2-C ,  4-C ) :  -0.1169 B(  2-C ,  9-H ) :   1.5130
B(  2-C , 10-C ) :   0.2740 B(  2-C , 11-C ) :   0.1443 B(  2-C , 19-C ) :   0.1523
B(  3-C ,  4-C ) :   1.1756 B(  3-C ,  5-C ) :   0.2541 B(  3-C ,  8-H ) :   0.5265
B(  3-C , 25-H ) :  -0.1424 B(  4-C ,  5-C ) :   1.0557 B(  4-C ,  7-H ) :   0.5716
B(  4-C , 10-C ) :   0.2044 B(  5-C ,  6-H ) :   0.5299 B(  5-C ,  9-H ) :  -0.1130
B(  9-H , 25-H ) :   0.1938 B( 10-C , 11-C ) :   0.7170 B( 10-C , 14-C ) :  -0.2909
B( 10-C , 15-C ) :   0.3131 B( 10-C , 17-C ) :   0.2045 B( 10-C , 19-C ) :   0.2742
B( 10-C , 24-H ) :  -0.2117 B( 10-C , 25-H ) :  -0.2117 B( 11-C , 12-H ) :   1.0100
B( 11-C , 13-H ) :   1.0099 B( 11-C , 14-C ) :  -0.3455 B( 11-C , 15-C ) :   0.1024
B( 11-C , 19-C ) :   0.1443 B( 14-C , 15-C ) :  -0.1310 B( 14-C , 17-C ) :  -0.1478
B( 14-C , 19-C ) :   0.2752 B( 14-C , 24-H ) :  -0.1722 B( 15-C , 16-C ) :   1.3221
B( 15-C , 17-C ) :  -0.1492 B( 15-C , 19-C ) :  -0.7516 B( 15-C , 20-H ) :   0.1112
B( 15-C , 23-H ) :  -0.1308 B( 15-C , 24-H ) :   1.7917 B( 16-C , 17-C ) :   1.0558
B( 16-C , 18-C ) :   0.2539 B( 16-C , 20-H ) :  -0.1131 B( 16-C , 23-H ) :   0.5301
B( 17-C , 18-C ) :   1.1757 B( 17-C , 19-C ) :  -0.1168 B( 17-C , 22-H ) :   0.5717
B( 18-C , 19-C ) :   1.2644 B( 18-C , 21-H ) :   0.5267 B( 18-C , 24-H ) :  -0.1424
B( 19-C , 20-H ) :   1.5132 B( 20-H , 24-H ) :   0.1937

Dispersion correction           -0.010349950
FINAL SINGLE POINT ENERGY      -540.594775003780

DIPOLE MOMENT
-------------

Method             : SCF
Type of density    : Electron Density
Multiplicity       :   1
Irrep              :   0
Energy             :  -540.5844250539360019 Eh
Relativity type    :
Basis              : AO
                                X                 Y                 Z
Electronic contribution:     -0.000768179       0.621929407      -0.000964656
Nuclear contribution   :     -0.000009105      -0.465365266       0.000012542
                        -----------------------------------------
Total Dipole Moment    :     -0.000777284       0.156564141      -0.000952113
                        -----------------------------------------
Magnitude (a.u.)       :      0.156568966
Magnitude (Debye)      :      0.397966684

Rotational constants in cm-1:             0.053104             0.013986             0.012201
Rotational constants in MHz :          1592.023360           419.285369           365.773053

                             ****ORCA TERMINATED NORMALLY****
TOTAL RUN TIME: 0 days 0 hours 6 minutes 26 seconds 538 msec
