                         Program Version 6.0.0  -   RELEASE  -
|  1> !TPSSh aug-cc-pVTZ d3 TightSCF SlowConv RIJCOSX defgrid2
|  2>
|  3> %pal
|  4> nprocs 4
|  5> end
|  6>
|  7> %scf
|  8> MaxIter 1500
|  9> end
| 10>
| 11> %maxcore 3000
| 12>
| 13> !CPCM
| 14> %cpcm smd true
| 15> SMDsolvent "MeCN"
| 16> surfacetype gepol_ses
| 17> rsolv 2.19
| 18> end
| 19>
| 20> * xyz 0 1
| 21> C           0.21548830233766     -1.31254052777573      0.00010422762952
| 22> C           1.59988954372279     -1.21584408900209     -0.00004926404309
| 23> C           2.20799859707677      0.04926876567316     -0.00017056079371
| 24> C           1.41929623512531      1.20975167076323     -0.00015034385102
| 25> C           0.03428838131423      1.10376838714684      0.00000853976851
| 26> C          -0.57189434190993     -0.15685634129961      0.00012888388170
| 27> C          -2.05244741323264     -0.32717869220259      0.00024717867959
| 28> O          -2.60855273307034     -1.39562203145168      0.00027570374344
| 29> O          -2.69833688538420      0.84120384412168      0.00023595438148
| 30> C          -4.11294581717618      0.76544881509859      0.00031914102461
| 31> H          -4.47359030585060      0.23317558937230     -0.89509819147298
| 32> H          -4.47329861249430      1.80336428589702      0.00085057660351
| 33> H          -4.47344996909725      0.23226341742374      0.89524607056349
| 34> H          -0.58911726931978      1.99981071426323      0.00001933079670
| 35> H           1.90124452922407      2.19015192252547     -0.00025667551397
| 36> C           3.63651162843124      0.15662159321331     -0.00028047012477
| 37> N           4.79247297713842      0.24396014896989      0.00010497590390
| 38> H           2.22105451043260     -2.11448267300194     -0.00006713475520
| 39> H          -0.28337085726787     -2.28467319973482      0.00020605757830
| 40> *
| 41>
| 42>                          ****END OF INPUT****

CARTESIAN COORDINATES (ANGSTROEM)
---------------------------------
  C      0.215488   -1.312541    0.000104
  C      1.599890   -1.215844   -0.000049
  C      2.207999    0.049269   -0.000171
  C      1.419296    1.209752   -0.000150
  C      0.034288    1.103768    0.000009
  C     -0.571894   -0.156856    0.000129
  C     -2.052447   -0.327179    0.000247
  O     -2.608553   -1.395622    0.000276
  O     -2.698337    0.841204    0.000236
  C     -4.112946    0.765449    0.000319
  H     -4.473590    0.233176   -0.895098
  H     -4.473299    1.803364    0.000851
  H     -4.473450    0.232263    0.895246
  H     -0.589117    1.999811    0.000019
  H      1.901245    2.190152   -0.000257
  C      3.636512    0.156622   -0.000280
  N      4.792473    0.243960    0.000105
  H      2.221055   -2.114483   -0.000067
  H     -0.283371   -2.284673    0.000206

 Total Charge           Charge          ....    0
 Multiplicity           Mult            ....    1
 Number of Electrons    NEL             ....   84
 Basis Dimension        Dim             ....  713

ORBITAL ENERGIES
----------------

  NO   OCC          E(Eh)            E(eV)
   0   2.0000     -19.106315      -519.9093
   1   2.0000     -19.048848      -518.3455
   2   2.0000     -14.263062      -388.1177
   3   2.0000     -10.245529      -278.7950
   4   2.0000     -10.172498      -276.8077
   5   2.0000     -10.168127      -276.6888
   6   2.0000     -10.162737      -276.5421
   7   2.0000     -10.149644      -276.1859
   8   2.0000     -10.145582      -276.0753
   9   2.0000     -10.145471      -276.0723
  10   2.0000     -10.140222      -275.9295
  11   2.0000     -10.138971      -275.8954
  12   2.0000      -1.096176       -29.8285
  13   2.0000      -1.006907       -27.3993
  14   2.0000      -0.902376       -24.5549
  15   2.0000      -0.864092       -23.5131
  16   2.0000      -0.782969       -21.3057
  17   2.0000      -0.751301       -20.4439
  18   2.0000      -0.714038       -19.4300
  19   2.0000      -0.648076       -17.6350
  20   2.0000      -0.611788       -16.6476
  21   2.0000      -0.560215       -15.2442
  22   2.0000      -0.546060       -14.8590
  23   2.0000      -0.517116       -14.0714
  24   2.0000      -0.476071       -12.9546
  25   2.0000      -0.471559       -12.8318
  26   2.0000      -0.450603       -12.2615
  27   2.0000      -0.441437       -12.0121
  28   2.0000      -0.423387       -11.5210
  29   2.0000      -0.416514       -11.3339
  30   2.0000      -0.403146       -10.9702
  31   2.0000      -0.384364       -10.4591
  32   2.0000      -0.382154       -10.3989
  33   2.0000      -0.362213        -9.8563
  34   2.0000      -0.356359        -9.6970
  35   2.0000      -0.343527        -9.3479
  36   2.0000      -0.342127        -9.3098
  37   2.0000      -0.330368        -8.9898
  38   2.0000      -0.296403        -8.0655
  39   2.0000      -0.272680        -7.4200
  40   2.0000      -0.267531        -7.2799
  41   2.0000      -0.265759        -7.2317
  42   0.0000      -0.093687        -2.5494
  43   0.0000      -0.043116        -1.1733
  44   0.0000      -0.006652        -0.1810
  45   0.0000      -0.004378        -0.1191
  46   0.0000       0.001411         0.0384

MULLIKEN ATOMIC CHARGES
-----------------------
   0 C :   -0.917759
   1 C :   -0.798422
   2 C :    1.293083
   3 C :   -0.949587
   4 C :   -0.171559
   5 C :    1.315107
   6 C :    1.024863
   7 O :   -0.983097
   8 O :   -0.393057
   9 C :   -0.279428
  10 H :    0.199388
  11 H :    0.127627
  12 H :    0.199789
  13 H :    0.159787
  14 H :    0.024496
  15 C :    1.092684
  16 N :   -1.004467
  17 H :    0.030415
  18 H :    0.030140
Sum of atomic charges:    0.0000000

LOEWDIN ATOMIC CHARGES
----------------------
   0 C :    0.220318
   1 C :    0.225996
   2 C :   -0.191499
   3 C :    0.225283
   4 C :    0.227465
   5 C :   -0.136826
   6 C :   -0.847693
   7 O :    0.497101
   8 O :    0.592523
   9 C :    0.342281
  10 H :   -0.170508
  11 H :   -0.170150
  12 H :   -0.170568
  13 H :   -0.173983
  14 H :   -0.151538
  15 C :   -0.239849
  16 N :    0.245216
  17 H :   -0.151649
  18 H :   -0.171921

  Mayer bond orders larger than 0.100000
B(  0-C ,  1-C ) :   1.8055 B(  0-C ,  3-C ) :   0.2190 B(  0-C ,  4-C ) :  -0.4702
B(  0-C ,  5-C ) :   0.5177 B(  0-C ,  6-C ) :   0.2805 B(  0-C , 15-C ) :  -0.1356
B(  0-C , 18-H ) :   1.0197 B(  1-C ,  2-C ) :   0.5813 B(  1-C ,  3-C ) :  -0.1809
B(  1-C ,  4-C ) :   0.1973 B(  1-C ,  5-C ) :  -0.3025 B(  1-C ,  6-C ) :  -0.1004
B(  1-C , 15-C ) :   0.2442 B(  1-C , 16-N ) :   0.1105 B(  1-C , 17-H ) :   1.1569
B(  2-C ,  3-C ) :   0.5148 B(  2-C ,  5-C ) :  -0.1667 B(  2-C ,  6-C ) :   0.1760
B(  2-C , 14-H ) :  -0.1077 B(  2-C , 15-C ) :   0.7607 B(  2-C , 16-N ) :   0.5940
B(  3-C ,  4-C ) :   1.4572 B(  3-C ,  5-C ) :  -0.2559 B(  3-C , 14-H ) :   1.2099
B(  3-C , 15-C ) :   0.2750 B(  4-C ,  5-C ) :   0.7477 B(  4-C ,  6-C ) :   0.1388
B(  4-C ,  8-O ) :  -0.1220 B(  4-C , 13-H ) :   0.9461 B(  4-C , 15-C ) :  -0.1688
B(  5-C ,  6-C ) :   0.2952 B(  5-C ,  7-O ) :   0.1274 B(  5-C ,  8-O ) :   0.2386
B(  5-C , 15-C ) :   0.3422 B(  6-C ,  7-O ) :   0.6520 B(  6-C ,  8-O ) :   0.8039
B(  6-C , 15-C ) :   0.1291 B(  7-O , 18-H ) :   0.1773 B(  8-O ,  9-C ) :   0.9582
B(  9-C , 10-H ) :   0.9344 B(  9-C , 11-H ) :   0.9879 B(  9-C , 12-H ) :   0.9343
B( 13-H , 18-H ) :   0.1283 B( 14-H , 17-H ) :   0.1337 B( 15-C , 16-N ) :   0.7387
B( 15-C , 18-H ) :  -0.1070

Dispersion correction           -0.023958487
FINAL SINGLE POINT ENERGY      -552.631305614789

DIPOLE MOMENT
-------------

Method             : SCF
Type of density    : Electron Density
Multiplicity       :   1
Irrep              :   0
Energy             :  -552.6073471281146112 Eh
Relativity type    :
Basis              : AO
                                X                 Y                 Z
Electronic contribution:      7.535354462      -1.162880564      -0.000303832
Nuclear contribution   :     -9.614807611       1.929707877       0.000342352
                        -----------------------------------------
Total Dipole Moment    :     -2.079453149       0.766827313       0.000038521
                        -----------------------------------------
Magnitude (a.u.)       :      2.216336962
Magnitude (Debye)      :      5.633480856

Rotational constants in cm-1:             0.115026             0.014673             0.013046
Rotational constants in MHz :          3448.390341           439.899337           391.107079

                             ****ORCA TERMINATED NORMALLY****
TOTAL RUN TIME: 0 days 0 hours 7 minutes 44 seconds 509 msec
