                         Program Version 6.0.0  -   RELEASE  -
|  1> !B3LYP aug-cc-pVTZ d3 TightSCF SlowConv RIJCOSX defgrid2
|  2>
|  3> %pal
|  4> nprocs 15
|  5> end
|  6>
|  7> %scf
|  8> MaxIter 1500
|  9> end
| 10>
| 11> %maxcore 3500
| 12>
| 13> !CPCM
| 14> %cpcm smd true
| 15> SMDsolvent "WATER"
| 16> surfacetype gepol_ses
| 17> rsolv 1.40
| 18> end
| 19>
| 20> * xyz 1 1
| 21> O           1.69028117689558      3.37274922443931      1.11633962460164
| 22> N           2.64508834536190      2.69181678814397      1.22297469266331
| 23> C           3.79364432352713      2.91279474875315      0.25576222257425
| 24> C           4.41690502024746      1.55735729533319     -0.09476254953002
| 25> C           4.67733661079369      0.66452443423856      1.10383738520721
| 26> C           3.37045256120440      0.39731336490166      1.83970504256275
| 27> C           2.66799498342616      1.66587031114268      2.34113152200502
| 28> C           4.78664458888588      3.85507766004816      0.96313769772216
| 29> C           3.22421911588956      3.59522010625645     -0.98009687677033
| 30> C           3.40931008600286      2.31997828440322      3.52226317122572
| 31> C           1.22422162814495      1.38082655937204      2.72997366883812
| 32> H           5.34884078835654      1.75906997936546     -0.64631285848774
| 33> H           3.75796437018198      1.02598628901689     -0.80296027442862
| 34> H           5.40042447879038      1.13288543625525      1.79577627089786
| 35> H           3.53775872621371     -0.24608048611092      2.71808872702049
| 36> H           2.68001252116369     -0.14819003704925      1.17146867751790
| 37> H           4.27985954283953      4.75359746707821      1.35111103609992
| 38> H           5.34884375946348      3.37256256672533      1.77397975191263
| 39> H           5.50897207558620      4.17777907092180      0.19549951134991
| 40> H           2.86192360014995      4.61263606074173     -0.76851470910027
| 41> H           2.40394906868267      3.00772813007802     -1.42457373280581
| 42> H           4.03437736873618      3.66442610394421     -1.72341542384058
| 43> H           2.99610733981189      3.31548991868264      3.75198408999862
| 44> H           4.49382233017226      2.39980342242512      3.36909605423605
| 45> H           3.23745517084425      1.67163833982347      4.39703137060060
| 46> H           0.73408005868470      2.25325337031983      3.18793394277703
| 47> H           0.62783916292596      1.05008904763585      1.86346734061458
| 48> H           1.23475255281246      0.56405590576186      3.46909994981412
| 49> C           5.33166078892950     -0.63197308222401      0.65212318052779
| 50> O           5.67009393201701     -0.85879399844318     -0.47432905828358
| 51> O           5.48410818268575     -1.47484874010900      1.67290341721619
| 52> H           5.91800326157221     -2.28673051887174      1.34333539126303
| 53> *
| 54>
| 55>                          ****END OF INPUT****

CARTESIAN COORDINATES (ANGSTROEM)
---------------------------------
  O      1.690281    3.372749    1.116340
  N      2.645088    2.691817    1.222975
  C      3.793644    2.912795    0.255762
  C      4.416905    1.557357   -0.094763
  C      4.677337    0.664524    1.103837
  C      3.370453    0.397313    1.839705
  C      2.667995    1.665870    2.341132
  C      4.786645    3.855078    0.963138
  C      3.224219    3.595220   -0.980097
  C      3.409310    2.319978    3.522263
  C      1.224222    1.380827    2.729974
  H      5.348841    1.759070   -0.646313
  H      3.757964    1.025986   -0.802960
  H      5.400424    1.132885    1.795776
  H      3.537759   -0.246080    2.718089
  H      2.680013   -0.148190    1.171469
  H      4.279860    4.753597    1.351111
  H      5.348844    3.372563    1.773980
  H      5.508972    4.177779    0.195500
  H      2.861924    4.612636   -0.768515
  H      2.403949    3.007728   -1.424574
  H      4.034377    3.664426   -1.723415
  H      2.996107    3.315490    3.751984
  H      4.493822    2.399803    3.369096
  H      3.237455    1.671638    4.397031
  H      0.734080    2.253253    3.187934
  H      0.627839    1.050089    1.863467
  H      1.234753    0.564056    3.469100
  C      5.331661   -0.631973    0.652123
  O      5.670094   -0.858794   -0.474329
  O      5.484108   -1.474849    1.672903
  H      5.918003   -2.286731    1.343335

 Total Charge           Charge          ....    1
 Multiplicity           Mult            ....    1
 Number of Electrons    NEL             ....  108
 Basis Dimension        Dim             .... 1058

ORBITAL ENERGIES
----------------

  NO   OCC          E(Eh)            E(eV)
   0   2.0000     -19.266588      -524.2705
   1   2.0000     -19.185295      -522.0584
   2   2.0000     -19.135563      -520.7051
   3   2.0000     -14.556458      -396.1014
   4   2.0000     -10.320945      -280.8472
   5   2.0000     -10.269092      -279.4362
   6   2.0000     -10.268284      -279.4142
   7   2.0000     -10.207240      -277.7531
   8   2.0000     -10.199155      -277.5331
   9   2.0000     -10.194657      -277.4107
  10   2.0000     -10.189828      -277.2793
  11   2.0000     -10.189560      -277.2720
  12   2.0000     -10.179760      -277.0054
  13   2.0000     -10.179246      -276.9914
  14   2.0000      -1.273490       -34.6534
  15   2.0000      -1.125882       -30.6368
  16   2.0000      -1.040379       -28.3102
  17   2.0000      -0.928169       -25.2568
  18   2.0000      -0.862142       -23.4601
  19   2.0000      -0.820596       -22.3295
  20   2.0000      -0.757672       -20.6173
  21   2.0000      -0.717951       -19.5364
  22   2.0000      -0.709470       -19.3057
  23   2.0000      -0.705814       -19.2062
  24   2.0000      -0.680901       -18.5283
  25   2.0000      -0.656222       -17.8567
  26   2.0000      -0.607043       -16.5185
  27   2.0000      -0.591943       -16.1076
  28   2.0000      -0.560711       -15.2577
  29   2.0000      -0.533858       -14.5270
  30   2.0000      -0.531636       -14.4666
  31   2.0000      -0.513029       -13.9602
  32   2.0000      -0.507781       -13.8174
  33   2.0000      -0.480361       -13.0713
  34   2.0000      -0.465014       -12.6537
  35   2.0000      -0.456113       -12.4115
  36   2.0000      -0.448886       -12.2148
  37   2.0000      -0.441995       -12.0273
  38   2.0000      -0.429344       -11.6831
  39   2.0000      -0.422220       -11.4892
  40   2.0000      -0.420364       -11.4387
  41   2.0000      -0.410211       -11.1624
  42   2.0000      -0.398888       -10.8543
  43   2.0000      -0.392869       -10.6905
  44   2.0000      -0.385617       -10.4932
  45   2.0000      -0.382063       -10.3965
  46   2.0000      -0.373115       -10.1530
  47   2.0000      -0.366649        -9.9770
  48   2.0000      -0.360857        -9.8194
  49   2.0000      -0.358990        -9.7686
  50   2.0000      -0.347178        -9.4472
  51   2.0000      -0.341775        -9.3002
  52   2.0000      -0.329501        -8.9662
  53   2.0000      -0.299387        -8.1467
  54   0.0000      -0.164494        -4.4761
  55   0.0000      -0.012618        -0.3434
  56   0.0000      -0.004591        -0.1249
  57   0.0000       0.003476         0.0946
  58   0.0000       0.007650         0.2082

MULLIKEN ATOMIC CHARGES
-----------------------
   0 O :   -0.902794
   1 N :    0.648059
   2 C :    2.360780
   3 C :   -0.640970
   4 C :    1.016865
   5 C :   -1.037670
   6 C :    2.531346
   7 C :   -1.193974
   8 C :   -1.471353
   9 C :   -1.180962
  10 C :   -1.474006
  11 H :    0.526795
  12 H :    0.149431
  13 H :    0.280227
  14 H :    0.335025
  15 H :    0.268288
  16 H :    0.198335
  17 H :    0.256122
  18 H :    0.010884
  19 H :    0.157324
  20 H :    0.171066
  21 H :    0.140976
  22 H :    0.193657
  23 H :    0.223489
  24 H :    0.022674
  25 H :    0.172421
  26 H :    0.171517
  27 H :    0.114277
  28 C :    0.185824
  29 O :   -0.984271
  30 O :   -0.498244
  31 H :    0.248862
Sum of atomic charges:    1.0000000

LOEWDIN ATOMIC CHARGES
----------------------
   0 O :    0.659334
   1 N :    0.016162
   2 C :   -0.352117
   3 C :    0.296588
   4 C :   -0.023038
   5 C :    0.318246
   6 C :   -0.351817
   7 C :    0.634075
   8 C :    0.587473
   9 C :    0.633702
  10 C :    0.587781
  11 H :   -0.107823
  12 H :   -0.111174
  13 H :   -0.122140
  14 H :   -0.114669
  15 H :   -0.099491
  16 H :   -0.120454
  17 H :   -0.165598
  18 H :   -0.118975
  19 H :   -0.145248
  20 H :   -0.132776
  21 H :   -0.128228
  22 H :   -0.120247
  23 H :   -0.166063
  24 H :   -0.118416
  25 H :   -0.144896
  26 H :   -0.132471
  27 H :   -0.128159
  28 C :   -0.782828
  29 O :    0.483365
  30 O :    0.882070
  31 H :   -0.412166

  Mayer bond orders larger than 0.100000
B(  0-O ,  1-N ) :   0.8221 B(  0-O ,  2-C ) :  -0.2045 B(  0-O ,  6-C ) :  -0.2281
B(  0-O ,  8-C ) :   0.1368 B(  0-O , 10-C ) :   0.1448 B(  1-N ,  2-C ) :   0.5946
B(  1-N ,  3-C ) :   0.2126 B(  1-N ,  4-C ) :  -0.1001 B(  1-N ,  5-C ) :   0.2002
B(  1-N ,  6-C ) :   0.6462 B(  1-N ,  7-C ) :   0.1235 B(  1-N ,  8-C ) :  -0.1044
B(  1-N ,  9-C ) :   0.1217 B(  1-N , 10-C ) :  -0.1062 B(  2-C ,  3-C ) :   0.3321
B(  2-C ,  6-C ) :   0.3592 B(  2-C ,  8-C ) :  -0.1444 B(  2-C , 18-H ) :  -0.1690
B(  2-C , 20-H ) :  -0.1570 B(  3-C ,  4-C ) :   0.9714 B(  3-C ,  5-C ) :   0.2755
B(  3-C ,  6-C ) :  -0.1308 B(  3-C , 11-H ) :   0.5791 B(  3-C , 12-H ) :   1.0866
B(  3-C , 28-C ) :  -0.2004 B(  3-C , 29-O ) :  -0.1089 B(  4-C ,  5-C ) :   0.9604
B(  4-C ,  6-C ) :   0.1122 B(  4-C , 13-H ) :   0.9687 B(  4-C , 28-C ) :  -0.1462
B(  4-C , 29-O ) :   0.1944 B(  4-C , 30-O ) :  -0.1663 B(  5-C ,  6-C ) :   0.2549
B(  5-C , 14-H ) :   0.7156 B(  5-C , 15-H ) :   1.0091 B(  5-C , 28-C ) :   0.3461
B(  6-C , 10-C ) :  -0.1788 B(  6-C , 22-H ) :  -0.1030 B(  6-C , 24-H ) :  -0.1680
B(  6-C , 26-H ) :  -0.1586 B(  6-C , 27-H ) :  -0.1246 B(  7-C ,  8-C ) :   0.1964
B(  7-C , 16-H ) :   1.0315 B(  7-C , 17-H ) :   0.9890 B(  7-C , 18-H ) :   1.3006
B(  8-C , 19-H ) :   1.1190 B(  8-C , 20-H ) :   1.1488 B(  8-C , 21-H ) :   1.1269
B(  9-C , 10-C ) :   0.1981 B(  9-C , 22-H ) :   1.0354 B(  9-C , 23-H ) :   1.0242
B(  9-C , 24-H ) :   1.2828 B( 10-C , 25-H ) :   1.0832 B( 10-C , 26-H ) :   1.1499
B( 10-C , 27-H ) :   1.1741 B( 13-H , 28-C ) :  -0.3237 B( 13-H , 29-O ) :  -0.1053
B( 28-C , 29-O ) :   1.1108 B( 28-C , 30-O ) :   0.9900 B( 29-O , 30-O ) :   0.1085
B( 30-O , 31-H ) :   0.9543

Dispersion correction           -0.062361883
FINAL SINGLE POINT ENERGY      -672.033590778312

DIPOLE MOMENT
-------------

Method             : SCF
Type of density    : Electron Density
Multiplicity       :   1
Irrep              :   0
Energy             :  -671.9712288954788164 Eh
Relativity type    :
Basis              : AO
                                X                 Y                 Z
Electronic contribution:      2.093541035      -6.914563714      -2.913504162
Nuclear contribution   :     -2.863841370       8.211044193       4.273231293
                        -----------------------------------------
Total Dipole Moment    :     -0.770300335       1.296480479       1.359727131
                        -----------------------------------------
Magnitude (a.u.)       :      2.030537394
Magnitude (Debye)      :      5.161215886

Rotational constants in cm-1:             0.032285             0.018393             0.014243
Rotational constants in MHz :           967.865978           551.414458           426.998453

                             ****ORCA TERMINATED NORMALLY****
TOTAL RUN TIME: 0 days 0 hours 8 minutes 1 seconds 663 msec
