                         Program Version 6.0.0  -   RELEASE  -
|  1> !TPSSh aug-cc-pVTZ d3 TightSCF SlowConv RIJCOSX defgrid2
|  2>
|  3> %pal
|  4> nprocs 4
|  5> end
|  6>
|  7> %scf
|  8> MaxIter 1500
|  9> end
| 10>
| 11> %maxcore 3000
| 12>
| 13> !CPCM
| 14> %cpcm smd true
| 15> SMDsolvent "MeCN"
| 16> surfacetype gepol_ses
| 17> rsolv 2.19
| 18> end
| 19>
| 20> * xyz 0 1
| 21> C           0.40845561541467      1.09654851965361      0.00002153601786
| 22> C           1.22157048240356     -0.02055925058461     -0.00001124146046
| 23> C           0.31627509804411     -1.10552037144195      0.00002465926407
| 24> N          -0.94362721428629     -0.69407804717258     -0.00003818172667
| 25> N          -0.86222699991342      0.63149016796153     -0.00002192547512
| 26> H          -1.71469887339655      1.17729476555237     -0.00003850624553
| 27> H           0.53586137989645     -2.17396458772866      0.00003582780905
| 28> H           2.30976241169899     -0.04700402205514     -0.00001651155181
| 29> H           0.63234930013847      2.16236532581542      0.00003934336862
| 30> *
| 31>
| 32>                          ****END OF INPUT****

CARTESIAN COORDINATES (ANGSTROEM)
---------------------------------
  C      0.408456    1.096549    0.000022
  C      1.221570   -0.020559   -0.000011
  C      0.316275   -1.105520    0.000025
  N     -0.943627   -0.694078   -0.000038
  N     -0.862227    0.631490   -0.000022
  H     -1.714699    1.177295   -0.000039
  H      0.535861   -2.173965    0.000036
  H      2.309762   -0.047004   -0.000017
  H      0.632349    2.162365    0.000039

 Total Charge           Charge          ....    0
 Multiplicity           Mult            ....    1
 Number of Electrons    NEL             ....   36
 Basis Dimension        Dim             ....  322

ORBITAL ENERGIES
----------------

  NO   OCC          E(Eh)            E(eV)
   0   2.0000     -14.320312      -389.6755
   1   2.0000     -14.268277      -388.2596
   2   2.0000     -10.146095      -276.0893
   3   2.0000     -10.129433      -275.6359
   4   2.0000     -10.107499      -275.0390
   5   2.0000      -1.029251       -28.0073
   6   2.0000      -0.794811       -21.6279
   7   2.0000      -0.758282       -20.6339
   8   2.0000      -0.586022       -15.9465
   9   2.0000      -0.576114       -15.6768
  10   2.0000      -0.521864       -14.2006
  11   2.0000      -0.428085       -11.6488
  12   2.0000      -0.422590       -11.4993
  13   2.0000      -0.406455       -11.0602
  14   2.0000      -0.376735       -10.2515
  15   2.0000      -0.284675        -7.7464
  16   2.0000      -0.250258        -6.8099
  17   2.0000      -0.243451        -6.6247
  18   0.0000      -0.002142        -0.0583
  19   0.0000      -0.000593        -0.0161
  20   0.0000       0.017566         0.4780
  21   0.0000       0.019903         0.5416
  22   0.0000       0.036391         0.9903

MULLIKEN ATOMIC CHARGES
-----------------------
   0 C :   -0.475390
   1 C :    0.032036
   2 C :   -0.161573
   3 N :   -0.872893
   4 N :    0.448945
   5 H :    0.095855
   6 H :    0.382941
   7 H :    0.205289
   8 H :    0.344790
Sum of atomic charges:   -0.0000000

LOEWDIN ATOMIC CHARGES
----------------------
   0 C :    0.106450
   1 C :    0.167420
   2 C :   -0.057027
   3 N :    0.251790
   4 N :    0.305603
   5 H :   -0.231870
   6 H :   -0.197548
   7 H :   -0.188810
   8 H :   -0.156009

  Mayer bond orders larger than 0.100000
B(  0-C ,  1-C ) :   1.1357 B(  0-C ,  2-C ) :   0.1015 B(  0-C ,  4-N ) :   1.2666
B(  0-C ,  8-H ) :   0.8295 B(  1-C ,  2-C ) :   1.0903 B(  1-C ,  7-H ) :   0.9898
B(  2-C ,  3-N ) :   1.3042 B(  2-C ,  6-H ) :   0.8019 B(  3-N ,  4-N ) :   0.1300
B(  4-N ,  5-H ) :   1.0911

Dispersion correction           -0.007487752
FINAL SINGLE POINT ENERGY      -226.318899207197

DIPOLE MOMENT
-------------

Method             : SCF
Type of density    : Electron Density
Multiplicity       :   1
Irrep              :   0
Energy             :  -226.3114114552899139 Eh
Relativity type    :
Basis              : AO
                                X                 Y                 Z
Electronic contribution:     -1.366463183       0.170647741      -0.001166337
Nuclear contribution   :      1.652068746       1.054919735       0.000040788
                        -----------------------------------------
Total Dipole Moment    :      0.285605562       1.225567476      -0.001125548
                        -----------------------------------------
Magnitude (a.u.)       :      1.258406708
Magnitude (Debye)      :      3.198615652

Rotational constants in cm-1:             0.323621             0.316316             0.159963
Rotational constants in MHz :          9701.899385          9482.912680          4795.578108

                             ****ORCA TERMINATED NORMALLY****
TOTAL RUN TIME: 0 days 0 hours 1 minutes 19 seconds 249 msec
