                         Program Version 6.0.0  -   RELEASE  -
|  1> !B3LYP aug-cc-pVTZ d3 TightSCF SlowConv RIJCOSX defgrid2
|  2>
|  3> %pal
|  4> nprocs 4
|  5> end
|  6>
|  7> %scf
|  8> MaxIter 1500
|  9> end
| 10>
| 11> %maxcore 3000
| 12>
| 13> !CPCM
| 14> %cpcm smd true
| 15> SMDsolvent "MeCN"
| 16> surfacetype gepol_ses
| 17> rsolv 2.19
| 18> end
| 19>
| 20> * xyz 0 1
| 21> C          -0.32048925823531     -1.08595168044653      0.00000936001316
| 22> C           0.99134202132746     -0.71584755612509      0.00000868106802
| 23> C           0.99130010917711      0.71590356660469     -0.00000127622817
| 24> C          -0.32055285170877      1.08593010296315      0.00001410652456
| 25> O          -1.11730139846665     -0.00003401203653      0.00002911176710
| 26> H          -0.82672168713073      2.04926041846335      0.00001957189355
| 27> H           1.85496968086204      1.37963412608217     -0.00001317553983
| 28> H           1.85505107384009     -1.37952667121287      0.00000466755780
| 29> H          -0.82660178966524     -2.04931169429235      0.00001155294381
| 30> *
| 31>
| 32>                          ****END OF INPUT****

CARTESIAN COORDINATES (ANGSTROEM)
---------------------------------
  C     -0.320489   -1.085952    0.000009
  C      0.991342   -0.715848    0.000009
  C      0.991300    0.715904   -0.000001
  C     -0.320553    1.085930    0.000014
  O     -1.117301   -0.000034    0.000029
  H     -0.826722    2.049260    0.000020
  H      1.854970    1.379634   -0.000013
  H      1.855051   -1.379527    0.000005
  H     -0.826602   -2.049312    0.000012

 Total Charge           Charge          ....    0
 Multiplicity           Mult            ....    1
 Number of Electrons    NEL             ....   36
 Basis Dimension        Dim             ....  322

ORBITAL ENERGIES
----------------

  NO   OCC          E(Eh)            E(eV)
   0   2.0000     -19.198973      -522.4306
   1   2.0000     -10.218997      -278.0730
   2   2.0000     -10.218970      -278.0723
   3   2.0000     -10.171314      -276.7755
   4   2.0000     -10.170845      -276.7628
   5   2.0000      -1.121606       -30.5205
   6   2.0000      -0.798132       -21.7183
   7   2.0000      -0.745118       -20.2757
   8   2.0000      -0.598046       -16.2737
   9   2.0000      -0.561310       -15.2740
  10   2.0000      -0.539083       -14.6692
  11   2.0000      -0.459540       -12.5047
  12   2.0000      -0.439605       -11.9623
  13   2.0000      -0.403724       -10.9859
  14   2.0000      -0.396505       -10.7894
  15   2.0000      -0.372223       -10.1287
  16   2.0000      -0.284606        -7.7445
  17   2.0000      -0.232528        -6.3274
  18   0.0000       0.000419         0.0114
  19   0.0000       0.000626         0.0170
  20   0.0000       0.017300         0.4708
  21   0.0000       0.020240         0.5508
  22   0.0000       0.037521         1.0210

MULLIKEN ATOMIC CHARGES
-----------------------
   0 C :   -0.404821
   1 C :   -0.445910
   2 C :   -0.445400
   3 C :   -0.404766
   4 O :   -0.249000
   5 H :    0.604518
   6 H :    0.370340
   7 H :    0.370371
   8 H :    0.604669
Sum of atomic charges:    0.0000000

LOEWDIN ATOMIC CHARGES
----------------------
   0 C :   -0.065741
   1 C :    0.145682
   2 C :    0.145701
   3 C :   -0.065714
   4 O :    0.564229
   5 H :   -0.181737
   6 H :   -0.180337
   7 H :   -0.180341
   8 H :   -0.181741

  Mayer bond orders larger than 0.100000
B(  0-C ,  1-C ) :   1.2592 B(  0-C ,  3-C ) :   0.1026 B(  0-C ,  4-O ) :   1.0036
B(  0-C ,  8-H ) :   0.5490 B(  1-C ,  2-C ) :   1.1393 B(  1-C ,  7-H ) :   0.9290
B(  2-C ,  3-C ) :   1.2588 B(  2-C ,  6-H ) :   0.9293 B(  3-C ,  4-O ) :   1.0035
B(  3-C ,  5-H ) :   0.5493

Dispersion correction           -0.011018804
FINAL SINGLE POINT ENERGY      -229.994886909975

DIPOLE MOMENT
-------------

Method             : SCF
Type of density    : Electron Density
Multiplicity       :   1
Irrep              :   0
Energy             :  -229.9838681061624186 Eh
Relativity type    :
Basis              : AO
                                X                 Y                 Z
Electronic contribution:     -1.608133327       0.000059284       0.001212439
Nuclear contribution   :      1.895786675       0.000056296      -0.000025910
                        -----------------------------------------
Total Dipole Moment    :      0.287653348       0.000115579       0.001186529
                        -----------------------------------------
Magnitude (a.u.)       :      0.287655818
Magnitude (Debye)      :      0.731162983

Rotational constants in cm-1:             0.318415             0.310107             0.157103
Rotational constants in MHz :          9545.838950          9296.781610          4709.832145

                             ****ORCA TERMINATED NORMALLY****
TOTAL RUN TIME: 0 days 0 hours 1 minutes 16 seconds 379 msec
