                         Program Version 6.0.0  -   RELEASE  -
|  1> !PBE0 opt def2-SV(p) d3 TightSCF SlowConv RIJCOSX defgrid2
|  2>
|  3> %pal
|  4> nprocs 8
|  5> end
|  6>
|  7> %scf
|  8> MaxIter 1500
|  9> end
| 10>
| 11> %maxcore 3500
| 12>
| 13> !CPCM
| 14> %cpcm smd true
| 15> SMDsolvent "MeCN"
| 16> surfacetype gepol_ses
| 17> rsolv 2.19
| 18> end
| 19>
| 20> * xyz 1 2
| 21> C           1.38821397253669     -0.85710928094571      0.60741622632202
| 22> C           2.66653568645174     -1.38554775804107      0.62328529651635
| 23> C           3.74096697508373     -0.66019599701418      0.08285810563013
| 24> C           3.54023898785237      0.62233127623213     -0.45460571699329
| 25> C           2.27463505486006      1.17691753163962     -0.46404721541233
| 26> C           1.19493732351435      0.42049377974261      0.03782457404784
| 27> O          -0.00001161826735      1.03053434324458     -0.00007618077340
| 28> C          -1.19494650110222      0.42046263969238     -0.03791233087995
| 29> C          -2.27466316694698      1.17692889833622      0.46385316504035
| 30> C          -3.54025869091077      0.62232307991007      0.45446120210222
| 31> C          -3.74095306617908     -0.66026678297616     -0.08285951221376
| 32> C          -2.66650374430337     -1.38566766681220     -0.62318898600472
| 33> C          -1.38818943489976     -0.85721178830951     -0.60735323061330
| 34> H          -0.55743963132106     -1.38478510741341     -1.08197323083020
| 35> H          -2.84302940822415     -2.36075586477487     -1.08456370453300
| 36> H          -4.74708768097790     -1.08795510804427     -0.10418715284565
| 37> H          -4.38474494788350      1.18417342168211      0.86161853827017
| 38> H          -2.07820409834794      2.17105532289927      0.87220985478457
| 39> H           2.07815534201669      2.17098917949467     -0.87253031915770
| 40> H           4.38471105702739      1.18414197451138     -0.86184555829131
| 41> H           4.74710919235526     -1.08786907382573      0.10421696325696
| 42> H           2.84307759651065     -2.36058562840449      1.08475174308550
| 43> H           0.55748160115515     -1.38464569082344      1.08211306949251
| 44> *
| 45>
| 46>                          ****END OF INPUT****
 Total Charge           Charge          ....    1
 Multiplicity           Mult            ....    2
 Number of Electrons    NEL             ....   89
Dispersion correction           -0.023487676
FINAL SINGLE POINT ENERGY      -537.293435617617
Dispersion correction             ... done (  0.1 sec)
Dispersion correction           -0.023557462
FINAL SINGLE POINT ENERGY      -537.293531060726
Dispersion correction             ... done (  0.1 sec)
Dispersion correction           -0.023539868
FINAL SINGLE POINT ENERGY      -537.293434585416
Dispersion correction             ... done (  0.1 sec)
Dispersion correction           -0.023537535
FINAL SINGLE POINT ENERGY      -537.293435557777
Dispersion correction             ... done (  0.1 sec)
                    ***********************HURRAY********************

CARTESIAN COORDINATES (ANGSTROEM)
---------------------------------
  C      1.374573   -0.848864    0.605604
  C      2.648812   -1.386744    0.618325
  C      3.727137   -0.667933    0.080731
  C      3.535639    0.617244   -0.453842
  C      2.274562    1.180721   -0.463871
  C      1.191700    0.429880    0.037305
  O      0.000030    1.044707   -0.000470
  C     -1.191713    0.429830   -0.037835
  C     -2.274425    1.180667    0.463557
  C     -3.535495    0.617117    0.454011
  C     -3.727135   -0.668109   -0.080351
  C     -2.648958   -1.386905   -0.618217
  C     -1.374713   -0.848948   -0.605930
  H     -0.541347   -1.372642   -1.079157
  H     -2.816769   -2.365603   -1.074273
  H     -4.729798   -1.103012   -0.099855
  H     -4.383613    1.173103    0.860951
  H     -2.085178    2.175350    0.873332
  H      2.085375    2.175348   -0.873817
  H      4.383879    1.173222   -0.860540
  H      4.729812   -1.102798    0.100599
  H      2.816558   -2.365372    1.074543
  H      0.541101   -1.372503    1.078665

 Multiplicity           Mult            ....    2
 Number of Electrons    NEL             ....   89
 Basis Dimension        Dim             ....  202

ORBITAL ENERGIES
----------------
                 SPIN UP ORBITALS
  NO   OCC          E(Eh)            E(eV)
   0   1.0000     -19.351752      -526.5879
   1   1.0000     -10.358134      -281.8591
   2   1.0000     -10.358067      -281.8573
   3   1.0000     -10.281512      -279.7742
   4   1.0000     -10.281466      -279.7729
   5   1.0000     -10.279072      -279.7078
   6   1.0000     -10.278995      -279.7057
   7   1.0000     -10.276961      -279.6503
   8   1.0000     -10.276922      -279.6493
   9   1.0000     -10.269203      -279.4392
  10   1.0000     -10.269168      -279.4383
  11   1.0000     -10.268761      -279.4272
  12   1.0000     -10.268727      -279.4263
  13   1.0000      -1.200764       -32.6744
  14   1.0000      -0.931088       -25.3362
  15   1.0000      -0.910009       -24.7626
  16   1.0000      -0.838437       -22.8150
  17   1.0000      -0.810231       -22.0475
  18   1.0000      -0.802582       -21.8394
  19   1.0000      -0.779499       -21.2113
  20   1.0000      -0.712575       -19.3901
  21   1.0000      -0.677645       -18.4397
  22   1.0000      -0.656207       -17.8563
  23   1.0000      -0.630037       -17.1442
  24   1.0000      -0.605301       -16.4711
  25   1.0000      -0.559327       -15.2201
  26   1.0000      -0.550088       -14.9687
  27   1.0000      -0.545640       -14.8476
  28   1.0000      -0.534064       -14.5326
  29   1.0000      -0.494387       -13.4530
  30   1.0000      -0.486919       -13.2497
  31   1.0000      -0.476035       -12.9536
  32   1.0000      -0.475265       -12.9326
  33   1.0000      -0.466936       -12.7060
  34   1.0000      -0.461659       -12.5624
  35   1.0000      -0.425834       -11.5875
  36   1.0000      -0.414128       -11.2690
  37   1.0000      -0.409119       -11.1327
  38   1.0000      -0.404816       -11.0156
  39   1.0000      -0.386954       -10.5296
  40   1.0000      -0.384820       -10.4715
  41   1.0000      -0.314366        -8.5543
  42   1.0000      -0.309790        -8.4298
  43   1.0000      -0.305796        -8.3211
  44   1.0000      -0.281392        -7.6571
  45   0.0000      -0.057134        -1.5547
  46   0.0000      -0.041597        -1.1319
  47   0.0000      -0.035542        -0.9671
  48   0.0000      -0.028962        -0.7881
  49   0.0000       0.063651         1.7320

                 SPIN DOWN ORBITALS
  NO   OCC          E(Eh)            E(eV)
   0   1.0000     -19.344002      -526.3770
   1   1.0000     -10.357292      -281.8362
   2   1.0000     -10.357233      -281.8346
   3   1.0000     -10.279506      -279.7196
   4   1.0000     -10.279459      -279.7183
   5   1.0000     -10.275371      -279.6071
   6   1.0000     -10.275304      -279.6052
   7   1.0000     -10.275154      -279.6012
   8   1.0000     -10.275119      -279.6002
   9   1.0000     -10.270281      -279.4686
  10   1.0000     -10.270245      -279.4676
  11   1.0000     -10.269735      -279.4537
  12   1.0000     -10.269699      -279.4527
  13   1.0000      -1.187331       -32.3089
  14   1.0000      -0.926066       -25.1995
  15   1.0000      -0.904964       -24.6253
  16   1.0000      -0.833703       -22.6862
  17   1.0000      -0.807708       -21.9789
  18   1.0000      -0.800336       -21.7783
  19   1.0000      -0.770222       -20.9588
  20   1.0000      -0.706539       -19.2259
  21   1.0000      -0.675404       -18.3787
  22   1.0000      -0.652131       -17.7454
  23   1.0000      -0.626851       -17.0575
  24   1.0000      -0.602921       -16.4063
  25   1.0000      -0.556172       -15.1342
  26   1.0000      -0.542604       -14.7650
  27   1.0000      -0.533998       -14.5308
  28   1.0000      -0.525991       -14.3129
  29   1.0000      -0.487592       -13.2681
  30   1.0000      -0.485205       -13.2031
  31   1.0000      -0.473491       -12.8843
  32   1.0000      -0.473464       -12.8836
  33   1.0000      -0.462857       -12.5950
  34   1.0000      -0.455193       -12.3864
  35   1.0000      -0.414865       -11.2890
  36   1.0000      -0.412577       -11.2268
  37   1.0000      -0.404035       -10.9943
  38   1.0000      -0.395405       -10.7595
  39   1.0000      -0.381898       -10.3920
  40   1.0000      -0.377511       -10.2726
  41   1.0000      -0.305789        -8.3209
  42   1.0000      -0.301251        -8.1975
  43   1.0000      -0.286340        -7.7917
  44   0.0000      -0.204973        -5.5776
  45   0.0000      -0.042954        -1.1688
  46   0.0000      -0.033971        -0.9244
  47   0.0000      -0.026595        -0.7237
  48   0.0000      -0.008956        -0.2437

MULLIKEN ATOMIC CHARGES AND SPIN POPULATIONS
--------------------------------------------
   0 C :   -0.140952    0.133785
   1 C :   -0.100848   -0.089576
   2 C :   -0.040888    0.263061
   3 C :   -0.102528   -0.082131
   4 C :   -0.088887    0.121959
   5 C :    0.232156    0.059763
   6 O :   -0.183370    0.226118
   7 C :    0.231486    0.059300
   8 C :   -0.088819    0.121696
   9 C :   -0.102626   -0.081986
  10 C :   -0.041080    0.262290
  11 C :   -0.101133   -0.089452
  12 C :   -0.140683    0.133564
  13 H :    0.185581   -0.006752
  14 H :    0.161897    0.003672
  15 H :    0.164223   -0.012704
  16 H :    0.162079    0.002931
  17 H :    0.160117   -0.006314
  18 H :    0.160153   -0.006328
  19 H :    0.162116    0.002933
  20 H :    0.164279   -0.012738
  21 H :    0.161926    0.003672
  22 H :    0.185802   -0.006765
Sum of atomic charges         :    1.0000000

LOEWDIN ATOMIC CHARGES AND SPIN POPULATIONS
-------------------------------------------
   0 C :   -0.109389    0.110178
   1 C :   -0.097767   -0.046684
   2 C :   -0.051473    0.207310
   3 C :   -0.097177   -0.041970
   4 C :   -0.093954    0.101350
   5 C :    0.071890    0.065036
   6 O :    0.084789    0.229042
   7 C :    0.071447    0.064629
   8 C :   -0.094059    0.101110
   9 C :   -0.097239   -0.041915
  10 C :   -0.051723    0.206677
  11 C :   -0.097791   -0.046644
  12 C :   -0.109496    0.109968
  13 H :    0.172521   -0.002954
  14 H :    0.164229    0.001999
  15 H :    0.164162   -0.006223
  16 H :    0.163709    0.001472
  17 H :    0.171258   -0.003320
  18 H :    0.171276   -0.003327
  19 H :    0.163731    0.001473
  20 H :    0.164191   -0.006240
  21 H :    0.164243    0.001998
  22 H :    0.172624   -0.002964

  Mayer bond orders larger than 0.100000
B(  0-C ,  1-C ) :   1.4409 B(  0-C ,  5-C ) :   1.2373 B(  0-C , 22-H ) :   0.9394
B(  1-C ,  2-C ) :   1.3230 B(  1-C , 21-H ) :   0.9537 B(  2-C ,  3-C ) :   1.3087
B(  2-C , 20-H ) :   0.9561 B(  3-C ,  4-C ) :   1.4379 B(  3-C , 19-H ) :   0.9560
B(  4-C ,  5-C ) :   1.2773 B(  4-C , 18-H ) :   0.9572 B(  5-C ,  6-O ) :   1.0919
B(  6-O ,  7-C ) :   1.0913 B(  7-C ,  8-C ) :   1.2775 B(  7-C , 12-C ) :   1.2376
B(  8-C ,  9-C ) :   1.4377 B(  8-C , 17-H ) :   0.9573 B(  9-C , 10-C ) :   1.3089
B(  9-C , 16-H ) :   0.9560 B( 10-C , 11-C ) :   1.3234 B( 10-C , 15-H ) :   0.9561
B( 11-C , 12-C ) :   1.4408 B( 11-C , 14-H ) :   0.9537 B( 12-C , 13-H ) :   0.9395

Dispersion correction           -0.023539174
FINAL SINGLE POINT ENERGY      -537.293390442611

DIPOLE MOMENT
-------------

Method             : SCF
Type of density    : Electron Density
Multiplicity       :   2
Irrep              :   0
Energy             :  -537.2698512685855121 Eh
Relativity type    :
Basis              : AO
                                X                 Y                 Z
Electronic contribution:      0.004627296       2.161359407      -0.000410130
Nuclear contribution   :      0.000004020      -2.645032806       0.001142893
                        -----------------------------------------
Total Dipole Moment    :      0.004631316      -0.483673399       0.000732763
                        -----------------------------------------
Magnitude (a.u.)       :      0.483696127
Magnitude (Debye)      :      1.229457848

Rotational constants in cm-1:             0.082391             0.014639             0.013128
Rotational constants in MHz :          2470.008733           438.872994           393.570439

                             ****ORCA TERMINATED NORMALLY****
TOTAL RUN TIME: 0 days 0 hours 8 minutes 12 seconds 300 msec
