                         Program Version 6.0.0  -   RELEASE  -
|  1> !PBE0 opt aug-cc-pVTZ d3 TightSCF SlowConv RIJCOSX defgrid2
|  2>
|  3> %pal
|  4> nprocs 8
|  5> end
|  6>
|  7> %scf
|  8> MaxIter 1500
|  9> end
| 10>
| 11> %maxcore 3500
| 12>
| 13> !CPCM
| 14> %cpcm smd true
| 15> SMDsolvent "MeCN"
| 16> surfacetype gepol_ses
| 17> rsolv 2.19
| 18> end
| 19>
| 20> * xyz 0 1
| 21> C          -1.20884186796781     -0.02278058914418      0.00003742233159
| 22> C          -1.20709913160620      1.38045218788773      0.00016703364523
| 23> C           0.00003556987027      2.07238258705511      0.00002257197541
| 24> C           1.20714414585697      1.38040506278913     -0.00023783478174
| 25> C           1.20883517896309     -0.02282737272555     -0.00031075934043
| 26> C          -0.00001674938231     -0.72722788932514     -0.00021243594479
| 27> H          -0.00003875372447     -1.81890955720448     -0.00030359455707
| 28> C           2.45039282749013     -0.73822162648839     -0.00031862016213
| 29> N           3.45665781045797     -1.31294485312421      0.00119491286029
| 30> H           2.15765649045058      1.91893621365633     -0.00034701835738
| 31> H           0.00005970442079      3.16546819660540      0.00011390445176
| 32> H          -2.15759482922730      1.91901494079977      0.00036663554396
| 33> C          -2.45042247590246     -0.73813543850926      0.00010406543100
| 34> N          -3.45670371969924     -1.31283236227226     -0.00021618309569
| 35> *
| 36>
| 37>                          ****END OF INPUT****
 Total Charge           Charge          ....    0
 Multiplicity           Mult            ....    1
 Number of Electrons    NEL             ....   66
Dispersion correction           -0.014198031
FINAL SINGLE POINT ENERGY      -416.406539677684
Dispersion correction             ... done (  0.1 sec)
Dispersion correction           -0.014268758
FINAL SINGLE POINT ENERGY      -416.407627335129
Dispersion correction             ... done (  0.1 sec)
Dispersion correction           -0.014279367
FINAL SINGLE POINT ENERGY      -416.407648663365
Dispersion correction             ... done (  0.1 sec)
Dispersion correction           -0.014280692
FINAL SINGLE POINT ENERGY      -416.407652703986
Dispersion correction             ... done (  0.0 sec)
                    ***********************HURRAY********************

CARTESIAN COORDINATES (ANGSTROEM)
---------------------------------
  C     -1.195027   -0.019498    0.000125
  C     -1.199929    1.375989    0.000417
  C      0.000039    2.064749    0.000019
  C      1.199972    1.375928   -0.000484
  C      1.195009   -0.019554   -0.000365
  C     -0.000025   -0.729284   -0.000200
  H     -0.000050   -1.810269   -0.000302
  C      2.430210   -0.730318   -0.000165
  N      3.430221   -1.300925    0.001305
  H      2.140457    1.910297   -0.000561
  H      0.000066    3.146349    0.000100
  H     -2.140388    1.910402    0.000576
  C     -2.430242   -0.730237   -0.000001
  N     -3.430251   -1.300850   -0.000407

 Multiplicity           Mult            ....    1
 Number of Electrons    NEL             ....   66
 Basis Dimension        Dim             ....  552

ORBITAL ENERGIES
----------------

  NO   OCC          E(Eh)            E(eV)
   0   2.0000     -14.400502      -391.8576
   1   2.0000     -14.400498      -391.8575
   2   2.0000     -10.289861      -280.0013
   3   2.0000     -10.289840      -280.0008
   4   2.0000     -10.284428      -279.8535
   5   2.0000     -10.284420      -279.8533
   6   2.0000     -10.273469      -279.5553
   7   2.0000     -10.265607      -279.3414
   8   2.0000     -10.265577      -279.3406
   9   2.0000     -10.253271      -279.0057
  10   2.0000      -0.961245       -26.1568
  11   2.0000      -0.955921       -26.0119
  12   2.0000      -0.924082       -25.1455
  13   2.0000      -0.834147       -22.6983
  14   2.0000      -0.815551       -22.1923
  15   2.0000      -0.692557       -18.8454
  16   2.0000      -0.688078       -18.7235
  17   2.0000      -0.618236       -16.8231
  18   2.0000      -0.530055       -14.4235
  19   2.0000      -0.525577       -14.3017
  20   2.0000      -0.513893       -13.9838
  21   2.0000      -0.469135       -12.7658
  22   2.0000      -0.448018       -12.1912
  23   2.0000      -0.416450       -11.3322
  24   2.0000      -0.412612       -11.2277
  25   2.0000      -0.407803       -11.0969
  26   2.0000      -0.400674       -10.9029
  27   2.0000      -0.396290       -10.7836
  28   2.0000      -0.370245       -10.0749
  29   2.0000      -0.368735       -10.0338
  30   2.0000      -0.368495       -10.0273
  31   2.0000      -0.297737        -8.1018
  32   2.0000      -0.293242        -7.9795
  33   0.0000      -0.071390        -1.9426
  34   0.0000      -0.055462        -1.5092
  35   0.0000      -0.000869        -0.0236
  36   0.0000       0.012505         0.3403
  37   0.0000       0.016363         0.4452

MULLIKEN ATOMIC CHARGES
-----------------------
   0 C :    1.150670
   1 C :   -0.802740
   2 C :   -0.597015
   3 C :   -0.803777
   4 C :    1.153207
   5 C :   -0.909250
   6 H :    0.161715
   7 C :    0.500085
   8 N :   -0.809280
   9 H :    0.276609
  10 H :    0.712575
  11 H :    0.276705
  12 C :    0.499069
  13 N :   -0.808574
Sum of atomic charges:    0.0000000

LOEWDIN ATOMIC CHARGES
----------------------
   0 C :   -0.185657
   1 C :    0.232612
   2 C :    0.243682
   3 C :    0.232603
   4 C :   -0.185657
   5 C :    0.222142
   6 H :   -0.142615
   7 C :   -0.239068
   8 N :    0.256045
   9 H :   -0.147871
  10 H :   -0.155317
  11 H :   -0.147870
  12 C :   -0.239070
  13 N :    0.256043

  Mayer bond orders larger than 0.100000
B(  0-C ,  1-C ) :   0.5599 B(  0-C ,  4-C ) :   0.1809 B(  0-C ,  5-C ) :   0.6369
B(  0-C , 12-C ) :   0.7418 B(  1-C ,  2-C ) :   1.3154 B(  1-C ,  3-C ) :  -0.1959
B(  1-C ,  5-C ) :  -0.1813 B(  1-C , 11-H ) :   0.9856 B(  1-C , 12-C ) :   0.2501
B(  1-C , 13-N ) :   0.1147 B(  2-C ,  3-C ) :   1.3134 B(  2-C , 10-H ) :   0.2823
B(  3-C ,  4-C ) :   0.5603 B(  3-C ,  5-C ) :  -0.1818 B(  3-C ,  7-C ) :   0.2522
B(  3-C ,  8-N ) :   0.1141 B(  3-C ,  9-H ) :   0.9861 B(  4-C ,  5-C ) :   0.6373
B(  4-C ,  7-C ) :   0.7390 B(  5-C ,  6-H ) :   1.0968 B(  7-C ,  8-N ) :   1.7339
B(  7-C , 12-C ) :   0.1789 B( 12-C , 13-N ) :   1.7370

Dispersion correction           -0.014280194
FINAL SINGLE POINT ENERGY      -416.407654488724

DIPOLE MOMENT
-------------

Method             : SCF
Type of density    : Electron Density
Multiplicity       :   1
Irrep              :   0
Energy             :  -416.3933742945644667 Eh
Relativity type    :
Basis              : AO
                                X                 Y                 Z
Electronic contribution:     -0.000066883      -2.432451361      -0.000585908
Nuclear contribution   :      0.000086736       4.828436464      -0.000303247
                        -----------------------------------------
Total Dipole Moment    :      0.000019853       2.395985103      -0.000889156
                        -----------------------------------------
Magnitude (a.u.)       :      2.395985268
Magnitude (Debye)      :      6.090110563

Rotational constants in cm-1:             0.091647             0.030671             0.022980
Rotational constants in MHz :          2747.510685           919.488438           688.929671

                             ****ORCA TERMINATED NORMALLY****
TOTAL RUN TIME: 0 days 0 hours 15 minutes 27 seconds 639 msec
