                         Program Version 6.0.0  -   RELEASE  -
|  1> !TPSSh aug-cc-pVTZ d3 TightSCF SlowConv RIJCOSX defgrid2
|  2>
|  3> %pal
|  4> nprocs 4
|  5> end
|  6>
|  7> %scf
|  8> MaxIter 1500
|  9> end
| 10>
| 11> %maxcore 3000
| 12>
| 13> !CPCM
| 14> %cpcm smd true
| 15> SMDsolvent "MeCN"
| 16> surfacetype gepol_ses
| 17> rsolv 2.19
| 18> end
| 19>
| 20> * xyz 0 1
| 21> C          -1.46623314437860      0.00011003866901      0.22138384864377
| 22> C          -0.72146821550608     -1.25556136021306     -0.22481675803302
| 23> C           0.73262554024155     -1.20678755712777      0.22695422389648
| 24> N           1.36188913054653     -0.00003006922571     -0.26913603967446
| 25> H           2.35649748423742      0.00003991081311     -0.05534562705397
| 26> C           0.73253990701766      1.20675926009467      0.22704999760922
| 27> C          -0.72144308108941      1.25558522950449     -0.22511308939031
| 28> H          -1.21016137962431      2.16287914838208      0.17240179576001
| 29> H          -0.74244280115887      1.32521043142589     -1.32823766113094
| 30> H           1.28241123896761      2.08000889090111     -0.16483545442717
| 31> H           0.76101367989671      1.27620173910910      1.34294202221842
| 32> H           1.28219641826463     -2.08008378359356     -0.16534993713385
| 33> H           0.76183907670503     -1.27697357186768      1.34279799676324
| 34> H          -1.21020710908673     -2.16266625677100      0.17304098184531
| 35> H          -0.74264320710994     -1.32505523098441     -1.32794132635220
| 36> H          -2.49942641463124      0.00003764837706     -0.16886144147242
| 37> H          -1.54597222329197      0.00034473250668      1.32642866793188
| 38> *
| 39>
| 40>                          ****END OF INPUT****

CARTESIAN COORDINATES (ANGSTROEM)
---------------------------------
  C     -1.466233    0.000110    0.221384
  C     -0.721468   -1.255561   -0.224817
  C      0.732626   -1.206788    0.226954
  N      1.361889   -0.000030   -0.269136
  H      2.356497    0.000040   -0.055346
  C      0.732540    1.206759    0.227050
  C     -0.721443    1.255585   -0.225113
  H     -1.210161    2.162879    0.172402
  H     -0.742443    1.325210   -1.328238
  H      1.282411    2.080009   -0.164835
  H      0.761014    1.276202    1.342942
  H      1.282196   -2.080084   -0.165350
  H      0.761839   -1.276974    1.342798
  H     -1.210207   -2.162666    0.173041
  H     -0.742643   -1.325055   -1.327941
  H     -2.499426    0.000038   -0.168861
  H     -1.545972    0.000345    1.326429

 Total Charge           Charge          ....    0
 Multiplicity           Mult            ....    1
 Number of Electrons    NEL             ....   48
 Basis Dimension        Dim             ....  529

ORBITAL ENERGIES
----------------

  NO   OCC          E(Eh)            E(eV)
   0   2.0000     -14.226907      -387.1338
   1   2.0000     -10.124579      -275.5038
   2   2.0000     -10.124576      -275.5037
   3   2.0000     -10.099668      -274.8260
   4   2.0000     -10.098541      -274.7953
   5   2.0000     -10.098525      -274.7948
   6   2.0000      -0.884222       -24.0609
   7   2.0000      -0.756515       -20.5858
   8   2.0000      -0.722087       -19.6490
   9   2.0000      -0.606048       -16.4914
  10   2.0000      -0.590438       -16.0666
  11   2.0000      -0.522836       -14.2271
  12   2.0000      -0.486267       -13.2320
  13   2.0000      -0.425486       -11.5781
  14   2.0000      -0.425033       -11.5657
  15   2.0000      -0.397024       -10.8036
  16   2.0000      -0.382910       -10.4195
  17   2.0000      -0.375143       -10.2082
  18   2.0000      -0.356246        -9.6939
  19   2.0000      -0.319599        -8.6967
  20   2.0000      -0.302516        -8.2319
  21   2.0000      -0.288002        -7.8369
  22   2.0000      -0.285735        -7.7752
  23   2.0000      -0.206171        -5.6102
  24   0.0000      -0.002535        -0.0690
  25   0.0000       0.010985         0.2989
  26   0.0000       0.013379         0.3640
  27   0.0000       0.014307         0.3893
  28   0.0000       0.034909         0.9499

MULLIKEN ATOMIC CHARGES
-----------------------
   0 C :    0.059296
   1 C :   -0.004796
   2 C :    0.120790
   3 N :   -0.371776
   4 H :   -0.107668
   5 C :    0.120562
   6 C :   -0.004718
   7 H :   -0.019637
   8 H :    0.042564
   9 H :   -0.002320
  10 H :    0.063603
  11 H :   -0.002305
  12 H :    0.063382
  13 H :   -0.019580
  14 H :    0.042717
  15 H :   -0.081695
  16 H :    0.101581
Sum of atomic charges:    0.0000000

LOEWDIN ATOMIC CHARGES
----------------------
   0 C :    0.264227
   1 C :    0.263778
   2 C :    0.137839
   3 N :    0.552281
   4 H :   -0.286526
   5 C :    0.137958
   6 C :    0.263706
   7 H :   -0.133284
   8 H :   -0.137988
   9 H :   -0.135543
  10 H :   -0.125356
  11 H :   -0.135554
  12 H :   -0.125317
  13 H :   -0.133288
  14 H :   -0.138001
  15 H :   -0.134089
  16 H :   -0.134843

  Mayer bond orders larger than 0.100000
B(  0-C ,  1-C ) :   1.0311 B(  0-C ,  6-C ) :   1.0310 B(  0-C , 15-H ) :   1.0057
B(  0-C , 16-H ) :   0.9288 B(  1-C ,  2-C ) :   1.0132 B(  1-C ,  6-C ) :   0.1078
B(  1-C , 13-H ) :   0.9588 B(  1-C , 14-H ) :   0.9862 B(  2-C ,  3-N ) :   0.8854
B(  2-C , 11-H ) :   1.0101 B(  2-C , 12-H ) :   0.9501 B(  3-N ,  4-H ) :   1.0195
B(  3-N ,  5-C ) :   0.8856 B(  5-C ,  6-C ) :   1.0134 B(  5-C ,  9-H ) :   1.0103
B(  5-C , 10-H ) :   0.9500 B(  6-C ,  7-H ) :   0.9587 B(  6-C ,  8-H ) :   0.9863

Dispersion correction           -0.016399591
FINAL SINGLE POINT ENERGY      -252.037163514681

DIPOLE MOMENT
-------------

Method             : SCF
Type of density    : Electron Density
Multiplicity       :   1
Irrep              :   0
Energy             :  -252.0207639235384534 Eh
Relativity type    :
Basis              : AO
                                X                 Y                 Z
Electronic contribution:      1.556916347       0.000236557      -0.581672334
Nuclear contribution   :     -1.432111276      -0.000148884       1.063195941
                        -----------------------------------------
Total Dipole Moment    :      0.124805071       0.000087673       0.481523606
                        -----------------------------------------
Magnitude (a.u.)       :      0.497434716
Magnitude (Debye)      :      1.264378567

Rotational constants in cm-1:             0.151873             0.148898             0.085191
Rotational constants in MHz :          4553.029667          4463.848294          2553.974723

                             ****ORCA TERMINATED NORMALLY****
TOTAL RUN TIME: 0 days 0 hours 2 minutes 27 seconds 969 msec
