                         Program Version 6.0.0  -   RELEASE  -
|  1> !PBE0 opt aug-cc-pVTZ d3 TightSCF SlowConv RIJCOSX defgrid2
|  2>
|  3> %pal
|  4> nprocs 8
|  5> end
|  6>
|  7> %scf
|  8> MaxIter 1500
|  9> end
| 10>
| 11> %maxcore 3500
| 12>
| 13> !CPCM
| 14> %cpcm smd true
| 15> SMDsolvent "MeCN"
| 16> surfacetype gepol_ses
| 17> rsolv 2.19
| 18> end
| 19>
| 20> * xyz 0 1
| 21> C           0.94968287453071     -1.27993729727395      0.00000683726847
| 22> C           2.32072584922403     -1.03066468402730     -0.00000570192654
| 23> C           2.79045486785265      0.28126328538775     -0.00000619644263
| 24> C           1.88129493900205      1.34320110702256      0.00000552102250
| 25> C           0.51414900986878      1.09690334373603      0.00001977591165
| 26> C           0.03124775758730     -0.22186358373352      0.00001975571628
| 27> C          -1.40109719375212     -0.51811607942485      0.00002773818787
| 28> N          -2.27722630544222      0.40983670208196      0.00003187543002
| 29> O          -3.54943597920683     -0.07892856387383      0.00003589961153
| 30> H          -4.10699565150034      0.71269395667835      0.00004041054052
| 31> H          -1.72077053189788     -1.57247842719527      0.00002621709873
| 32> H          -0.20517984986564      1.91961492482438      0.00002936627338
| 33> H           2.24665800678188      2.37456842670514      0.00000344087776
| 34> H           3.86637191838654      0.47947397298735     -0.00001641660649
| 35> H           3.02594458116043     -1.86704493909579     -0.00001599324974
| 36> H           0.58187010727067     -2.31112044479903      0.00000487028669
| 37> *
| 38>
| 39>                          ****END OF INPUT****
 Total Charge           Charge          ....    0
 Multiplicity           Mult            ....    1
 Number of Electrons    NEL             ....   64
Dispersion correction           -0.013823529
FINAL SINGLE POINT ENERGY      -400.580523354033
Dispersion correction             ... done (  0.1 sec)
Dispersion correction           -0.013863500
FINAL SINGLE POINT ENERGY      -400.581413971061
Dispersion correction             ... done (  0.1 sec)
Dispersion correction           -0.013868139
FINAL SINGLE POINT ENERGY      -400.581474164250
Dispersion correction             ... done (  0.1 sec)
Dispersion correction           -0.013866233
FINAL SINGLE POINT ENERGY      -400.581492053448
Dispersion correction             ... done (  0.1 sec)
Dispersion correction           -0.013864725
FINAL SINGLE POINT ENERGY      -400.581494450288
Dispersion correction             ... done (  0.1 sec)
                    ***********************HURRAY********************

CARTESIAN COORDINATES (ANGSTROEM)
---------------------------------
  C      0.938283   -1.265229   -0.000151
  C      2.304974   -1.027899   -0.000657
  C      2.782194    0.274043   -0.000413
  C      1.886456    1.339204    0.000476
  C      0.523659    1.106185    0.000893
  C      0.034646   -0.203248    0.000452
  C     -1.391207   -0.509567    0.000703
  N     -2.270915    0.408024   -0.001737
  O     -3.552105   -0.110483   -0.000714
  H     -4.114931    0.673522   -0.001953
  H     -1.688869   -1.558523    0.003268
  H     -0.171495    1.936253    0.001748
  H      2.257240    2.357183    0.000293
  H      3.848991    0.462199   -0.001047
  H      2.996687   -1.861435   -0.001177
  H      0.564087   -2.282828    0.000224

 Multiplicity           Mult            ....    1
 Number of Electrons    NEL             ....   64
 Basis Dimension        Dim             ....  575

ORBITAL ENERGIES
----------------

  NO   OCC          E(Eh)            E(eV)
   0   2.0000     -19.257684      -524.0282
   1   2.0000     -14.442615      -393.0035
   2   2.0000     -10.263628      -279.2875
   3   2.0000     -10.247104      -278.8379
   4   2.0000     -10.234159      -278.4856
   5   2.0000     -10.232585      -278.4428
   6   2.0000     -10.231935      -278.4251
   7   2.0000     -10.231148      -278.4037
   8   2.0000     -10.230837      -278.3952
   9   2.0000      -1.127381       -30.6776
  10   2.0000      -0.913597       -24.8602
  11   2.0000      -0.879431       -23.9305
  12   2.0000      -0.783587       -21.3225
  13   2.0000      -0.775653       -21.1066
  14   2.0000      -0.662946       -18.0397
  15   2.0000      -0.632090       -17.2000
  16   2.0000      -0.589395       -16.0383
  17   2.0000      -0.553227       -15.0541
  18   2.0000      -0.532533       -14.4910
  19   2.0000      -0.490108       -13.3365
  20   2.0000      -0.471422       -12.8281
  21   2.0000      -0.453368       -12.3368
  22   2.0000      -0.446028       -12.1370
  23   2.0000      -0.436244       -11.8708
  24   2.0000      -0.427736       -11.6393
  25   2.0000      -0.397350       -10.8124
  26   2.0000      -0.363778        -9.8989
  27   2.0000      -0.355923        -9.6852
  28   2.0000      -0.316747        -8.6191
  29   2.0000      -0.302808        -8.2398
  30   2.0000      -0.275001        -7.4831
  31   2.0000      -0.247478        -6.7342
  32   0.0000      -0.049982        -1.3601
  33   0.0000      -0.013119        -0.3570
  34   0.0000       0.002687         0.0731
  35   0.0000       0.010010         0.2724
  36   0.0000       0.017448         0.4748

MULLIKEN ATOMIC CHARGES
-----------------------
   0 C :   -1.011359
   1 C :   -0.660289
   2 C :   -0.327970
   3 C :   -0.794561
   4 C :   -0.748054
   5 C :    1.505027
   6 C :    0.000382
   7 N :   -0.468051
   8 O :   -0.313163
   9 H :    0.174401
  10 H :    0.477927
  11 H :    0.184135
  12 H :    0.655996
  13 H :    0.527571
  14 H :    0.661088
  15 H :    0.136918
Sum of atomic charges:    0.0000000

LOEWDIN ATOMIC CHARGES
----------------------
   0 C :    0.196926
   1 C :    0.196362
   2 C :    0.192321
   3 C :    0.194576
   4 C :    0.191851
   5 C :   -0.180161
   6 C :   -0.027008
   7 N :    0.130219
   8 O :    0.671742
   9 H :   -0.516669
  10 H :   -0.178675
  11 H :   -0.185680
  12 H :   -0.172294
  13 H :   -0.172993
  14 H :   -0.172197
  15 H :   -0.168320

  Mayer bond orders larger than 0.100000
B(  0-C ,  1-C ) :   1.2947 B(  0-C ,  2-C ) :  -0.1323 B(  0-C ,  4-C ) :  -0.3895
B(  0-C ,  5-C ) :   0.3420 B(  0-C , 11-H ) :   0.1067 B(  0-C , 14-H ) :  -0.1742
B(  0-C , 15-H ) :   1.4628 B(  1-C ,  2-C ) :   1.3735 B(  1-C ,  3-C ) :   0.1399
B(  1-C , 14-H ) :   0.3249 B(  2-C ,  3-C ) :   1.3077 B(  2-C ,  4-C ) :  -0.1680
B(  2-C ,  5-C ) :  -0.1124 B(  2-C ,  6-C ) :   0.1197 B(  2-C , 12-H ) :   0.1087
B(  2-C , 13-H ) :   0.5646 B(  3-C ,  4-C ) :   1.2839 B(  3-C , 12-H ) :   0.3029
B(  4-C ,  5-C ) :   0.6231 B(  4-C ,  6-C ) :   0.1838 B(  4-C , 11-H ) :   1.1266
B(  5-C ,  6-C ) :   0.2967 B(  5-C ,  7-N ) :  -0.1438 B(  5-C , 14-H ) :   0.1191
B(  6-C ,  7-N ) :   1.1340 B(  6-C , 10-H ) :   0.5819 B(  6-C , 15-H ) :  -0.1453
B(  7-N ,  8-O ) :   0.6624 B(  7-N , 10-H ) :  -0.1023 B(  8-O ,  9-H ) :   1.0028
B( 11-H , 15-H ) :   0.1589

Dispersion correction           -0.013864225
FINAL SINGLE POINT ENERGY      -400.581494730906

DIPOLE MOMENT
-------------

Method             : SCF
Type of density    : Electron Density
Multiplicity       :   1
Irrep              :   0
Energy             :  -400.5676305056935007 Eh
Relativity type    :
Basis              : AO
                                X                 Y                 Z
Electronic contribution:     -2.996499198       0.146011833      -0.001120683
Nuclear contribution   :      3.392546247      -0.268630070       0.002271315
                        -----------------------------------------
Total Dipole Moment    :      0.396047049      -0.122618237       0.001150632
                        -----------------------------------------
Magnitude (a.u.)       :      0.414595974
Magnitude (Debye)      :      1.053819217

Rotational constants in cm-1:             0.174894             0.030090             0.025673
Rotational constants in MHz :          5243.196716           902.086833           769.666679

                             ****ORCA TERMINATED NORMALLY****
TOTAL RUN TIME: 0 days 0 hours 36 minutes 16 seconds 248 msec
