                         Program Version 6.0.0  -   RELEASE  -
|  1> !r2SCAN aug-cc-pVTZ d3 TightSCF SlowConv RIJCOSX defgrid2
|  2>
|  3> %pal
|  4> nprocs 4
|  5> end
|  6>
|  7> %scf
|  8> MaxIter 1500
|  9> end
| 10>
| 11> %maxcore 3000
| 12>
| 13> !CPCM
| 14> %cpcm smd true
| 15> SMDsolvent "MeCN"
| 16> surfacetype gepol_ses
| 17> rsolv 2.19
| 18> end
| 19>
| 20> * xyz 0 1
| 21> C          -1.05292788857862     -0.90195039312492     -0.00079244620406
| 22> C           0.25383306266426     -1.38568004993578     -0.00080152214741
| 23> C           0.54028267273191     -2.86138571234637      0.00203288995712
| 24> H          -0.38883857252285     -3.45325509542062     -0.03604059678385
| 25> H           1.09291811063176     -3.16010644297053      0.91112317693211
| 26> H           1.16170282070714     -3.15090864321875     -0.86421399390079
| 27> C           1.30789207458922     -0.46067464080260     -0.00180567347016
| 28> C           1.07324062808844      0.91294695875315     -0.00214657152903
| 29> C           2.20817617786651      1.89865124490654      0.00209849597546
| 30> H           3.18449974454796      1.39049576009947     -0.05807100437114
| 31> H           2.13663406413115      2.59705801641470     -0.85077030664783
| 32> H           2.20331535520643      2.51020555090965      0.92262417706601
| 33> C          -0.25483018407266      1.36349671392215     -0.00225647131416
| 34> C          -1.32705255805093      0.47346516287692     -0.00103317270303
| 35> C          -2.74855528335392      0.96238121268857      0.00245367553351
| 36> H          -3.31064008145775      0.56663508720282     -0.86228812948984
| 37> H          -2.79782100162226      2.06283177128710     -0.03746981852679
| 38> H          -3.28188878628492      0.63396678514828      0.91282151769573
| 39> H          -0.45362964993404      2.44124989130836     -0.00465260761200
| 40> H           2.34086357869234     -0.82683387520777     -0.00378196652349
| 41> H          -1.88684908397918     -1.61312760249038     -0.00182455193637
| 42> *
| 43>
| 44>                          ****END OF INPUT****

CARTESIAN COORDINATES (ANGSTROEM)
---------------------------------
  C     -1.052928   -0.901950   -0.000792
  C      0.253833   -1.385680   -0.000802
  C      0.540283   -2.861386    0.002033
  H     -0.388839   -3.453255   -0.036041
  H      1.092918   -3.160106    0.911123
  H      1.161703   -3.150909   -0.864214
  C      1.307892   -0.460675   -0.001806
  C      1.073241    0.912947   -0.002147
  C      2.208176    1.898651    0.002098
  H      3.184500    1.390496   -0.058071
  H      2.136634    2.597058   -0.850770
  H      2.203315    2.510206    0.922624
  C     -0.254830    1.363497   -0.002256
  C     -1.327053    0.473465   -0.001033
  C     -2.748555    0.962381    0.002454
  H     -3.310640    0.566635   -0.862288
  H     -2.797821    2.062832   -0.037470
  H     -3.281889    0.633967    0.912822
  H     -0.453630    2.441250   -0.004653
  H      2.340864   -0.826834   -0.003782
  H     -1.886849   -1.613128   -0.001825

 Total Charge           Charge          ....    0
 Multiplicity           Mult            ....    1
 Number of Electrons    NEL             ....   66
 Basis Dimension        Dim             ....  690

ORBITAL ENERGIES
----------------

  NO   OCC          E(Eh)            E(eV)
   0   2.0000     -10.045419      -273.3497
   1   2.0000     -10.045402      -273.3493
   2   2.0000     -10.045397      -273.3491
   3   2.0000     -10.026729      -272.8412
   4   2.0000     -10.026714      -272.8408
   5   2.0000     -10.026702      -272.8404
   6   2.0000     -10.025643      -272.8116
   7   2.0000     -10.025641      -272.8116
   8   2.0000     -10.025632      -272.8113
   9   2.0000      -0.824657       -22.4401
  10   2.0000      -0.743604       -20.2345
  11   2.0000      -0.743599       -20.2343
  12   2.0000      -0.660033       -17.9604
  13   2.0000      -0.640348       -17.4247
  14   2.0000      -0.640291       -17.4232
  15   2.0000      -0.535040       -14.5592
  16   2.0000      -0.535025       -14.5588
  17   2.0000      -0.457874       -12.4594
  18   2.0000      -0.440551       -11.9880
  19   2.0000      -0.395376       -10.7587
  20   2.0000      -0.393670       -10.7123
  21   2.0000      -0.374896       -10.2014
  22   2.0000      -0.374879       -10.2010
  23   2.0000      -0.366284        -9.9671
  24   2.0000      -0.366245        -9.9660
  25   2.0000      -0.353767        -9.6265
  26   2.0000      -0.353731        -9.6255
  27   2.0000      -0.323661        -8.8073
  28   2.0000      -0.306032        -8.3276
  29   2.0000      -0.297459        -8.0943
  30   2.0000      -0.297446        -8.0939
  31   2.0000      -0.219056        -5.9608
  32   2.0000      -0.219014        -5.9597
  33   0.0000      -0.030069        -0.8182
  34   0.0000      -0.030019        -0.8169
  35   0.0000       0.007123         0.1938
  36   0.0000       0.023433         0.6376
  37   0.0000       0.023441         0.6379

MULLIKEN ATOMIC CHARGES
-----------------------
   0 C :   -1.178562
   1 C :    1.495404
   2 C :   -0.698949
   3 H :    0.166583
   4 H :    0.196225
   5 H :    0.182670
   6 C :   -1.183008
   7 C :    1.493347
   8 C :   -0.698443
   9 H :    0.165619
  10 H :    0.181397
  11 H :    0.199148
  12 C :   -1.174002
  13 C :    1.491988
  14 C :   -0.696416
  15 H :    0.183799
  16 H :    0.163781
  17 H :    0.195478
  18 H :   -0.160485
  19 H :   -0.160565
  20 H :   -0.165010
Sum of atomic charges:   -0.0000000

LOEWDIN ATOMIC CHARGES
----------------------
   0 C :    0.216906
   1 C :   -0.144782
   2 C :    0.575061
   3 H :   -0.170960
   4 H :   -0.155479
   5 H :   -0.156860
   6 C :    0.216931
   7 C :   -0.144827
   8 C :    0.574960
   9 H :   -0.170975
  10 H :   -0.157146
  11 H :   -0.155136
  12 C :    0.217016
  13 C :   -0.144792
  14 C :    0.575019
  15 H :   -0.156904
  16 H :   -0.170882
  17 H :   -0.155482
  18 H :   -0.163919
  19 H :   -0.163899
  20 H :   -0.163850

  Mayer bond orders larger than 0.100000
B(  0-C ,  1-C ) :   0.3009 B(  0-C ,  7-C ) :  -0.3543 B(  0-C , 14-C ) :   0.2694
B(  0-C , 18-H ) :   0.1622 B(  0-C , 20-H ) :   1.6416 B(  1-C ,  7-C ) :   0.5638
B(  1-C , 12-C ) :  -0.3517 B(  1-C , 13-C ) :   0.5655 B(  1-C , 18-H ) :  -0.1155
B(  1-C , 19-H ) :  -0.2161 B(  1-C , 20-H ) :  -0.2197 B(  2-C ,  3-H ) :   1.0136
B(  2-C ,  4-H ) :   1.0291 B(  2-C ,  5-H ) :   1.0453 B(  2-C ,  6-C ) :   0.2698
B(  6-C ,  7-C ) :   0.3012 B(  6-C , 13-C ) :  -0.3559 B(  6-C , 19-H ) :   1.6348
B(  6-C , 20-H ) :   0.1629 B(  7-C , 13-C ) :   0.5642 B(  7-C , 18-H ) :  -0.2164
B(  7-C , 19-H ) :  -0.2159 B(  7-C , 20-H ) :  -0.1163 B(  8-C ,  9-H ) :   1.0143
B(  8-C , 10-H ) :   1.0455 B(  8-C , 11-H ) :   1.0264 B(  8-C , 12-C ) :   0.2681
B( 12-C , 13-C ) :   0.3012 B( 12-C , 18-H ) :   1.6342 B( 12-C , 19-H ) :   0.1616
B( 13-C , 18-H ) :  -0.2170 B( 13-C , 19-H ) :  -0.1149 B( 13-C , 20-H ) :  -0.2175
B( 14-C , 15-H ) :   1.0442 B( 14-C , 16-H ) :   1.0159 B( 14-C , 17-H ) :   1.0295

Dispersion correction           -0.006258290
FINAL SINGLE POINT ENERGY      -350.122076521772

DIPOLE MOMENT
-------------

Method             : SCF
Type of density    : Electron Density
Multiplicity       :   1
Irrep              :   0
Energy             :  -350.1158182315584213 Eh
Relativity type    :
Basis              : AO
                                X                 Y                 Z
Electronic contribution:     -0.000762003       0.002285509      -0.011125967
Nuclear contribution   :      0.000158820      -0.002916147       0.025698413
                        -----------------------------------------
Total Dipole Moment    :     -0.000603183      -0.000630638       0.014572445
                        -----------------------------------------
Magnitude (a.u.)       :      0.014598551
Magnitude (Debye)      :      0.037106569

Rotational constants in cm-1:             0.058235             0.058222             0.029602
Rotational constants in MHz :          1745.843649          1745.444193           887.453553

                             ****ORCA TERMINATED NORMALLY****
TOTAL RUN TIME: 0 days 0 hours 3 minutes 43 seconds 212 msec
