                         Program Version 6.0.0  -   RELEASE  -
|  1> !TPSSh aug-cc-pVTZ d3 TightSCF SlowConv RIJCOSX defgrid2
|  2>
|  3> %pal
|  4> nprocs 4
|  5> end
|  6>
|  7> %scf
|  8> MaxIter 1500
|  9> end
| 10>
| 11> %maxcore 3000
| 12>
| 13> !CPCM
| 14> %cpcm smd true
| 15> SMDsolvent "MeCN"
| 16> surfacetype gepol_ses
| 17> rsolv 2.19
| 18> end
| 19>
| 20> * xyz 1 2
| 21> C           0.42766922826058      1.09250554753671     -0.00002934984792
| 22> C          -0.91803929338371      1.32112616186701     -0.00007862922355
| 23> C          -1.83359468145124      0.22604701172772     -0.00005052019445
| 24> C          -1.34403470586700     -1.10812997260672      0.00004176990950
| 25> C           0.01076802795708     -1.32157729093281      0.00010017037764
| 26> C           0.94695487201857     -0.24147431186404      0.00005526206874
| 27> C           2.33481183567959     -0.54917553496955      0.00008494824583
| 28> C           3.37151795017655      0.35638842083076      0.00003100754924
| 29> C           4.79867889425726     -0.01212296739284      0.00003041343018
| 30> H           5.30495592523331      0.43227355340951      0.87968521925492
| 31> H           5.30486849674351      0.43200595766830     -0.87981167059255
| 32> H           4.96193499106042     -1.10070955791719      0.00017599972354
| 33> H           3.14539862986225      1.43012139140852     -0.00004517175902
| 34> H           2.59593124142522     -1.61436223702820      0.00015424626296
| 35> H           0.39241616474177     -2.34656611487460      0.00017208140391
| 36> H          -2.03091333615712     -1.95604876858454      0.00007442711173
| 37> O          -3.09670762656711      0.54742056766508     -0.00013047431290
| 38> C          -4.12777516023530     -0.43476601526242     -0.00013255885468
| 39> H          -4.06321175276157     -1.05773088391001      0.90732683477409
| 40> H          -4.06307084433532     -1.05786982004323     -0.90748503150178
| 41> H          -5.07065366505136      0.12679713547228     -0.00024982874602
| 42> H          -1.33253890672666      2.33189179701734     -0.00014213674034
| 43> H           1.10842431512030      1.94641593078294     -0.00005240833907
| 44> *
| 45>
| 46>                          ****END OF INPUT****

CARTESIAN COORDINATES (ANGSTROEM)
---------------------------------
  C      0.427669    1.092506   -0.000029
  C     -0.918039    1.321126   -0.000079
  C     -1.833595    0.226047   -0.000051
  C     -1.344035   -1.108130    0.000042
  C      0.010768   -1.321577    0.000100
  C      0.946955   -0.241474    0.000055
  C      2.334812   -0.549176    0.000085
  C      3.371518    0.356388    0.000031
  C      4.798679   -0.012123    0.000030
  H      5.304956    0.432274    0.879685
  H      5.304868    0.432006   -0.879812
  H      4.961935   -1.100710    0.000176
  H      3.145399    1.430121   -0.000045
  H      2.595931   -1.614362    0.000154
  H      0.392416   -2.346566    0.000172
  H     -2.030913   -1.956049    0.000074
  O     -3.096708    0.547421   -0.000130
  C     -4.127775   -0.434766   -0.000133
  H     -4.063212   -1.057731    0.907327
  H     -4.063071   -1.057870   -0.907485
  H     -5.070654    0.126797   -0.000250
  H     -1.332539    2.331892   -0.000142
  H      1.108424    1.946416   -0.000052

 Total Charge           Charge          ....    1
 Multiplicity           Mult            ....    2
 Number of Electrons    NEL             ....   79
 Basis Dimension        Dim             ....  782

ORBITAL ENERGIES
----------------
                 SPIN UP ORBITALS
  NO   OCC          E(Eh)            E(eV)
   0   1.0000     -19.142667      -520.8985
   1   1.0000     -10.232016      -278.4273
   2   1.0000     -10.179539      -276.9993
   3   1.0000     -10.174310      -276.8571
   4   1.0000     -10.171729      -276.7868
   5   1.0000     -10.158363      -276.4231
   6   1.0000     -10.155922      -276.3567
   7   1.0000     -10.155683      -276.3502
   8   1.0000     -10.151897      -276.2472
   9   1.0000     -10.150864      -276.2191
  10   1.0000     -10.124755      -275.5086
  11   1.0000      -1.109591       -30.1935
  12   1.0000      -0.877189       -23.8695
  13   1.0000      -0.819463       -22.2987
  14   1.0000      -0.775826       -21.1113
  15   1.0000      -0.765086       -20.8190
  16   1.0000      -0.723753       -19.6943
  17   1.0000      -0.673490       -18.3266
  18   1.0000      -0.628102       -17.0915
  19   1.0000      -0.608366       -16.5545
  20   1.0000      -0.563166       -15.3245
  21   1.0000      -0.546585       -14.8733
  22   1.0000      -0.506413       -13.7802
  23   1.0000      -0.499837       -13.6013
  24   1.0000      -0.489613       -13.3231
  25   1.0000      -0.455612       -12.3978
  26   1.0000      -0.437400       -11.9023
  27   1.0000      -0.435994       -11.8640
  28   1.0000      -0.417663       -11.3652
  29   1.0000      -0.417234       -11.3535
  30   1.0000      -0.407977       -11.1016
  31   1.0000      -0.401965       -10.9380
  32   1.0000      -0.374491       -10.1904
  33   1.0000      -0.370726       -10.0880
  34   1.0000      -0.363798        -9.8995
  35   1.0000      -0.356124        -9.6906
  36   1.0000      -0.334440        -9.1006
  37   1.0000      -0.300708        -8.1827
  38   1.0000      -0.285120        -7.7585
  39   1.0000      -0.234164        -6.3719
  40   0.0000      -0.090175        -2.4538
  41   0.0000      -0.054786        -1.4908
  42   0.0000      -0.006803        -0.1851
  43   0.0000      -0.002256        -0.0614
  44   0.0000       0.001513         0.0412

                 SPIN DOWN ORBITALS
  NO   OCC          E(Eh)            E(eV)
   0   1.0000     -19.138693      -520.7903
   1   1.0000     -10.229544      -278.3601
   2   1.0000     -10.179682      -277.0032
   3   1.0000     -10.171001      -276.7670
   4   1.0000     -10.165752      -276.6242
   5   1.0000     -10.157715      -276.4055
   6   1.0000     -10.155866      -276.3552
   7   1.0000     -10.155664      -276.3497
   8   1.0000     -10.151237      -276.2292
   9   1.0000     -10.150221      -276.2015
  10   1.0000     -10.125037      -275.5163
  11   1.0000      -1.102957       -30.0130
  12   1.0000      -0.871863       -23.7246
  13   1.0000      -0.811650       -22.0861
  14   1.0000      -0.771655       -20.9978
  15   1.0000      -0.760638       -20.6980
  16   1.0000      -0.722484       -19.6598
  17   1.0000      -0.668913       -18.2021
  18   1.0000      -0.625372       -17.0172
  19   1.0000      -0.603476       -16.4214
  20   1.0000      -0.559282       -15.2188
  21   1.0000      -0.544596       -14.8192
  22   1.0000      -0.504353       -13.7241
  23   1.0000      -0.497521       -13.5382
  24   1.0000      -0.477201       -12.9853
  25   1.0000      -0.453452       -12.3391
  26   1.0000      -0.435935       -11.8624
  27   1.0000      -0.435169       -11.8415
  28   1.0000      -0.415367       -11.3027
  29   1.0000      -0.406587       -11.0638
  30   1.0000      -0.405497       -11.0341
  31   1.0000      -0.391893       -10.6639
  32   1.0000      -0.373257       -10.1568
  33   1.0000      -0.369018       -10.0415
  34   1.0000      -0.354602        -9.6492
  35   1.0000      -0.349706        -9.5160
  36   1.0000      -0.332498        -9.0477
  37   1.0000      -0.282570        -7.6891
  38   1.0000      -0.278620        -7.5816
  39   0.0000      -0.185516        -5.0482
  40   0.0000      -0.066317        -1.8046
  41   0.0000      -0.044821        -1.2196
  42   0.0000      -0.006266        -0.1705
  43   0.0000       0.002129         0.0579

MULLIKEN ATOMIC CHARGES AND SPIN POPULATIONS
--------------------------------------------
   0 C :   -0.337757   -0.017563
   1 C :   -0.743413    0.023601
   2 C :    1.001567    0.166320
   3 C :   -0.307015    0.047016
   4 C :   -0.363777    0.023566
   5 C :    1.365238    0.239147
   6 C :    0.120889    0.000860
   7 C :   -0.279147    0.404591
   8 C :   -0.355023   -0.064916
   9 H :    0.146598    0.027083
  10 H :    0.146495    0.027090
  11 H :    0.137657   -0.004868
  12 H :    0.146258   -0.014757
  13 H :    0.084311    0.000325
  14 H :    0.010774    0.004116
  15 H :    0.338169    0.002640
  16 O :   -0.710473    0.125395
  17 C :   -0.269176   -0.010961
  18 H :    0.228294    0.006824
  19 H :    0.228301    0.006740
  20 H :    0.054392    0.001056
  21 H :    0.417093    0.000494
  22 H :   -0.060256    0.006201
Sum of atomic charges         :    1.0000000

LOEWDIN ATOMIC CHARGES AND SPIN POPULATIONS
-------------------------------------------
   0 C :    0.256263    0.041838
   1 C :    0.265105    0.047018
   2 C :   -0.351760    0.110919
   3 C :    0.270415    0.056480
   4 C :    0.260891    0.057922
   5 C :   -0.087080    0.119132
   6 C :    0.271622    0.087424
   7 C :    0.286270    0.199569
   8 C :    0.599526    0.062357
   9 H :   -0.143816    0.014242
  10 H :   -0.143765    0.014248
  11 H :   -0.157856    0.001183
  12 H :   -0.154858    0.034149
  13 H :   -0.157400    0.002020
  14 H :   -0.142314    0.004688
  15 H :   -0.162644    0.005506
  16 O :    0.644838    0.116300
  17 C :    0.411232    0.013230
  18 H :   -0.148013    0.003635
  19 H :   -0.148058    0.003635
  20 H :   -0.157904   -0.000245
  21 H :   -0.149069    0.003902
  22 H :   -0.161623    0.000848

  Mayer bond orders larger than 0.100000
B(  0-C ,  1-C ) :   1.4567 B(  0-C ,  2-C ) :  -0.1949 B(  0-C ,  3-C ) :  -0.3412
B(  0-C ,  4-C ) :  -0.4751 B(  0-C ,  5-C ) :   0.5919 B(  0-C ,  6-C ) :   0.1911
B(  0-C ,  7-C ) :   0.1433 B(  0-C , 16-O ) :   0.1079 B(  0-C , 21-H ) :   0.1195
B(  0-C , 22-H ) :   1.2923 B(  1-C ,  2-C ) :   0.9141 B(  1-C ,  3-C ) :   0.2187
B(  1-C ,  5-C ) :   0.1305 B(  1-C , 16-O ) :   0.3773 B(  1-C , 21-H ) :   0.3444
B(  2-C ,  3-C ) :   1.0978 B(  2-C ,  4-C ) :  -0.2675 B(  2-C , 15-H ) :   0.1598
B(  2-C , 16-O ) :   0.1053 B(  2-C , 17-C ) :   0.1069 B(  2-C , 21-H ) :   0.1641
B(  3-C ,  4-C ) :   1.3081 B(  3-C , 15-H ) :   0.4788 B(  3-C , 16-O ) :  -0.1495
B(  4-C ,  5-C ) :   0.4086 B(  4-C ,  6-C ) :  -0.1189 B(  4-C , 14-H ) :   1.2343
B(  5-C ,  6-C ) :   0.4334 B(  5-C ,  7-C ) :  -0.2720 B(  5-C , 12-H ) :  -0.1368
B(  5-C , 13-H ) :   0.1002 B(  6-C ,  7-C ) :   0.9916 B(  6-C , 13-H ) :   0.9825
B(  7-C ,  8-C ) :   1.1398 B(  7-C , 11-H ) :   0.1146 B(  7-C , 12-H ) :   1.1027
B(  8-C ,  9-H ) :   0.9361 B(  8-C , 10-H ) :   0.9357 B(  8-C , 11-H ) :   0.9299
B( 14-H , 22-H ) :   0.1330 B( 16-O , 17-C ) :   0.9953 B( 17-C , 18-H ) :   0.9086
B( 17-C , 19-H ) :   0.9083 B( 17-C , 20-H ) :   1.0625

Dispersion correction           -0.026541505
FINAL SINGLE POINT ENERGY      -463.531354328539

DIPOLE MOMENT
-------------

Method             : SCF
Type of density    : Electron Density
Multiplicity       :   2
Irrep              :   0
Energy             :  -463.5048128231310898 Eh
Relativity type    :
Basis              : AO
                                X                 Y                 Z
Electronic contribution:     -5.352081524       1.635958656      -0.000365688
Nuclear contribution   :      5.760035760      -2.141608365      -0.000061222
                        -----------------------------------------
Total Dipole Moment    :      0.407954236      -0.505649708      -0.000426910
                        -----------------------------------------
Magnitude (a.u.)       :      0.649698752
Magnitude (Debye)      :      1.651402989

Rotational constants in cm-1:             0.146577             0.015467             0.014066
Rotational constants in MHz :          4394.279814           463.685769           421.681577

                             ****ORCA TERMINATED NORMALLY****
TOTAL RUN TIME: 0 days 0 hours 12 minutes 8 seconds 644 msec
