                         Program Version 6.0.0  -   RELEASE  -
|  1> !PBE0 aug-cc-pVTZ d3 TightSCF SlowConv RIJCOSX defgrid2
|  2>
|  3> %pal
|  4> nprocs 6
|  5> end
|  6>
|  7> %scf
|  8> MaxIter 1500
|  9> end
| 10>
| 11> %maxcore 3000
| 12>
| 13> !CPCM
| 14> %cpcm smd true
| 15> SMDsolvent "MeCN"
| 16> surfacetype gepol_ses
| 17> rsolv 2.19
| 18> end
| 19>
| 20> * xyz 0 1
| 21>   C          -1.14933226451234     -1.23882509190584     -0.00046672280380
| 22>   C          -2.50857813675911     -0.94988227106401     -0.00054346756040
| 23>   C          -2.93817015440872      0.37868475331297     -0.00006408928605
| 24>   C          -2.00629101009504      1.41668452923491      0.00049673263770
| 25>   C          -0.64374499246001      1.13250357756874      0.00056381244254
| 26>   C          -0.20908515748665     -0.19753416758703      0.00007645085547
| 27>   C           1.21837162790625     -0.59720306751016      0.00007667382631
| 28>   O           1.62341721296480     -1.71314820484524     -0.00012734829677
| 29>   Cl          2.38206247173385      0.76415186429790      0.00056602291059
| 30>   H           0.09169908378046      1.93929798920226      0.00098639048783
| 31>   H          -2.34320651232058      2.45698180479248      0.00087795608335
| 32>   H          -4.00834754942676      0.60618222514384     -0.00012604204670
| 33>   H          -3.23886079813446     -1.76401666244183     -0.00098417146236
| 34>   H          -0.79061102078168     -2.27094327819897     -0.00083749778771
| 35> *
| 36>
| 37>                          ****END OF INPUT****

CARTESIAN COORDINATES (ANGSTROEM)
---------------------------------
  C     -1.149332   -1.238825   -0.000467
  C     -2.508578   -0.949882   -0.000543
  C     -2.938170    0.378685   -0.000064
  C     -2.006291    1.416685    0.000497
  C     -0.643745    1.132504    0.000564
  C     -0.209085   -0.197534    0.000076
  C      1.218372   -0.597203    0.000077
  O      1.623417   -1.713148   -0.000127
  Cl     2.382062    0.764152    0.000566
  H      0.091699    1.939298    0.000986
  H     -2.343207    2.456982    0.000878
  H     -4.008348    0.606182   -0.000126
  H     -3.238861   -1.764017   -0.000984
  H     -0.790611   -2.270943   -0.000837

 Total Charge           Charge          ....    0
 Multiplicity           Mult            ....    1
 Number of Electrons    NEL             ....   72
 Basis Dimension        Dim             ....  533

ORBITAL ENERGIES
----------------

  NO   OCC          E(Eh)            E(eV)
   0   2.0000    -101.745810     -2768.6442
   1   2.0000     -19.239187      -523.5249
   2   2.0000     -10.381496      -282.4949
   3   2.0000     -10.264535      -279.3122
   4   2.0000     -10.251051      -278.9453
   5   2.0000     -10.250105      -278.9195
   6   2.0000     -10.247686      -278.8537
   7   2.0000     -10.242612      -278.7157
   8   2.0000     -10.242581      -278.7148
   9   2.0000      -9.548533      -259.8288
  10   2.0000      -7.282901      -198.1778
  11   2.0000      -7.276213      -197.9958
  12   2.0000      -7.275128      -197.9663
  13   2.0000      -1.127814       -30.6894
  14   2.0000      -0.905836       -24.6491
  15   2.0000      -0.877328       -23.8733
  16   2.0000      -0.798562       -21.7300
  17   2.0000      -0.784051       -21.3351
  18   2.0000      -0.672964       -18.3123
  19   2.0000      -0.638053       -17.3623
  20   2.0000      -0.587345       -15.9825
  21   2.0000      -0.546602       -14.8738
  22   2.0000      -0.507098       -13.7988
  23   2.0000      -0.494262       -13.4496
  24   2.0000      -0.471796       -12.8382
  25   2.0000      -0.464683       -12.6447
  26   2.0000      -0.461626       -12.5615
  27   2.0000      -0.444810       -12.1039
  28   2.0000      -0.396787       -10.7971
  29   2.0000      -0.381571       -10.3831
  30   2.0000      -0.364906        -9.9296
  31   2.0000      -0.347022        -9.4430
  32   2.0000      -0.343811        -9.3556
  33   2.0000      -0.315370        -8.5817
  34   2.0000      -0.287708        -7.8289
  35   2.0000      -0.282464        -7.6862
  36   0.0000      -0.077679        -2.1138
  37   0.0000      -0.022131        -0.6022
  38   0.0000      -0.001592        -0.0433
  39   0.0000       0.013781         0.3750
  40   0.0000       0.018710         0.5091

MULLIKEN ATOMIC CHARGES
-----------------------
   0 C :   -0.871066
   1 C :   -0.495029
   2 C :   -0.422123
   3 C :   -0.722411
   4 C :   -0.804555
   5 C :    1.071341
   6 C :    0.590008
   7 O :   -0.654861
   8 Cl:   -0.273394
   9 H :    0.524683
  10 H :    0.587008
  11 H :    0.592559
  12 H :    0.566623
  13 H :    0.311217
Sum of atomic charges:   -0.0000000

LOEWDIN ATOMIC CHARGES
----------------------
   0 C :    0.184902
   1 C :    0.210038
   2 C :    0.205988
   3 C :    0.207015
   4 C :    0.154338
   5 C :   -0.252092
   6 C :   -1.141842
   7 O :    0.417213
   8 Cl:    0.898882
   9 H :   -0.231916
  10 H :   -0.160691
  11 H :   -0.156616
  12 H :   -0.160268
  13 H :   -0.174950

  Mayer bond orders larger than 0.100000
B(  0-C ,  1-C ) :   1.2945 B(  0-C ,  5-C ) :   0.7216 B(  0-C ,  6-C ) :   0.1008
B(  0-C , 13-H ) :   0.7407 B(  1-C ,  2-C ) :   1.3305 B(  1-C , 12-H ) :   0.5014
B(  2-C ,  3-C ) :   1.3989 B(  2-C ,  5-C ) :  -0.1152 B(  2-C , 11-H ) :   0.4628
B(  3-C ,  4-C ) :   1.2831 B(  3-C ,  5-C ) :  -0.1295 B(  3-C , 10-H ) :   0.4454
B(  4-C ,  5-C ) :   0.6612 B(  4-C ,  6-C ) :   0.1250 B(  4-C ,  9-H ) :   0.7033
B(  5-C ,  6-C ) :   0.6549 B(  5-C ,  7-O ) :   0.2352 B(  5-C ,  8-Cl) :   0.1096
B(  6-C ,  7-O ) :   1.1466 B(  6-C ,  8-Cl) :   0.7613 B(  7-O , 13-H ) :   0.1442
B(  8-Cl,  9-H ) :  -0.1451

Dispersion correction           -0.014182083
FINAL SINGLE POINT ENERGY      -804.803311160012

DIPOLE MOMENT
-------------

Method             : SCF
Type of density    : Electron Density
Multiplicity       :   1
Irrep              :   0
Energy             :  -804.7891290768737917 Eh
Relativity type    :
Basis              : AO
                                X                 Y                 Z
Electronic contribution:     10.933712496       0.806526592       0.001155231
Nuclear contribution   :    -12.853217840      -0.143073741      -0.001309271
                        -----------------------------------------
Total Dipole Moment    :     -1.919505344       0.663452851      -0.000154040
                        -----------------------------------------
Magnitude (a.u.)       :      2.030928476
Magnitude (Debye)      :      5.162209938

Rotational constants in cm-1:             0.104386             0.031040             0.023926
Rotational constants in MHz :          3129.416204           930.567874           717.277244

                             ****ORCA TERMINATED NORMALLY****
TOTAL RUN TIME: 0 days 0 hours 2 minutes 59 seconds 696 msec
