                         Program Version 6.0.0  -   RELEASE  -
|  1> !PBE0 aug-cc-pVTZ d3 TightSCF SlowConv RIJCOSX defgrid2
|  2>
|  3> %pal
|  4> nprocs 4
|  5> end
|  6>
|  7> %scf
|  8> MaxIter 1500
|  9> end
| 10>
| 11> %maxcore 3000
| 12>
| 13> !CPCM
| 14> %cpcm smd true
| 15> SMDsolvent "MeCN"
| 16> surfacetype gepol_ses
| 17> rsolv 2.19
| 18> end
| 19>
| 20> * xyz 1 2
| 21> C          -1.37570161970798      1.24248775146081      0.14964467519830
| 22> C          -2.72328606993136      1.33933244972942     -0.12972549489389
| 23> C          -3.50332136231250      0.18456023805622     -0.29662204383798
| 24> C          -2.90850381676726     -1.08060950224510     -0.17914577968731
| 25> C          -1.56009156673199     -1.19946806950118      0.08819160883999
| 26> C          -0.74929788406068     -0.03596298254245      0.25549211350325
| 27> N           0.58169156042701     -0.14755492533350      0.51923516368239
| 28> C           1.35906971560407     -1.35389965269269      0.28665855372844
| 29> H           1.88509976437755     -1.61600692768801      1.22001003582768
| 30> H           0.72298603517521     -2.19210005080425     -0.01631674285562
| 31> C           2.39456488415066     -1.05887336973135     -0.81777740540371
| 32> H           1.85949130432221     -0.86633084185637     -1.77045067834009
| 33> H           3.04102795891331     -1.94051290095387     -0.94478618718467
| 34> O           3.20182115584000      0.01450222304714     -0.46263444369679
| 35> C           2.47636872597331      1.18215324578846     -0.25260675546455
| 36> H           3.18364575605233      1.96931206906534      0.04942966335265
| 37> H           1.95240344881149      1.50557330797809     -1.17560901565404
| 38> C           1.44564375796760      0.96716490649827      0.86894476596378
| 39> H           0.87103596845838      1.87677062866973      1.07105968779003
| 40> H           1.98209056577574      0.68782297194295      1.79196599824839
| 41> H          -1.13914062593493     -2.19705534469310      0.21352347531936
| 42> H          -3.51569254322193     -1.98314623006578     -0.28645384104721
| 43> H          -4.57208793284479      0.27077776097684     -0.51046305441418
| 44> H          -3.18143391858996      2.32714955314318     -0.22534185944500
| 45> H          -0.79875706174547      2.16114869175120      0.25195876047079
| 46> *
| 47>
| 48>                          ****END OF INPUT****

CARTESIAN COORDINATES (ANGSTROEM)
---------------------------------
  C     -1.375702    1.242488    0.149645
  C     -2.723286    1.339332   -0.129725
  C     -3.503321    0.184560   -0.296622
  C     -2.908504   -1.080610   -0.179146
  C     -1.560092   -1.199468    0.088192
  C     -0.749298   -0.035963    0.255492
  N      0.581692   -0.147555    0.519235
  C      1.359070   -1.353900    0.286659
  H      1.885100   -1.616007    1.220010
  H      0.722986   -2.192100   -0.016317
  C      2.394565   -1.058873   -0.817777
  H      1.859491   -0.866331   -1.770451
  H      3.041028   -1.940513   -0.944786
  O      3.201821    0.014502   -0.462634
  C      2.476369    1.182153   -0.252607
  H      3.183646    1.969312    0.049430
  H      1.952403    1.505573   -1.175609
  C      1.445644    0.967165    0.868945
  H      0.871036    1.876771    1.071060
  H      1.982091    0.687823    1.791966
  H     -1.139141   -2.197055    0.213523
  H     -3.515693   -1.983146   -0.286454
  H     -4.572088    0.270778   -0.510463
  H     -3.181434    2.327150   -0.225342
  H     -0.798757    2.161149    0.251959

 Total Charge           Charge          ....    1
 Multiplicity           Mult            ....    2
 Number of Electrons    NEL             ....   87
 Basis Dimension        Dim             ....  851

ORBITAL ENERGIES
----------------
                 SPIN UP ORBITALS
  NO   OCC          E(Eh)            E(eV)
   0   1.0000     -19.241250      -523.5810
   1   1.0000     -14.509807      -394.8319
   2   1.0000     -10.322852      -280.8991
   3   1.0000     -10.291803      -280.0542
   4   1.0000     -10.291344      -280.0417
   5   1.0000     -10.285629      -279.8862
   6   1.0000     -10.285100      -279.8718
   7   1.0000     -10.269654      -279.4515
   8   1.0000     -10.269365      -279.4436
   9   1.0000     -10.267405      -279.3903
  10   1.0000     -10.256579      -279.0957
  11   1.0000     -10.256279      -279.0875
  12   1.0000      -1.113071       -30.2882
  13   1.0000      -1.051524       -28.6134
  14   1.0000      -0.911448       -24.8018
  15   1.0000      -0.830961       -22.6116
  16   1.0000      -0.820139       -22.3171
  17   1.0000      -0.802765       -21.8444
  18   1.0000      -0.742454       -20.2032
  19   1.0000      -0.718067       -19.5396
  20   1.0000      -0.665580       -18.1113
  21   1.0000      -0.647599       -17.6221
  22   1.0000      -0.613460       -16.6931
  23   1.0000      -0.588787       -16.0217
  24   1.0000      -0.538723       -14.6594
  25   1.0000      -0.536599       -14.6016
  26   1.0000      -0.518446       -14.1076
  27   1.0000      -0.516770       -14.0620
  28   1.0000      -0.505509       -13.7556
  29   1.0000      -0.488331       -13.2881
  30   1.0000      -0.476810       -12.9747
  31   1.0000      -0.466102       -12.6833
  32   1.0000      -0.464376       -12.6363
  33   1.0000      -0.428753       -11.6670
  34   1.0000      -0.422761       -11.5039
  35   1.0000      -0.405862       -11.0441
  36   1.0000      -0.398670       -10.8484
  37   1.0000      -0.389210       -10.5909
  38   1.0000      -0.376960       -10.2576
  39   1.0000      -0.369804       -10.0629
  40   1.0000      -0.342267        -9.3136
  41   1.0000      -0.303872        -8.2688
  42   1.0000      -0.301931        -8.2160
  43   1.0000      -0.259013        -7.0481
  44   0.0000      -0.037747        -1.0271
  45   0.0000      -0.034032        -0.9261
  46   0.0000      -0.001747        -0.0475
  47   0.0000       0.009980         0.2716
  48   0.0000       0.012056         0.3281

                 SPIN DOWN ORBITALS
  NO   OCC          E(Eh)            E(eV)
   0   1.0000     -19.240466      -523.5597
   1   1.0000     -14.498208      -394.5163
   2   1.0000     -10.324127      -280.9338
   3   1.0000     -10.290994      -280.0322
   4   1.0000     -10.290620      -280.0220
   5   1.0000     -10.285859      -279.8925
   6   1.0000     -10.285363      -279.8790
   7   1.0000     -10.266304      -279.3603
   8   1.0000     -10.266080      -279.3542
   9   1.0000     -10.262791      -279.2647
  10   1.0000     -10.258341      -279.1437
  11   1.0000     -10.258088      -279.1368
  12   1.0000      -1.110593       -30.2208
  13   1.0000      -1.033860       -28.1328
  14   1.0000      -0.905416       -24.6376
  15   1.0000      -0.828117       -22.5342
  16   1.0000      -0.815716       -22.1967
  17   1.0000      -0.799807       -21.7638
  18   1.0000      -0.731919       -19.9165
  19   1.0000      -0.716464       -19.4960
  20   1.0000      -0.660425       -17.9711
  21   1.0000      -0.644516       -17.5382
  22   1.0000      -0.609386       -16.5822
  23   1.0000      -0.584389       -15.9020
  24   1.0000      -0.532683       -14.4950
  25   1.0000      -0.532282       -14.4841
  26   1.0000      -0.515051       -14.0152
  27   1.0000      -0.510236       -13.8842
  28   1.0000      -0.501073       -13.6349
  29   1.0000      -0.480708       -13.0807
  30   1.0000      -0.473773       -12.8920
  31   1.0000      -0.465006       -12.6534
  32   1.0000      -0.457254       -12.4425
  33   1.0000      -0.423920       -11.5354
  34   1.0000      -0.413019       -11.2388
  35   1.0000      -0.403676       -10.9846
  36   1.0000      -0.396567       -10.7911
  37   1.0000      -0.386457       -10.5160
  38   1.0000      -0.370098       -10.0709
  39   1.0000      -0.355592        -9.6762
  40   1.0000      -0.330407        -8.9908
  41   1.0000      -0.295121        -8.0307
  42   1.0000      -0.291190        -7.9237
  43   0.0000      -0.162818        -4.4305
  44   0.0000      -0.028073        -0.7639
  45   0.0000      -0.015421        -0.4196
  46   0.0000      -0.000526        -0.0143
  47   0.0000       0.011466         0.3120

MULLIKEN ATOMIC CHARGES AND SPIN POPULATIONS
--------------------------------------------
   0 C :   -0.453906    0.181374
   1 C :   -0.825782   -0.083594
   2 C :   -0.631215    0.273798
   3 C :   -0.756058   -0.089783
   4 C :   -0.629105    0.185629
   5 C :    1.357596   -0.000915
   6 N :    0.176347    0.475457
   7 C :   -0.616385   -0.038488
   8 H :    0.254854    0.013318
   9 H :    0.228341    0.002691
  10 C :   -0.089768    0.043350
  11 H :    0.262308    0.001933
  12 H :    0.242180    0.004227
  13 O :   -0.619541    0.027300
  14 C :   -0.080132    0.039460
  15 H :    0.266277    0.003497
  16 H :    0.271632    0.003464
  17 C :   -0.672095   -0.047627
  18 H :    0.194986   -0.001340
  19 H :    0.225501    0.024280
  20 H :    0.578808   -0.010673
  21 H :    0.560861    0.001009
  22 H :    0.583592    0.005273
  23 H :    0.511672    0.000251
  24 H :    0.659031   -0.013893
Sum of atomic charges         :    1.0000000

LOEWDIN ATOMIC CHARGES AND SPIN POPULATIONS
-------------------------------------------
   0 C :    0.272455    0.092399
   1 C :    0.238338    0.020881
   2 C :    0.242813    0.131274
   3 C :    0.237761    0.020098
   4 C :    0.273101    0.093685
   5 C :   -0.134007    0.081063
   6 N :    0.345003    0.300657
   7 C :    0.271399    0.047568
   8 H :   -0.094221    0.010127
   9 H :   -0.152778    0.001830
  10 C :    0.065534    0.024512
  11 H :   -0.118720    0.002486
  12 H :   -0.124128    0.004699
  13 O :    0.614102    0.023543
  14 C :    0.064839    0.022886
  15 H :   -0.124061    0.004069
  16 H :   -0.119013    0.002864
  17 C :    0.267253    0.047478
  18 H :   -0.147965    0.001499
  19 H :   -0.096670    0.011783
  20 H :   -0.167624    0.019877
  21 H :   -0.149066   -0.009096
  22 H :   -0.146483    0.032854
  23 H :   -0.148898   -0.008835
  24 H :   -0.168963    0.019799

  Mayer bond orders larger than 0.100000
B(  0-C ,  1-C ) :   1.3648 B(  0-C ,  2-C ) :   0.2343 B(  0-C ,  3-C ) :  -0.1130
B(  0-C ,  4-C ) :   0.1438 B(  0-C ,  5-C ) :   0.5698 B(  0-C ,  6-N ) :  -0.1606
B(  0-C , 23-H ) :   0.1376 B(  0-C , 24-H ) :   0.1632 B(  1-C ,  2-C ) :   1.3162
B(  1-C ,  4-C ) :  -0.1027 B(  1-C ,  5-C ) :  -0.4495 B(  1-C , 23-H ) :   0.5589
B(  2-C ,  3-C ) :   1.3153 B(  2-C ,  4-C ) :   0.2376 B(  2-C ,  5-C ) :  -0.1829
B(  2-C , 22-H ) :   0.4079 B(  3-C ,  4-C ) :   1.4710 B(  3-C ,  5-C ) :  -0.3946
B(  3-C , 21-H ) :   0.4754 B(  4-C ,  5-C ) :   0.4485 B(  4-C , 20-H ) :   0.2867
B(  5-C ,  6-N ) :   0.5543 B(  5-C ,  7-C ) :  -0.1032 B(  6-N ,  7-C ) :   1.1377
B(  6-N , 17-C ) :   1.1127 B(  7-C ,  8-H ) :   0.8832 B(  7-C ,  9-H ) :   0.9413
B(  7-C , 10-C ) :   0.9884 B(  7-C , 13-O ) :   0.1033 B(  7-C , 17-C ) :   0.1970
B( 10-C , 11-H ) :   0.9035 B( 10-C , 12-H ) :   0.9479 B( 10-C , 13-O ) :   0.8619
B( 13-O , 14-C ) :   0.8682 B( 14-C , 15-H ) :   0.9277 B( 14-C , 16-H ) :   0.9180
B( 14-C , 17-C ) :   0.9718 B( 17-C , 18-H ) :   0.9704 B( 17-C , 19-H ) :   0.9039

Dispersion correction           -0.024439138
FINAL SINGLE POINT ENERGY      -518.274709648579

DIPOLE MOMENT
-------------

Method             : SCF
Type of density    : Electron Density
Multiplicity       :   2
Irrep              :   0
Energy             :  -518.2502705107183374 Eh
Relativity type    :
Basis              : AO
                                X                 Y                 Z
Electronic contribution:     -2.824094382      -0.052237029       0.651042976
Nuclear contribution   :      2.207733299      -0.028342032      -0.256093747
                        -----------------------------------------
Total Dipole Moment    :     -0.616361082      -0.080579061       0.394949230
                        -----------------------------------------
Magnitude (a.u.)       :      0.736463755
Magnitude (Debye)      :      1.871942100

Rotational constants in cm-1:             0.077620             0.019238             0.016602
Rotational constants in MHz :          2326.988545           576.750143           497.725802

                             ****ORCA TERMINATED NORMALLY****
TOTAL RUN TIME: 0 days 0 hours 14 minutes 53 seconds 578 msec
