                         Program Version 6.0.0  -   RELEASE  -
|  1> !TPSSh opt aug-cc-pVTZ d3 TightSCF SlowConv RIJCOSX defgrid2
|  2>
|  3> %pal
|  4> nprocs 8
|  5> end
|  6>
|  7> %scf
|  8> MaxIter 1500
|  9> end
| 10>
| 11> %maxcore 3500
| 12>
| 13> !CPCM
| 14> %cpcm smd true
| 15> SMDsolvent "MeCN"
| 16> surfacetype gepol_ses
| 17> rsolv 2.19
| 18> end
| 19>
| 20> * xyz -1 2
| 21> C           0.68315502285048     -1.23058998559791     -0.00197785400563
| 22> C          -0.69097039389614     -1.22820808682412     -0.00110778792906
| 23> C          -1.39878915837568      0.00192561974512      0.00006123035750
| 24> C          -0.67088260295619      1.21697689217912      0.00034729291936
| 25> C           0.70599002665524      1.19710781410292     -0.00056169847882
| 26> C           1.43890972865005     -0.02356673016238     -0.00174160392592
| 27> C           2.88835051512998     -0.09555430971111     -0.00265662366589
| 28> O           3.51113560358604     -1.16132419888811     -0.00429988492646
| 29> C           3.67215429347512      1.21312233920081     -0.00319382492201
| 30> H           3.44490427270519      1.82862721041062      0.88658626511100
| 31> H           4.74564035342603      0.96713680695522     -0.00513239151038
| 32> H           3.44193148262032      1.82994436135706     -0.89128425723845
| 33> H           1.24130264942652      2.15210104681416     -0.00032125400509
| 34> H          -1.23634900308120      2.15002194871812      0.00128004669295
| 35> N          -2.79949677516438      0.01738261553575      0.00104508920787
| 36> O          -3.38660343043673      1.11542368371417      0.00320409549424
| 37> O          -3.41030224545591     -1.06695584054066      0.00182719273433
| 38> H          -1.27295707729704     -2.15125183977829     -0.00128101747157
| 39> H           1.24384223813830     -2.16976914723049     -0.00287851443797
| 40> *
| 41>
| 42>                          ****END OF INPUT****
 Total Charge           Charge          ....   -1
 Multiplicity           Mult            ....    2
 Number of Electrons    NEL             ....   87
Dispersion correction           -0.024431436
FINAL SINGLE POINT ENERGY      -589.802850888432
Dispersion correction             ... done (  0.1 sec)
Dispersion correction           -0.024463989
FINAL SINGLE POINT ENERGY      -589.805380146470
Dispersion correction             ... done (  0.0 sec)
Dispersion correction           -0.024480607
FINAL SINGLE POINT ENERGY      -589.805791270111
Dispersion correction             ... done (  0.1 sec)
FINAL SINGLE POINT ENERGY      -589.805782484471
Dispersion correction             ... done (  0.1 sec)
Dispersion correction           -0.024479161
FINAL SINGLE POINT ENERGY      -589.805848533120
Dispersion correction             ... done (  0.0 sec)
Dispersion correction           -0.024478100
FINAL SINGLE POINT ENERGY      -589.805850795061
Dispersion correction             ... done (  0.0 sec)
                    ***********************HURRAY********************

CARTESIAN COORDINATES (ANGSTROEM)
---------------------------------
  C      0.683560   -1.232338   -0.002709
  C     -0.690276   -1.227003   -0.001278
  C     -1.388292    0.003519   -0.000025
  C     -0.661677    1.215102   -0.001310
  C      0.715101    1.188549   -0.002776
  C      1.431677   -0.030626   -0.003303
  C      2.890577   -0.083207   -0.004431
  O      3.503065   -1.162634   -0.004672
  C      3.665328    1.217816   -0.001703
  H      3.425724    1.818111    0.880402
  H      4.731667    0.997424   -0.003566
  H      3.423729    1.823074   -0.879755
  H      1.251464    2.129189   -0.003885
  H     -1.203853    2.149596   -0.000930
  N     -2.781231    0.020048    0.002731
  O     -3.391968    1.141430    0.004693
  O     -3.419130   -1.086151    0.004682
  H     -1.256537   -2.147394   -0.000874
  H      1.222039   -2.171954   -0.003376

 Multiplicity           Mult            ....    2
 Number of Electrons    NEL             ....   87
 Basis Dimension        Dim             ....  713

ORBITAL ENERGIES
----------------
                 SPIN UP ORBITALS
  NO   OCC          E(Eh)            E(eV)
   0   1.0000     -19.022008      -517.6152
   1   1.0000     -19.021828      -517.6103
   2   1.0000     -19.016967      -517.4780
   3   1.0000     -14.399520      -391.8309
   4   1.0000     -10.174885      -276.8727
   5   1.0000     -10.141550      -275.9656
   6   1.0000     -10.111577      -275.1500
   7   1.0000     -10.108454      -275.0650
   8   1.0000     -10.107880      -275.0494
   9   1.0000     -10.107862      -275.0489
  10   1.0000     -10.106286      -275.0060
  11   1.0000     -10.096608      -274.7427
  12   1.0000      -1.109609       -30.1940
  13   1.0000      -0.986075       -26.8325
  14   1.0000      -0.941994       -25.6330
  15   1.0000      -0.836787       -22.7701
  16   1.0000      -0.766727       -20.8637
  17   1.0000      -0.726094       -19.7580
  18   1.0000      -0.708376       -19.2759
  19   1.0000      -0.660305       -17.9678
  20   1.0000      -0.578931       -15.7535
  21   1.0000      -0.563961       -15.3461
  22   1.0000      -0.522163       -14.2088
  23   1.0000      -0.487275       -13.2594
  24   1.0000      -0.458693       -12.4817
  25   1.0000      -0.452526       -12.3138
  26   1.0000      -0.441508       -12.0141
  27   1.0000      -0.418684       -11.3930
  28   1.0000      -0.415625       -11.3097
  29   1.0000      -0.410688       -11.1754
  30   1.0000      -0.397629       -10.8200
  31   1.0000      -0.375668       -10.2224
  32   1.0000      -0.373799       -10.1716
  33   1.0000      -0.352175        -9.5832
  34   1.0000      -0.344035        -9.3617
  35   1.0000      -0.323674        -8.8076
  36   1.0000      -0.311079        -8.4649
  37   1.0000      -0.259198        -7.0531
  38   1.0000      -0.248345        -6.7578
  39   1.0000      -0.246390        -6.7046
  40   1.0000      -0.243615        -6.6291
  41   1.0000      -0.220031        -5.9873
  42   1.0000      -0.218394        -5.9428
  43   1.0000      -0.126524        -3.4429
  44   0.0000      -0.045986        -1.2513
  45   0.0000      -0.016334        -0.4445
  46   0.0000      -0.002847        -0.0775
  47   0.0000       0.010087         0.2745
  48   0.0000       0.014651         0.3987

                 SPIN DOWN ORBITALS
  NO   OCC          E(Eh)            E(eV)
   0   1.0000     -19.017232      -517.4852
   1   1.0000     -19.017121      -517.4822
   2   1.0000     -19.014383      -517.4077
   3   1.0000     -14.394074      -391.6827
   4   1.0000     -10.174198      -276.8540
   5   1.0000     -10.140668      -275.9416
   6   1.0000     -10.111979      -275.1609
   7   1.0000     -10.108588      -275.0687
   8   1.0000     -10.106853      -275.0215
   9   1.0000     -10.106478      -275.0112
  10   1.0000     -10.103844      -274.9396
  11   1.0000     -10.096679      -274.7446
  12   1.0000      -1.100702       -29.9516
  13   1.0000      -0.981857       -26.7177
  14   1.0000      -0.933735       -25.4082
  15   1.0000      -0.833816       -22.6893
  16   1.0000      -0.760822       -20.7030
  17   1.0000      -0.723816       -19.6960
  18   1.0000      -0.705491       -19.1974
  19   1.0000      -0.654008       -17.7965
  20   1.0000      -0.578217       -15.7341
  21   1.0000      -0.559545       -15.2260
  22   1.0000      -0.520371       -14.1600
  23   1.0000      -0.482156       -13.1201
  24   1.0000      -0.449162       -12.2223
  25   1.0000      -0.439366       -11.9558
  26   1.0000      -0.432299       -11.7634
  27   1.0000      -0.417567       -11.3626
  28   1.0000      -0.412500       -11.2247
  29   1.0000      -0.405779       -11.0418
  30   1.0000      -0.397037       -10.8039
  31   1.0000      -0.374189       -10.1822
  32   1.0000      -0.373058       -10.1514
  33   1.0000      -0.344968        -9.3871
  34   1.0000      -0.342912        -9.3311
  35   1.0000      -0.313834        -8.5399
  36   1.0000      -0.310533        -8.4500
  37   1.0000      -0.244985        -6.6664
  38   1.0000      -0.243371        -6.6225
  39   1.0000      -0.230276        -6.2661
  40   1.0000      -0.225403        -6.1335
  41   1.0000      -0.217470        -5.9177
  42   1.0000      -0.215561        -5.8657
  43   0.0000      -0.082539        -2.2460
  44   0.0000      -0.023131        -0.6294
  45   0.0000      -0.013184        -0.3588
  46   0.0000      -0.001546        -0.0421
  47   0.0000       0.011301         0.3075

MULLIKEN ATOMIC CHARGES AND SPIN POPULATIONS
--------------------------------------------
   0 C :   -0.651607   -0.010859
   1 C :   -0.279338    0.097769
   2 C :    0.290896    0.046286
   3 C :   -0.524070    0.110705
   4 C :   -0.274629   -0.015059
   5 C :    0.885151    0.143679
   6 C :    0.800016    0.041037
   7 O :   -1.087578    0.095216
   8 C :   -0.239210   -0.008697
   9 H :    0.185941    0.003505
  10 H :   -0.044699   -0.001638
  11 H :    0.185295    0.003488
  12 H :    0.058104   -0.003178
  13 H :    0.357889   -0.001725
  14 N :    0.724133    0.133659
  15 O :   -0.895608    0.185024
  16 O :   -0.894189    0.187251
  17 H :    0.429398   -0.002297
  18 H :   -0.025896   -0.004165
Sum of atomic charges         :   -1.0000000

LOEWDIN ATOMIC CHARGES AND SPIN POPULATIONS
-------------------------------------------
   0 C :    0.177974    0.024364
   1 C :    0.183420    0.047168
   2 C :   -0.307802    0.066894
   3 C :    0.188422    0.053144
   4 C :    0.188068    0.026827
   5 C :   -0.159038    0.084157
   6 C :   -0.581869    0.062903
   7 O :    0.432084    0.081231
   8 C :    0.553912    0.008313
   9 H :   -0.171378    0.001970
  10 H :   -0.190793   -0.000133
  11 H :   -0.171741    0.001960
  12 H :   -0.194373   -0.000108
  13 H :   -0.218064    0.010892
  14 N :   -0.812584    0.186209
  15 O :    0.251437    0.166466
  16 O :    0.251603    0.168496
  17 H :   -0.218688    0.009450
  18 H :   -0.200591   -0.000203

  Mayer bond orders larger than 0.100000
B(  0-C ,  1-C ) :   1.6283 B(  0-C ,  2-C ) :  -0.3350 B(  0-C ,  4-C ) :  -0.3272
B(  0-C ,  5-C ) :   0.4419 B(  0-C ,  6-C ) :   0.1799 B(  0-C , 16-O ) :  -0.1509
B(  0-C , 18-H ) :   1.1331 B(  1-C ,  2-C ) :   0.9771 B(  1-C ,  3-C ) :   0.1641
B(  1-C ,  4-C ) :  -0.1512 B(  1-C ,  5-C ) :   0.1114 B(  1-C ,  7-O ) :  -0.1063
B(  1-C , 14-N ) :  -0.1232 B(  1-C , 16-O ) :  -0.1296 B(  1-C , 17-H ) :   0.4216
B(  2-C ,  3-C ) :   0.8542 B(  2-C ,  4-C ) :  -0.2669 B(  2-C , 13-H ) :   0.1348
B(  2-C , 14-N ) :   1.3360 B(  2-C , 15-O ) :   0.5322 B(  2-C , 16-O ) :   0.5470
B(  2-C , 17-H ) :   0.1484 B(  3-C ,  4-C ) :   1.3499 B(  3-C ,  5-C ) :   0.1658
B(  3-C , 13-H ) :   0.5112 B(  3-C , 14-N ) :  -0.1906 B(  3-C , 15-O ) :  -0.1192
B(  4-C ,  5-C ) :   0.5397 B(  4-C ,  6-C ) :   0.1033 B(  4-C , 12-H ) :   1.1643
B(  4-C , 15-O ) :  -0.1451 B(  5-C ,  6-C ) :   0.5265 B(  5-C ,  7-O ) :   0.3615
B(  6-C ,  7-O ) :   0.3368 B(  6-C ,  8-C ) :   1.0513 B(  6-C , 18-H ) :  -0.1062
B(  7-O , 18-H ) :   0.1975 B(  8-C ,  9-H ) :   0.9481 B(  8-C , 10-H ) :   1.0351
B(  8-C , 11-H ) :   0.9490 B( 14-N , 15-O ) :   0.5573 B( 14-N , 16-O ) :   0.5536
B( 15-O , 16-O ) :   0.1403

Dispersion correction           -0.024477030
FINAL SINGLE POINT ENERGY      -589.805851273773

DIPOLE MOMENT
-------------

Method             : SCF
Type of density    : Electron Density
Multiplicity       :   2
Irrep              :   0
Energy             :  -589.7813742437357405 Eh
Relativity type    :
Basis              : AO
                                X                 Y                 Z
Electronic contribution:     -7.656088149      -2.975712604       0.001646294
Nuclear contribution   :     10.828016252       4.304227837      -0.006783690
                        -----------------------------------------
Total Dipole Moment    :      3.171928103       1.328515233      -0.005137396
                        -----------------------------------------
Magnitude (a.u.)       :      3.438910729
Magnitude (Debye)      :      8.741016414

Rotational constants in cm-1:             0.094620             0.015875             0.013628
Rotational constants in MHz :          2836.650988           475.908207           408.564629

                             ****ORCA TERMINATED NORMALLY****
TOTAL RUN TIME: 0 days 0 hours 52 minutes 10 seconds 452 msec
