                         Program Version 6.0.0  -   RELEASE  -
|  1> !r2SCANh opt aug-cc-pVTZ d3 TightSCF SlowConv RIJCOSX defgrid2
|  2>
|  3> %pal
|  4> nprocs 8
|  5> end
|  6>
|  7> %scf
|  8> MaxIter 1500
|  9> end
| 10>
| 11> %maxcore 3500
| 12>
| 13> !CPCM
| 14> %cpcm smd true
| 15> SMDsolvent "MeCN"
| 16> surfacetype gepol_ses
| 17> rsolv 2.19
| 18> end
| 19>
| 20> * xyz 1 2
| 21> C           0.87744843065952     -1.21883020305656     -0.00000377931808
| 22> C           1.23614385256415      0.16954678831828     -0.00005753568123
| 23> C           0.19424149048169      1.13860709962105     -0.00010423188513
| 24> C          -1.13871229830849      0.78765011017298     -0.00010761886515
| 25> C          -1.47639805753200     -0.61212175919558     -0.00004559988331
| 26> C          -0.44313247207265     -1.58385318757954     -0.00000224391858
| 27> H          -0.71685810144297     -2.64212602539406      0.00003056402544
| 28> C          -2.89571606376255     -1.03893857261662      0.00008867922043
| 29> H          -3.00213765434000     -2.13324643661373     -0.00058232712929
| 30> H          -3.42610981706820     -0.62983884560970     -0.88112182092760
| 31> H          -3.42539618531857     -0.63109402296886      0.88234176195400
| 32> C          -2.21290888782919      1.82515453001126     -0.00014347524999
| 33> H          -2.86411247883622      1.72648441322314      0.88680265880356
| 34> H          -2.86402349010390      1.72654581117049     -0.88716064088710
| 35> H          -1.78890328618740      2.84026297434392     -0.00008728403417
| 36> H           0.46977060139751      2.19725330423840     -0.00014030748002
| 37> C           2.58814654556121      0.62001515372005     -0.00006319236512
| 38> C           3.70337676945614     -0.17841322402212     -0.00002927580579
| 39> H           3.65253331490638     -1.27227115038024      0.00001025225905
| 40> H           4.70281234102144      0.26973736826902     -0.00003315173613
| 41> H           2.73668489690756      1.70605493317894     -0.00009332036310
| 42> H           1.65048734984656     -1.99000785883051      0.00003538926729
| 43> *
| 44>
| 45>                          ****END OF INPUT****
 Total Charge           Charge          ....    1
 Multiplicity           Mult            ....    2
 Number of Electrons    NEL             ....   71
Dispersion correction           -0.007372314
FINAL SINGLE POINT ENERGY      -387.971760644820
Dispersion correction             ... done (  0.1 sec)
Dispersion correction           -0.007411409
FINAL SINGLE POINT ENERGY      -387.973702449955
Dispersion correction             ... done (  0.1 sec)
Dispersion correction           -0.007417052
FINAL SINGLE POINT ENERGY      -387.973718970602
Dispersion correction             ... done (  0.0 sec)
Dispersion correction           -0.007418255
FINAL SINGLE POINT ENERGY      -387.973720211264
Dispersion correction             ... done (  0.1 sec)
                    ***********************HURRAY********************

CARTESIAN COORDINATES (ANGSTROEM)
---------------------------------
  C      0.875643   -1.207997   -0.001467
  C      1.226146    0.175590   -0.001330
  C      0.192761    1.141295   -0.001542
  C     -1.129607    0.785606   -0.000852
  C     -1.462776   -0.607832   -0.000493
  C     -0.436283   -1.574090   -0.001137
  H     -0.707638   -2.620107   -0.000897
  C     -2.875655   -1.030565    0.000841
  H     -2.975575   -2.111226   -0.000919
  H     -3.397492   -0.619996   -0.867769
  H     -3.394143   -0.623606    0.873249
  C     -2.205607    1.812046   -0.000202
  H     -2.847020    1.704663    0.876262
  H     -2.849401    1.703053   -0.874696
  H     -1.786735    2.814382   -0.001769
  H      0.468927    2.187186   -0.002044
  C      2.570151    0.621876    0.000145
  C      3.667795   -0.186778    0.001669
  H      3.600694   -1.264668    0.000882
  H      4.656528    0.247775    0.003597
  H      2.721321    1.694230    0.000066
  H      1.645202   -1.964266   -0.002058

 Multiplicity           Mult            ....    2
 Number of Electrons    NEL             ....   71
 Basis Dimension        Dim             ....  736

ORBITAL ENERGIES
----------------
                 SPIN UP ORBITALS
  NO   OCC          E(Eh)            E(eV)
   0   1.0000     -10.230313      -278.3810
   1   1.0000     -10.225390      -278.2470
   2   1.0000     -10.209770      -277.8220
   3   1.0000     -10.207521      -277.7608
   4   1.0000     -10.206460      -277.7319
   5   1.0000     -10.203978      -277.6644
   6   1.0000     -10.191265      -277.3184
   7   1.0000     -10.188124      -277.2330
   8   1.0000     -10.163219      -276.5552
   9   1.0000     -10.158050      -276.4146
  10   1.0000      -0.913405       -24.8550
  11   1.0000      -0.851756       -23.1775
  12   1.0000      -0.804390       -21.8886
  13   1.0000      -0.789049       -21.4711
  14   1.0000      -0.729583       -19.8530
  15   1.0000      -0.698933       -19.0189
  16   1.0000      -0.639684       -17.4067
  17   1.0000      -0.627660       -17.0795
  18   1.0000      -0.571375       -15.5479
  19   1.0000      -0.527827       -14.3629
  20   1.0000      -0.509895       -13.8749
  21   1.0000      -0.475596       -12.9416
  22   1.0000      -0.456147       -12.4124
  23   1.0000      -0.451224       -12.2784
  24   1.0000      -0.438970       -11.9450
  25   1.0000      -0.432508       -11.7691
  26   1.0000      -0.406458       -11.0603
  27   1.0000      -0.400990       -10.9115
  28   1.0000      -0.397559       -10.8181
  29   1.0000      -0.393498       -10.7076
  30   1.0000      -0.382210       -10.4005
  31   1.0000      -0.359980        -9.7956
  32   1.0000      -0.349890        -9.5210
  33   1.0000      -0.334084        -9.0909
  34   1.0000      -0.282957        -7.6996
  35   1.0000      -0.267949        -7.2913
  36   0.0000      -0.109464        -2.9787
  37   0.0000      -0.049442        -1.3454
  38   0.0000      -0.007067        -0.1923
  39   0.0000       0.007152         0.1946
  40   0.0000       0.017437         0.4745

                 SPIN DOWN ORBITALS
  NO   OCC          E(Eh)            E(eV)
   0   1.0000     -10.224608      -278.2257
   1   1.0000     -10.221614      -278.1442
   2   1.0000     -10.208156      -277.7781
   3   1.0000     -10.207088      -277.7490
   4   1.0000     -10.201525      -277.5976
   5   1.0000     -10.201506      -277.5971
   6   1.0000     -10.191448      -277.3234
   7   1.0000     -10.189290      -277.2647
   8   1.0000     -10.163361      -276.5591
   9   1.0000     -10.158054      -276.4147
  10   1.0000      -0.905586       -24.6423
  11   1.0000      -0.842545       -22.9268
  12   1.0000      -0.803097       -21.8534
  13   1.0000      -0.777429       -21.1549
  14   1.0000      -0.724606       -19.7175
  15   1.0000      -0.692243       -18.8369
  16   1.0000      -0.634186       -17.2571
  17   1.0000      -0.623363       -16.9626
  18   1.0000      -0.566371       -15.4117
  19   1.0000      -0.526667       -14.3313
  20   1.0000      -0.507608       -13.8127
  21   1.0000      -0.472346       -12.8532
  22   1.0000      -0.448819       -12.2130
  23   1.0000      -0.444108       -12.0848
  24   1.0000      -0.437081       -11.8936
  25   1.0000      -0.431844       -11.7511
  26   1.0000      -0.401453       -10.9241
  27   1.0000      -0.395788       -10.7700
  28   1.0000      -0.393159       -10.6984
  29   1.0000      -0.384703       -10.4683
  30   1.0000      -0.380703       -10.3595
  31   1.0000      -0.359324        -9.7777
  32   1.0000      -0.347946        -9.4681
  33   1.0000      -0.310368        -8.4456
  34   1.0000      -0.278117        -7.5679
  35   0.0000      -0.199777        -5.4362
  36   0.0000      -0.072392        -1.9699
  37   0.0000      -0.039881        -1.0852
  38   0.0000       0.008094         0.2202
  39   0.0000       0.015633         0.4254

MULLIKEN ATOMIC CHARGES AND SPIN POPULATIONS
--------------------------------------------
   0 C :   -0.136230    0.133986
   1 C :    2.242250    0.274921
   2 C :   -1.031481   -0.023082
   3 C :    0.763281    0.028274
   4 C :    0.962932    0.364255
   5 C :   -1.208053   -0.110150
   6 H :   -0.002498   -0.005083
   7 C :   -0.703281   -0.055639
   8 H :    0.081171   -0.008726
   9 H :    0.240195    0.032188
  10 H :    0.240746    0.032432
  11 C :   -0.715249   -0.012101
  12 H :    0.230597    0.005522
  13 H :    0.230105    0.005529
  14 H :    0.090882    0.000326
  15 H :   -0.402320    0.003145
  16 C :    0.089844   -0.068882
  17 C :   -0.907959    0.372124
  18 H :    0.238510   -0.009030
  19 H :    0.322467    0.053386
  20 H :    0.150640   -0.007175
  21 H :    0.223451   -0.006218
Sum of atomic charges         :    1.0000000

LOEWDIN ATOMIC CHARGES AND SPIN POPULATIONS
-------------------------------------------
   0 C :    0.286543    0.090744
   1 C :   -0.078419    0.119477
   2 C :    0.286396    0.029840
   3 C :   -0.045630    0.055271
   4 C :   -0.030271    0.161819
   5 C :    0.292962    0.035280
   6 H :   -0.153126   -0.005260
   7 C :    0.636225    0.053560
   8 H :   -0.155286    0.001224
   9 H :   -0.140073    0.012686
  10 H :   -0.139717    0.012759
  11 C :    0.621463    0.005661
  12 H :   -0.148471    0.001919
  13 H :   -0.148684    0.001918
  14 H :   -0.159316   -0.000027
  15 H :   -0.150557    0.000126
  16 C :    0.262714    0.067940
  17 C :    0.655583    0.239066
  18 H :   -0.191400    0.050668
  19 H :   -0.171663    0.055869
  20 H :   -0.161873   -0.004492
  21 H :   -0.167401    0.013954

  Mayer bond orders larger than 0.100000
B(  0-C ,  2-C ) :  -0.9179 B(  0-C ,  3-C ) :  -0.3020 B(  0-C ,  5-C ) :   0.7675
B(  0-C ,  6-H ) :  -0.1394 B(  0-C , 15-H ) :   0.1019 B(  0-C , 16-C ) :   0.2825
B(  0-C , 17-C ) :  -0.1227 B(  0-C , 18-H ) :  -0.1380 B(  0-C , 21-H ) :   1.4988
B(  1-C ,  2-C ) :  -0.7101 B(  1-C ,  3-C ) :   0.4895 B(  1-C ,  4-C ) :  -0.4957
B(  1-C ,  7-C ) :   0.1069 B(  1-C , 15-H ) :  -0.5201 B(  2-C ,  3-C ) :   0.7135
B(  2-C ,  4-C ) :  -0.3306 B(  2-C ,  5-C ) :   0.2007 B(  2-C , 11-C ) :  -0.3128
B(  2-C , 14-H ) :  -0.1096 B(  2-C , 15-H ) :   2.5171 B(  2-C , 17-C ) :   0.1228
B(  2-C , 20-H ) :  -0.1542 B(  2-C , 21-H ) :   0.1001 B(  3-C ,  4-C ) :   1.1995
B(  3-C ,  5-C ) :   0.1951 B(  3-C ,  7-C ) :   0.1463 B(  3-C , 15-H ) :  -0.2157
B(  3-C , 16-C ) :   0.1086 B(  3-C , 20-H ) :   0.1677 B(  3-C , 21-H ) :  -0.3028
B(  4-C ,  5-C ) :   0.4361 B(  4-C ,  7-C ) :   0.2796 B(  4-C , 11-C ) :   0.3960
B(  4-C , 15-H ) :  -0.1184 B(  4-C , 16-C ) :   0.1964 B(  4-C , 21-H ) :  -0.1369
B(  5-C ,  6-H ) :   1.3070 B(  5-C ,  7-C ) :  -0.2216 B(  5-C , 17-C ) :  -0.1333
B(  5-C , 21-H ) :  -0.2038 B(  7-C ,  8-H ) :   1.1084 B(  7-C ,  9-H ) :   0.9736
B(  7-C , 10-H ) :   0.9718 B( 11-C , 12-H ) :   1.0039 B( 11-C , 13-H ) :   1.0042
B( 11-C , 14-H ) :   1.0733 B( 15-H , 16-C ) :  -0.2471 B( 15-H , 20-H ) :  -0.1307
B( 16-C , 17-C ) :   0.6015 B( 16-C , 20-H ) :   1.0300 B( 17-C , 18-H ) :   1.1848
B( 17-C , 19-H ) :   0.8061 B( 17-C , 20-H ) :  -0.2544

Dispersion correction           -0.007418332
FINAL SINGLE POINT ENERGY      -387.973720648950

DIPOLE MOMENT
-------------

Method             : SCF
Type of density    : Electron Density
Multiplicity       :   2
Irrep              :   0
Energy             :  -387.9663023167926781 Eh
Relativity type    :
Basis              : AO
                                X                 Y                 Z
Electronic contribution:      5.355350379      -1.203242835      -0.006475160
Nuclear contribution   :     -4.579119414       1.050454684       0.007796249
                        -----------------------------------------
Total Dipole Moment    :      0.776230965      -0.152788151       0.001321090
                        -----------------------------------------
Magnitude (a.u.)       :      0.791126080
Magnitude (Debye)      :      2.010882688

Rotational constants in cm-1:             0.096467             0.029554             0.022811
Rotational constants in MHz :          2892.000495           886.001026           683.860328

                             ****ORCA TERMINATED NORMALLY****
TOTAL RUN TIME: 0 days 0 hours 36 minutes 38 seconds 23 msec
