                         Program Version 6.0.0  -   RELEASE  -
|  1> !r2SCANh aug-cc-pVTZ d3 TightSCF SlowConv RIJCOSX defgrid2
|  2>
|  3> %pal
|  4> nprocs 4
|  5> end
|  6>
|  7> %scf
|  8> MaxIter 1500
|  9> end
| 10>
| 11> %maxcore 3000
| 12>
| 13> !CPCM
| 14> %cpcm smd true
| 15> SMDsolvent "MeCN"
| 16> surfacetype gepol_ses
| 17> rsolv 2.19
| 18> end
| 19>
| 20> * xyz 0 1
| 21> C           0.48360567195606     -1.21229390689687     -0.00037134428610
| 22> C           1.87690194124081     -1.23618350779417     -0.00001608088298
| 23> C           2.59422075073626     -0.04047481851856      0.00022611932314
| 24> C           1.91690889899697      1.18098236414826      0.00010944657389
| 25> C           0.52720301634613      1.20350626322595     -0.00024479123569
| 26> C          -0.20304994422496      0.00795284786184     -0.00051856197987
| 27> C          -1.69823329325947      0.10073243557531     -0.00093855711764
| 28> O          -2.24783450756777      1.18012430228825      0.00047343643148
| 29> C          -2.49873773674618     -1.18055979411728      0.00001226054872
| 30> H          -3.56874245805795     -0.92684719916367      0.00028072085676
| 31> H          -2.26765286226878     -1.79214055957540      0.88960271021885
| 32> H          -2.26826604600788     -1.79314451916799     -0.88902976580653
| 33> H          -0.03046089965679      2.14367830490160     -0.00034789708130
| 34> H           2.47945545467799      2.11929230948718      0.00030005734770
| 35> H           3.68826884274775     -0.06009102388695      0.00051141148870
| 36> H           2.40583590173159     -2.19363249350041      0.00008658903805
| 37> H          -0.06689973064377     -2.15667190486707     -0.00053355343717
| 38> *
| 39>
| 40>                          ****END OF INPUT****

CARTESIAN COORDINATES (ANGSTROEM)
---------------------------------
  C      0.483606   -1.212294   -0.000371
  C      1.876902   -1.236184   -0.000016
  C      2.594221   -0.040475    0.000226
  C      1.916909    1.180982    0.000109
  C      0.527203    1.203506   -0.000245
  C     -0.203050    0.007953   -0.000519
  C     -1.698233    0.100732   -0.000939
  O     -2.247835    1.180124    0.000473
  C     -2.498738   -1.180560    0.000012
  H     -3.568742   -0.926847    0.000281
  H     -2.267653   -1.792141    0.889603
  H     -2.268266   -1.793145   -0.889030
  H     -0.030461    2.143678   -0.000348
  H      2.479455    2.119292    0.000300
  H      3.688269   -0.060091    0.000511
  H      2.405836   -2.193632    0.000087
  H     -0.066900   -2.156672   -0.000534

 Total Charge           Charge          ....    0
 Multiplicity           Mult            ....    1
 Number of Electrons    NEL             ....   64
 Basis Dimension        Dim             ....  598

ORBITAL ENERGIES
----------------

  NO   OCC          E(Eh)            E(eV)
   0   2.0000     -19.105701      -519.8926
   1   2.0000     -10.247860      -278.8584
   2   2.0000     -10.172557      -276.8093
   3   2.0000     -10.171213      -276.7728
   4   2.0000     -10.169806      -276.7345
   5   2.0000     -10.167336      -276.6673
   6   2.0000     -10.166340      -276.6402
   7   2.0000     -10.166027      -276.6317
   8   2.0000     -10.149835      -276.1911
   9   2.0000      -1.050969       -28.5983
  10   2.0000      -0.865450       -23.5501
  11   2.0000      -0.772121       -21.0105
  12   2.0000      -0.752175       -20.4677
  13   2.0000      -0.723689       -19.6926
  14   2.0000      -0.624208       -16.9856
  15   2.0000      -0.602573       -16.3968
  16   2.0000      -0.544379       -14.8133
  17   2.0000      -0.501969       -13.6593
  18   2.0000      -0.457501       -12.4492
  19   2.0000      -0.450744       -12.2654
  20   2.0000      -0.433052       -11.7839
  21   2.0000      -0.432934       -11.7807
  22   2.0000      -0.413366       -11.2483
  23   2.0000      -0.409697       -11.1484
  24   2.0000      -0.373762       -10.1706
  25   2.0000      -0.372864       -10.1461
  26   2.0000      -0.350053        -9.5254
  27   2.0000      -0.344913        -9.3855
  28   2.0000      -0.331385        -9.0174
  29   2.0000      -0.261336        -7.1113
  30   2.0000      -0.258885        -7.0446
  31   2.0000      -0.244990        -6.6665
  32   0.0000      -0.075009        -2.0411
  33   0.0000      -0.030053        -0.8178
  34   0.0000       0.008978         0.2443
  35   0.0000       0.020790         0.5657
  36   0.0000       0.023740         0.6460

MULLIKEN ATOMIC CHARGES
-----------------------
   0 C :   -0.553628
   1 C :   -0.786159
   2 C :   -0.223827
   3 C :   -0.571761
   4 C :   -1.053368
   5 C :    1.637349
   6 C :    0.914104
   7 O :   -0.942855
   8 C :   -0.578873
   9 H :    0.160771
  10 H :    0.255703
  11 H :    0.256207
  12 H :    0.022689
  13 H :    0.521298
  14 H :    0.452445
  15 H :    0.502474
  16 H :   -0.012567
Sum of atomic charges:    0.0000000

LOEWDIN ATOMIC CHARGES
----------------------
   0 C :    0.201607
   1 C :    0.205276
   2 C :    0.196977
   3 C :    0.201790
   4 C :    0.187582
   5 C :   -0.139177
   6 C :   -0.549809
   7 O :    0.482284
   8 C :    0.570825
   9 H :   -0.177490
  10 H :   -0.157668
  11 H :   -0.157783
  12 H :   -0.188123
  13 H :   -0.168203
  14 H :   -0.165293
  15 H :   -0.166821
  16 H :   -0.175974

  Mayer bond orders larger than 0.100000
B(  0-C ,  1-C ) :   0.8083 B(  0-C ,  2-C ) :  -0.1412 B(  0-C ,  4-C ) :  -0.3299
B(  0-C ,  5-C ) :   0.3815 B(  0-C , 12-H ) :   0.1414 B(  0-C , 16-H ) :   1.5532
B(  1-C ,  2-C ) :   1.1526 B(  1-C ,  3-C ) :   0.1281 B(  1-C , 15-H ) :   0.5439
B(  1-C , 16-H ) :  -0.1348 B(  2-C ,  3-C ) :   1.1178 B(  2-C ,  5-C ) :  -0.1150
B(  2-C ,  6-C ) :   0.1183 B(  2-C , 14-H ) :   0.6585 B(  3-C ,  4-C ) :   1.1931
B(  3-C , 13-H ) :   0.5389 B(  4-C ,  5-C ) :   0.1400 B(  4-C ,  6-C ) :   0.1534
B(  4-C , 12-H ) :   1.3007 B(  4-C , 13-H ) :  -0.1400 B(  4-C , 14-H ) :   0.1217
B(  4-C , 16-H ) :   0.1204 B(  5-C ,  6-C ) :   0.4131 B(  5-C ,  7-O ) :   0.1398
B(  5-C ,  8-C ) :   0.1151 B(  5-C , 12-H ) :  -0.1798 B(  5-C , 16-H ) :  -0.2227
B(  6-C ,  7-O ) :   0.7579 B(  6-C ,  8-C ) :   0.8957 B(  6-C , 12-H ) :  -0.1192
B(  6-C , 13-H ) :   0.1138 B(  6-C , 16-H ) :  -0.1176 B(  7-O , 12-H ) :   0.1673
B(  8-C ,  9-H ) :   0.9679 B(  8-C , 10-H ) :   0.9573 B(  8-C , 11-H ) :   0.9575
B( 12-H , 16-H ) :   0.1161

Dispersion correction           -0.005349021
FINAL SINGLE POINT ENERGY      -384.813013679825

DIPOLE MOMENT
-------------

Method             : SCF
Type of density    : Electron Density
Multiplicity       :   1
Irrep              :   0
Energy             :  -384.8076646588992844 Eh
Relativity type    :
Basis              : AO
                                X                 Y                 Z
Electronic contribution:      0.743718072       3.008009581      -0.001910508
Nuclear contribution   :      0.288396890      -4.357474412       0.001603683
                        -----------------------------------------
Total Dipole Moment    :      1.032114962      -1.349464831      -0.000306825
                        -----------------------------------------
Magnitude (a.u.)       :      1.698916337
Magnitude (Debye)      :      4.318302147

Rotational constants in cm-1:             0.123087             0.040626             0.030722
Rotational constants in MHz :          3690.044009          1217.936985           921.022210

                             ****ORCA TERMINATED NORMALLY****
TOTAL RUN TIME: 0 days 0 hours 4 minutes 44 seconds 806 msec
