                         Program Version 6.0.0  -   RELEASE  -
|  1> !TPSSh aug-cc-pVTZ d3 TightSCF SlowConv RIJCOSX defgrid2
|  2>
|  3> %pal
|  4> nprocs 4
|  5> end
|  6>
|  7> %scf
|  8> MaxIter 1500
|  9> end
| 10>
| 11> %maxcore 3000
| 12>
| 13> !CPCM
| 14> %cpcm smd true
| 15> SMDsolvent "MeCN"
| 16> surfacetype gepol_ses
| 17> rsolv 2.19
| 18> end
| 19>
| 20> * xyz 1 2
| 21> C           1.84281234672153     -0.00006597869847      0.01285546623039
| 22> C           1.14355368564506     -1.23902490190253      0.00158488089103
| 23> C          -0.22635786234437     -1.24013111711704     -0.01699413586169
| 24> C          -0.95506719113591     -0.00029607647166     -0.02822657050256
| 25> C          -2.42493771335276     -0.00015694603531     -0.01540251479795
| 26> H          -2.85288988584861      0.90688759110700     -0.47308067341050
| 27> H          -2.85357110348468     -0.91037144459146     -0.46576655952987
| 28> H          -2.75683389603493      0.00504463864823      1.05046901822320
| 29> C          -0.22649470626097      1.23969602067318     -0.01458794729593
| 30> C           1.14339815090709      1.23878434923716      0.00398375524291
| 31> H           1.70466297579754      2.17704577622432      0.01138483317017
| 32> H          -0.78522490872320      2.18007136225477     -0.02327385957075
| 33> H          -0.78496408789097     -2.18055191214167     -0.02751919353185
| 34> H           1.70496196149810     -2.17721430622763      0.00716529435102
| 35> H           2.93762583450709      0.00000044504112      0.02964230639238
| 36> *
| 37>
| 38>                          ****END OF INPUT****

CARTESIAN COORDINATES (ANGSTROEM)
---------------------------------
  C      1.842812   -0.000066    0.012855
  C      1.143554   -1.239025    0.001585
  C     -0.226358   -1.240131   -0.016994
  C     -0.955067   -0.000296   -0.028227
  C     -2.424938   -0.000157   -0.015403
  H     -2.852890    0.906888   -0.473081
  H     -2.853571   -0.910371   -0.465767
  H     -2.756834    0.005045    1.050469
  C     -0.226495    1.239696   -0.014588
  C      1.143398    1.238784    0.003984
  H      1.704663    2.177046    0.011385
  H     -0.785225    2.180071   -0.023274
  H     -0.784964   -2.180552   -0.027519
  H      1.704962   -2.177214    0.007165
  H      2.937626    0.000000    0.029642

 Total Charge           Charge          ....    1
 Multiplicity           Mult            ....    2
 Number of Electrons    NEL             ....   49
 Basis Dimension        Dim             ....  506

ORBITAL ENERGIES
----------------
                 SPIN UP ORBITALS
  NO   OCC          E(Eh)            E(eV)
   0   1.0000     -10.211043      -277.8566
   1   1.0000     -10.195392      -277.4307
   2   1.0000     -10.168721      -276.7050
   3   1.0000     -10.168670      -276.7036
   4   1.0000     -10.164667      -276.5947
   5   1.0000     -10.164609      -276.5931
   6   1.0000     -10.137787      -275.8632
   7   1.0000      -0.889454       -24.2033
   8   1.0000      -0.803278       -21.8583
   9   1.0000      -0.775576       -21.1045
  10   1.0000      -0.704735       -19.1768
  11   1.0000      -0.628200       -17.0942
  12   1.0000      -0.608969       -16.5709
  13   1.0000      -0.529401       -14.4057
  14   1.0000      -0.487198       -13.2573
  15   1.0000      -0.473598       -12.8873
  16   1.0000      -0.444477       -12.0948
  17   1.0000      -0.442511       -12.0413
  18   1.0000      -0.428656       -11.6643
  19   1.0000      -0.395872       -10.7722
  20   1.0000      -0.388150       -10.5621
  21   1.0000      -0.370484       -10.0814
  22   1.0000      -0.358752        -9.7621
  23   1.0000      -0.294300        -8.0083
  24   1.0000      -0.292817        -7.9680
  25   0.0000      -0.091469        -2.4890
  26   0.0000      -0.062984        -1.7139
  27   0.0000      -0.006806        -0.1852
  28   0.0000       0.006679         0.1817
  29   0.0000       0.011078         0.3014

                 SPIN DOWN ORBITALS
  NO   OCC          E(Eh)            E(eV)
   0   1.0000     -10.205015      -277.6926
   1   1.0000     -10.188519      -277.2437
   2   1.0000     -10.167429      -276.6698
   3   1.0000     -10.167390      -276.6687
   4   1.0000     -10.165014      -276.6041
   5   1.0000     -10.164968      -276.6028
   6   1.0000     -10.137762      -275.8625
   7   1.0000      -0.879685       -23.9375
   8   1.0000      -0.790812       -21.5191
   9   1.0000      -0.773789       -21.0559
  10   1.0000      -0.696636       -18.9564
  11   1.0000      -0.623411       -16.9639
  12   1.0000      -0.601758       -16.3747
  13   1.0000      -0.526516       -14.3272
  14   1.0000      -0.483872       -13.1668
  15   1.0000      -0.469727       -12.7819
  16   1.0000      -0.444084       -12.0842
  17   1.0000      -0.424560       -11.5529
  18   1.0000      -0.422450       -11.4954
  19   1.0000      -0.394047       -10.7226
  20   1.0000      -0.369541       -10.0557
  21   1.0000      -0.365923        -9.9573
  22   1.0000      -0.355980        -9.6867
  23   1.0000      -0.288541        -7.8516
  24   0.0000      -0.225661        -6.1405
  25   0.0000      -0.052934        -1.4404
  26   0.0000      -0.050470        -1.3733
  27   0.0000      -0.005845        -0.1591
  28   0.0000       0.007722         0.2101

MULLIKEN ATOMIC CHARGES AND SPIN POPULATIONS
--------------------------------------------
   0 C :   -0.101990    0.437835
   1 C :   -0.377133   -0.033359
   2 C :   -0.542002    0.067630
   3 C :    0.785662    0.469176
   4 C :   -0.126532   -0.061661
   5 H :    0.157561    0.007636
   6 H :    0.156811    0.007114
   7 H :    0.194858    0.064395
   8 C :   -0.543199    0.068697
   9 C :   -0.377299   -0.034153
  10 H :    0.479870    0.001163
  11 H :    0.194983   -0.002768
  12 H :    0.194123   -0.002942
  13 H :    0.481940    0.001207
  14 H :    0.422347    0.010031
Sum of atomic charges         :    1.0000000

LOEWDIN ATOMIC CHARGES AND SPIN POPULATIONS
-------------------------------------------
   0 C :    0.311189    0.232108
   1 C :    0.280303    0.073108
   2 C :    0.293729    0.096815
   3 C :   -0.033923    0.227873
   4 C :    0.636237    0.082642
   5 H :   -0.137246    0.008951
   6 H :   -0.137511    0.008734
   7 H :   -0.108707    0.030776
   8 C :    0.293685    0.097013
   9 C :    0.280243    0.072873
  10 H :   -0.140995    0.000969
  11 H :   -0.135244    0.009486
  12 H :   -0.135361    0.009429
  13 H :   -0.140956    0.001039
  14 H :   -0.125442    0.048186

  Mayer bond orders larger than 0.100000
B(  0-C ,  1-C ) :   1.2176 B(  0-C ,  9-C ) :   1.2165 B(  0-C , 14-H ) :   0.6174
B(  1-C ,  2-C ) :   1.6640 B(  1-C , 13-H ) :   0.4927 B(  2-C ,  3-C ) :   0.7547
B(  2-C , 12-H ) :   0.8787 B(  3-C ,  4-C ) :   0.9579 B(  3-C ,  8-C ) :   0.7559
B(  4-C ,  5-H ) :   0.9145 B(  4-C ,  6-H ) :   0.9153 B(  4-C ,  7-H ) :   0.8545
B(  8-C ,  9-C ) :   1.6643 B(  8-C , 11-H ) :   0.8760 B(  9-C , 10-H ) :   0.4955

Dispersion correction           -0.016248417
FINAL SINGLE POINT ENERGY      -271.474112108205

DIPOLE MOMENT
-------------

Method             : SCF
Type of density    : Electron Density
Multiplicity       :   2
Irrep              :   0
Energy             :  -271.4578636915510970 Eh
Relativity type    :
Basis              : AO
                                X                 Y                 Z
Electronic contribution:      3.471236024      -0.000884435      -0.055362629
Nuclear contribution   :     -3.446153110       0.001949667       0.148888103
                        -----------------------------------------
Total Dipole Moment    :      0.025082914       0.001065232       0.093525474
                        -----------------------------------------
Magnitude (a.u.)       :      0.096836468
Magnitude (Debye)      :      0.246138742

Rotational constants in cm-1:             0.175281             0.085805             0.058230
Rotational constants in MHz :          5254.798892          2572.379074          1745.693725

                             ****ORCA TERMINATED NORMALLY****
TOTAL RUN TIME: 0 days 0 hours 4 minutes 58 seconds 825 msec
