                         Program Version 6.0.0  -   RELEASE  -
|  1> !r2SCAN aug-cc-pVTZ d3 TightSCF SlowConv RIJCOSX defgrid2
|  2>
|  3> %pal
|  4> nprocs 4
|  5> end
|  6>
|  7> %scf
|  8> MaxIter 1500
|  9> end
| 10>
| 11> %maxcore 3000
| 12>
| 13> !CPCM
| 14> %cpcm smd true
| 15> SMDsolvent "MeCN"
| 16> surfacetype gepol_ses
| 17> rsolv 2.19
| 18> end
| 19>
| 20> * xyz 0 1
| 21> C           0.89625463995169     -1.41558669005642      0.00000212581931
| 22> C           2.11505403593339     -0.74430991173074     -0.00000149555587
| 23> C           2.17542044953981      0.66118914619392      0.00000118790347
| 24> C           1.02073349490689      1.43411488081899      0.00000740816991
| 25> C          -0.21978579987357      0.78024255664200      0.00000882693723
| 26> C          -0.24734548849214     -0.62587635066739      0.00000530658827
| 27> O          -1.52601546021974     -1.07032389872869      0.00001342203642
| 28> C          -2.31826979056253      0.02952741578344      0.00002075604744
| 29> C          -1.60215379632981      1.18293934552638      0.00000260268759
| 30> H          -2.00251324968155      2.19537072670951     -0.00000431996804
| 31> H          -3.38877681335679     -0.16931307117016      0.00002936397660
| 32> H           1.07767380530056      2.52621447644394      0.00000712336235
| 33> H           3.15304280126425      1.15182904763925     -0.00000361572869
| 34> H           3.04441141911605     -1.32116718166862     -0.00000606251848
| 35> H           0.83131985250349     -2.50587419173540      0.00000217024247
| 36> *
| 37>
| 38>                          ****END OF INPUT****

CARTESIAN COORDINATES (ANGSTROEM)
---------------------------------
  C      0.896255   -1.415587    0.000002
  C      2.115054   -0.744310   -0.000001
  C      2.175420    0.661189    0.000001
  C      1.020733    1.434115    0.000007
  C     -0.219786    0.780243    0.000009
  C     -0.247345   -0.625876    0.000005
  O     -1.526015   -1.070324    0.000013
  C     -2.318270    0.029527    0.000021
  C     -1.602154    1.182939    0.000003
  H     -2.002513    2.195371   -0.000004
  H     -3.388777   -0.169313    0.000029
  H      1.077674    2.526214    0.000007
  H      3.153043    1.151829   -0.000004
  H      3.044411   -1.321167   -0.000006
  H      0.831320   -2.505874    0.000002

 Total Charge           Charge          ....    0
 Multiplicity           Mult            ....    1
 Number of Electrons    NEL             ....   62
 Basis Dimension        Dim             ....  552

ORBITAL ENERGIES
----------------

  NO   OCC          E(Eh)            E(eV)
   0   2.0000     -19.028886      -517.8023
   1   2.0000     -10.095039      -274.7000
   2   2.0000     -10.093994      -274.6715
   3   2.0000     -10.049647      -273.4648
   4   2.0000     -10.046083      -273.3678
   5   2.0000     -10.044135      -273.3148
   6   2.0000     -10.042309      -273.2651
   7   2.0000     -10.040032      -273.2032
   8   2.0000     -10.039046      -273.1763
   9   2.0000      -1.087574       -29.5944
  10   2.0000      -0.825870       -22.4731
  11   2.0000      -0.768239       -20.9048
  12   2.0000      -0.719515       -19.5790
  13   2.0000      -0.698027       -18.9943
  14   2.0000      -0.603485       -16.4217
  15   2.0000      -0.569488       -15.4966
  16   2.0000      -0.552051       -15.0221
  17   2.0000      -0.488276       -13.2867
  18   2.0000      -0.463359       -12.6086
  19   2.0000      -0.445614       -12.1258
  20   2.0000      -0.436646       -11.8817
  21   2.0000      -0.406028       -11.0486
  22   2.0000      -0.391029       -10.6404
  23   2.0000      -0.374633       -10.1943
  24   2.0000      -0.355757        -9.6806
  25   2.0000      -0.334559        -9.1038
  26   2.0000      -0.332689        -9.0529
  27   2.0000      -0.306769        -8.3476
  28   2.0000      -0.278815        -7.5869
  29   2.0000      -0.227954        -6.2029
  30   2.0000      -0.209909        -5.7119
  31   0.0000      -0.052371        -1.4251
  32   0.0000      -0.022921        -0.6237
  33   0.0000       0.008925         0.2429
  34   0.0000       0.014318         0.3896
  35   0.0000       0.021970         0.5978

MULLIKEN ATOMIC CHARGES
-----------------------
   0 C :   -1.055025
   1 C :   -0.178811
   2 C :   -0.543412
   3 C :   -0.606598
   4 C :    1.113962
   5 C :    0.355435
   6 O :   -0.500935
   7 C :   -0.535041
   8 C :   -0.668167
   9 H :    0.381170
  10 H :    0.618065
  11 H :    0.084392
  12 H :    0.583304
  13 H :    0.361269
  14 H :    0.590391
Sum of atomic charges:    0.0000000

LOEWDIN ATOMIC CHARGES
----------------------
   0 C :    0.220734
   1 C :    0.173972
   2 C :    0.175426
   3 C :    0.213480
   4 C :   -0.170579
   5 C :   -0.405835
   6 O :    0.615713
   7 C :   -0.017852
   8 C :    0.224204
   9 H :   -0.169411
  10 H :   -0.172094
  11 H :   -0.166371
  12 H :   -0.178408
  13 H :   -0.176611
  14 H :   -0.166367

  Mayer bond orders larger than 0.100000
B(  0-C ,  1-C ) :   1.2114 B(  0-C ,  2-C ) :   0.4553 B(  0-C ,  4-C ) :   0.1499
B(  0-C ,  5-C ) :   1.1381 B(  0-C ,  6-O ) :   0.1017 B(  1-C ,  2-C ) :   1.0262
B(  1-C ,  3-C ) :  -0.4346 B(  1-C ,  5-C ) :  -0.7020 B(  1-C ,  7-C ) :   0.1086
B(  1-C , 12-H ) :   0.1420 B(  1-C , 13-H ) :   0.7735 B(  1-C , 14-H ) :   0.1849
B(  2-C ,  3-C ) :   0.9516 B(  2-C ,  5-C ) :   0.1187 B(  2-C ,  8-C ) :   0.2177
B(  2-C , 12-H ) :   0.3273 B(  2-C , 13-H ) :  -0.1284 B(  3-C ,  4-C ) :   0.7246
B(  3-C ,  5-C ) :  -0.7999 B(  3-C ,  8-C ) :   0.1151 B(  3-C ,  9-H ) :   0.1771
B(  3-C , 11-H ) :   1.3739 B(  3-C , 14-H ) :   0.1359 B(  4-C ,  5-C ) :   1.2027
B(  4-C ,  6-O ) :  -0.1092 B(  4-C ,  7-C ) :  -0.3056 B(  4-C ,  8-C ) :   0.3815
B(  4-C , 11-H ) :  -0.1692 B(  4-C , 13-H ) :  -0.1370 B(  5-C ,  6-O ) :   0.5156
B(  5-C ,  8-C ) :   0.2675 B(  5-C , 11-H ) :   0.2000 B(  5-C , 13-H ) :   0.1510
B(  6-O ,  7-C ) :   1.1920 B(  7-C ,  8-C ) :   1.1026 B(  7-C , 10-H ) :   0.4681
B(  8-C ,  9-H ) :   0.8398

Dispersion correction           -0.004576517
FINAL SINGLE POINT ENERGY      -383.613959782708

DIPOLE MOMENT
-------------

Method             : SCF
Type of density    : Electron Density
Multiplicity       :   1
Irrep              :   0
Energy             :  -383.6093832652565538 Eh
Relativity type    :
Basis              : AO
                                X                 Y                 Z
Electronic contribution:     -2.737707429      -1.431477082       0.000414514
Nuclear contribution   :      2.516077808       1.725635815      -0.000014921
                        -----------------------------------------
Total Dipole Moment    :     -0.221629620       0.294158733       0.000399592
                        -----------------------------------------
Magnitude (a.u.)       :      0.368305862
Magnitude (Debye)      :      0.936159104

Rotational constants in cm-1:             0.131103             0.055537             0.039011
Rotational constants in MHz :          3930.375234          1664.953413          1169.527667

                             ****ORCA TERMINATED NORMALLY****
TOTAL RUN TIME: 0 days 0 hours 2 minutes 5 seconds 318 msec
