                         Program Version 6.0.0  -   RELEASE  -
|  1> !r2SCANh aug-cc-pVTZ d3 TightSCF SlowConv RIJCOSX defgrid2
|  2>
|  3> %pal
|  4> nprocs 4
|  5> end
|  6>
|  7> %scf
|  8> MaxIter 1500
|  9> end
| 10>
| 11> %maxcore 3000
| 12>
| 13> !CPCM
| 14> %cpcm smd true
| 15> SMDsolvent "MeCN"
| 16> surfacetype gepol_ses
| 17> rsolv 2.19
| 18> end
| 19>
| 20> * xyz 0 1
| 21> C           0.03260910228520      1.08137561321675     -0.00005519024681
| 22> C          -1.34067616416986      1.33940990966857     -0.00006277386150
| 23> C          -2.26505829948608      0.29987796591520     -0.00002637645918
| 24> C          -1.80355661628939     -1.01995706797392      0.00001567004565
| 25> C          -0.44212934457685     -1.29206473885913      0.00002194287208
| 26> C           0.48773718530999     -0.24207145865110     -0.00001289966776
| 27> O           1.78848371232752     -0.60054348212568     -0.00000734481067
| 28> C           2.76447200773818      0.40008618654603     -0.00000767276834
| 29> H           2.69619012376907      1.04049548625701     -0.90084775937446
| 30> H           2.69616289260516      1.04052094820081      0.90081198872589
| 31> H           3.73793416758510     -0.11300324243944      0.00001415192437
| 32> H          -0.06314832394927     -2.31720165011296      0.00005410336572
| 33> H          -2.51681541922482     -1.84998358326110      0.00004248911056
| 34> H          -3.33762461646730      0.51193314493410     -0.00003142013851
| 35> H          -1.68480228384705      2.37828066720121     -0.00009724328111
| 36> H           0.73383607639040      1.91798680148364     -0.00008576543595
| 37> *
| 38>
| 39>                          ****END OF INPUT****

CARTESIAN COORDINATES (ANGSTROEM)
---------------------------------
  C      0.032609    1.081376   -0.000055
  C     -1.340676    1.339410   -0.000063
  C     -2.265058    0.299878   -0.000026
  C     -1.803557   -1.019957    0.000016
  C     -0.442129   -1.292065    0.000022
  C      0.487737   -0.242071   -0.000013
  O      1.788484   -0.600543   -0.000007
  C      2.764472    0.400086   -0.000008
  H      2.696190    1.040495   -0.900848
  H      2.696163    1.040521    0.900812
  H      3.737934   -0.113003    0.000014
  H     -0.063148   -2.317202    0.000054
  H     -2.516815   -1.849984    0.000042
  H     -3.337625    0.511933   -0.000031
  H     -1.684802    2.378281   -0.000097
  H      0.733836    1.917987   -0.000086

 Total Charge           Charge          ....    0
 Multiplicity           Mult            ....    1
 Number of Electrons    NEL             ....   58
 Basis Dimension        Dim             ....  552

ORBITAL ENERGIES
----------------

  NO   OCC          E(Eh)            E(eV)
   0   2.0000     -19.152498      -521.1660
   1   2.0000     -10.221924      -278.1527
   2   2.0000     -10.198082      -277.5039
   3   2.0000     -10.162432      -276.5338
   4   2.0000     -10.162319      -276.5308
   5   2.0000     -10.157754      -276.4065
   6   2.0000     -10.156486      -276.3720
   7   2.0000     -10.153435      -276.2890
   8   2.0000      -1.081512       -29.4294
   9   2.0000      -0.853959       -23.2374
  10   2.0000      -0.756267       -20.5791
  11   2.0000      -0.745367       -20.2825
  12   2.0000      -0.686481       -18.6801
  13   2.0000      -0.604134       -16.4393
  14   2.0000      -0.582001       -15.8371
  15   2.0000      -0.527064       -14.3421
  16   2.0000      -0.475349       -12.9349
  17   2.0000      -0.470277       -12.7969
  18   2.0000      -0.458629       -12.4799
  19   2.0000      -0.431089       -11.7305
  20   2.0000      -0.409769       -11.1504
  21   2.0000      -0.398637       -10.8475
  22   2.0000      -0.372257       -10.1296
  23   2.0000      -0.351847        -9.5742
  24   2.0000      -0.342711        -9.3257
  25   2.0000      -0.314841        -8.5673
  26   2.0000      -0.312041        -8.4911
  27   2.0000      -0.254675        -6.9301
  28   2.0000      -0.220410        -5.9977
  29   0.0000      -0.026476        -0.7204
  30   0.0000      -0.010552        -0.2871
  31   0.0000       0.010723         0.2918
  32   0.0000       0.024928         0.6783
  33   0.0000       0.026712         0.7269

MULLIKEN ATOMIC CHARGES
-----------------------
   0 C :   -0.469450
   1 C :   -0.473442
   2 C :   -0.648780
   3 C :   -0.230550
   4 C :   -1.086417
   5 C :    1.201279
   6 O :   -0.686792
   7 C :   -0.706098
   8 H :    0.256692
   9 H :    0.257075
  10 H :    0.258055
  11 H :    0.584346
  12 H :    0.320647
  13 H :    0.524405
  14 H :    0.267226
  15 H :    0.631805
Sum of atomic charges:    0.0000000

LOEWDIN ATOMIC CHARGES
----------------------
   0 C :    0.193147
   1 C :    0.171087
   2 C :    0.168671
   3 C :    0.166526
   4 C :    0.188087
   5 C :   -0.412566
   6 O :    0.586654
   7 C :    0.319898
   8 H :   -0.160833
   9 H :   -0.160854
  10 H :   -0.169501
  11 H :   -0.174612
  12 H :   -0.172139
  13 H :   -0.179864
  14 H :   -0.171177
  15 H :   -0.192526

  Mayer bond orders larger than 0.100000
B(  0-C ,  1-C ) :   0.8998 B(  0-C ,  2-C ) :   0.3788 B(  0-C ,  3-C ) :  -0.1715
B(  0-C ,  4-C ) :   0.6896 B(  0-C ,  5-C ) :   0.7724 B(  0-C ,  6-O ) :  -0.1082
B(  0-C , 11-H ) :  -0.1210 B(  1-C ,  2-C ) :   1.1222 B(  1-C ,  3-C ) :  -0.3110
B(  1-C ,  4-C ) :  -0.1329 B(  1-C ,  5-C ) :  -0.4860 B(  1-C , 11-H ) :   0.1255
B(  1-C , 14-H ) :   0.9930 B(  1-C , 15-H ) :   0.2114 B(  2-C ,  3-C ) :   1.0014
B(  2-C ,  4-C ) :   0.5164 B(  2-C ,  5-C ) :  -0.1627 B(  2-C , 13-H ) :   0.4466
B(  2-C , 15-H ) :  -0.1767 B(  3-C ,  4-C ) :   1.1081 B(  3-C ,  5-C ) :  -0.3789
B(  3-C , 11-H ) :   0.1216 B(  3-C , 12-H ) :   0.9012 B(  3-C , 15-H ) :   0.2279
B(  4-C ,  5-C ) :   0.4639 B(  4-C ,  6-O ) :   0.2345 B(  4-C , 11-H ) :   0.1556
B(  4-C , 15-H ) :  -0.1850 B(  5-C ,  6-O ) :   0.4994 B(  5-C , 11-H ) :   0.1266
B(  5-C , 15-H ) :   0.1122 B(  6-O ,  7-C ) :   1.0685 B(  6-O , 11-H ) :  -0.1016
B(  7-C ,  8-H ) :   0.9251 B(  7-C ,  9-H ) :   0.9250 B(  7-C , 10-H ) :   0.9643
B(  7-C , 15-H ) :  -0.1335

Dispersion correction           -0.004540857
FINAL SINGLE POINT ENERGY      -346.695185821185

DIPOLE MOMENT
-------------

Method             : SCF
Type of density    : Electron Density
Multiplicity       :   1
Irrep              :   0
Energy             :  -346.6906449639571406 Eh
Relativity type    :
Basis              : AO
                                X                 Y                 Z
Electronic contribution:     -1.696332105      -1.894356217      -0.000005384
Nuclear contribution   :      2.143742692       2.450814428      -0.000006666
                        -----------------------------------------
Total Dipole Moment    :      0.447410587       0.556458211      -0.000012050
                        -----------------------------------------
Magnitude (a.u.)       :      0.714018188
Magnitude (Debye)      :      1.814890003

Rotational constants in cm-1:             0.168604             0.052375             0.040274
Rotational constants in MHz :          5054.615103          1570.170626          1207.382090

                             ****ORCA TERMINATED NORMALLY****
TOTAL RUN TIME: 0 days 0 hours 4 minutes 20 seconds 677 msec
