                         Program Version 6.0.0  -   RELEASE  -
|  1> !r2SCANh opt aug-cc-pVTZ d3 TightSCF SlowConv RIJCOSX defgrid2
|  2>
|  3> %pal
|  4> nprocs 8
|  5> end
|  6>
|  7> %scf
|  8> MaxIter 1500
|  9> end
| 10>
| 11> %maxcore 3500
| 12>
| 13> !CPCM
| 14> %cpcm smd true
| 15> SMDsolvent "MeCN"
| 16> surfacetype gepol_ses
| 17> rsolv 2.19
| 18> end
| 19>
| 20> * xyz 0 1
| 21> C           0.94968287453071     -1.27993729727395      0.00000683726847
| 22> C           2.32072584922403     -1.03066468402730     -0.00000570192654
| 23> C           2.79045486785265      0.28126328538775     -0.00000619644263
| 24> C           1.88129493900205      1.34320110702256      0.00000552102250
| 25> C           0.51414900986878      1.09690334373603      0.00001977591165
| 26> C           0.03124775758730     -0.22186358373352      0.00001975571628
| 27> C          -1.40109719375212     -0.51811607942485      0.00002773818787
| 28> N          -2.27722630544222      0.40983670208196      0.00003187543002
| 29> O          -3.54943597920683     -0.07892856387383      0.00003589961153
| 30> H          -4.10699565150034      0.71269395667835      0.00004041054052
| 31> H          -1.72077053189788     -1.57247842719527      0.00002621709873
| 32> H          -0.20517984986564      1.91961492482438      0.00002936627338
| 33> H           2.24665800678188      2.37456842670514      0.00000344087776
| 34> H           3.86637191838654      0.47947397298735     -0.00001641660649
| 35> H           3.02594458116043     -1.86704493909579     -0.00001599324974
| 36> H           0.58187010727067     -2.31112044479903      0.00000487028669
| 37> *
| 38>
| 39>                          ****END OF INPUT****
 Total Charge           Charge          ....    0
 Multiplicity           Mult            ....    1
 Number of Electrons    NEL             ....   64
Dispersion correction           -0.004869532
FINAL SINGLE POINT ENERGY      -400.795499696566
Dispersion correction             ... done (  0.1 sec)
Dispersion correction           -0.004878567
FINAL SINGLE POINT ENERGY      -400.796671883804
Dispersion correction             ... done (  0.0 sec)
Dispersion correction           -0.004879844
FINAL SINGLE POINT ENERGY      -400.796797846607
Dispersion correction             ... done (  0.1 sec)
Dispersion correction           -0.004878940
FINAL SINGLE POINT ENERGY      -400.796832714291
Dispersion correction             ... done (  0.1 sec)
Dispersion correction           -0.004878472
FINAL SINGLE POINT ENERGY      -400.796835958664
Dispersion correction             ... done (  0.1 sec)
                    ***********************HURRAY********************

CARTESIAN COORDINATES (ANGSTROEM)
---------------------------------
  C      0.938369   -1.265810   -0.000128
  C      2.305265   -1.028810   -0.000465
  C      2.783731    0.273461   -0.000279
  C      1.888046    1.339651    0.000396
  C      0.524741    1.108293    0.000678
  C      0.033791   -0.202223    0.000299
  C     -1.390040   -0.507805    0.000427
  N     -2.269341    0.413453   -0.001368
  O     -3.557568   -0.117113   -0.000572
  H     -4.118940    0.667760   -0.001247
  H     -1.689266   -1.554717    0.002362
  H     -0.168379    1.937820    0.001341
  H      2.259092    2.355756    0.000159
  H      3.848962    0.460780   -0.000815
  H      2.995348   -1.861585   -0.000831
  H      0.563883   -2.281511    0.000251

 Multiplicity           Mult            ....    1
 Number of Electrons    NEL             ....   64
 Basis Dimension        Dim             ....  575

ORBITAL ENERGIES
----------------

  NO   OCC          E(Eh)            E(eV)
   0   2.0000     -19.164625      -521.4960
   1   2.0000     -14.360570      -390.7710
   2   2.0000     -10.194161      -277.3972
   3   2.0000     -10.177855      -276.9535
   4   2.0000     -10.164295      -276.5845
   5   2.0000     -10.162776      -276.5432
   6   2.0000     -10.162133      -276.5257
   7   2.0000     -10.161567      -276.5103
   8   2.0000     -10.161232      -276.5012
   9   2.0000      -1.095882       -29.8205
  10   2.0000      -0.887904       -24.1611
  11   2.0000      -0.853596       -23.2275
  12   2.0000      -0.759240       -20.6600
  13   2.0000      -0.751729       -20.4556
  14   2.0000      -0.639086       -17.3904
  15   2.0000      -0.608238       -16.5510
  16   2.0000      -0.564742       -15.3674
  17   2.0000      -0.527290       -14.3483
  18   2.0000      -0.507310       -13.8046
  19   2.0000      -0.464138       -12.6298
  20   2.0000      -0.448385       -12.2012
  21   2.0000      -0.428850       -11.6696
  22   2.0000      -0.419238       -11.4081
  23   2.0000      -0.413274       -11.2458
  24   2.0000      -0.404219       -10.9994
  25   2.0000      -0.375364       -10.2142
  26   2.0000      -0.340786        -9.2733
  27   2.0000      -0.332945        -9.0599
  28   2.0000      -0.296783        -8.0759
  29   2.0000      -0.279757        -7.6126
  30   2.0000      -0.259247        -7.0545
  31   2.0000      -0.230389        -6.2692
  32   0.0000      -0.066360        -1.8058
  33   0.0000      -0.027475        -0.7476
  34   0.0000       0.010313         0.2806
  35   0.0000       0.017987         0.4895
  36   0.0000       0.022487         0.6119

MULLIKEN ATOMIC CHARGES
-----------------------
   0 C :   -1.039485
   1 C :   -0.576202
   2 C :   -0.184991
   3 C :   -0.713115
   4 C :   -0.720097
   5 C :    1.974957
   6 C :    0.000268
   7 N :   -0.510096
   8 O :   -0.311910
   9 H :    0.175648
  10 H :    0.456834
  11 H :    0.002859
  12 H :    0.535643
  13 H :    0.418531
  14 H :    0.534799
  15 H :   -0.043642
Sum of atomic charges:    0.0000000

LOEWDIN ATOMIC CHARGES
----------------------
   0 C :    0.201538
   1 C :    0.200993
   2 C :    0.197606
   3 C :    0.199232
   4 C :    0.196558
   5 C :   -0.177839
   6 C :   -0.025332
   7 N :    0.136052
   8 O :    0.669760
   9 H :   -0.520268
  10 H :   -0.183538
  11 H :   -0.190467
  12 H :   -0.176837
  13 H :   -0.177589
  14 H :   -0.176711
  15 H :   -0.173157

  Mayer bond orders larger than 0.100000
B(  0-C ,  1-C ) :   1.0927 B(  0-C ,  2-C ) :  -0.1393 B(  0-C ,  4-C ) :  -0.4701
B(  0-C ,  5-C ) :  -0.1099 B(  0-C ,  6-C ) :   0.1140 B(  0-C , 11-H ) :   0.1558
B(  0-C , 13-H ) :   0.1197 B(  0-C , 14-H ) :  -0.2110 B(  0-C , 15-H ) :   1.8168
B(  1-C ,  2-C ) :   1.1609 B(  1-C ,  3-C ) :   0.1416 B(  1-C ,  5-C ) :   0.1068
B(  1-C , 11-H ) :  -0.1067 B(  1-C , 14-H ) :   0.5238 B(  1-C , 15-H ) :  -0.1630
B(  2-C ,  3-C ) :   1.0977 B(  2-C ,  4-C ) :  -0.1609 B(  2-C ,  5-C ) :  -0.1480
B(  2-C ,  6-C ) :   0.1379 B(  2-C , 13-H ) :   0.7183 B(  3-C ,  4-C ) :   1.1026
B(  3-C ,  5-C ) :   0.1351 B(  3-C , 12-H ) :   0.5014 B(  3-C , 15-H ) :  -0.1134
B(  4-C ,  5-C ) :   0.3026 B(  4-C ,  6-C ) :   0.2501 B(  4-C , 11-H ) :   1.3980
B(  4-C , 12-H ) :  -0.1250 B(  4-C , 15-H ) :   0.1493 B(  5-C ,  7-N ) :  -0.1279
B(  5-C , 11-H ) :  -0.2262 B(  5-C , 14-H ) :   0.1360 B(  5-C , 15-H ) :  -0.3092
B(  6-C ,  7-N ) :   1.0811 B(  6-C , 10-H ) :   0.5732 B(  6-C , 11-H ) :  -0.1122
B(  6-C , 15-H ) :  -0.1469 B(  7-N ,  8-O ) :   0.7146 B(  7-N , 10-H ) :  -0.1036
B(  7-N , 11-H ) :   0.1053 B(  8-O ,  9-H ) :   1.0026 B( 11-H , 15-H ) :   0.1907

Dispersion correction           -0.004878386
FINAL SINGLE POINT ENERGY      -400.796836243283

DIPOLE MOMENT
-------------

Method             : SCF
Type of density    : Electron Density
Multiplicity       :   1
Irrep              :   0
Energy             :  -400.7919578577831317 Eh
Relativity type    :
Basis              : AO
                                X                 Y                 Z
Electronic contribution:     -2.978055840       0.149437245      -0.000951969
Nuclear contribution   :      3.391936395      -0.271028975       0.001995035
                        -----------------------------------------
Total Dipole Moment    :      0.413880555      -0.121591730       0.001043065
                        -----------------------------------------
Magnitude (a.u.)       :      0.431373099
Magnitude (Debye)      :      1.096463280

Rotational constants in cm-1:             0.174650             0.030051             0.025640
Rotational constants in MHz :          5235.888538           900.918632           768.658701

                             ****ORCA TERMINATED NORMALLY****
TOTAL RUN TIME: 0 days 0 hours 20 minutes 52 seconds 89 msec
