                         Program Version 6.0.0  -   RELEASE  -
|  1> !B3LYP opt aug-cc-pVTZ d3 TightSCF SlowConv RIJCOSX defgrid2
|  2>
|  3> %pal
|  4> nprocs 8
|  5> end
|  6>
|  7> %scf
|  8> MaxIter 1500
|  9> end
| 10>
| 11> %maxcore 3500
| 12>
| 13> !CPCM
| 14> %cpcm smd true
| 15> SMDsolvent "MeCN"
| 16> surfacetype gepol_ses
| 17> rsolv 2.19
| 18> end
| 19>
| 20> * xyz 1 2
| 21> C           2.44830417164420     -0.69527642473796      0.00000945881878
| 22> C           2.44832214826430      0.69521603339414      0.00001009734484
| 23> C           1.23352505326865      1.40025135317577      0.00000577718412
| 24> C           0.00001141556131      0.71453178803145      0.00000268426234
| 25> C          -1.23348320904465      1.40028329659239      0.00000107782236
| 26> C          -2.44830108548662      0.69527938835391      0.00000695148737
| 27> C          -2.44832067103510     -0.69521530453956      0.00000530486429
| 28> C          -1.23352061718470     -1.40025032772324     -0.00000393184308
| 29> C          -0.00000717114678     -0.71452684352053     -0.00000494703196
| 30> C           1.23348727294566     -1.40028215170085     -0.00000132918117
| 31> H           1.23935708532449     -2.49454817867840      0.00000050523970
| 32> H          -1.23942268133971     -2.49451730914708     -0.00000545360366
| 33> H          -3.39340211959580     -1.24489598698530      0.00000832828244
| 34> H          -3.39336678788360      1.24498332942293      0.00000859404642
| 35> H          -1.23935478912557      2.49455128204595      0.00000167009943
| 36> H           1.23942795953164      2.49451607920762      0.00000299068588
| 37> H           3.39340268697296      1.24489500413589      0.00001313139295
| 38> H           3.39337233832933     -1.24497302732713      0.00001569012894
| 39> *
| 40>
| 41>                          ****END OF INPUT****
 Total Charge           Charge          ....    1
 Multiplicity           Mult            ....    2
 Number of Electrons    NEL             ....   67
Dispersion correction           -0.036442072
FINAL SINGLE POINT ENERGY      -385.616236535585
Dispersion correction             ... done (  0.1 sec)
Dispersion correction           -0.036588492
FINAL SINGLE POINT ENERGY      -385.617364242645
Dispersion correction             ... done (  0.1 sec)
Dispersion correction           -0.036603994
FINAL SINGLE POINT ENERGY      -385.617361026512
Dispersion correction             ... done (  0.1 sec)
                    ***********************HURRAY********************

CARTESIAN COORDINATES (ANGSTROEM)
---------------------------------
  C      2.436304   -0.692450   -0.000114
  C      2.436331    0.692388   -0.000250
  C      1.227569    1.396178   -0.000231
  C      0.000006    0.712264    0.000025
  C     -1.227528    1.396219    0.000270
  C     -2.436306    0.692454    0.000221
  C     -2.436323   -0.692397    0.000099
  C     -1.227559   -1.396185    0.000142
  C     -0.000012   -0.712251    0.000015
  C      1.227523   -1.396203   -0.000120
  H      1.232234   -2.477220   -0.000047
  H     -1.232287   -2.477207    0.000110
  H     -3.369591   -1.235991   -0.000387
  H     -3.369556    1.236071   -0.000205
  H     -1.232223    2.477240    0.000312
  H      1.232303    2.477201   -0.000217
  H      3.369599    1.235982    0.000114
  H      3.369548   -1.236070    0.000339

 Multiplicity           Mult            ....    2
 Number of Electrons    NEL             ....   67
 Basis Dimension        Dim             ....  644

ORBITAL ENERGIES
----------------
                 SPIN UP ORBITALS
  NO   OCC          E(Eh)            E(eV)
   0   1.0000     -10.230520      -278.3866
   1   1.0000     -10.230495      -278.3859
   2   1.0000     -10.230473      -278.3853
   3   1.0000     -10.230461      -278.3850
   4   1.0000     -10.218824      -278.0683
   5   1.0000     -10.218343      -278.0552
   6   1.0000     -10.215390      -277.9749
   7   1.0000     -10.215388      -277.9748
   8   1.0000     -10.214751      -277.9575
   9   1.0000     -10.214734      -277.9570
  10   1.0000      -0.919743       -25.0275
  11   1.0000      -0.865019       -23.5384
  12   1.0000      -0.818456       -22.2713
  13   1.0000      -0.782132       -21.2829
  14   1.0000      -0.759283       -20.6611
  15   1.0000      -0.668191       -18.1824
  16   1.0000      -0.647908       -17.6305
  17   1.0000      -0.634287       -17.2598
  18   1.0000      -0.549784       -14.9604
  19   1.0000      -0.543211       -14.7815
  20   1.0000      -0.530441       -14.4340
  21   1.0000      -0.480560       -13.0767
  22   1.0000      -0.478470       -13.0198
  23   1.0000      -0.455839       -12.4040
  24   1.0000      -0.452210       -12.3053
  25   1.0000      -0.437439       -11.9033
  26   1.0000      -0.426924       -11.6172
  27   1.0000      -0.406449       -11.0600
  28   1.0000      -0.373665       -10.1679
  29   1.0000      -0.372600       -10.1390
  30   1.0000      -0.366971        -9.9858
  31   1.0000      -0.335978        -9.1424
  32   1.0000      -0.286366        -7.7924
  33   1.0000      -0.265317        -7.2196
  34   0.0000      -0.097258        -2.6465
  35   0.0000      -0.048329        -1.3151
  36   0.0000      -0.025971        -0.7067
  37   0.0000      -0.006404        -0.1743
  38   0.0000       0.005241         0.1426

                 SPIN DOWN ORBITALS
  NO   OCC          E(Eh)            E(eV)
   0   1.0000     -10.226936      -278.2891
   1   1.0000     -10.226898      -278.2881
   2   1.0000     -10.226894      -278.2879
   3   1.0000     -10.226870      -278.2873
   4   1.0000     -10.219751      -278.0936
   5   1.0000     -10.219272      -278.0805
   6   1.0000     -10.214763      -277.9578
   7   1.0000     -10.214761      -277.9578
   8   1.0000     -10.214113      -277.9401
   9   1.0000     -10.214096      -277.9397
  10   1.0000      -0.915420       -24.9098
  11   1.0000      -0.858724       -23.3671
  12   1.0000      -0.810382       -22.0516
  13   1.0000      -0.781266       -21.2593
  14   1.0000      -0.747728       -20.3467
  15   1.0000      -0.663776       -18.0623
  16   1.0000      -0.644396       -17.5349
  17   1.0000      -0.630208       -17.1488
  18   1.0000      -0.547165       -14.8891
  19   1.0000      -0.539326       -14.6758
  20   1.0000      -0.528323       -14.3764
  21   1.0000      -0.478266       -13.0143
  22   1.0000      -0.477872       -13.0036
  23   1.0000      -0.453482       -12.3399
  24   1.0000      -0.449382       -12.2283
  25   1.0000      -0.425076       -11.5669
  26   1.0000      -0.424352       -11.5472
  27   1.0000      -0.405352       -11.0302
  28   1.0000      -0.370196       -10.0735
  29   1.0000      -0.366117        -9.9625
  30   1.0000      -0.355011        -9.6604
  31   1.0000      -0.309131        -8.4119
  32   1.0000      -0.285158        -7.7595
  33   0.0000      -0.197923        -5.3858
  34   0.0000      -0.073162        -1.9908
  35   0.0000      -0.040215        -1.0943
  36   0.0000      -0.011632        -0.3165
  37   0.0000      -0.006153        -0.1674

MULLIKEN ATOMIC CHARGES AND SPIN POPULATIONS
--------------------------------------------
   0 C :   -0.352371    0.038072
   1 C :   -0.353344    0.038013
   2 C :   -1.045537    0.249510
   3 C :    1.742281   -0.061701
   4 C :   -1.041781    0.249476
   5 C :   -0.357328    0.037991
   6 C :   -0.352068    0.038036
   7 C :   -1.047219    0.249475
   8 C :    1.748139   -0.061710
   9 C :   -1.038001    0.249496
  10 H :    0.120793   -0.006102
  11 H :    0.119487   -0.006014
  12 H :    0.663407   -0.000630
  13 H :    0.648767   -0.000662
  14 H :    0.124655   -0.005979
  15 H :    0.118777   -0.006005
  16 H :    0.652363   -0.000637
  17 H :    0.648980   -0.000628
Sum of atomic charges         :    1.0000000

LOEWDIN ATOMIC CHARGES AND SPIN POPULATIONS
-------------------------------------------
   0 C :    0.280421    0.073327
   1 C :    0.280421    0.073322
   2 C :    0.302042    0.128509
   3 C :   -0.087891    0.031550
   4 C :    0.302042    0.128504
   5 C :    0.280426    0.073322
   6 C :    0.280432    0.073323
   7 C :    0.302047    0.128505
   8 C :   -0.087879    0.031550
   9 C :    0.302050    0.128508
  10 H :   -0.137356    0.025077
  11 H :   -0.137355    0.025076
  12 H :   -0.151170    0.007318
  13 H :   -0.151177    0.007318
  14 H :   -0.137354    0.025076
  15 H :   -0.137355    0.025077
  16 H :   -0.151168    0.007317
  17 H :   -0.151176    0.007319

  Mayer bond orders larger than 0.100000
B(  0-C ,  1-C ) :   1.2257 B(  0-C ,  3-C ) :  -0.2666 B(  0-C ,  9-C ) :   1.0836
B(  0-C , 17-H ) :   0.3166 B(  1-C ,  2-C ) :   1.0854 B(  1-C ,  8-C ) :  -0.2726
B(  1-C , 16-H ) :   0.3154 B(  2-C ,  3-C ) :  -0.1072 B(  2-C ,  4-C ) :   0.5294
B(  2-C ,  8-C ) :  -0.3242 B(  2-C , 15-H ) :   1.3001 B(  2-C , 16-H ) :  -0.2127
B(  3-C ,  4-C ) :  -0.1075 B(  3-C ,  6-C ) :  -0.2729 B(  3-C ,  7-C ) :  -0.3281
B(  3-C ,  8-C ) :   1.3151 B(  3-C ,  9-C ) :  -0.3256 B(  4-C ,  5-C ) :   1.0903
B(  4-C ,  8-C ) :  -0.3305 B(  4-C , 13-H ) :  -0.2119 B(  4-C , 14-H ) :   1.2958
B(  5-C ,  6-C ) :   1.2264 B(  5-C ,  8-C ) :  -0.2737 B(  5-C , 13-H ) :   0.3142
B(  6-C ,  7-C ) :   1.0901 B(  6-C , 12-H ) :   0.2951 B(  7-C ,  8-C ) :  -0.1091
B(  7-C ,  9-C ) :   0.5286 B(  7-C , 11-H ) :   1.3043 B(  7-C , 12-H ) :  -0.2151
B(  8-C ,  9-C ) :  -0.1066 B(  9-C , 10-H ) :   1.2994 B(  9-C , 17-H ) :  -0.2116

Dispersion correction           -0.036605339
FINAL SINGLE POINT ENERGY      -385.617360781801

DIPOLE MOMENT
-------------

Method             : SCF
Type of density    : Electron Density
Multiplicity       :   2
Irrep              :   0
Energy             :  -385.5807554429468951 Eh
Relativity type    :
Basis              : AO
                                X                 Y                 Z
Electronic contribution:     -0.000003283      -0.000052020       0.000014983
Nuclear contribution   :      0.000020030      -0.000007050      -0.000021892
                        -----------------------------------------
Total Dipole Moment    :      0.000016747      -0.000059070      -0.000006908
                        -----------------------------------------
Magnitude (a.u.)       :      0.000061786
Magnitude (Debye)      :      0.000157047

Rotational constants in cm-1:             0.105506             0.041169             0.029614
Rotational constants in MHz :          3162.985713          1234.230039           887.800879

                             ****ORCA TERMINATED NORMALLY****
TOTAL RUN TIME: 0 days 0 hours 36 minutes 0 seconds 149 msec
