                         Program Version 6.0.0  -   RELEASE  -
|  1> !r2SCAN aug-cc-pVTZ d3 TightSCF SlowConv RIJCOSX defgrid2
|  2>
|  3> %pal
|  4> nprocs 4
|  5> end
|  6>
|  7> %scf
|  8> MaxIter 1500
|  9> end
| 10>
| 11> %maxcore 3000
| 12>
| 13> !CPCM
| 14> %cpcm smd true
| 15> SMDsolvent "MeCN"
| 16> surfacetype gepol_ses
| 17> rsolv 2.19
| 18> end
| 19>
| 20> * xyz 0 2
| 21> S          -0.00010950333410      1.33232152061846      0.00000284685572
| 22> C          -1.36367602339461      0.23464932550616     -0.00507122495906
| 23> C          -2.63111207479134      0.80918677441119     -0.00931514148930
| 24> C          -3.79749598688692      0.01748913706240     -0.01353133573099
| 25> C          -3.62690722369362     -1.39108123583356     -0.01295952620618
| 26> C          -2.36711161265690     -1.94934818919206     -0.00874256384629
| 27> H          -2.23684953206305     -3.03459019141420     -0.00838133626109
| 28> C          -1.17821016281749     -1.17668732648083     -0.00472311773149
| 29> N          -0.00002243259599     -1.83446497066754     -0.00098097198001
| 30> C           1.17812817196274     -1.17662234567149      0.00321348810966
| 31> C           2.36706725678156     -1.94922452722425      0.00667750909652
| 32> C           3.62683749655594     -1.39090083721577      0.01126100122058
| 33> C           3.79735129127031      0.01767608816689      0.01293153169759
| 34> C           2.63092897415049      0.80931688655999      0.00908647542932
| 35> C           1.36351983422924      0.23472394637557      0.00444992884257
| 36> H           2.70292817680075      1.89826895685548      0.00952338683142
| 37> N           5.04756390584320      0.58778935524973      0.01788863149424
| 38> C           5.18172091093512      2.01927291145544      0.01839451021747
| 39> H           4.72362917020845      2.48089047963546     -0.87882697554764
| 40> H           4.71362444681400      2.48052031071610      0.91057955441826
| 41> H           6.24845927057729      2.28645848294775      0.02468300648574
| 42> C           6.21890311032700     -0.24765571266402      0.01987377959494
| 43> H           7.11746405207368      0.38638280457377      0.02575541170059
| 44> H           6.26272829635460     -0.90187803580692      0.91268866293187
| 45> H           6.27030724212294     -0.89602611228501     -0.87693708029874
| 46> H           4.49368813972706     -2.05282067647445      0.01344982462292
| 47> H           2.23685254993858     -3.03447155031151      0.00547512817034
| 48> H          -4.49372906017109     -2.05303540820711     -0.01582821380380
| 49> N          -5.04773346330895      0.58755010330840     -0.01787016769593
| 50> C          -6.21904670194275     -0.24792774805618     -0.02103570915344
| 51> H          -6.26948350136630     -0.89843815146211      0.87422819476414
| 52> H          -6.26381702737160     -0.90001046584191     -0.91541895496807
| 53> H          -7.11762903933965      0.38609970182385     -0.02430714598305
| 54> C          -5.18193217827922      2.01902912759794     -0.01996728409317
| 55> H          -4.72352139465997      2.48160383072144      0.87657566790498
| 56> H          -4.71418178558910      2.47935235497991     -0.91283316827598
| 57> H          -6.24867837130277      2.28618639267493     -0.02606269937327
| 58> H          -2.70315182110753      1.89814199356804     -0.00903802299134
| 59> *
| 60>
| 61>                          ****END OF INPUT****

CARTESIAN COORDINATES (ANGSTROEM)
---------------------------------
  S     -0.000110    1.332322    0.000003
  C     -1.363676    0.234649   -0.005071
  C     -2.631112    0.809187   -0.009315
  C     -3.797496    0.017489   -0.013531
  C     -3.626907   -1.391081   -0.012960
  C     -2.367112   -1.949348   -0.008743
  H     -2.236850   -3.034590   -0.008381
  C     -1.178210   -1.176687   -0.004723
  N     -0.000022   -1.834465   -0.000981
  C      1.178128   -1.176622    0.003213
  C      2.367067   -1.949225    0.006678
  C      3.626837   -1.390901    0.011261
  C      3.797351    0.017676    0.012932
  C      2.630929    0.809317    0.009086
  C      1.363520    0.234724    0.004450
  H      2.702928    1.898269    0.009523
  N      5.047564    0.587789    0.017889
  C      5.181721    2.019273    0.018395
  H      4.723629    2.480890   -0.878827
  H      4.713624    2.480520    0.910580
  H      6.248459    2.286458    0.024683
  C      6.218903   -0.247656    0.019874
  H      7.117464    0.386383    0.025755
  H      6.262728   -0.901878    0.912689
  H      6.270307   -0.896026   -0.876937
  H      4.493688   -2.052821    0.013450
  H      2.236853   -3.034472    0.005475
  H     -4.493729   -2.053035   -0.015828
  N     -5.047733    0.587550   -0.017870
  C     -6.219047   -0.247928   -0.021036
  H     -6.269484   -0.898438    0.874228
  H     -6.263817   -0.900010   -0.915419
  H     -7.117629    0.386100   -0.024307
  C     -5.181932    2.019029   -0.019967
  H     -4.723521    2.481604    0.876576
  H     -4.714182    2.479352   -0.912833
  H     -6.248678    2.286186   -0.026063
  H     -2.703152    1.898142   -0.009038

 Total Charge           Charge          ....    0
 Multiplicity           Mult            ....    2
 Number of Electrons    NEL             ....  151
 Basis Dimension        Dim             .... 1338

ORBITAL ENERGIES
----------------
                 SPIN UP ORBITALS
  NO   OCC          E(Eh)            E(eV)
   0   1.0000     -88.586517     -2410.5617
   1   1.0000     -14.195095      -386.2682
   2   1.0000     -14.195088      -386.2680
   3   1.0000     -14.150332      -385.0501
   4   1.0000     -10.084181      -274.4045
   5   1.0000     -10.084169      -274.4042
   6   1.0000     -10.080711      -274.3101
   7   1.0000     -10.080705      -274.3099
   8   1.0000     -10.070016      -274.0191
   9   1.0000     -10.070012      -274.0190
  10   1.0000     -10.058746      -273.7124
  11   1.0000     -10.058717      -273.7116
  12   1.0000     -10.058679      -273.7106
  13   1.0000     -10.058669      -273.7103
  14   1.0000     -10.039005      -273.1752
  15   1.0000     -10.038974      -273.1744
  16   1.0000     -10.038472      -273.1607
  17   1.0000     -10.038467      -273.1606
  18   1.0000     -10.036265      -273.1006
  19   1.0000     -10.036260      -273.1005
  20   1.0000      -7.880142      -214.4296
  21   1.0000      -5.826211      -158.5393
  22   1.0000      -5.822444      -158.4368
  23   1.0000      -5.819352      -158.3526
  24   1.0000      -0.926119       -25.2010
  25   1.0000      -0.925642       -25.1880
  26   1.0000      -0.904706       -24.6183
  27   1.0000      -0.821536       -22.3551
  28   1.0000      -0.812272       -22.1030
  29   1.0000      -0.772234       -21.0135
  30   1.0000      -0.727970       -19.8091
  31   1.0000      -0.723063       -19.6755
  32   1.0000      -0.703074       -19.1316
  33   1.0000      -0.686647       -18.6846
  34   1.0000      -0.685801       -18.6616
  35   1.0000      -0.652773       -17.7628
  36   1.0000      -0.635536       -17.2938
  37   1.0000      -0.602084       -16.3835
  38   1.0000      -0.574800       -15.6411
  39   1.0000      -0.573214       -15.5979
  40   1.0000      -0.554311       -15.0836
  41   1.0000      -0.512508       -13.9460
  42   1.0000      -0.509908       -13.8753
  43   1.0000      -0.480025       -13.0621
  44   1.0000      -0.471818       -12.8388
  45   1.0000      -0.468511       -12.7488
  46   1.0000      -0.445932       -12.1344
  47   1.0000      -0.434649       -11.8274
  48   1.0000      -0.434063       -11.8115
  49   1.0000      -0.418891       -11.3986
  50   1.0000      -0.410481       -11.1698
  51   1.0000      -0.403323       -10.9750
  52   1.0000      -0.398419       -10.8415
  53   1.0000      -0.394667       -10.7394
  54   1.0000      -0.386710       -10.5229
  55   1.0000      -0.383823       -10.4443
  56   1.0000      -0.366565        -9.9747
  57   1.0000      -0.366554        -9.9744
  58   1.0000      -0.362158        -9.8548
  59   1.0000      -0.361566        -9.8387
  60   1.0000      -0.353301        -9.6138
  61   1.0000      -0.351060        -9.5528
  62   1.0000      -0.343730        -9.3534
  63   1.0000      -0.339130        -9.2282
  64   1.0000      -0.332944        -9.0599
  65   1.0000      -0.319979        -8.7071
  66   1.0000      -0.310809        -8.4576
  67   1.0000      -0.307485        -8.3671
  68   1.0000      -0.304141        -8.2761
  69   1.0000      -0.272999        -7.4287
  70   1.0000      -0.251351        -6.8396
  71   1.0000      -0.231578        -6.3016
  72   1.0000      -0.231130        -6.2894
  73   1.0000      -0.195301        -5.3144
  74   1.0000      -0.180067        -4.8999
  75   1.0000      -0.133560        -3.6343
  76   0.0000      -0.047788        -1.3004
  77   0.0000      -0.043553        -1.1851
  78   0.0000      -0.026025        -0.7082
  79   0.0000      -0.003979        -0.1083
  80   0.0000      -0.000457        -0.0124

                 SPIN DOWN ORBITALS
  NO   OCC          E(Eh)            E(eV)
   0   1.0000     -88.585868     -2410.5440
   1   1.0000     -14.192752      -386.2044
   2   1.0000     -14.192743      -386.2042
   3   1.0000     -14.141237      -384.8026
   4   1.0000     -10.082667      -274.3633
   5   1.0000     -10.082655      -274.3630
   6   1.0000     -10.078507      -274.2501
   7   1.0000     -10.078501      -274.2500
   8   1.0000     -10.070964      -274.0449
   9   1.0000     -10.070961      -274.0448
  10   1.0000     -10.058881      -273.7161
  11   1.0000     -10.058851      -273.7153
  12   1.0000     -10.058813      -273.7142
  13   1.0000     -10.058803      -273.7140
  14   1.0000     -10.039953      -273.2010
  15   1.0000     -10.039922      -273.2002
  16   1.0000     -10.036876      -273.1173
  17   1.0000     -10.036871      -273.1172
  18   1.0000     -10.036345      -273.1028
  19   1.0000     -10.036340      -273.1027
  20   1.0000      -7.879714      -214.4179
  21   1.0000      -5.825890      -158.5305
  22   1.0000      -5.822167      -158.4292
  23   1.0000      -5.817590      -158.3047
  24   1.0000      -0.922887       -25.1130
  25   1.0000      -0.922498       -25.1024
  26   1.0000      -0.895690       -24.3730
  27   1.0000      -0.819015       -22.2865
  28   1.0000      -0.806515       -21.9464
  29   1.0000      -0.769736       -20.9456
  30   1.0000      -0.726732       -19.7754
  31   1.0000      -0.720647       -19.6098
  32   1.0000      -0.701667       -19.0933
  33   1.0000      -0.686008       -18.6672
  34   1.0000      -0.683465       -18.5980
  35   1.0000      -0.651614       -17.7313
  36   1.0000      -0.635762       -17.3000
  37   1.0000      -0.598728       -16.2922
  38   1.0000      -0.573051       -15.5935
  39   1.0000      -0.570589       -15.5265
  40   1.0000      -0.552239       -15.0272
  41   1.0000      -0.510477       -13.8908
  42   1.0000      -0.508970       -13.8498
  43   1.0000      -0.478660       -13.0250
  44   1.0000      -0.470128       -12.7928
  45   1.0000      -0.467948       -12.7335
  46   1.0000      -0.445093       -12.1116
  47   1.0000      -0.430399       -11.7118
  48   1.0000      -0.429973       -11.7002
  49   1.0000      -0.418060       -11.3760
  50   1.0000      -0.409379       -11.1398
  51   1.0000      -0.402351       -10.9485
  52   1.0000      -0.394072       -10.7232
  53   1.0000      -0.387159       -10.5351
  54   1.0000      -0.386166       -10.5081
  55   1.0000      -0.382956       -10.4208
  56   1.0000      -0.366018        -9.9599
  57   1.0000      -0.366010        -9.9596
  58   1.0000      -0.361676        -9.8417
  59   1.0000      -0.360893        -9.8204
  60   1.0000      -0.349952        -9.5227
  61   1.0000      -0.347532        -9.4568
  62   1.0000      -0.342685        -9.3249
  63   1.0000      -0.338510        -9.2113
  64   1.0000      -0.332086        -9.0365
  65   1.0000      -0.308451        -8.3934
  66   1.0000      -0.306338        -8.3359
  67   1.0000      -0.303499        -8.2586
  68   1.0000      -0.299078        -8.1383
  69   1.0000      -0.265234        -7.2174
  70   1.0000      -0.245768        -6.6877
  71   1.0000      -0.224205        -6.1009
  72   1.0000      -0.218792        -5.9536
  73   1.0000      -0.190392        -5.1808
  74   1.0000      -0.175270        -4.7693
  75   0.0000      -0.108160        -2.9432
  76   0.0000      -0.041412        -1.1269
  77   0.0000      -0.035000        -0.9524
  78   0.0000      -0.020175        -0.5490
  79   0.0000      -0.001990        -0.0542

MULLIKEN ATOMIC CHARGES AND SPIN POPULATIONS
--------------------------------------------
   0 S :    0.015787    0.120411
   1 C :    0.975699    0.172591
   2 C :   -1.192538   -0.124073
   3 C :    1.421090    0.167436
   4 C :    0.098228   -0.082333
   5 C :   -0.977097    0.108967
   6 H :    0.225841    0.004113
   7 C :    0.555678   -0.034565
   8 N :   -0.989610    0.344348
   9 C :    0.555115   -0.034661
  10 C :   -0.976973    0.108912
  11 C :    0.098294   -0.082303
  12 C :    1.418584    0.167461
  13 C :   -1.192449   -0.124134
  14 C :    0.977813    0.172615
  15 H :   -0.142048   -0.011301
  16 N :   -0.275886    0.079835
  17 C :   -0.931048   -0.015153
  18 H :    0.230177    0.006729
  19 H :    0.229464    0.006694
  20 H :    0.302405   -0.000150
  21 C :   -0.907345   -0.013980
  22 H :    0.304809    0.000247
  23 H :    0.210747    0.006429
  24 H :    0.211944    0.006440
  25 H :    0.147139   -0.010231
  26 H :    0.225882    0.004091
  27 H :    0.147293   -0.010221
  28 N :   -0.275506    0.079850
  29 C :   -0.907483   -0.013995
  30 H :    0.211568    0.006426
  31 H :    0.211092    0.006449
  32 H :    0.304752    0.000248
  33 C :   -0.930800   -0.015141
  34 H :    0.230360    0.006731
  35 H :    0.229201    0.006688
  36 H :    0.302360   -0.000147
  37 H :   -0.142539   -0.011321
Sum of atomic charges         :    0.0000000

LOEWDIN ATOMIC CHARGES AND SPIN POPULATIONS
-------------------------------------------
   0 S :    1.329388    0.099717
   1 C :   -0.488687    0.063990
   2 C :    0.128805    0.000827
   3 C :   -0.226948    0.046600
   4 C :    0.215713    0.020797
   5 C :    0.185774    0.048086
   6 H :   -0.176700    0.007440
   7 C :   -0.399346    0.053628
   8 N :    0.355088    0.233923
   9 C :   -0.399344    0.053624
  10 C :    0.185780    0.048080
  11 C :    0.215724    0.020789
  12 C :   -0.226939    0.046594
  13 C :    0.128763    0.000826
  14 C :   -0.488706    0.063998
  15 H :   -0.214813   -0.004761
  16 N :    0.237372    0.066239
  17 C :    0.485079    0.010084
  18 H :   -0.139775    0.002831
  19 H :   -0.140060    0.002813
  20 H :   -0.159694    0.000054
  21 C :    0.485132    0.009699
  22 H :   -0.160350    0.000002
  23 H :   -0.140723    0.002728
  24 H :   -0.140278    0.002744
  25 H :   -0.192774   -0.000624
  26 H :   -0.176696    0.007440
  27 H :   -0.192774   -0.000623
  28 N :    0.237381    0.066256
  29 C :    0.485127    0.009702
  30 H :   -0.140438    0.002735
  31 H :   -0.140549    0.002738
  32 H :   -0.160370    0.000002
  33 C :    0.485094    0.010086
  34 H :   -0.139858    0.002826
  35 H :   -0.139995    0.002819
  36 H :   -0.159665    0.000054
  37 H :   -0.214736   -0.004760

  Mayer bond orders larger than 0.100000
B(  0-S ,  1-C ) :   0.1243 B(  0-S ,  2-C ) :   0.1628 B(  0-S ,  7-C ) :   0.3458
B(  0-S ,  8-N ) :  -0.1723 B(  0-S ,  9-C ) :   0.3463 B(  0-S , 13-C ) :   0.1622
B(  0-S , 14-C ) :   0.1243 B(  1-C ,  2-C ) :  -0.1763 B(  1-C ,  3-C ) :   0.1232
B(  1-C ,  4-C ) :  -0.4304 B(  1-C ,  7-C ) :   0.5188 B(  1-C , 11-C ) :  -0.1098
B(  1-C , 12-C ) :   0.1620 B(  1-C , 13-C ) :   0.1941 B(  1-C , 14-C ) :  -0.3811
B(  1-C , 28-N ) :   0.3124 B(  1-C , 33-C ) :   0.1674 B(  1-C , 37-H ) :  -0.1022
B(  2-C ,  5-C ) :  -0.2599 B(  2-C ,  7-C ) :   0.5397 B(  2-C ,  9-C ) :  -0.1646
B(  2-C , 12-C ) :   0.1312 B(  2-C , 14-C ) :   0.1941 B(  2-C , 28-N ) :  -0.4536
B(  2-C , 29-C ) :   0.2032 B(  2-C , 33-C ) :  -0.2814 B(  2-C , 37-H ) :   1.3748
B(  3-C ,  4-C ) :   0.4157 B(  3-C ,  5-C ) :  -0.3121 B(  3-C ,  6-H ) :   0.1122
B(  3-C ,  7-C ) :   0.1040 B(  3-C ,  9-C ) :  -0.1538 B(  3-C , 13-C ) :   0.1313
B(  3-C , 14-C ) :   0.1618 B(  3-C , 27-H ) :  -0.1205 B(  3-C , 28-N ) :  -0.3269
B(  3-C , 29-C ) :  -0.2086 B(  3-C , 33-C ) :  -0.2379 B(  3-C , 37-H ) :  -0.1503
B(  4-C ,  5-C ) :   0.6291 B(  4-C ,  7-C ) :   0.6229 B(  4-C ,  8-N ) :   0.1202
B(  4-C , 14-C ) :  -0.1099 B(  4-C , 27-H ) :   0.9187 B(  4-C , 28-N ) :  -0.6210
B(  4-C , 29-C ) :  -0.2503 B(  5-C ,  6-H ) :   0.8657 B(  5-C ,  7-C ) :  -0.6240
B(  5-C ,  8-N ) :   0.3598 B(  5-C ,  9-C ) :   0.4495 B(  5-C , 28-N ) :   0.1265
B(  6-H ,  8-N ) :   0.2633 B(  6-H ,  9-C ) :  -0.1372 B(  7-C ,  8-N ) :  -0.1270
B(  7-C ,  9-C ) :   0.7826 B(  7-C , 10-C ) :   0.4496 B(  7-C , 12-C ) :  -0.1538
B(  7-C , 13-C ) :  -0.1645 B(  7-C , 26-H ) :  -0.1372 B(  7-C , 28-N ) :  -0.2191
B(  7-C , 37-H ) :  -0.1261 B(  8-N ,  9-C ) :  -0.1272 B(  8-N , 10-C ) :   0.3597
B(  8-N , 11-C ) :   0.1202 B(  8-N , 26-H ) :   0.2633 B(  9-C , 10-C ) :  -0.6243
B(  9-C , 11-C ) :   0.6232 B(  9-C , 12-C ) :   0.1044 B(  9-C , 13-C ) :   0.5398
B(  9-C , 14-C ) :   0.5184 B(  9-C , 15-H ) :  -0.1259 B(  9-C , 16-N ) :  -0.2192
B( 10-C , 11-C ) :   0.6293 B( 10-C , 12-C ) :  -0.3120 B( 10-C , 13-C ) :  -0.2603
B( 10-C , 16-N ) :   0.1265 B( 10-C , 26-H ) :   0.8656 B( 11-C , 12-C ) :   0.4156
B( 11-C , 14-C ) :  -0.4310 B( 11-C , 16-N ) :  -0.6214 B( 11-C , 21-C ) :  -0.2504
B( 11-C , 25-H ) :   0.9189 B( 12-C , 14-C ) :   0.1228 B( 12-C , 15-H ) :  -0.1481
B( 12-C , 16-N ) :  -0.3270 B( 12-C , 17-C ) :  -0.2378 B( 12-C , 21-C ) :  -0.2086
B( 12-C , 25-H ) :  -0.1205 B( 12-C , 26-H ) :   0.1123 B( 13-C , 14-C ) :  -0.1795
B( 13-C , 15-H ) :   1.3746 B( 13-C , 16-N ) :  -0.4533 B( 13-C , 17-C ) :  -0.2814
B( 13-C , 21-C ) :   0.2033 B( 14-C , 15-H ) :  -0.1033 B( 14-C , 16-N ) :   0.3127
B( 14-C , 17-C ) :   0.1674 B( 15-H , 17-C ) :  -0.1729 B( 16-N , 17-C ) :   1.2955
B( 16-N , 20-H ) :  -0.1046 B( 16-N , 21-C ) :   1.3694 B( 17-C , 18-H ) :   0.9776
B( 17-C , 19-H ) :   0.9784 B( 17-C , 20-H ) :   0.8553 B( 21-C , 22-H ) :   0.8082
B( 21-C , 23-H ) :   1.0165 B( 21-C , 24-H ) :   1.0145 B( 21-C , 25-H ) :  -0.2388
B( 27-H , 29-C ) :  -0.2388 B( 28-N , 29-C ) :   1.3694 B( 28-N , 33-C ) :   1.2953
B( 28-N , 36-H ) :  -0.1047 B( 29-C , 30-H ) :   1.0152 B( 29-C , 31-H ) :   1.0160
B( 29-C , 32-H ) :   0.8082 B( 33-C , 34-H ) :   0.9775 B( 33-C , 35-H ) :   0.9782
B( 33-C , 36-H ) :   0.8555 B( 33-C , 37-H ) :  -0.1727

Dispersion correction           -0.016088213
FINAL SINGLE POINT ENERGY     -1182.826079982078

DIPOLE MOMENT
-------------

Method             : SCF
Type of density    : Electron Density
Multiplicity       :   2
Irrep              :   0
Energy             : -1182.8099917694139549 Eh
Relativity type    :
Basis              : AO
                                X                 Y                 Z
Electronic contribution:     -0.000676941      -3.115720269       0.004977535
Nuclear contribution   :     -0.000087217       5.020383448      -0.005360537
                        -----------------------------------------
Total Dipole Moment    :     -0.000764157       1.904663179      -0.000383002
                        -----------------------------------------
Magnitude (a.u.)       :      1.904663371
Magnitude (Debye)      :      4.841269547

Rotational constants in cm-1:             0.035055             0.004401             0.003922
Rotational constants in MHz :          1050.925207           131.948316           117.581806

                             ****ORCA TERMINATED NORMALLY****
TOTAL RUN TIME: 0 days 0 hours 16 minutes 6 seconds 473 msec
