                         Program Version 6.0.0  -   RELEASE  -
|  1> !TPSSh aug-cc-pVTZ d3 TightSCF SlowConv RIJCOSX defgrid2
|  2>
|  3> %pal
|  4> nprocs 4
|  5> end
|  6>
|  7> %scf
|  8> MaxIter 1500
|  9> end
| 10>
| 11> %maxcore 3000
| 12>
| 13> !CPCM
| 14> %cpcm smd true
| 15> SMDsolvent "MeCN"
| 16> surfacetype gepol_ses
| 17> rsolv 2.19
| 18> end
| 19>
| 20> * xyz 0 1
| 21> C           1.86847672101122     -0.00008236176043      0.00934069542278
| 22> C           1.16491620854655     -1.20399668013187      0.00231506739479
| 23> C          -0.22896335284967     -1.20071978485061     -0.00929652137640
| 24> C          -0.94900034920378      0.00006360460976     -0.01194017646160
| 25> C          -2.45182373447190      0.00004409306138      0.01139598288954
| 26> H          -2.86400768085413      0.89448921652384     -0.48498227844954
| 27> H          -2.86406757845967     -0.89139694424087     -0.49034168247459
| 28> H          -2.83153291351154     -0.00310912605040      1.05029467072035
| 29> C          -0.22885343288002      1.20074830825039     -0.00915605869330
| 30> C           1.16505216971292      1.20388451241840      0.00245858099490
| 31> H           1.70620101334868      2.15511788824393      0.00229991498037
| 32> H          -0.77200932779939      2.15177858845512     -0.01887855569817
| 33> H          -0.77221541101255     -2.15169724965365     -0.01913454693012
| 34> H           1.70598089527851     -2.15527912856971      0.00204061695885
| 35> H           2.96252007314476     -0.00014523630528      0.01580649072214
| 36> *
| 37>
| 38>                          ****END OF INPUT****

CARTESIAN COORDINATES (ANGSTROEM)
---------------------------------
  C      1.868477   -0.000082    0.009341
  C      1.164916   -1.203997    0.002315
  C     -0.228963   -1.200720   -0.009297
  C     -0.949000    0.000064   -0.011940
  C     -2.451824    0.000044    0.011396
  H     -2.864008    0.894489   -0.484982
  H     -2.864068   -0.891397   -0.490342
  H     -2.831533   -0.003109    1.050295
  C     -0.228853    1.200748   -0.009156
  C      1.165052    1.203885    0.002459
  H      1.706201    2.155118    0.002300
  H     -0.772009    2.151779   -0.018879
  H     -0.772215   -2.151697   -0.019135
  H      1.705981   -2.155279    0.002041
  H      2.962520   -0.000145    0.015806

 Total Charge           Charge          ....    0
 Multiplicity           Mult            ....    1
 Number of Electrons    NEL             ....   50
 Basis Dimension        Dim             ....  506

ORBITAL ENERGIES
----------------

  NO   OCC          E(Eh)            E(eV)
   0   2.0000     -10.123023      -275.4615
   1   2.0000     -10.114638      -275.2333
   2   2.0000     -10.114576      -275.2316
   3   2.0000     -10.112544      -275.1763
   4   2.0000     -10.111905      -275.1589
   5   2.0000     -10.111902      -275.1588
   6   2.0000     -10.106086      -275.0006
   7   2.0000      -0.834546       -22.7091
   8   2.0000      -0.748516       -20.3682
   9   2.0000      -0.722271       -19.6540
  10   2.0000      -0.660219       -17.9655
  11   2.0000      -0.582119       -15.8403
  12   2.0000      -0.560606       -15.2549
  13   2.0000      -0.487946       -13.2777
  14   2.0000      -0.436385       -11.8746
  15   2.0000      -0.431348       -11.7376
  16   2.0000      -0.397976       -10.8295
  17   2.0000      -0.395981       -10.7752
  18   2.0000      -0.385346       -10.4858
  19   2.0000      -0.359759        -9.7895
  20   2.0000      -0.342353        -9.3159
  21   2.0000      -0.319656        -8.6983
  22   2.0000      -0.315900        -8.5961
  23   2.0000      -0.244586        -6.6555
  24   2.0000      -0.234569        -6.3829
  25   0.0000      -0.023896        -0.6502
  26   0.0000      -0.021803        -0.5933
  27   0.0000      -0.002376        -0.0647
  28   0.0000       0.010620         0.2890
  29   0.0000       0.014817         0.4032

MULLIKEN ATOMIC CHARGES
-----------------------
   0 C :   -0.244988
   1 C :   -0.371875
   2 C :   -0.746167
   3 C :    0.879337
   4 C :   -0.229653
   5 H :    0.126548
   6 H :    0.126546
   7 H :    0.149540
   8 C :   -0.744252
   9 C :   -0.370677
  10 H :    0.413985
  11 H :    0.120530
  12 H :    0.121353
  13 H :    0.410965
  14 H :    0.358807
Sum of atomic charges:   -0.0000000

LOEWDIN ATOMIC CHARGES
----------------------
   0 C :    0.173901
   1 C :    0.178713
   2 C :    0.196765
   3 C :   -0.149104
   4 C :    0.568536
   5 H :   -0.166157
   6 H :   -0.166053
   7 H :   -0.152659
   8 C :    0.196783
   9 C :    0.178720
  10 H :   -0.173904
  11 H :   -0.167714
  12 H :   -0.167655
  13 H :   -0.173907
  14 H :   -0.176265

  Mayer bond orders larger than 0.100000
B(  0-C ,  1-C ) :   1.3197 B(  0-C ,  9-C ) :   1.3204 B(  0-C , 14-H ) :   0.6706
B(  1-C ,  2-C ) :   1.3855 B(  1-C , 13-H ) :   0.5967 B(  2-C ,  3-C ) :   0.8008
B(  2-C , 12-H ) :   0.9863 B(  3-C ,  4-C ) :   0.7416 B(  3-C ,  8-C ) :   0.7985
B(  4-C ,  5-H ) :   0.9582 B(  4-C ,  6-H ) :   0.9584 B(  4-C ,  7-H ) :   0.9477
B(  8-C ,  9-C ) :   1.3853 B(  8-C , 11-H ) :   0.9886 B(  9-C , 10-H ) :   0.5926

Dispersion correction           -0.016246116
FINAL SINGLE POINT ENERGY      -271.705161439210

DIPOLE MOMENT
-------------

Method             : SCF
Type of density    : Electron Density
Multiplicity       :   1
Irrep              :   0
Energy             :  -271.6889153227968450 Eh
Relativity type    :
Basis              : AO
                                X                 Y                 Z
Electronic contribution:      3.300529383      -0.000050644      -0.029499424
Nuclear contribution   :     -3.524846021      -0.000150115       0.053662303
                        -----------------------------------------
Total Dipole Moment    :     -0.224316639      -0.000200759       0.024162879
                        -----------------------------------------
Magnitude (a.u.)       :      0.225614360
Magnitude (Debye)      :      0.573466129

Rotational constants in cm-1:             0.184524             0.083891             0.058309
Rotational constants in MHz :          5531.875560          2514.985236          1748.069221

                             ****ORCA TERMINATED NORMALLY****
TOTAL RUN TIME: 0 days 0 hours 3 minutes 37 seconds 937 msec
