                         Program Version 6.0.0  -   RELEASE  -
|  1> !r2SCANh aug-cc-pVTZ d3 TightSCF SlowConv RIJCOSX defgrid2
|  2>
|  3> %pal
|  4> nprocs 4
|  5> end
|  6>
|  7> %scf
|  8> MaxIter 1500
|  9> end
| 10>
| 11> %maxcore 3000
| 12>
| 13> !CPCM
| 14> %cpcm smd true
| 15> SMDsolvent "MeCN"
| 16> surfacetype gepol_ses
| 17> rsolv 2.19
| 18> end
| 19>
| 20> * xyz 1 2
| 21> C           0.42766922826058      1.09250554753671     -0.00002934984792
| 22> C          -0.91803929338371      1.32112616186701     -0.00007862922355
| 23> C          -1.83359468145124      0.22604701172772     -0.00005052019445
| 24> C          -1.34403470586700     -1.10812997260672      0.00004176990950
| 25> C           0.01076802795708     -1.32157729093281      0.00010017037764
| 26> C           0.94695487201857     -0.24147431186404      0.00005526206874
| 27> C           2.33481183567959     -0.54917553496955      0.00008494824583
| 28> C           3.37151795017655      0.35638842083076      0.00003100754924
| 29> C           4.79867889425726     -0.01212296739284      0.00003041343018
| 30> H           5.30495592523331      0.43227355340951      0.87968521925492
| 31> H           5.30486849674351      0.43200595766830     -0.87981167059255
| 32> H           4.96193499106042     -1.10070955791719      0.00017599972354
| 33> H           3.14539862986225      1.43012139140852     -0.00004517175902
| 34> H           2.59593124142522     -1.61436223702820      0.00015424626296
| 35> H           0.39241616474177     -2.34656611487460      0.00017208140391
| 36> H          -2.03091333615712     -1.95604876858454      0.00007442711173
| 37> O          -3.09670762656711      0.54742056766508     -0.00013047431290
| 38> C          -4.12777516023530     -0.43476601526242     -0.00013255885468
| 39> H          -4.06321175276157     -1.05773088391001      0.90732683477409
| 40> H          -4.06307084433532     -1.05786982004323     -0.90748503150178
| 41> H          -5.07065366505136      0.12679713547228     -0.00024982874602
| 42> H          -1.33253890672666      2.33189179701734     -0.00014213674034
| 43> H           1.10842431512030      1.94641593078294     -0.00005240833907
| 44> *
| 45>
| 46>                          ****END OF INPUT****

CARTESIAN COORDINATES (ANGSTROEM)
---------------------------------
  C      0.427669    1.092506   -0.000029
  C     -0.918039    1.321126   -0.000079
  C     -1.833595    0.226047   -0.000051
  C     -1.344035   -1.108130    0.000042
  C      0.010768   -1.321577    0.000100
  C      0.946955   -0.241474    0.000055
  C      2.334812   -0.549176    0.000085
  C      3.371518    0.356388    0.000031
  C      4.798679   -0.012123    0.000030
  H      5.304956    0.432274    0.879685
  H      5.304868    0.432006   -0.879812
  H      4.961935   -1.100710    0.000176
  H      3.145399    1.430121   -0.000045
  H      2.595931   -1.614362    0.000154
  H      0.392416   -2.346566    0.000172
  H     -2.030913   -1.956049    0.000074
  O     -3.096708    0.547421   -0.000130
  C     -4.127775   -0.434766   -0.000133
  H     -4.063212   -1.057731    0.907327
  H     -4.063071   -1.057870   -0.907485
  H     -5.070654    0.126797   -0.000250
  H     -1.332539    2.331892   -0.000142
  H      1.108424    1.946416   -0.000052

 Total Charge           Charge          ....    1
 Multiplicity           Mult            ....    2
 Number of Electrons    NEL             ....   79
 Basis Dimension        Dim             ....  782

ORBITAL ENERGIES
----------------
                 SPIN UP ORBITALS
  NO   OCC          E(Eh)            E(eV)
   0   1.0000     -19.209340      -522.7127
   1   1.0000     -10.280085      -279.7353
   2   1.0000     -10.221480      -278.1406
   3   1.0000     -10.219841      -278.0960
   4   1.0000     -10.217052      -278.0201
   5   1.0000     -10.203761      -277.6585
   6   1.0000     -10.201038      -277.5843
   7   1.0000     -10.200339      -277.5653
   8   1.0000     -10.195888      -277.4442
   9   1.0000     -10.195136      -277.4237
  10   1.0000     -10.165049      -276.6050
  11   1.0000      -1.138726       -30.9863
  12   1.0000      -0.900931       -24.5156
  13   1.0000      -0.841331       -22.8938
  14   1.0000      -0.796299       -21.6684
  15   1.0000      -0.785441       -21.3729
  16   1.0000      -0.741041       -20.1647
  17   1.0000      -0.689796       -18.7703
  18   1.0000      -0.642951       -17.4956
  19   1.0000      -0.623314       -16.9612
  20   1.0000      -0.575233       -15.6529
  21   1.0000      -0.558014       -15.1843
  22   1.0000      -0.518239       -14.1020
  23   1.0000      -0.511003       -13.9051
  24   1.0000      -0.501427       -13.6445
  25   1.0000      -0.463378       -12.6091
  26   1.0000      -0.446301       -12.1445
  27   1.0000      -0.444036       -12.0828
  28   1.0000      -0.426938       -11.6176
  29   1.0000      -0.425384       -11.5753
  30   1.0000      -0.415868       -11.3164
  31   1.0000      -0.410689       -11.1754
  32   1.0000      -0.380018       -10.3408
  33   1.0000      -0.377996       -10.2858
  34   1.0000      -0.371476       -10.1084
  35   1.0000      -0.361113        -9.8264
  36   1.0000      -0.340401        -9.2628
  37   1.0000      -0.308308        -8.3895
  38   1.0000      -0.292595        -7.9619
  39   1.0000      -0.242650        -6.6028
  40   0.0000      -0.093102        -2.5334
  41   0.0000      -0.056961        -1.5500
  42   0.0000      -0.000824        -0.0224
  43   0.0000       0.007220         0.1965
  44   0.0000       0.018088         0.4922

                 SPIN DOWN ORBITALS
  NO   OCC          E(Eh)            E(eV)
   0   1.0000     -19.204708      -522.5867
   1   1.0000     -10.277310      -279.6598
   2   1.0000     -10.220007      -278.1005
   3   1.0000     -10.217639      -278.0361
   4   1.0000     -10.209726      -277.8208
   5   1.0000     -10.203092      -277.6403
   6   1.0000     -10.201064      -277.5851
   7   1.0000     -10.200851      -277.5793
   8   1.0000     -10.195251      -277.4269
   9   1.0000     -10.194453      -277.4052
  10   1.0000     -10.165331      -276.6127
  11   1.0000      -1.131396       -30.7869
  12   1.0000      -0.894235       -24.3334
  13   1.0000      -0.831399       -22.6235
  14   1.0000      -0.791008       -21.5244
  15   1.0000      -0.779277       -21.2052
  16   1.0000      -0.739975       -20.1357
  17   1.0000      -0.684744       -18.6328
  18   1.0000      -0.639788       -17.4095
  19   1.0000      -0.616975       -16.7887
  20   1.0000      -0.570252       -15.5173
  21   1.0000      -0.556057       -15.1311
  22   1.0000      -0.516292       -14.0490
  23   1.0000      -0.508594       -13.8395
  24   1.0000      -0.487443       -13.2640
  25   1.0000      -0.460864       -12.5408
  26   1.0000      -0.444603       -12.0983
  27   1.0000      -0.443542       -12.0694
  28   1.0000      -0.423556       -11.5255
  29   1.0000      -0.414574       -11.2811
  30   1.0000      -0.411857       -11.2072
  31   1.0000      -0.398814       -10.8523
  32   1.0000      -0.378688       -10.3046
  33   1.0000      -0.376334       -10.2406
  34   1.0000      -0.359285        -9.7766
  35   1.0000      -0.356186        -9.6923
  36   1.0000      -0.338010        -9.1977
  37   1.0000      -0.289747        -7.8844
  38   1.0000      -0.285504        -7.7690
  39   0.0000      -0.185465        -5.0468
  40   0.0000      -0.062394        -1.6978
  41   0.0000      -0.044965        -1.2235
  42   0.0000       0.008050         0.2191
  43   0.0000       0.019037         0.5180

MULLIKEN ATOMIC CHARGES AND SPIN POPULATIONS
--------------------------------------------
   0 C :   -0.439978   -0.027114
   1 C :   -1.013071    0.028913
   2 C :    1.279448    0.154365
   3 C :   -0.372106    0.033131
   4 C :   -0.664368    0.005976
   5 C :    1.984380    0.286214
   6 C :   -0.069765   -0.059327
   7 C :   -0.113062    0.377658
   8 C :   -0.845051   -0.050641
   9 H :    0.195616    0.037064
  10 H :    0.195467    0.037074
  11 H :    0.262525   -0.007926
  12 H :    0.232020    0.021660
  13 H :    0.055571    0.003640
  14 H :   -0.044163    0.011382
  15 H :    0.460565    0.018529
  16 O :   -0.710621    0.133222
  17 C :   -0.688846   -0.013633
  18 H :    0.307743    0.006177
  19 H :    0.307781    0.006101
  20 H :    0.245173   -0.000515
  21 H :    0.588230    0.006131
  22 H :   -0.153488   -0.008079
Sum of atomic charges         :    1.0000000

LOEWDIN ATOMIC CHARGES AND SPIN POPULATIONS
-------------------------------------------
   0 C :    0.256764    0.039527
   1 C :    0.266426    0.045989
   2 C :   -0.350841    0.110695
   3 C :    0.271541    0.054130
   4 C :    0.260999    0.056547
   5 C :   -0.088746    0.118528
   6 C :    0.271400    0.077571
   7 C :    0.283804    0.212907
   8 C :    0.602291    0.067819
   9 H :   -0.143689    0.014954
  10 H :   -0.143638    0.014960
  11 H :   -0.158097    0.001093
  12 H :   -0.154610    0.038292
  13 H :   -0.156889   -0.001148
  14 H :   -0.141704    0.004461
  15 H :   -0.162909    0.005091
  16 O :    0.637250    0.117015
  17 C :    0.415150    0.011385
  18 H :   -0.148191    0.003279
  19 H :   -0.148236    0.003279
  20 H :   -0.158279   -0.000414
  21 H :   -0.148591    0.003831
  22 H :   -0.161203    0.000210

  Mayer bond orders larger than 0.100000
B(  0-C ,  1-C ) :   1.0003 B(  0-C ,  2-C ) :  -0.3135 B(  0-C ,  3-C ) :  -0.4871
B(  0-C ,  4-C ) :  -0.7226 B(  0-C ,  5-C ) :   0.1792 B(  0-C ,  6-C ) :   0.2818
B(  0-C , 12-H ) :  -0.1110 B(  0-C , 15-H ) :   0.1358 B(  0-C , 21-H ) :   0.1290
B(  0-C , 22-H ) :   1.7491 B(  1-C ,  2-C ) :   0.6765 B(  1-C ,  3-C ) :   0.3122
B(  1-C ,  5-C ) :   0.2808 B(  1-C ,  6-C ) :   0.1190 B(  1-C ,  7-C ) :  -0.1322
B(  1-C , 14-H ) :  -0.1057 B(  1-C , 16-O ) :   0.3499 B(  1-C , 21-H ) :   0.1551
B(  1-C , 22-H ) :  -0.1911 B(  2-C ,  3-C ) :   0.9393 B(  2-C ,  4-C ) :  -0.3596
B(  2-C , 15-H ) :   0.1694 B(  2-C , 16-O ) :   0.2587 B(  2-C , 21-H ) :   0.1552
B(  3-C ,  4-C ) :   0.9448 B(  3-C ,  5-C ) :   0.2631 B(  3-C , 14-H ) :  -0.1581
B(  3-C , 15-H ) :   0.3247 B(  3-C , 16-O ) :  -0.1561 B(  3-C , 17-C ) :  -0.1357
B(  3-C , 22-H ) :  -0.1289 B(  4-C ,  7-C ) :   0.1344 B(  4-C , 14-H ) :   1.7035
B(  4-C , 21-H ) :   0.1065 B(  5-C ,  6-C ) :   0.2178 B(  5-C ,  7-C ) :  -0.2066
B(  5-C , 12-H ) :  -0.1722 B(  5-C , 14-H ) :  -0.2564 B(  5-C , 22-H ) :  -0.2845
B(  6-C ,  7-C ) :   0.7315 B(  6-C , 13-H ) :   1.1791 B(  6-C , 14-H ) :  -0.1257
B(  6-C , 15-H ) :   0.1038 B(  7-C ,  8-C ) :   0.5891 B(  7-C , 12-H ) :   1.2818
B(  7-C , 13-H ) :  -0.1606 B(  8-C ,  9-H ) :   1.0329 B(  8-C , 10-H ) :   1.0325
B(  8-C , 11-H ) :   0.9374 B(  8-C , 12-H ) :  -0.1829 B( 14-H , 22-H ) :   0.2411
B( 15-H , 17-C ) :  -0.1179 B( 16-O , 17-C ) :   1.0224 B( 17-C , 18-H ) :   0.8814
B( 17-C , 19-H ) :   0.8811 B( 17-C , 20-H ) :   0.9786 B( 21-H , 22-H ) :  -0.1043

Dispersion correction           -0.007247402
FINAL SINGLE POINT ENERGY      -463.188864901971

DIPOLE MOMENT
-------------

Method             : SCF
Type of density    : Electron Density
Multiplicity       :   2
Irrep              :   0
Energy             :  -463.1816174998604652 Eh
Relativity type    :
Basis              : AO
                                X                 Y                 Z
Electronic contribution:     -5.325610396       1.632090183      -0.000367747
Nuclear contribution   :      5.760035760      -2.141608365      -0.000061222
                        -----------------------------------------
Total Dipole Moment    :      0.434425363      -0.509518182      -0.000428969
                        -----------------------------------------
Magnitude (a.u.)       :      0.669577746
Magnitude (Debye)      :      1.701931376

Rotational constants in cm-1:             0.146577             0.015467             0.014066
Rotational constants in MHz :          4394.279814           463.685769           421.681577

                             ****ORCA TERMINATED NORMALLY****
TOTAL RUN TIME: 0 days 0 hours 13 minutes 23 seconds 678 msec
