                         Program Version 6.0.0  -   RELEASE  -
|  1> !TPSSh opt aug-cc-pVTZ d3 TightSCF SlowConv RIJCOSX defgrid2
|  2>
|  3> %pal
|  4> nprocs 8
|  5> end
|  6>
|  7> %scf
|  8> MaxIter 1500
|  9> end
| 10>
| 11> %maxcore 3500
| 12>
| 13> !CPCM
| 14> %cpcm smd true
| 15> SMDsolvent "MeCN"
| 16> surfacetype gepol_ses
| 17> rsolv 2.19
| 18> end
| 19>
| 20> * xyz 0 1
| 21> C          -0.01157783641881      1.20352898199244      0.00001890353025
| 22> C           1.37990540430455      1.22191450811359      0.00011854591947
| 23> C           2.06592899516975      0.01252414866139      0.00007181753194
| 24> C           1.39794249050432     -1.20933071970230     -0.00006681343243
| 25> C           0.01016197626576     -1.21076373795935     -0.00015906863819
| 26> C          -0.71228022521915     -0.00932565619212     -0.00012281102354
| 27> C          -2.20544538942687     -0.09111368239076     -0.00023883939795
| 28> O          -2.76237956084169     -1.16697560386648     -0.00031741607190
| 29> C          -2.99637020201978      1.19627311334720     -0.00027997588088
| 30> H          -2.76201741553525      1.80607989056811      0.88981335524989
| 31> H          -2.76168147330890      1.80627685436038     -0.89014621124470
| 32> H          -4.06823478710533      0.95066483560844     -0.00049545748797
| 33> H          -0.55378818786793     -2.14712022161097     -0.00026564570615
| 34> H           1.97664868381534     -2.13630478054762     -0.00010007290271
| 35> F           3.39392859180167      0.02324511926514      0.00015796253828
| 36> H           1.94353444532030      2.15785345098842      0.00023004641097
| 37> H          -0.54990740943796      2.15466559936447      0.00005528060562
| 38> *
| 39>
| 40>                          ****END OF INPUT****
 Total Charge           Charge          ....    0
 Multiplicity           Mult            ....    1
 Number of Electrons    NEL             ....   72
Dispersion correction           -0.020457048
FINAL SINGLE POINT ENERGY      -484.360883951824
Dispersion correction             ... done (  0.1 sec)
Dispersion correction           -0.020502020
FINAL SINGLE POINT ENERGY      -484.362184261844
Dispersion correction             ... done (  0.1 sec)
Dispersion correction           -0.020518216
FINAL SINGLE POINT ENERGY      -484.362399622595
Dispersion correction             ... done (  0.1 sec)
FINAL SINGLE POINT ENERGY      -484.362437935114
Dispersion correction             ... done (  0.1 sec)
Dispersion correction           -0.020515553
FINAL SINGLE POINT ENERGY      -484.362443912059
Dispersion correction             ... done (  0.1 sec)
Dispersion correction           -0.020513663
FINAL SINGLE POINT ENERGY      -484.362443548183
Dispersion correction             ... done (  0.1 sec)
                    ***********************HURRAY********************

CARTESIAN COORDINATES (ANGSTROEM)
---------------------------------
  C     -0.027450    1.193551   -0.000141
  C      1.361240    1.224983    0.000045
  C      2.038904    0.018418    0.000110
  C      1.397905   -1.211083    0.000433
  C      0.012588   -1.220829   -0.000041
  C     -0.715766   -0.024711   -0.000430
  C     -2.203633   -0.086846   -0.001062
  O     -2.781039   -1.168392   -0.002395
  C     -2.978779    1.204775   -0.000080
  H     -2.728336    1.802803    0.879928
  H     -2.730586    1.802951   -0.880727
  H     -4.044735    0.986450    0.001268
  H     -0.523949   -2.160518    0.000099
  H      1.974238   -2.126718    0.000879
  F      3.395039    0.038466   -0.000049
  H      1.907364    2.158744    0.000001
  H     -0.568639    2.130048    0.000437

 Multiplicity           Mult            ....    1
 Number of Electrons    NEL             ....   72
 Basis Dimension        Dim             ....  621

ORBITAL ENERGIES
----------------

  NO   OCC          E(Eh)            E(eV)
   0   2.0000     -24.622305      -670.0070
   1   2.0000     -19.041583      -518.1478
   2   2.0000     -10.209725      -277.8207
   3   2.0000     -10.201244      -277.5900
   4   2.0000     -10.134208      -275.7658
   5   2.0000     -10.131293      -275.6865
   6   2.0000     -10.129082      -275.6263
   7   2.0000     -10.128579      -275.6127
   8   2.0000     -10.128565      -275.6123
   9   2.0000     -10.107153      -275.0296
  10   2.0000      -1.209156       -32.9028
  11   2.0000      -1.014563       -27.6077
  12   2.0000      -0.854532       -23.2530
  13   2.0000      -0.759048       -20.6548
  14   2.0000      -0.746956       -20.3257
  15   2.0000      -0.710413       -19.3313
  16   2.0000      -0.618620       -16.8335
  17   2.0000      -0.611183       -16.6311
  18   2.0000      -0.541380       -14.7317
  19   2.0000      -0.530811       -14.4441
  20   2.0000      -0.480678       -13.0799
  21   2.0000      -0.462769       -12.5926
  22   2.0000      -0.454880       -12.3779
  23   2.0000      -0.439291       -11.9537
  24   2.0000      -0.423965       -11.5367
  25   2.0000      -0.420325       -11.4376
  26   2.0000      -0.411735       -11.2039
  27   2.0000      -0.391578       -10.6554
  28   2.0000      -0.379607       -10.3296
  29   2.0000      -0.363260        -9.8848
  30   2.0000      -0.360222        -9.8022
  31   2.0000      -0.337990        -9.1972
  32   2.0000      -0.333080        -9.0636
  33   2.0000      -0.262030        -7.1302
  34   2.0000      -0.248757        -6.7690
  35   2.0000      -0.238023        -6.4769
  36   0.0000      -0.074358        -2.0234
  37   0.0000      -0.036864        -1.0031
  38   0.0000      -0.003500        -0.0952
  39   0.0000       0.009379         0.2552
  40   0.0000       0.013866         0.3773

MULLIKEN ATOMIC CHARGES
-----------------------
   0 C :   -0.282860
   1 C :   -0.655929
   2 C :    0.578873
   3 C :   -0.485269
   4 C :   -0.552345
   5 C :    0.978028
   6 C :    0.836821
   7 O :   -1.005519
   8 C :   -0.210922
   9 H :    0.190800
  10 H :    0.191474
  11 H :   -0.033928
  12 H :    0.157190
  13 H :    0.313092
  14 F :   -0.526772
  15 H :    0.276871
  16 H :    0.230396
Sum of atomic charges:   -0.0000000

LOEWDIN ATOMIC CHARGES
----------------------
   0 C :    0.208606
   1 C :    0.215556
   2 C :   -0.522190
   3 C :    0.210861
   4 C :    0.196794
   5 C :   -0.131044
   6 C :   -0.539458
   7 O :    0.477991
   8 C :    0.575453
   9 H :   -0.164143
  10 H :   -0.163930
  11 H :   -0.181167
  12 H :   -0.187421
  13 H :   -0.172228
  14 F :    0.528283
  15 H :   -0.171299
  16 H :   -0.180662

  Mayer bond orders larger than 0.100000
B(  0-C ,  1-C ) :   1.1676 B(  0-C ,  2-C ) :  -0.1591 B(  0-C ,  4-C ) :  -0.1733
B(  0-C ,  5-C ) :   0.7523 B(  0-C , 16-H ) :   0.8958 B(  1-C ,  2-C ) :   1.4269
B(  1-C ,  3-C ) :   0.2513 B(  1-C , 14-F ) :   0.2154 B(  1-C , 15-H ) :   0.6247
B(  2-C ,  3-C ) :   1.4182 B(  2-C ,  4-C ) :  -0.2311 B(  2-C , 14-F ) :   0.1312
B(  3-C ,  4-C ) :   1.4686 B(  3-C ,  5-C ) :  -0.1409 B(  3-C , 13-H ) :   0.5858
B(  3-C , 14-F ) :   0.2155 B(  4-C ,  5-C ) :   0.6401 B(  4-C ,  6-C ) :   0.1180
B(  4-C , 12-H ) :   0.8526 B(  5-C ,  6-C ) :   0.5290 B(  5-C ,  7-O ) :   0.2313
B(  6-C ,  7-O ) :   0.4912 B(  6-C ,  8-C ) :   1.0576 B(  7-O , 12-H ) :   0.1624
B(  8-C ,  9-H ) :   0.9379 B(  8-C , 10-H ) :   0.9375 B(  8-C , 11-H ) :   1.0347
B( 13-H , 14-F ) :   0.1613 B( 14-F , 15-H ) :   0.1492

Dispersion correction           -0.020514191
FINAL SINGLE POINT ENERGY      -484.362444531887

DIPOLE MOMENT
-------------

Method             : SCF
Type of density    : Electron Density
Multiplicity       :   1
Irrep              :   0
Energy             :  -484.3419303411743044 Eh
Relativity type    :
Basis              : AO
                                X                 Y                 Z
Electronic contribution:      9.803248031      -2.922580682      -0.001610402
Nuclear contribution   :     -9.479903878       4.262595808       0.003881751
                        -----------------------------------------
Total Dipole Moment    :      0.323344153       1.340015126       0.002271349
                        -----------------------------------------
Magnitude (a.u.)       :      1.378476383
Magnitude (Debye)      :      3.503808514

Rotational constants in cm-1:             0.122434             0.025907             0.021467
Rotational constants in MHz :          3670.491956           776.657859           643.571790

                             ****ORCA TERMINATED NORMALLY****
TOTAL RUN TIME: 0 days 0 hours 26 minutes 45 seconds 997 msec
