                         Program Version 6.0.0  -   RELEASE  -
|  1> !B3LYP aug-cc-pVTZ d3 TightSCF SlowConv RIJCOSX defgrid2
|  2>
|  3> %pal
|  4> nprocs 4
|  5> end
|  6>
|  7> %scf
|  8> MaxIter 1500
|  9> end
| 10>
| 11> %maxcore 3000
| 12>
| 13> !CPCM
| 14> %cpcm smd true
| 15> SMDsolvent "MeCN"
| 16> surfacetype gepol_ses
| 17> rsolv 2.19
| 18> end
| 19>
| 20> * xyz 0 1
| 21> C           0.40935129847802      1.08899379791713      0.00000384882955
| 22> C          -0.95414231914494      1.32182421750193     -0.00005479572869
| 23> C          -1.86191827278499      0.25058964600211     -0.00004533890107
| 24> C          -1.36726530595103     -1.05641439163641      0.00003006046824
| 25> C           0.01094866022683     -1.27206289524966      0.00008922357585
| 26> C           0.93266713804439     -0.21888039966857      0.00007056076766
| 27> C           2.36684587509692     -0.51767487067035      0.00011575273336
| 28> C           3.38823314543713      0.35348849766597     -0.00001970079058
| 29> C           4.83064699015196     -0.03004243326080      0.00003449739731
| 30> H           5.35509581894080      0.37601378760975      0.88589322236429
| 31> H           5.35507929274862      0.37569721298307     -0.88597947614651
| 32> H           4.95899131799363     -1.12576664862183      0.00022846182052
| 33> H           3.17744825013090      1.43140986160214     -0.00019422021756
| 34> H           2.61115235789035     -1.58907062561958      0.00027211184136
| 35> H           0.38207444452641     -2.30220823516234      0.00014522513242
| 36> H          -2.04052486898389     -1.91563792247486      0.00004498692024
| 37> O          -3.17027495143014      0.57656429320608     -0.00011215197676
| 38> C          -4.11930600301544     -0.44976592613539     -0.00015689920679
| 39> H          -4.03333715560747     -1.08818765451818      0.90051262849554
| 40> H          -4.03319357489107     -1.08823722923544     -0.90077688540648
| 41> H          -5.10638730092634      0.03650069307204     -0.00024757936562
| 42> H          -1.35570411969921      2.33832899797413     -0.00010924060884
| 43> H           1.08732328276855      1.94703382671904     -0.00000059199744
| 44> *
| 45>
| 46>                          ****END OF INPUT****

CARTESIAN COORDINATES (ANGSTROEM)
---------------------------------
  C      0.409351    1.088994    0.000004
  C     -0.954142    1.321824   -0.000055
  C     -1.861918    0.250590   -0.000045
  C     -1.367265   -1.056414    0.000030
  C      0.010949   -1.272063    0.000089
  C      0.932667   -0.218880    0.000071
  C      2.366846   -0.517675    0.000116
  C      3.388233    0.353488   -0.000020
  C      4.830647   -0.030042    0.000034
  H      5.355096    0.376014    0.885893
  H      5.355079    0.375697   -0.885979
  H      4.958991   -1.125767    0.000228
  H      3.177448    1.431410   -0.000194
  H      2.611152   -1.589071    0.000272
  H      0.382074   -2.302208    0.000145
  H     -2.040525   -1.915638    0.000045
  O     -3.170275    0.576564   -0.000112
  C     -4.119306   -0.449766   -0.000157
  H     -4.033337   -1.088188    0.900513
  H     -4.033194   -1.088237   -0.900777
  H     -5.106387    0.036501   -0.000248
  H     -1.355704    2.338329   -0.000109
  H      1.087323    1.947034   -0.000001

 Total Charge           Charge          ....    0
 Multiplicity           Mult            ....    1
 Number of Electrons    NEL             ....   80
 Basis Dimension        Dim             ....  782

ORBITAL ENERGIES
----------------

  NO   OCC          E(Eh)            E(eV)
   0   2.0000     -19.161028      -521.3981
   1   2.0000     -10.235347      -278.5180
   2   2.0000     -10.214557      -277.9522
   3   2.0000     -10.179068      -276.9865
   4   2.0000     -10.176145      -276.9070
   5   2.0000     -10.175639      -276.8932
   6   2.0000     -10.172635      -276.8115
   7   2.0000     -10.172515      -276.8082
   8   2.0000     -10.170808      -276.7617
   9   2.0000     -10.168612      -276.7020
  10   2.0000     -10.161938      -276.5204
  11   2.0000      -1.076759       -29.3001
  12   2.0000      -0.857751       -23.3406
  13   2.0000      -0.795846       -21.6561
  14   2.0000      -0.755728       -20.5644
  15   2.0000      -0.744789       -20.2667
  16   2.0000      -0.703769       -19.1505
  17   2.0000      -0.661111       -17.9897
  18   2.0000      -0.610942       -16.6246
  19   2.0000      -0.589866       -16.0511
  20   2.0000      -0.544983       -14.8297
  21   2.0000      -0.531654       -14.4670
  22   2.0000      -0.485963       -13.2237
  23   2.0000      -0.481030       -13.0895
  24   2.0000      -0.467286       -12.7155
  25   2.0000      -0.442717       -12.0469
  26   2.0000      -0.423201       -11.5159
  27   2.0000      -0.417749       -11.3675
  28   2.0000      -0.403937       -10.9917
  29   2.0000      -0.401624       -10.9288
  30   2.0000      -0.395003       -10.7486
  31   2.0000      -0.381632       -10.3847
  32   2.0000      -0.361529        -9.8377
  33   2.0000      -0.350345        -9.5334
  34   2.0000      -0.339081        -9.2269
  35   2.0000      -0.334396        -9.0994
  36   2.0000      -0.322224        -8.7682
  37   2.0000      -0.273191        -7.4339
  38   2.0000      -0.258452        -7.0328
  39   2.0000      -0.204783        -5.5724
  40   0.0000      -0.030344        -0.8257
  41   0.0000      -0.014806        -0.4029
  42   0.0000      -0.002720        -0.0740
  43   0.0000       0.004593         0.1250
  44   0.0000       0.010712         0.2915

MULLIKEN ATOMIC CHARGES
-----------------------
   0 C :   -0.523755
   1 C :   -1.043721
   2 C :    1.241581
   3 C :   -0.406639
   4 C :   -0.903141
   5 C :    1.912339
   6 C :   -0.196105
   7 C :   -0.186413
   8 C :   -0.873183
   9 H :    0.186446
  10 H :    0.185837
  11 H :    0.255395
  12 H :    0.230004
  13 H :    0.039124
  14 H :   -0.025156
  15 H :    0.408071
  16 O :   -0.746726
  17 C :   -0.694171
  18 H :    0.291209
  19 H :    0.291666
  20 H :    0.230699
  21 H :    0.497176
  22 H :   -0.170535
Sum of atomic charges:    0.0000000

LOEWDIN ATOMIC CHARGES
----------------------
   0 C :    0.194904
   1 C :    0.200928
   2 C :   -0.404879
   3 C :    0.202805
   4 C :    0.192898
   5 C :   -0.156554
   6 C :    0.189237
   7 C :    0.190806
   8 C :    0.536278
   9 H :   -0.164048
  10 H :   -0.164018
  11 H :   -0.173278
  12 H :   -0.183144
  13 H :   -0.182167
  14 H :   -0.163745
  15 H :   -0.186676
  16 O :    0.591725
  17 C :    0.311161
  18 H :   -0.158764
  19 H :   -0.158794
  20 H :   -0.168448
  21 H :   -0.168659
  22 H :   -0.177568

  Mayer bond orders larger than 0.100000
B(  0-C ,  1-C ) :   0.8438 B(  0-C ,  2-C ) :  -0.3719 B(  0-C ,  3-C ) :  -0.4033
B(  0-C ,  4-C ) :  -0.7709 B(  0-C ,  5-C ) :   0.3630 B(  0-C ,  6-C ) :   0.4530
B(  0-C ,  7-C ) :   0.1237 B(  0-C , 15-H ) :   0.1058 B(  0-C , 22-H ) :   1.7858
B(  1-C ,  2-C ) :   0.7755 B(  1-C ,  3-C ) :   0.3369 B(  1-C ,  4-C ) :   0.1160
B(  1-C ,  5-C ) :   0.3055 B(  1-C , 16-O ) :   0.3338 B(  1-C , 21-H ) :   0.3222
B(  1-C , 22-H ) :  -0.1846 B(  2-C ,  3-C ) :   1.0578 B(  2-C ,  4-C ) :  -0.3576
B(  2-C , 15-H ) :   0.1716 B(  2-C , 16-O ) :   0.1786 B(  2-C , 21-H ) :   0.1424
B(  2-C , 22-H ) :  -0.1227 B(  3-C ,  4-C ) :   0.7461 B(  3-C ,  5-C ) :   0.3468
B(  3-C , 14-H ) :  -0.1901 B(  3-C , 15-H ) :   0.4104 B(  3-C , 17-C ) :  -0.1294
B(  4-C ,  7-C ) :   0.1078 B(  4-C , 14-H ) :   1.7295 B(  5-C ,  7-C ) :  -0.2309
B(  5-C , 12-H ) :  -0.1136 B(  5-C , 14-H ) :  -0.3184 B(  5-C , 22-H ) :  -0.3590
B(  6-C ,  7-C ) :   1.0387 B(  6-C , 13-H ) :   1.2165 B(  7-C ,  8-C ) :   0.6042
B(  7-C , 12-H ) :   1.2074 B(  7-C , 13-H ) :  -0.1269 B(  8-C ,  9-H ) :   1.0460
B(  8-C , 10-H ) :   1.0471 B(  8-C , 11-H ) :   0.9384 B(  8-C , 12-H ) :  -0.1468
B( 14-H , 22-H ) :   0.2637 B( 16-O , 17-C ) :   1.0392 B( 17-C , 18-H ) :   0.9020
B( 17-C , 19-H ) :   0.9013 B( 17-C , 20-H ) :   0.9945

Dispersion correction           -0.038802259
FINAL SINGLE POINT ENERGY      -463.419690569202

DIPOLE MOMENT
-------------

Method             : SCF
Type of density    : Electron Density
Multiplicity       :   1
Irrep              :   0
Energy             :  -463.3808883103679932 Eh
Relativity type    :
Basis              : AO
                                X                 Y                 Z
Electronic contribution:     -6.269616134       1.946018995      -0.000194874
Nuclear contribution   :      5.966707221      -2.452424409      -0.000108664
                        -----------------------------------------
Total Dipole Moment    :     -0.302908913      -0.506405414      -0.000303538
                        -----------------------------------------
Magnitude (a.u.)       :      0.590085031
Magnitude (Debye)      :      1.499876953

Rotational constants in cm-1:             0.150473             0.015230             0.013903
Rotational constants in MHz :          4511.057217           456.578337           416.814518

                             ****ORCA TERMINATED NORMALLY****
TOTAL RUN TIME: 0 days 0 hours 8 minutes 17 seconds 634 msec
