                         Program Version 6.0.0  -   RELEASE  -
|  1> !PBE0 opt def2-SV(p) d3 TightSCF SlowConv RIJCOSX defgrid2
|  2>
|  3> %pal
|  4> nprocs 8
|  5> end
|  6>
|  7> %scf
|  8> MaxIter 1500
|  9> end
| 10>
| 11> %maxcore 3500
| 12>
| 13> !CPCM
| 14> %cpcm smd true
| 15> SMDsolvent "MeCN"
| 16> surfacetype gepol_ses
| 17> rsolv 2.19
| 18> end
| 19>
| 20> * xyz 0 1
| 21>   C          -1.14933226451234     -1.23882509190584     -0.00046672280380
| 22>   C          -2.50857813675911     -0.94988227106401     -0.00054346756040
| 23>   C          -2.93817015440872      0.37868475331297     -0.00006408928605
| 24>   C          -2.00629101009504      1.41668452923491      0.00049673263770
| 25>   C          -0.64374499246001      1.13250357756874      0.00056381244254
| 26>   C          -0.20908515748665     -0.19753416758703      0.00007645085547
| 27>   C           1.21837162790625     -0.59720306751016      0.00007667382631
| 28>   O           1.62341721296480     -1.71314820484524     -0.00012734829677
| 29>   Cl          2.38206247173385      0.76415186429790      0.00056602291059
| 30>   H           0.09169908378046      1.93929798920226      0.00098639048783
| 31>   H          -2.34320651232058      2.45698180479248      0.00087795608335
| 32>   H          -4.00834754942676      0.60618222514384     -0.00012604204670
| 33>   H          -3.23886079813446     -1.76401666244183     -0.00098417146236
| 34>   H          -0.79061102078168     -2.27094327819897     -0.00083749778771
| 35> *
| 36>
| 37>                          ****END OF INPUT****
 Total Charge           Charge          ....    0
 Multiplicity           Mult            ....    1
 Number of Electrons    NEL             ....   72
Dispersion correction           -0.014182083
FINAL SINGLE POINT ENERGY      -804.260513888115
Dispersion correction             ... done (  0.1 sec)
Dispersion correction           -0.014178460
FINAL SINGLE POINT ENERGY      -804.260582922659
Dispersion correction             ... done (  0.1 sec)
Dispersion correction           -0.014176720
FINAL SINGLE POINT ENERGY      -804.260595258409
Dispersion correction             ... done (  0.1 sec)
Dispersion correction           -0.014175419
FINAL SINGLE POINT ENERGY      -804.260553248430
Dispersion correction             ... done (  0.1 sec)
Dispersion correction           -0.014176647
FINAL SINGLE POINT ENERGY      -804.260613892469
Dispersion correction             ... done (  0.1 sec)
                    ***********************HURRAY********************

CARTESIAN COORDINATES (ANGSTROEM)
---------------------------------
  C     -1.150029   -1.242270   -0.000687
  C     -2.508936   -0.951273   -0.000688
  C     -2.936956    0.378785    0.000053
  C     -2.004220    1.417304    0.000425
  C     -0.641811    1.132571    0.000179
  C     -0.208159   -0.199754   -0.000177
  C      1.213617   -0.596993    0.000511
  O      1.633266   -1.709755    0.000982
  Cl     2.384011    0.766817    0.000411
  H      0.087228    1.945268    0.000196
  H     -2.340012    2.457877    0.001538
  H     -4.006925    0.606896    0.000480
  H     -3.240035   -1.764576   -0.001302
  H     -0.801715   -2.277964   -0.001427

 Multiplicity           Mult            ....    1
 Number of Electrons    NEL             ....   72
 Basis Dimension        Dim             ....  140

ORBITAL ENERGIES
----------------

  NO   OCC          E(Eh)            E(eV)
   0   2.0000    -101.684261     -2766.9694
   1   2.0000     -19.239157      -523.5241
   2   2.0000     -10.383322      -282.5446
   3   2.0000     -10.268958      -279.4326
   4   2.0000     -10.255972      -279.0792
   5   2.0000     -10.255165      -279.0572
   6   2.0000     -10.252417      -278.9824
   7   2.0000     -10.247380      -278.8454
   8   2.0000     -10.247347      -278.8445
   9   2.0000      -9.536435      -259.4996
  10   2.0000      -7.276822      -198.0124
  11   2.0000      -7.268985      -197.7991
  12   2.0000      -7.267848      -197.7682
  13   2.0000      -1.111809       -30.2539
  14   2.0000      -0.898760       -24.4565
  15   2.0000      -0.869862       -23.6702
  16   2.0000      -0.791817       -21.5464
  17   2.0000      -0.776994       -21.1431
  18   2.0000      -0.668226       -18.1833
  19   2.0000      -0.633638       -17.2422
  20   2.0000      -0.583273       -15.8717
  21   2.0000      -0.542899       -14.7730
  22   2.0000      -0.505567       -13.7572
  23   2.0000      -0.491358       -13.3705
  24   2.0000      -0.469567       -12.7776
  25   2.0000      -0.463876       -12.6227
  26   2.0000      -0.461899       -12.5689
  27   2.0000      -0.447536       -12.1781
  28   2.0000      -0.396448       -10.7879
  29   2.0000      -0.383393       -10.4326
  30   2.0000      -0.367929       -10.0119
  31   2.0000      -0.338820        -9.2198
  32   2.0000      -0.337834        -9.1929
  33   2.0000      -0.310475        -8.4485
  34   2.0000      -0.287664        -7.8277
  35   2.0000      -0.283135        -7.7045
  36   0.0000      -0.072957        -1.9853
  37   0.0000      -0.016573        -0.4510
  38   0.0000       0.034604         0.9416
  39   0.0000       0.049606         1.3498
  40   0.0000       0.086173         2.3449

MULLIKEN ATOMIC CHARGES
-----------------------
   0 C :   -0.119782
   1 C :   -0.112429
   2 C :   -0.086121
   3 C :   -0.111056
   4 C :   -0.106479
   5 C :   -0.012126
   6 C :    0.186051
   7 O :   -0.166132
   8 Cl:   -0.156297
   9 H :    0.131908
  10 H :    0.137528
  11 H :    0.141892
  12 H :    0.139193
  13 H :    0.133849
Sum of atomic charges:    0.0000000

LOEWDIN ATOMIC CHARGES
----------------------
   0 C :   -0.088207
   1 C :   -0.127518
   2 C :   -0.098263
   3 C :   -0.127777
   4 C :   -0.102744
   5 C :   -0.116561
   6 C :   -0.003259
   7 O :   -0.126482
   8 Cl:    0.046376
   9 H :    0.142128
  10 H :    0.150199
  11 H :    0.150845
  12 H :    0.150511
  13 H :    0.150751

  Mayer bond orders larger than 0.100000
B(  0-C ,  1-C ) :   1.4012 B(  0-C ,  5-C ) :   1.3452 B(  0-C , 13-H ) :   0.9601
B(  1-C ,  2-C ) :   1.3626 B(  1-C , 12-H ) :   0.9626 B(  2-C ,  3-C ) :   1.3769
B(  2-C , 11-H ) :   0.9604 B(  3-C ,  4-C ) :   1.4047 B(  3-C , 10-H ) :   0.9613
B(  4-C ,  5-C ) :   1.3481 B(  4-C ,  9-H ) :   0.9415 B(  5-C ,  6-C ) :   0.9653
B(  6-C ,  7-O ) :   2.1599 B(  6-C ,  8-Cl) :   1.0013 B(  7-O ,  8-Cl) :   0.1137

Dispersion correction           -0.014176533
FINAL SINGLE POINT ENERGY      -804.260614713003

DIPOLE MOMENT
-------------

Method             : SCF
Type of density    : Electron Density
Multiplicity       :   1
Irrep              :   0
Energy             :  -804.2464381799738931 Eh
Relativity type    :
Basis              : AO
                                X                 Y                 Z
Electronic contribution:     11.083455377       0.746832297       0.001167644
Nuclear contribution   :    -12.872295586      -0.148419226      -0.001620159
                        -----------------------------------------
Total Dipole Moment    :     -1.788840210       0.598413071      -0.000452515
                        -----------------------------------------
Magnitude (a.u.)       :      1.886278798
Magnitude (Debye)      :      4.794539676

Rotational constants in cm-1:             0.104266             0.031011             0.023902
Rotational constants in MHz :          3125.816801           929.677409           716.559147

                             ****ORCA TERMINATED NORMALLY****
TOTAL RUN TIME: 0 days 0 hours 6 minutes 29 seconds 758 msec
