                         Program Version 6.0.0  -   RELEASE  -
|  1> !B3LYP aug-cc-pVTZ d3 TightSCF SlowConv RIJCOSX defgrid2
|  2>
|  3> %pal
|  4> nprocs 4
|  5> end
|  6>
|  7> %scf
|  8> MaxIter 1500
|  9> end
| 10>
| 11> %maxcore 3000
| 12>
| 13> !CPCM
| 14> %cpcm smd true
| 15> SMDsolvent "MeCN"
| 16> surfacetype gepol_ses
| 17> rsolv 2.19
| 18> end
| 19>
| 20> * xyz 0 1
| 21> C          -1.20884186796781     -0.02278058914418      0.00003742233159
| 22> C          -1.20709913160620      1.38045218788773      0.00016703364523
| 23> C           0.00003556987027      2.07238258705511      0.00002257197541
| 24> C           1.20714414585697      1.38040506278913     -0.00023783478174
| 25> C           1.20883517896309     -0.02282737272555     -0.00031075934043
| 26> C          -0.00001674938231     -0.72722788932514     -0.00021243594479
| 27> H          -0.00003875372447     -1.81890955720448     -0.00030359455707
| 28> C           2.45039282749013     -0.73822162648839     -0.00031862016213
| 29> N           3.45665781045797     -1.31294485312421      0.00119491286029
| 30> H           2.15765649045058      1.91893621365633     -0.00034701835738
| 31> H           0.00005970442079      3.16546819660540      0.00011390445176
| 32> H          -2.15759482922730      1.91901494079977      0.00036663554396
| 33> C          -2.45042247590246     -0.73813543850926      0.00010406543100
| 34> N          -3.45670371969924     -1.31283236227226     -0.00021618309569
| 35> *
| 36>
| 37>                          ****END OF INPUT****

CARTESIAN COORDINATES (ANGSTROEM)
---------------------------------
  C     -1.208842   -0.022781    0.000037
  C     -1.207099    1.380452    0.000167
  C      0.000036    2.072383    0.000023
  C      1.207144    1.380405   -0.000238
  C      1.208835   -0.022827   -0.000311
  C     -0.000017   -0.727228   -0.000212
  H     -0.000039   -1.818910   -0.000304
  C      2.450393   -0.738222   -0.000319
  N      3.456658   -1.312945    0.001195
  H      2.157656    1.918936   -0.000347
  H      0.000060    3.165468    0.000114
  H     -2.157595    1.919015    0.000367
  C     -2.450422   -0.738135    0.000104
  N     -3.456704   -1.312832   -0.000216

 Total Charge           Charge          ....    0
 Multiplicity           Mult            ....    1
 Number of Electrons    NEL             ....   66
 Basis Dimension        Dim             ....  552

ORBITAL ENERGIES
----------------

  NO   OCC          E(Eh)            E(eV)
   0   2.0000     -14.333392      -390.0314
   1   2.0000     -14.333390      -390.0314
   2   2.0000     -10.237194      -278.5682
   3   2.0000     -10.237172      -278.5676
   4   2.0000     -10.234258      -278.4883
   5   2.0000     -10.234251      -278.4881
   6   2.0000     -10.221061      -278.1292
   7   2.0000     -10.213422      -277.9213
   8   2.0000     -10.213392      -277.9205
   9   2.0000     -10.201622      -277.6002
  10   2.0000      -0.930423       -25.3181
  11   2.0000      -0.926163       -25.2022
  12   2.0000      -0.892251       -24.2794
  13   2.0000      -0.806215       -21.9382
  14   2.0000      -0.786653       -21.4059
  15   2.0000      -0.668706       -18.1964
  16   2.0000      -0.664532       -18.0828
  17   2.0000      -0.596200       -16.2234
  18   2.0000      -0.511051       -13.9064
  19   2.0000      -0.508891       -13.8476
  20   2.0000      -0.496002       -13.4969
  21   2.0000      -0.451554       -12.2874
  22   2.0000      -0.427844       -11.6422
  23   2.0000      -0.401991       -10.9387
  24   2.0000      -0.397527       -10.8173
  25   2.0000      -0.390564       -10.6278
  26   2.0000      -0.385834       -10.4991
  27   2.0000      -0.383298       -10.4301
  28   2.0000      -0.354483        -9.6460
  29   2.0000      -0.354004        -9.6329
  30   2.0000      -0.353683        -9.6242
  31   2.0000      -0.283778        -7.7220
  32   2.0000      -0.280395        -7.6299
  33   0.0000      -0.075120        -2.0441
  34   0.0000      -0.059797        -1.6272
  35   0.0000      -0.006613        -0.1799
  36   0.0000       0.003669         0.0998
  37   0.0000       0.010962         0.2983

MULLIKEN ATOMIC CHARGES
-----------------------
   0 C :    1.401661
   1 C :   -0.763310
   2 C :   -0.494426
   3 C :   -0.763070
   4 C :    1.400480
   5 C :   -0.946278
   6 H :    0.015779
   7 C :    0.448579
   8 N :   -0.798121
   9 H :    0.123560
  10 H :    0.601026
  11 H :    0.124124
  12 C :    0.448516
  13 N :   -0.798520
Sum of atomic charges:    0.0000000

LOEWDIN ATOMIC CHARGES
----------------------
   0 C :   -0.181073
   1 C :    0.227476
   2 C :    0.239104
   3 C :    0.227477
   4 C :   -0.181077
   5 C :    0.219201
   6 H :   -0.139501
   7 C :   -0.234528
   8 N :    0.247227
   9 H :   -0.143399
  10 H :   -0.150206
  11 H :   -0.143398
  12 C :   -0.234526
  13 N :    0.247224

  Mayer bond orders larger than 0.100000
B(  0-C ,  1-C ) :   0.3236 B(  0-C ,  2-C ) :   0.1214 B(  0-C ,  4-C ) :   0.2699
B(  0-C ,  5-C ) :   0.4746 B(  0-C ,  6-H ) :  -0.1788 B(  0-C , 11-H ) :  -0.1765
B(  0-C , 12-C ) :   0.5781 B(  1-C ,  2-C ) :   1.1894 B(  1-C ,  3-C ) :  -0.1995
B(  1-C ,  5-C ) :  -0.2045 B(  1-C , 11-H ) :   1.2592 B(  1-C , 12-C ) :   0.3670
B(  1-C , 13-N ) :   0.1026 B(  2-C ,  3-C ) :   1.1918 B(  2-C ,  4-C ) :   0.1223
B(  2-C , 10-H ) :   0.4631 B(  3-C ,  4-C ) :   0.3215 B(  3-C ,  5-C ) :  -0.2043
B(  3-C ,  7-C ) :   0.3670 B(  3-C ,  8-N ) :   0.1012 B(  3-C ,  9-H ) :   1.2596
B(  4-C ,  5-C ) :   0.4759 B(  4-C ,  6-H ) :  -0.1787 B(  4-C ,  7-C ) :   0.5790
B(  4-C ,  9-H ) :  -0.1769 B(  5-C ,  6-H ) :   1.3719 B(  5-C ,  7-C ) :   0.1534
B(  5-C , 12-C ) :   0.1552 B(  7-C ,  8-N ) :   1.7241 B(  7-C , 12-C ) :   0.1987
B( 12-C , 13-N ) :   1.7235

Dispersion correction           -0.028031593
FINAL SINGLE POINT ENERGY      -416.681382376286

DIPOLE MOMENT
-------------

Method             : SCF
Type of density    : Electron Density
Multiplicity       :   1
Irrep              :   0
Energy             :  -416.6533507834906800 Eh
Relativity type    :
Basis              : AO
                                X                 Y                 Z
Electronic contribution:     -0.000041582      -2.449139487      -0.000678442
Nuclear contribution   :      0.000083993       4.864690658      -0.000287721
                        -----------------------------------------
Total Dipole Moment    :      0.000042411       2.415551172      -0.000966163
                        -----------------------------------------
Magnitude (a.u.)       :      2.415551365
Magnitude (Debye)      :      6.139843629

Rotational constants in cm-1:             0.090653             0.030186             0.022645
Rotational constants in MHz :          2717.694225           904.950181           678.890264

                             ****ORCA TERMINATED NORMALLY****
TOTAL RUN TIME: 0 days 0 hours 3 minutes 16 seconds 38 msec
