                         Program Version 6.0.0  -   RELEASE  -
|  1> !TPSSh freq aug-cc-pVTZ d3 TightSCF SlowConv RIJCOSX defgrid2
|  2>
|  3> %pal
|  4> nprocs 12
|  5> end
|  6>
|  7> %scf
|  8> MaxIter 1500
|  9> end
| 10>
| 11> %maxcore 5000
| 12>
| 13> !CPCM
| 14> %cpcm smd true
| 15> SMDsolvent "MeCN"
| 16> surfacetype gepol_ses
| 17> rsolv 2.19
| 18> end
| 19>
| 20> * xyz 0 1
| 21> C          -1.15659827597814     -1.24494658505760     -0.00083390281054
| 22> C          -2.50996536455794     -0.94959866013985     -0.00038036086651
| 23> C          -2.93303120432306      0.37913374422543      0.00030648352956
| 24> C          -2.00033863044097      1.41328847118880      0.00007255737780
| 25> C          -0.64228154491261      1.12693748483343     -0.00053270255533
| 26> C          -0.21490270844357     -0.20416752048298     -0.00059193201990
| 27> C           1.19774480826908     -0.60166650533854      0.00032734228625
| 28> O           1.64232851366072     -1.70769469971822     -0.00055304263856
| 29> Cl          2.39036471157629      0.79468953606911      0.00325608366126
| 30> H           0.08079204093345      1.92974624205886     -0.00091731222115
| 31> H          -2.33090089034195      2.44394224038679      0.00112484969332
| 32> H          -3.99172649713205      0.60720198436838      0.00113256960916
| 33> H          -3.23621911325437     -1.75229838107642     -0.00047579233029
| 34> H          -0.81594304505484     -2.27163335131716     -0.00144014071506
| 35> *
| 36>
| 37>                          ****END OF INPUT****

CARTESIAN COORDINATES (ANGSTROEM)
---------------------------------
  C     -1.156598   -1.244947   -0.000834
  C     -2.509965   -0.949599   -0.000380
  C     -2.933031    0.379134    0.000306
  C     -2.000339    1.413288    0.000073
  C     -0.642282    1.126937   -0.000533
  C     -0.214903   -0.204168   -0.000592
  C      1.197745   -0.601667    0.000327
  O      1.642329   -1.707695   -0.000553
  Cl     2.390365    0.794690    0.003256
  H      0.080792    1.929746   -0.000917
  H     -2.330901    2.443942    0.001125
  H     -3.991726    0.607202    0.001133
  H     -3.236219   -1.752298   -0.000476
  H     -0.815943   -2.271633   -0.001440

 Total Charge           Charge          ....    0
 Multiplicity           Mult            ....    1
 Number of Electrons    NEL             ....   72
 Basis Dimension        Dim             ....  533

ORBITAL ENERGIES
----------------

  NO   OCC          E(Eh)            E(eV)
   0   2.0000    -101.406892     -2759.4218
   1   2.0000     -19.085220      -519.3352
   2   2.0000     -10.263535      -279.2850
   3   2.0000     -10.150781      -276.2168
   4   2.0000     -10.136184      -275.8196
   5   2.0000     -10.136085      -275.8169
   6   2.0000     -10.132891      -275.7300
   7   2.0000     -10.127575      -275.5853
   8   2.0000     -10.127385      -275.5801
   9   2.0000      -9.385994      -255.4059
  10   2.0000      -7.134104      -194.1289
  11   2.0000      -7.126807      -193.9303
  12   2.0000      -7.125657      -193.8990
  13   2.0000      -1.069722       -29.1086
  14   2.0000      -0.858867       -23.3710
  15   2.0000      -0.819316       -22.2947
  16   2.0000      -0.756543       -20.5866
  17   2.0000      -0.743432       -20.2298
  18   2.0000      -0.636850       -17.3296
  19   2.0000      -0.602244       -16.3879
  20   2.0000      -0.552218       -15.0266
  21   2.0000      -0.509253       -13.8575
  22   2.0000      -0.470264       -12.7965
  23   2.0000      -0.460959       -12.5433
  24   2.0000      -0.435024       -11.8376
  25   2.0000      -0.432161       -11.7597
  26   2.0000      -0.426406       -11.6031
  27   2.0000      -0.417214       -11.3530
  28   2.0000      -0.367577       -10.0023
  29   2.0000      -0.353225        -9.6117
  30   2.0000      -0.339070        -9.2266
  31   2.0000      -0.313359        -8.5269
  32   2.0000      -0.311111        -8.4658
  33   2.0000      -0.283518        -7.7149
  34   2.0000      -0.266659        -7.2562
  35   2.0000      -0.261315        -7.1107
  36   0.0000      -0.094541        -2.5726
  37   0.0000      -0.036087        -0.9820
  38   0.0000      -0.012205        -0.3321
  39   0.0000       0.002391         0.0651
  40   0.0000       0.007371         0.2006

MULLIKEN ATOMIC CHARGES
-----------------------
   0 C :   -0.638709
   1 C :   -0.273985
   2 C :   -0.219500
   3 C :   -0.483477
   4 C :   -0.668883
   5 C :    0.992418
   6 C :    0.741916
   7 O :   -0.723069
   8 Cl:   -0.372795
   9 H :    0.388023
  10 H :    0.362343
  11 H :    0.433374
  12 H :    0.393171
  13 H :    0.069174
Sum of atomic charges:    0.0000000

LOEWDIN ATOMIC CHARGES
----------------------
   0 C :    0.198267
   1 C :    0.223052
   2 C :    0.221130
   3 C :    0.220626
   4 C :    0.164138
   5 C :   -0.247231
   6 C :   -1.085483
   7 O :    0.417975
   8 Cl:    0.821951
   9 H :   -0.244439
  10 H :   -0.170736
  11 H :   -0.167037
  12 H :   -0.170381
  13 H :   -0.181831

  Mayer bond orders larger than 0.100000
B(  0-C ,  1-C ) :   1.3707 B(  0-C ,  5-C ) :   0.7133 B(  0-C ,  6-C ) :   0.1101
B(  0-C , 13-H ) :   0.8875 B(  1-C ,  2-C ) :   1.3559 B(  1-C ,  5-C ) :  -0.1086
B(  1-C , 12-H ) :   0.6747 B(  2-C ,  3-C ) :   1.3840 B(  2-C ,  5-C ) :  -0.1188
B(  2-C , 11-H ) :   0.5772 B(  3-C ,  4-C ) :   1.4006 B(  3-C ,  5-C ) :  -0.1699
B(  3-C , 10-H ) :   0.6903 B(  4-C ,  5-C ) :   0.6551 B(  4-C ,  6-C ) :   0.1108
B(  4-C ,  9-H ) :   0.8521 B(  5-C ,  6-C ) :   0.7015 B(  5-C ,  7-O ) :   0.3188
B(  5-C ,  8-Cl) :   0.1400 B(  6-C ,  7-O ) :   0.8361 B(  6-C ,  8-Cl) :   0.6454
B(  7-O ,  8-Cl) :   0.1050 B(  7-O , 13-H ) :   0.1762 B(  8-Cl,  9-H ) :  -0.1830

Dispersion correction           -0.019000509
FINAL SINGLE POINT ENERGY      -805.397743512524

DIPOLE MOMENT
-------------

Method             : SCF
Type of density    : Electron Density
Multiplicity       :   1
Irrep              :   0
Energy             :  -805.3787430033886494 Eh
Relativity type    :
Basis              : AO
                                X                 Y                 Z
Electronic contribution:     10.703606551       0.759784541       0.006387758
Nuclear contribution   :    -12.876154474      -0.214297508      -0.006986110
                        -----------------------------------------
Total Dipole Moment    :     -2.172547923       0.545487033      -0.000598352
                        -----------------------------------------
Magnitude (a.u.)       :      2.239982352
Magnitude (Debye)      :      5.693582663

VIBRATIONAL FREQUENCIES
-----------------------

Scaling factor for frequencies =  1.000000000  (already applied!)

     0:       0.00 cm**-1
     1:       0.00 cm**-1
     2:       0.00 cm**-1
     3:       0.00 cm**-1
     4:       0.00 cm**-1
     5:       0.00 cm**-1
     6:      25.06 cm**-1
     7:     144.08 cm**-1
     8:     183.06 cm**-1
     9:     305.45 cm**-1
    10:     397.70 cm**-1
    11:     400.84 cm**-1
    12:     419.50 cm**-1
    13:     492.85 cm**-1
    14:     614.00 cm**-1
    15:     654.58 cm**-1
    16:     654.66 cm**-1
    17:     683.25 cm**-1
    18:     786.96 cm**-1
    19:     851.24 cm**-1
    20:     855.33 cm**-1
    21:     965.33 cm**-1
    22:    1004.03 cm**-1
    23:    1012.16 cm**-1
    24:    1022.65 cm**-1
    25:    1041.66 cm**-1
    26:    1103.17 cm**-1
    27:    1165.73 cm**-1
    28:    1176.98 cm**-1
    29:    1213.35 cm**-1
    30:    1334.17 cm**-1
    31:    1360.48 cm**-1
    32:    1471.77 cm**-1
    33:    1510.73 cm**-1
    34:    1611.30 cm**-1
    35:    1625.82 cm**-1
    36:    1788.98 cm**-1
    37:    3175.58 cm**-1
    38:    3186.51 cm**-1
    39:    3194.21 cm**-1
    40:    3203.27 cm**-1
    41:    3214.11 cm**-1

IR SPECTRUM
-----------

 Mode   freq       eps      Int      T**2         TX        TY        TZ
       cm**-1   L/(mol*cm) km/mol    a.u.
----------------------------------------------------------------------------
  6:     25.06   0.000055    0.28  0.000685  ( 0.000186 -0.000040  0.026171)
  7:    144.08   0.000055    0.28  0.000119  (-0.000059  0.000007 -0.010896)
  8:    183.06   0.000331    1.67  0.000564  (-0.019712 -0.013243 -0.000083)
  9:    305.45   0.008048   40.67  0.008222  (-0.071418 -0.055867 -0.000230)
 10:    397.70   0.006420   32.44  0.005038  ( 0.043070  0.056414  0.000117)
 11:    400.84   0.000005    0.02  0.000004  (-0.000928 -0.001613 -0.000615)
 12:    419.50   0.000114    0.58  0.000085  (-0.000298 -0.000005  0.009201)
 13:    492.85   0.002723   13.76  0.001724  ( 0.027945  0.030713  0.000060)
 14:    614.00   0.001858    9.39  0.000944  ( 0.026619  0.015354  0.000142)
 15:    654.58   0.047076  237.90  0.022443  ( 0.133627  0.066165  0.014456)
 16:    654.66   0.010225   51.67  0.004874  (-0.031396 -0.015653  0.060359)
 17:    683.25   0.016329   82.52  0.007458  ( 0.000047 -0.000050 -0.086361)
 18:    786.96   0.008945   45.21  0.003547  ( 0.000071 -0.000242 -0.059558)
 19:    851.24   0.073617  372.03  0.026988  (-0.142888 -0.081061 -0.000197)
 20:    855.33   0.000044    0.22  0.000016  ( 0.002772  0.001592  0.002446)
 21:    965.33   0.000461    2.33  0.000149  ( 0.000013 -0.000143 -0.012206)
 22:   1004.03   0.000004    0.02  0.000001  (-0.000035  0.000466  0.001008)
 23:   1012.16   0.000668    3.38  0.000206  (-0.014298  0.001254  0.000033)
 24:   1022.65   0.000012    0.06  0.000004  (-0.000128 -0.000121 -0.001904)
 25:   1041.66   0.001014    5.12  0.000304  (-0.014312  0.009947  0.000098)
 26:   1103.17   0.002225   11.24  0.000629  ( 0.007095 -0.024061  0.000036)
 27:   1165.73   0.000185    0.93  0.000050  ( 0.002018  0.006740  0.000016)
 28:   1176.98   0.029284  147.99  0.007764  ( 0.087785  0.007616  0.000046)
 29:   1213.35   0.048813  246.68  0.012554  (-0.109590 -0.023330 -0.000068)
 30:   1334.17   0.000920    4.65  0.000215  ( 0.011709  0.008842 -0.000032)
 31:   1360.48   0.003765   19.03  0.000864  ( 0.000408  0.029384 -0.000021)
 32:   1471.77   0.007712   38.97  0.001635  (-0.025058 -0.031737 -0.000007)
 33:   1510.73   0.000093    0.47  0.000019  (-0.001157 -0.004225 -0.000022)
 34:   1611.30   0.004879   24.66  0.000945  (-0.028208  0.012213  0.000004)
 35:   1625.82   0.016906   85.44  0.003245  ( 0.052703 -0.021619 -0.000034)
 36:   1788.98   0.130773  660.87  0.022811  ( 0.063363 -0.137101 -0.000139)
 37:   3175.58   0.000259    1.31  0.000025  ( 0.004960 -0.000940 -0.000046)
 38:   3186.51   0.002057   10.39  0.000201  ( 0.004349  0.013509 -0.000056)
 39:   3194.21   0.003208   16.21  0.000313  (-0.014675  0.009903 -0.000102)
 40:   3203.27   0.002633   13.30  0.000256  ( 0.013079  0.009242 -0.000049)
 41:   3214.11   0.000480    2.43  0.000047  (-0.003786  0.005681 -0.000007)

--------------------------
THERMOCHEMISTRY AT 298.15K
--------------------------

Temperature         ...   298.15 K
Pressure            ...     1.00 atm
Total Mass          ...   140.57 AMU
Quasi RRHO          ...     True
Cut-Off Frequency   ...     1.00 cm^-1

Throughout the following assumptions are being made:
  (1) The electronic state is orbitally nondegenerate
  (2) There are no thermally accessible electronically excited states
  (3) Hindered rotations indicated by low frequency modes are not
      treated as such but are treated as vibrations and this may
      cause some error
  (4) All equations used are the standard statistical mechanics
      equations for an ideal gas
  (5) All vibrations are strictly harmonic

freq.      25.06  E(vib)   ...       0.56
freq.     144.08  E(vib)   ...       0.41
freq.     183.06  E(vib)   ...       0.37
freq.     305.45  E(vib)   ...       0.26
freq.     397.70  E(vib)   ...       0.20
freq.     400.84  E(vib)   ...       0.19
freq.     419.50  E(vib)   ...       0.18
freq.     492.85  E(vib)   ...       0.14
freq.     614.00  E(vib)   ...       0.10
freq.     654.58  E(vib)   ...       0.08
freq.     654.66  E(vib)   ...       0.08
freq.     683.25  E(vib)   ...       0.08
freq.     786.96  E(vib)   ...       0.05
freq.     851.24  E(vib)   ...       0.04
freq.     855.33  E(vib)   ...       0.04
freq.     965.33  E(vib)   ...       0.03
freq.    1004.03  E(vib)   ...       0.02
freq.    1012.16  E(vib)   ...       0.02
freq.    1022.65  E(vib)   ...       0.02
freq.    1041.66  E(vib)   ...       0.02
freq.    1103.17  E(vib)   ...       0.02
freq.    1165.73  E(vib)   ...       0.01
freq.    1176.98  E(vib)   ...       0.01
freq.    1213.35  E(vib)   ...       0.01
freq.    1334.17  E(vib)   ...       0.01
freq.    1360.48  E(vib)   ...       0.01
freq.    1471.77  E(vib)   ...       0.00
freq.    1510.73  E(vib)   ...       0.00
freq.    1611.30  E(vib)   ...       0.00
freq.    1625.82  E(vib)   ...       0.00
freq.    1788.98  E(vib)   ...       0.00
freq.    3175.58  E(vib)   ...       0.00
freq.    3186.51  E(vib)   ...       0.00
freq.    3194.21  E(vib)   ...       0.00
freq.    3203.27  E(vib)   ...       0.00
freq.    3214.11  E(vib)   ...       0.00

------------
INNER ENERGY
------------

The inner energy is: U= E(el) + E(ZPE) + E(vib) + E(rot) + E(trans)
    E(el)   - is the total energy from the electronic structure calculation
              = E(kin-el) + E(nuc-el) + E(el-el) + E(nuc-nuc)
    E(ZPE)  - the the zero temperature vibrational energy from the frequency calculation
    E(vib)  - the the finite temperature correction to E(ZPE) due to population
              of excited vibrational states
    E(rot)  - is the rotational thermal energy
    E(trans)- is the translational thermal energy

Summary of contributions to the inner energy U:
Electronic energy                ...   -805.39774351 Eh
Zero point energy                ...      0.09989896 Eh      62.69 kcal/mol
Thermal vibrational correction   ...      0.00472417 Eh       2.96 kcal/mol
Thermal rotational correction    ...      0.00141627 Eh       0.89 kcal/mol
Thermal translational correction ...      0.00141627 Eh       0.89 kcal/mol
-----------------------------------------------------------------------
Total thermal energy                   -805.29028784 Eh

Summary of corrections to the electronic energy:
(perhaps to be used in another calculation)
Total thermal correction                  0.00755672 Eh       4.74 kcal/mol
Non-thermal (ZPE) correction              0.09989896 Eh      62.69 kcal/mol
-----------------------------------------------------------------------
Total correction                          0.10745567 Eh      67.43 kcal/mol

--------
ENTHALPY
--------

The enthalpy is H = U + kB*T
                kB is Boltzmann's constant
Total thermal energy              ...   -805.29028784 Eh
Thermal Enthalpy correction       ...      0.00094421 Eh       0.59 kcal/mol
-----------------------------------------------------------------------
Total Enthalpy                    ...   -805.28934363 Eh

Note: Only C1 symmetry has been detected, increase convergence thresholds
      if your molecule has a higher symmetry. Symmetry factor of 1.0 is
      used for the rotational entropy correction.

Note: Rotational entropy computed according to Herzberg
Infrared and Raman Spectra, Chapter V,1, Van Nostrand Reinhold, 1945
Point Group:  C1, Symmetry Number:   1
Rotational constants in cm-1:     0.103604     0.030966     0.023841

Vibrational entropy computed according to the QRRHO of S. Grimme
Chem.Eur.J. 2012 18 9955 using a reference frequency of 100.0 cm-1

-------
ENTROPY
-------

The entropy contributions are T*S = T*(S(el)+S(vib)+S(rot)+S(trans))
     S(el)   - electronic entropy
     S(vib)  - vibrational entropy
     S(rot)  - rotational entropy
     S(trans)- translational entropy
The entropies will be listed as multiplied by the temperature to get
units of energy

Electronic entropy                ...      0.00000000 Eh      0.00 kcal/mol
Vibrational entropy               ...      0.00803057 Eh      5.04 kcal/mol
Rotational entropy                ...      0.01398547 Eh      8.78 kcal/mol
Translational entropy             ...      0.01935352 Eh     12.14 kcal/mol
-----------------------------------------------------------------------
Final entropy term                ...      0.04136957 Eh     25.96 kcal/mol

In case the symmetry of your molecule has not been determined correctly
or in case you have a reason to use a different symmetry number we print
out the resulting rotational entropy values for sn=1,12:

 non-linear molecules -----------------------------------
|  sn= 1 | S(rot)=       0.01398547 Eh      8.78 kcal/mol|
|  sn= 2 | S(rot)=       0.01333101 Eh      8.37 kcal/mol|
|  sn= 3 | S(rot)=       0.01294818 Eh      8.13 kcal/mol|
|  sn= 4 | S(rot)=       0.01267656 Eh      7.95 kcal/mol|
|  sn= 5 | S(rot)=       0.01246587 Eh      7.82 kcal/mol|
|  sn= 6 | S(rot)=       0.01229373 Eh      7.71 kcal/mol|
|  sn= 7 | S(rot)=       0.01214818 Eh      7.62 kcal/mol|
|  sn= 8 | S(rot)=       0.01202210 Eh      7.54 kcal/mol|
|  sn= 9 | S(rot)=       0.01191089 Eh      7.47 kcal/mol|
|  sn=10 | S(rot)=       0.01181141 Eh      7.41 kcal/mol|
|  sn=11 | S(rot)=       0.01172142 Eh      7.36 kcal/mol|
|  sn=12 | S(rot)=       0.01163927 Eh      7.30 kcal/mol|
 linear molecules ---------------------------------------
|  Dinfh | S(rot)=       0.00885361 Eh      5.56 kcal/mol|
|  Cinfv | S(rot)=       0.00950807 Eh      5.97 kcal/mol|
 --------------------------------------------------------

-------------------
GIBBS FREE ENERGY
-------------------

The Gibbs free energy is G = H - T*S

                             ****ORCA TERMINATED NORMALLY****
TOTAL RUN TIME: 0 days 0 hours 26 minutes 2 seconds 654 msec
