                         Program Version 6.0.0  -   RELEASE  -
|  1> !PBE0 def2-SV(p) Opt Freq d3 TightSCF SlowConv RIJCOSX defgrid2
|  2>
|  3> %pal
|  4> nprocs 4
|  5> end
|  6>
|  7> %scf
|  8> MaxIter 1500
|  9> end
| 10>
| 11> %maxcore 3000
| 12>
| 13>
| 14>
| 15> * xyz 1 1
| 16> S    -0.0001352    1.3771040   -0.0005192
| 17> C    -1.3649154    0.2864725    0.0020417
| 18> C    -2.6257550    0.8350422    0.0070577
| 19> C    -3.7794751    0.0243595   -0.0088921
| 20> C    -3.5842097   -1.3907165   -0.0289016
| 21> C    -2.3401530   -1.9323793   -0.0252654
| 22> H    -2.1957773   -3.0007149   -0.0279600
| 23> C    -1.1657008   -1.1289001   -0.0092123
| 24> N    -0.0000143   -1.7517764   -0.0011168
| 25> C     1.1656152   -1.1288270    0.0072223
| 26> C     2.3401266   -1.9322337    0.0229530
| 27> C     3.5841348   -1.3904795    0.0268168
| 28> C     3.7792919    0.0246234    0.0072942
| 29> C     2.6255179    0.8352336   -0.0082911
| 30> C     1.3647257    0.2865714   -0.0034795
| 31> H     2.7061514    1.9092180   -0.0017737
| 32> N     5.0098295    0.5591688    0.0009136
| 33> C     5.2040000    1.9816912   -0.1754853
| 34> H     4.6065330    2.3502244   -1.0104590
| 35> H     4.9306684    2.5315703    0.7293972
| 36> H     6.2498744    2.1785469   -0.3965420
| 37> C     6.1891558   -0.2612409    0.1740445
| 38> H     7.0426373    0.3776878    0.3863926
| 39> H     6.0636351   -0.9463151    1.0131994
| 40> H     6.4046485   -0.8379943   -0.7296833
| 41> H     4.4360871   -2.0482212    0.0213952
| 42> H     2.1958240   -3.0005821    0.0251164
| 43> H    -4.4360995   -2.0485411   -0.0237184
| 44> N    -5.0100545    0.5588681   -0.0022724
| 45> C    -6.1894211   -0.2616230   -0.1747091
| 46> H    -6.4044098   -0.8382562    0.7292251
| 47> H    -6.0642800   -0.9468204   -1.0138045
| 48> H    -7.0430573    0.3772037   -0.3867547
| 49> C    -5.2040853    1.9813712    0.1745389
| 50> H    -4.6077663    2.3493056    1.0106249
| 51> H    -4.9291600    2.5315835   -0.7296538
| 52> H    -6.2502352    2.1784795    0.3940266
| 53> H    -2.7064618    1.9090231    0.0011464
| 54> *
| 55>
| 56>                          ****END OF INPUT****
 Total Charge           Charge          ....    1
 Multiplicity           Mult            ....    1
 Number of Electrons    NEL             ....  150
Dispersion correction           -0.044769585
FINAL SINGLE POINT ENERGY     -1181.035725575715
Dispersion correction             ... done (  0.1 sec)
Dispersion correction           -0.044641162
FINAL SINGLE POINT ENERGY     -1181.038792041537
Dispersion correction             ... done (  0.1 sec)
Dispersion correction           -0.044632664
FINAL SINGLE POINT ENERGY     -1181.038971181664
Dispersion correction             ... done (  0.1 sec)
FINAL SINGLE POINT ENERGY     -1181.039087339669
FINAL SINGLE POINT ENERGY     -1181.039155908644
FINAL SINGLE POINT ENERGY     -1181.039298695674
FINAL SINGLE POINT ENERGY     -1181.039409546183
FINAL SINGLE POINT ENERGY     -1181.039507360648
FINAL SINGLE POINT ENERGY     -1181.039525991730
Dispersion correction             ... done (  0.0 sec)
Dispersion correction           -0.044661435
FINAL SINGLE POINT ENERGY     -1181.039529629074
Dispersion correction             ... done (  0.0 sec)
Dispersion correction           -0.044661798
FINAL SINGLE POINT ENERGY     -1181.039530949761
Dispersion correction             ... done (  0.0 sec)
                    ***********************HURRAY********************

CARTESIAN COORDINATES (ANGSTROEM)
---------------------------------
  S     -0.000109    1.356886   -0.000456
  C     -1.360314    0.286645   -0.005463
  C     -2.624767    0.847057   -0.009715
  C     -3.783538    0.028861   -0.014234
  C     -3.601070   -1.396242   -0.012972
  C     -2.351997   -1.941467   -0.008761
  H     -2.206851   -3.024244   -0.007933
  C     -1.171283   -1.138189   -0.004970
  N     -0.000017   -1.760762   -0.001028
  C      1.171211   -1.138121    0.003170
  C      2.351973   -1.941330    0.006633
  C      3.601013   -1.396034    0.011115
  C      3.783398    0.029079    0.013072
  C      2.624579    0.847208    0.008716
  C      1.360159    0.286724    0.004206
  H      2.716416    1.933538    0.008708
  N      5.017880    0.566097    0.018335
  C      5.188141    2.005844    0.016344
  H      4.745429    2.461934   -0.887349
  H      4.727866    2.465960    0.908950
  H      6.259425    2.244753    0.026627
  C      6.196133   -0.282719    0.018761
  H      7.093158    0.349847    0.030690
  H      6.225937   -0.930992    0.911903
  H      6.238222   -0.916323   -0.884590
  H      4.466152   -2.058413    0.012862
  H      2.206889   -3.024116    0.005257
  H     -4.466169   -2.058674   -0.015180
  N     -5.018052    0.565808   -0.019105
  C     -6.196255   -0.283076   -0.019575
  H     -6.237083   -0.918219    0.882727
  H     -6.227329   -0.929763   -0.913847
  H     -7.093313    0.349489   -0.028916
  C     -5.188383    2.005549   -0.017561
  H     -4.745454    2.461961    0.885860
  H     -4.728360    2.465387   -0.910443
  H     -6.259681    2.244404   -0.027618
  H     -2.716667    1.933381   -0.009307

 Multiplicity           Mult            ....    1
 Number of Electrons    NEL             ....  150
 Basis Dimension        Dim             ....  320

ORBITAL ENERGIES
----------------

  NO   OCC          E(Eh)            E(eV)
   0   2.0000     -89.175483     -2426.5883
   1   2.0000     -14.564881      -396.3306
   2   2.0000     -14.564880      -396.3305
   3   2.0000     -14.532222      -395.4419
   4   2.0000     -10.425644      -283.6962
   5   2.0000     -10.425642      -283.6962
   6   2.0000     -10.417520      -283.4751
   7   2.0000     -10.417494      -283.4744
   8   2.0000     -10.406554      -283.1767
   9   2.0000     -10.406533      -283.1762
  10   2.0000     -10.378250      -282.4065
  11   2.0000     -10.378249      -282.4065
  12   2.0000     -10.377043      -282.3737
  13   2.0000     -10.377042      -282.3737
  14   2.0000     -10.368120      -282.1309
  15   2.0000     -10.368102      -282.1304
  16   2.0000     -10.367706      -282.1196
  17   2.0000     -10.367684      -282.1190
  18   2.0000     -10.364569      -282.0342
  19   2.0000     -10.364566      -282.0342
  20   2.0000      -8.176224      -222.4864
  21   2.0000      -6.117701      -166.4711
  22   2.0000      -6.113758      -166.3638
  23   2.0000      -6.110509      -166.2754
  24   2.0000      -1.118769       -30.4433
  25   2.0000      -1.117627       -30.4122
  26   2.0000      -1.106681       -30.1143
  27   2.0000      -1.009102       -27.4591
  28   2.0000      -1.008045       -27.4303
  29   2.0000      -0.962306       -26.1857
  30   2.0000      -0.915042       -24.8996
  31   2.0000      -0.907456       -24.6931
  32   2.0000      -0.887925       -24.1617
  33   2.0000      -0.866829       -23.5876
  34   2.0000      -0.865976       -23.5644
  35   2.0000      -0.839129       -22.8339
  36   2.0000      -0.825746       -22.4697
  37   2.0000      -0.780597       -21.2411
  38   2.0000      -0.757065       -20.6008
  39   2.0000      -0.754711       -20.5367
  40   2.0000      -0.733001       -19.9460
  41   2.0000      -0.698831       -19.0161
  42   2.0000      -0.690211       -18.7816
  43   2.0000      -0.661572       -18.0023
  44   2.0000      -0.655733       -17.8434
  45   2.0000      -0.654344       -17.8056
  46   2.0000      -0.628009       -17.0890
  47   2.0000      -0.612318       -16.6620
  48   2.0000      -0.611667       -16.6443
  49   2.0000      -0.598902       -16.2970
  50   2.0000      -0.587294       -15.9811
  51   2.0000      -0.581948       -15.8356
  52   2.0000      -0.576468       -15.6865
  53   2.0000      -0.573690       -15.6109
  54   2.0000      -0.567732       -15.4488
  55   2.0000      -0.562341       -15.3021
  56   2.0000      -0.541214       -14.7272
  57   2.0000      -0.540023       -14.6948
  58   2.0000      -0.540012       -14.6945
  59   2.0000      -0.540010       -14.6944
  60   2.0000      -0.528072       -14.3696
  61   2.0000      -0.527259       -14.3474
  62   2.0000      -0.521498       -14.1907
  63   2.0000      -0.513517       -13.9735
  64   2.0000      -0.505531       -13.7562
  65   2.0000      -0.488749       -13.2995
  66   2.0000      -0.486897       -13.2491
  67   2.0000      -0.482055       -13.1174
  68   2.0000      -0.475549       -12.9403
  69   2.0000      -0.440372       -11.9831
  70   2.0000      -0.413220       -11.2443
  71   2.0000      -0.401486       -10.9250
  72   2.0000      -0.391554       -10.6547
  73   2.0000      -0.354559        -9.6480
  74   2.0000      -0.332546        -9.0490
  75   0.0000      -0.230421        -6.2701
  76   0.0000      -0.149084        -4.0568
  77   0.0000      -0.128429        -3.4947
  78   0.0000      -0.122285        -3.3276
  79   0.0000      -0.086763        -2.3610

MULLIKEN ATOMIC CHARGES
-----------------------
   0 S :    0.251245
   1 C :   -0.013352
   2 C :   -0.244014
   3 C :    0.286083
   4 C :   -0.158792
   5 C :   -0.058809
   6 H :    0.126863
   7 C :    0.025212
   8 N :   -0.066360
   9 C :    0.025211
  10 C :   -0.058812
  11 C :   -0.158791
  12 C :    0.286085
  13 C :   -0.244008
  14 C :   -0.013355
  15 H :    0.104014
  16 N :   -0.328621
  17 C :   -0.238402
  18 H :    0.168205
  19 H :    0.168337
  20 H :    0.174317
  21 C :   -0.240643
  22 H :    0.172868
  23 H :    0.171692
  24 H :    0.171556
  25 H :    0.121042
  26 H :    0.126862
  27 H :    0.121047
  28 N :   -0.328621
  29 C :   -0.240645
  30 H :    0.171560
  31 H :    0.171691
  32 H :    0.172861
  33 C :   -0.238403
  34 H :    0.168215
  35 H :    0.168328
  36 H :    0.174319
  37 H :    0.104014
Sum of atomic charges:    1.0000000

LOEWDIN ATOMIC CHARGES
----------------------
   0 S :    0.508773
   1 C :   -0.143300
   2 C :   -0.188876
   3 C :    0.059210
   4 C :   -0.140893
   5 C :   -0.065787
   6 H :    0.158593
   7 C :   -0.041041
   8 N :   -0.002895
   9 C :   -0.041041
  10 C :   -0.065787
  11 C :   -0.140895
  12 C :    0.059210
  13 C :   -0.188876
  14 C :   -0.143300
  15 H :    0.145276
  16 N :   -0.024224
  17 C :   -0.248594
  18 H :    0.136230
  19 H :    0.136291
  20 H :    0.142793
  21 C :   -0.248151
  22 H :    0.142412
  23 H :    0.137793
  24 H :    0.137712
  25 H :    0.151618
  26 H :    0.158593
  27 H :    0.151619
  28 N :   -0.024225
  29 C :   -0.248152
  30 H :    0.137720
  31 H :    0.137788
  32 H :    0.142411
  33 C :   -0.248593
  34 H :    0.136232
  35 H :    0.136289
  36 H :    0.142793
  37 H :    0.145276

  Mayer bond orders larger than 0.100000
B(  0-S ,  1-C ) :   1.1016 B(  0-S , 14-C ) :   1.1015 B(  1-C ,  2-C ) :   1.4382
B(  1-C ,  7-C ) :   1.1660 B(  2-C ,  3-C ) :   1.2602 B(  2-C , 37-H ) :   0.9467
B(  3-C ,  4-C ) :   1.1594 B(  3-C , 28-N ) :   1.2724 B(  4-C ,  5-C ) :   1.5369
B(  4-C , 27-H ) :   0.9533 B(  5-C ,  6-H ) :   0.9546 B(  5-C ,  7-C ) :   1.2138
B(  7-C ,  8-N ) :   1.4908 B(  8-N ,  9-C ) :   1.4908 B(  9-C , 10-C ) :   1.2138
B(  9-C , 14-C ) :   1.1660 B( 10-C , 11-C ) :   1.5369 B( 10-C , 26-H ) :   0.9546
B( 11-C , 12-C ) :   1.1594 B( 11-C , 25-H ) :   0.9533 B( 12-C , 13-C ) :   1.2602
B( 12-C , 16-N ) :   1.2724 B( 13-C , 14-C ) :   1.4382 B( 13-C , 15-H ) :   0.9467
B( 16-N , 17-C ) :   0.9773 B( 16-N , 21-C ) :   0.9700 B( 17-C , 18-H ) :   0.9355
B( 17-C , 19-H ) :   0.9353 B( 17-C , 20-H ) :   0.9412 B( 21-C , 22-H ) :   0.9418
B( 21-C , 23-H ) :   0.9369 B( 21-C , 24-H ) :   0.9371 B( 28-N , 29-C ) :   0.9700
B( 28-N , 33-C ) :   0.9773 B( 29-C , 30-H ) :   0.9371 B( 29-C , 31-H ) :   0.9369
B( 29-C , 32-H ) :   0.9418 B( 33-C , 34-H ) :   0.9355 B( 33-C , 35-H ) :   0.9353
B( 33-C , 36-H ) :   0.9412

Dispersion correction           -0.044662319
FINAL SINGLE POINT ENERGY     -1181.039531544523

DIPOLE MOMENT
-------------

Method             : SCF
Type of density    : Electron Density
Multiplicity       :   1
Irrep              :   0
Energy             : -1180.9948692251546163 Eh
Relativity type    :
Basis              : AO
                                X                 Y                 Z
Electronic contribution:      0.000125756      -3.787131154      -0.000082156
Nuclear contribution   :     -0.000160838       4.600849614       0.000182721
                        -----------------------------------------
Total Dipole Moment    :     -0.000035083       0.813718460       0.000100565
                        -----------------------------------------
Magnitude (a.u.)       :      0.813718467
Magnitude (Debye)      :      2.068307972

VIBRATIONAL FREQUENCIES
-----------------------

Scaling factor for frequencies =  1.000000000  (already applied!)

     0:       0.00 cm**-1
     1:       0.00 cm**-1
     2:       0.00 cm**-1
     3:       0.00 cm**-1
     4:       0.00 cm**-1
     5:       0.00 cm**-1
     6:      33.04 cm**-1
     7:      48.69 cm**-1
     8:      66.92 cm**-1
     9:      72.04 cm**-1
    10:     109.33 cm**-1
    11:     129.89 cm**-1
    12:     136.54 cm**-1
    13:     146.19 cm**-1
    14:     150.76 cm**-1
    15:     162.86 cm**-1
    16:     195.75 cm**-1
    17:     204.35 cm**-1
    18:     222.25 cm**-1
    19:     245.75 cm**-1
    20:     264.72 cm**-1
    21:     286.76 cm**-1
    22:     305.98 cm**-1
    23:     359.49 cm**-1
    24:     363.26 cm**-1
    25:     397.74 cm**-1
    26:     447.10 cm**-1
    27:     452.74 cm**-1
    28:     463.70 cm**-1
    29:     477.79 cm**-1
    30:     478.71 cm**-1
    31:     502.11 cm**-1
    32:     513.60 cm**-1
    33:     532.40 cm**-1
    34:     561.34 cm**-1
    35:     614.68 cm**-1
    36:     630.29 cm**-1
    37:     645.64 cm**-1
    38:     692.05 cm**-1
    39:     692.56 cm**-1
    40:     761.85 cm**-1
    41:     792.23 cm**-1
    42:     796.42 cm**-1
    43:     828.34 cm**-1
    44:     845.27 cm**-1
    45:     846.08 cm**-1
    46:     871.72 cm**-1
    47:     873.27 cm**-1
    48:     887.74 cm**-1
    49:     915.22 cm**-1
    50:     995.42 cm**-1
    51:     995.91 cm**-1
    52:    1015.49 cm**-1
    53:    1015.92 cm**-1
    54:    1072.53 cm**-1
    55:    1089.32 cm**-1
    56:    1089.33 cm**-1
    57:    1103.55 cm**-1
    58:    1126.27 cm**-1
    59:    1126.32 cm**-1
    60:    1147.80 cm**-1
    61:    1147.81 cm**-1
    62:    1168.05 cm**-1
    63:    1174.37 cm**-1
    64:    1203.76 cm**-1
    65:    1207.43 cm**-1
    66:    1275.49 cm**-1
    67:    1290.13 cm**-1
    68:    1299.26 cm**-1
    69:    1308.96 cm**-1
    70:    1353.06 cm**-1
    71:    1386.87 cm**-1
    72:    1410.99 cm**-1
    73:    1426.20 cm**-1
    74:    1439.98 cm**-1
    75:    1440.83 cm**-1
    76:    1452.23 cm**-1
    77:    1462.20 cm**-1
    78:    1470.40 cm**-1
    79:    1470.41 cm**-1
    80:    1480.55 cm**-1
    81:    1485.01 cm**-1
    82:    1485.02 cm**-1
    83:    1488.70 cm**-1
    84:    1492.99 cm**-1
    85:    1499.48 cm**-1
    86:    1507.82 cm**-1
    87:    1518.29 cm**-1
    88:    1543.76 cm**-1
    89:    1551.08 cm**-1
    90:    1567.52 cm**-1
    91:    1568.39 cm**-1
    92:    1606.38 cm**-1
    93:    1614.59 cm**-1
    94:    1696.95 cm**-1
    95:    1723.09 cm**-1
    96:    3034.96 cm**-1
    97:    3035.01 cm**-1
    98:    3043.25 cm**-1
    99:    3043.65 cm**-1
   100:    3116.96 cm**-1
   101:    3116.97 cm**-1
   102:    3125.75 cm**-1
   103:    3125.76 cm**-1
   104:    3185.99 cm**-1
   105:    3186.00 cm**-1
   106:    3196.26 cm**-1
   107:    3196.28 cm**-1
   108:    3233.86 cm**-1
   109:    3234.00 cm**-1
   110:    3238.43 cm**-1
   111:    3238.47 cm**-1
   112:    3258.92 cm**-1
   113:    3258.94 cm**-1

IR SPECTRUM
-----------

 Mode   freq       eps      Int      T**2         TX        TY        TZ
       cm**-1   L/(mol*cm) km/mol    a.u.
----------------------------------------------------------------------------
  6:     33.04   0.000525    2.65  0.004959  ( 0.000038 -0.000001  0.070419)
  7:     48.69   0.000000    0.00  0.000000  ( 0.000031 -0.000024 -0.000042)
  8:     66.92   0.000001    0.00  0.000003  ( 0.000124  0.000000 -0.001591)
  9:     72.04   0.000000    0.00  0.000000  ( 0.000045  0.000072 -0.000037)
 10:    109.33   0.000366    1.85  0.001045  ( 0.000000  0.032329 -0.000024)
 11:    129.89   0.000000    0.00  0.000001  (-0.000002 -0.000778 -0.000170)
 12:    136.54   0.000368    1.86  0.000840  ( 0.000809  0.000051  0.028976)
 13:    146.19   0.000040    0.20  0.000086  (-0.000118  0.000043  0.009296)
 14:    150.76   0.000000    0.00  0.000000  (-0.000051  0.000030  0.000089)
 15:    162.86   0.000005    0.02  0.000009  ( 0.000428 -0.000013 -0.002922)
 16:    195.75   0.000002    0.01  0.000003  (-0.001598 -0.000002  0.000902)
 17:    204.35   0.000000    0.00  0.000000  (-0.000152  0.000474 -0.000021)
 18:    222.25   0.000242    1.22  0.000339  ( 0.000047 -0.000016  0.018418)
 19:    245.75   0.000009    0.04  0.000011  ( 0.000001  0.003348  0.000014)
 20:    264.72   0.000000    0.00  0.000000  (-0.000027 -0.000452 -0.000009)
 21:    286.76   0.000180    0.91  0.000196  ( 0.000005 -0.013995  0.000097)
 22:    305.98   0.001927    9.74  0.001965  ( 0.001700  0.000050  0.044299)
 23:    359.49   0.000000    0.00  0.000000  (-0.000033  0.000264 -0.000012)
 24:    363.26   0.000090    0.45  0.000077  ( 0.008775  0.000007  0.000425)
 25:    397.74   0.002355   11.90  0.001848  (-0.042983 -0.000001 -0.000263)
 26:    447.10   0.000415    2.10  0.000290  ( 0.000622  0.000024  0.017011)
 27:    452.74   0.001022    5.17  0.000705  (-0.000004  0.026545 -0.000023)
 28:    463.70   0.005341   26.99  0.003595  (-0.059955 -0.000003  0.000006)
 29:    477.79   0.000000    0.00  0.000000  (-0.000093 -0.000220  0.000031)
 30:    478.71   0.000106    0.53  0.000069  ( 0.001009  0.000018 -0.008243)
 31:    502.11   0.000009    0.04  0.000006  ( 0.000007  0.002348 -0.000014)
 32:    513.60   0.000000    0.00  0.000000  (-0.000001  0.000341 -0.000007)
 33:    532.40   0.000533    2.69  0.000312  ( 0.017669  0.000000  0.000032)
 34:    561.34   0.005079   25.67  0.002824  (-0.053138 -0.000001 -0.000262)
 35:    614.68   0.000374    1.89  0.000190  ( 0.000002  0.013779  0.000003)
 36:    630.29   0.000000    0.00  0.000000  (-0.000039 -0.000020 -0.000021)
 37:    645.64   0.001299    6.56  0.000628  (-0.000708  0.000002  0.025046)
 38:    692.05   0.007385   37.32  0.003330  ( 0.057707  0.000026  0.000132)
 39:    692.56   0.000018    0.09  0.000008  (-0.000523  0.002769 -0.000001)
 40:    761.85   0.000000    0.00  0.000000  ( 0.000010  0.000000 -0.000002)
 41:    792.23   0.000015    0.07  0.000006  (-0.000045  0.000001 -0.002392)
 42:    796.42   0.000433    2.19  0.000170  ( 0.000002 -0.013032 -0.000005)
 43:    828.34   0.001807    9.13  0.000681  (-0.026089  0.000000 -0.000070)
 44:    845.27   0.002470   12.48  0.000912  (-0.000047  0.000012  0.030198)
 45:    846.08   0.000000    0.00  0.000000  (-0.000018 -0.000011  0.000145)
 46:    871.72   0.018040   91.17  0.006458  (-0.000004  0.000001  0.080363)
 47:    873.27   0.000000    0.00  0.000000  ( 0.000015 -0.000031  0.000058)
 48:    887.74   0.000532    2.69  0.000187  ( 0.000002 -0.013674 -0.000008)
 49:    915.22   0.035996  181.91  0.012274  ( 0.110786  0.000003  0.000367)
 50:    995.42   0.000138    0.70  0.000043  ( 0.000030 -0.006570  0.000012)
 51:    995.91   0.004523   22.86  0.001417  ( 0.037647  0.000006 -0.000073)
 52:   1015.49   0.000006    0.03  0.000002  (-0.000049 -0.000014  0.001391)
 53:   1015.92   0.000000    0.00  0.000000  ( 0.000027  0.000023  0.000029)
 54:   1072.53   0.008884   44.90  0.002585  (-0.050841 -0.000002 -0.000241)
 55:   1089.32   0.001815    9.17  0.000520  (-0.020319 -0.010345 -0.000048)
 56:   1089.33   0.006301   31.84  0.001805  ( 0.004975 -0.042194  0.000019)
 57:   1103.55   0.000000    0.00  0.000000  (-0.000001  0.000256 -0.000007)
 58:   1126.27   0.000000    0.00  0.000000  (-0.000188  0.000111 -0.000002)
 59:   1126.32   0.000000    0.00  0.000000  ( 0.000256  0.000009  0.000185)
 60:   1147.80   0.000002    0.01  0.000001  (-0.000693 -0.000435  0.000054)
 61:   1147.81   0.000077    0.39  0.000021  ( 0.004528 -0.000012 -0.000742)
 62:   1168.05   0.042567  215.12  0.011373  (-0.106642  0.000005 -0.000271)
 63:   1174.37   0.000383    1.94  0.000102  (-0.000056 -0.010093 -0.000011)
 64:   1203.76   0.016383   82.79  0.004247  (-0.065170 -0.000004 -0.000157)
 65:   1207.43   0.000082    0.42  0.000021  (-0.000018  0.004615  0.000007)
 66:   1275.49   0.027829  140.63  0.006809  (-0.082514 -0.000001 -0.000203)
 67:   1290.13   0.002047   10.35  0.000495  (-0.000007 -0.022254 -0.000008)
 68:   1299.26   0.010226   51.68  0.002456  ( 0.049559  0.000005  0.000100)
 69:   1308.96   0.003695   18.67  0.000881  ( 0.000008 -0.029680 -0.000005)
 70:   1353.06   0.000004    0.02  0.000001  ( 0.000003  0.000997  0.000012)
 71:   1386.87   0.196650  993.79  0.044249  ( 0.210354  0.000005  0.000554)
 72:   1410.99   0.000098    0.50  0.000022  (-0.004656 -0.000005 -0.000031)
 73:   1426.20   0.001815    9.17  0.000397  (-0.000000 -0.019927  0.000003)
 74:   1439.98   0.002899   14.65  0.000628  (-0.025063  0.000000 -0.000121)
 75:   1440.83   0.000008    0.04  0.000002  (-0.000002 -0.001352  0.000020)
 76:   1452.23   0.000908    4.59  0.000195  (-0.000006  0.013967  0.000015)
 77:   1462.20   0.160992  813.59  0.034359  (-0.185359 -0.000005 -0.000972)
 78:   1470.40   0.000002    0.01  0.000001  ( 0.000484  0.000525  0.000027)
 79:   1470.41   0.000041    0.21  0.000009  ( 0.000207 -0.000065 -0.002958)
 80:   1480.55   0.001057    5.34  0.000223  ( 0.000013  0.014928 -0.000050)
 81:   1485.01   0.000037    0.19  0.000008  (-0.000138  0.000069 -0.002785)
 82:   1485.02   0.011701   59.13  0.002459  ( 0.001782  0.000008 -0.049554)
 83:   1488.70   0.009472   47.87  0.001985  ( 0.044540 -0.000001  0.001293)
 84:   1492.99   0.000177    0.90  0.000037  (-0.000021  0.006089 -0.000003)
 85:   1499.48   0.000254    1.28  0.000053  ( 0.007227  0.000002  0.000813)
 86:   1507.82   0.212871  1075.76  0.044056  (-0.209895 -0.000006 -0.000743)
 87:   1518.29   0.001036    5.23  0.000213  ( 0.000026  0.014591  0.000034)
 88:   1543.76   0.014779   74.69  0.002988  ( 0.054658  0.000003  0.000118)
 89:   1551.08   0.001216    6.15  0.000245  (-0.000004 -0.015644  0.000002)
 90:   1567.52   0.346806  1752.62  0.069042  (-0.262758 -0.000057 -0.000771)
 91:   1568.39   0.001346    6.80  0.000268  ( 0.000785 -0.016345 -0.000004)
 92:   1606.38   0.001422    7.19  0.000276  ( 0.016621  0.000004 -0.000021)
 93:   1614.59   0.013794   69.71  0.002666  (-0.000016  0.051634  0.000008)
 94:   1696.95   0.243367  1229.88  0.044754  (-0.211551 -0.000005 -0.000671)
 95:   1723.09   0.006150   31.08  0.001114  (-0.000003 -0.033374 -0.000009)
 96:   3034.96   0.001198    6.05  0.000123  ( 0.011048 -0.001047 -0.000136)
 97:   3035.01   0.007856   39.70  0.000808  ( 0.000399  0.028418 -0.000000)
 98:   3043.25   0.025602  129.38  0.002625  ( 0.051238 -0.000001 -0.000211)
 99:   3043.65   0.000079    0.40  0.000008  (-0.000103 -0.002843 -0.000029)
100:   3116.96   0.001672    8.45  0.000167  (-0.000131  0.000133 -0.012935)
101:   3116.97   0.000682    3.45  0.000068  (-0.000077 -0.000220 -0.008261)
102:   3125.75   0.000671    3.39  0.000067  ( 0.000235 -0.000117  0.008182)
103:   3125.76   0.002012   10.17  0.000201  ( 0.000306  0.000048  0.014168)
104:   3185.99   0.000018    0.09  0.000002  ( 0.000860  0.001026 -0.000007)
105:   3186.00   0.000021    0.11  0.000002  ( 0.000732 -0.001225 -0.000006)
106:   3196.26   0.001794    9.07  0.000175  ( 0.013205 -0.000893  0.000047)
107:   3196.28   0.000273    1.38  0.000027  ( 0.002664  0.004427  0.000013)
108:   3233.86   0.000064    0.32  0.000006  (-0.002480  0.000158 -0.000008)
109:   3234.00   0.000215    1.09  0.000021  (-0.000084 -0.004554 -0.000001)
110:   3238.43   0.000267    1.35  0.000026  ( 0.005069 -0.000197  0.000024)
111:   3238.47   0.000021    0.11  0.000002  (-0.001003 -0.001009 -0.000005)
112:   3258.92   0.000132    0.66  0.000013  ( 0.001719 -0.003105  0.000011)
113:   3258.94   0.000112    0.57  0.000011  (-0.002187 -0.002440 -0.000019)

--------------------------
THERMOCHEMISTRY AT 298.15K
--------------------------

Temperature         ...   298.15 K
Pressure            ...     1.00 atm
Total Mass          ...   284.40 AMU
Quasi RRHO          ...     True
Cut-Off Frequency   ...     1.00 cm^-1

Throughout the following assumptions are being made:
  (1) The electronic state is orbitally nondegenerate
  (2) There are no thermally accessible electronically excited states
  (3) Hindered rotations indicated by low frequency modes are not
      treated as such but are treated as vibrations and this may
      cause some error
  (4) All equations used are the standard statistical mechanics
      equations for an ideal gas
  (5) All vibrations are strictly harmonic

freq.      33.04  E(vib)   ...       0.55
freq.      48.69  E(vib)   ...       0.53
freq.      66.92  E(vib)   ...       0.50
freq.      72.04  E(vib)   ...       0.50
freq.     109.33  E(vib)   ...       0.45
freq.     129.89  E(vib)   ...       0.43
freq.     136.54  E(vib)   ...       0.42
freq.     146.19  E(vib)   ...       0.41
freq.     150.76  E(vib)   ...       0.40
freq.     162.86  E(vib)   ...       0.39
freq.     195.75  E(vib)   ...       0.36
freq.     204.35  E(vib)   ...       0.35
freq.     222.25  E(vib)   ...       0.33
freq.     245.75  E(vib)   ...       0.31
freq.     264.72  E(vib)   ...       0.29
freq.     286.76  E(vib)   ...       0.27
freq.     305.98  E(vib)   ...       0.26
freq.     359.49  E(vib)   ...       0.22
freq.     363.26  E(vib)   ...       0.22
freq.     397.74  E(vib)   ...       0.20
freq.     447.10  E(vib)   ...       0.17
freq.     452.74  E(vib)   ...       0.16
freq.     463.70  E(vib)   ...       0.16
freq.     477.79  E(vib)   ...       0.15
freq.     478.71  E(vib)   ...       0.15
freq.     502.11  E(vib)   ...       0.14
freq.     513.60  E(vib)   ...       0.13
freq.     532.40  E(vib)   ...       0.13
freq.     561.34  E(vib)   ...       0.11
freq.     614.68  E(vib)   ...       0.10
freq.     630.29  E(vib)   ...       0.09
freq.     645.64  E(vib)   ...       0.09
freq.     692.05  E(vib)   ...       0.07
freq.     692.56  E(vib)   ...       0.07
freq.     761.85  E(vib)   ...       0.06
freq.     792.23  E(vib)   ...       0.05
freq.     796.42  E(vib)   ...       0.05
freq.     828.34  E(vib)   ...       0.04
freq.     845.27  E(vib)   ...       0.04
freq.     846.08  E(vib)   ...       0.04
freq.     871.72  E(vib)   ...       0.04
freq.     873.27  E(vib)   ...       0.04
freq.     887.74  E(vib)   ...       0.04
freq.     915.22  E(vib)   ...       0.03
freq.     995.42  E(vib)   ...       0.02
freq.     995.91  E(vib)   ...       0.02
freq.    1015.49  E(vib)   ...       0.02
freq.    1015.92  E(vib)   ...       0.02
freq.    1072.53  E(vib)   ...       0.02
freq.    1089.32  E(vib)   ...       0.02
freq.    1089.33  E(vib)   ...       0.02
freq.    1103.55  E(vib)   ...       0.02
freq.    1126.27  E(vib)   ...       0.01
freq.    1126.32  E(vib)   ...       0.01
freq.    1147.80  E(vib)   ...       0.01
freq.    1147.81  E(vib)   ...       0.01
freq.    1168.05  E(vib)   ...       0.01
freq.    1174.37  E(vib)   ...       0.01
freq.    1203.76  E(vib)   ...       0.01
freq.    1207.43  E(vib)   ...       0.01
freq.    1275.49  E(vib)   ...       0.01
freq.    1290.13  E(vib)   ...       0.01
freq.    1299.26  E(vib)   ...       0.01
freq.    1308.96  E(vib)   ...       0.01
freq.    1353.06  E(vib)   ...       0.01
freq.    1386.87  E(vib)   ...       0.00
freq.    1410.99  E(vib)   ...       0.00
freq.    1426.20  E(vib)   ...       0.00
freq.    1439.98  E(vib)   ...       0.00
freq.    1440.83  E(vib)   ...       0.00
freq.    1452.23  E(vib)   ...       0.00
freq.    1462.20  E(vib)   ...       0.00
freq.    1470.40  E(vib)   ...       0.00
freq.    1470.41  E(vib)   ...       0.00
freq.    1480.55  E(vib)   ...       0.00
freq.    1485.01  E(vib)   ...       0.00
freq.    1485.02  E(vib)   ...       0.00
freq.    1488.70  E(vib)   ...       0.00
freq.    1492.99  E(vib)   ...       0.00
freq.    1499.48  E(vib)   ...       0.00
freq.    1507.82  E(vib)   ...       0.00
freq.    1518.29  E(vib)   ...       0.00
freq.    1543.76  E(vib)   ...       0.00
freq.    1551.08  E(vib)   ...       0.00
freq.    1567.52  E(vib)   ...       0.00
freq.    1568.39  E(vib)   ...       0.00
freq.    1606.38  E(vib)   ...       0.00
freq.    1614.59  E(vib)   ...       0.00
freq.    1696.95  E(vib)   ...       0.00
freq.    1723.09  E(vib)   ...       0.00
freq.    3034.96  E(vib)   ...       0.00
freq.    3035.01  E(vib)   ...       0.00
freq.    3043.25  E(vib)   ...       0.00
freq.    3043.65  E(vib)   ...       0.00
freq.    3116.96  E(vib)   ...       0.00
freq.    3116.97  E(vib)   ...       0.00
freq.    3125.75  E(vib)   ...       0.00
freq.    3125.76  E(vib)   ...       0.00
freq.    3185.99  E(vib)   ...       0.00
freq.    3186.00  E(vib)   ...       0.00
freq.    3196.26  E(vib)   ...       0.00
freq.    3196.28  E(vib)   ...       0.00
freq.    3233.86  E(vib)   ...       0.00
freq.    3234.00  E(vib)   ...       0.00
freq.    3238.43  E(vib)   ...       0.00
freq.    3238.47  E(vib)   ...       0.00
freq.    3258.92  E(vib)   ...       0.00
freq.    3258.94  E(vib)   ...       0.00

------------
INNER ENERGY
------------

The inner energy is: U= E(el) + E(ZPE) + E(vib) + E(rot) + E(trans)
    E(el)   - is the total energy from the electronic structure calculation
              = E(kin-el) + E(nuc-el) + E(el-el) + E(nuc-nuc)
    E(ZPE)  - the the zero temperature vibrational energy from the frequency calculation
    E(vib)  - the the finite temperature correction to E(ZPE) due to population
              of excited vibrational states
    E(rot)  - is the rotational thermal energy
    E(trans)- is the translational thermal energy

Summary of contributions to the inner energy U:
Electronic energy                ...  -1181.03953154 Eh
Zero point energy                ...      0.31641598 Eh     198.55 kcal/mol
Thermal vibrational correction   ...      0.01575089 Eh       9.88 kcal/mol
Thermal rotational correction    ...      0.00141627 Eh       0.89 kcal/mol
Thermal translational correction ...      0.00141627 Eh       0.89 kcal/mol
-----------------------------------------------------------------------
Total thermal energy                  -1180.70453213 Eh

Summary of corrections to the electronic energy:
(perhaps to be used in another calculation)
Total thermal correction                  0.01858344 Eh      11.66 kcal/mol
Non-thermal (ZPE) correction              0.31641598 Eh     198.55 kcal/mol
-----------------------------------------------------------------------
Total correction                          0.33499942 Eh     210.21 kcal/mol

--------
ENTHALPY

Rotational constants in cm-1:     0.035338     0.004431     0.003949

                             ****ORCA TERMINATED NORMALLY****
TOTAL RUN TIME: 0 days 0 hours 25 minutes 14 seconds 952 msec
