                         Program Version 6.0.0  -   RELEASE  -
|  1> !r2SCAN opt aug-cc-pVTZ d3 TightSCF SlowConv RIJCOSX defgrid2
|  2>
|  3> %pal
|  4> nprocs 8
|  5> end
|  6>
|  7> %scf
|  8> MaxIter 1500
|  9> end
| 10>
| 11> %maxcore 3500
| 12>
| 13> !CPCM
| 14> %cpcm smd true
| 15> SMDsolvent "MeCN"
| 16> surfacetype gepol_ses
| 17> rsolv 2.19
| 18> end
| 19>
| 20> * xyz 1 2
| 21> C          -0.69806914174773     -1.08130758385803      0.00000478073461
| 22> C          -1.29995911913199      0.21220975823502      0.00000712364871
| 23> C          -0.48713495449795      1.39007645246692     -0.00001560397811
| 24> C           0.87407248196079      1.28097563070640     -0.00003015609287
| 25> C           1.48961473063931     -0.00988444370075     -0.00003464832734
| 26> C           0.66713129411178     -1.18242862965134     -0.00001675195059
| 27> H           1.14787115207094     -2.16374838611022     -0.00001833432844
| 28> C           2.87923367476782     -0.13303827989769     -0.00003947759998
| 29> C           4.09817372516796     -0.24492334399421     -0.00000244744274
| 30> H           5.17420938419188     -0.34031758843355     -0.00000256865577
| 31> H           1.50568477881681      2.17231925078041     -0.00004562485067
| 32> H          -0.99220253079888      2.35905562684180     -0.00001378344560
| 33> O          -2.58101948918323      0.42008257874155      0.00003691245038
| 34> C          -3.53711041258472     -0.64087278516494      0.00007811011347
| 35> H          -4.51842922650600     -0.15013878054896      0.00011237958636
| 36> H          -3.42139067434806     -1.25399713854605     -0.90847216906212
| 37> H          -3.42131652654994     -1.25398175148381      0.90862972609483
| 38> H          -1.31361454637877     -1.98259848638256      0.00002453310588
| 39> *
| 40>
| 41>                          ****END OF INPUT****
 Total Charge           Charge          ....    1
 Multiplicity           Mult            ....    2
 Number of Electrons    NEL             ....   69
Dispersion correction           -0.005495245
FINAL SINGLE POINT ENERGY      -422.635520812413
Dispersion correction             ... done (  0.1 sec)
Dispersion correction           -0.005516907
FINAL SINGLE POINT ENERGY      -422.636941578727
Dispersion correction             ... done (  0.1 sec)
Dispersion correction           -0.005522667
FINAL SINGLE POINT ENERGY      -422.637072622010
Dispersion correction             ... done (  0.1 sec)
Dispersion correction           -0.005523241
FINAL SINGLE POINT ENERGY      -422.637103082494
Dispersion correction             ... done (  0.1 sec)
Dispersion correction           -0.005522596
FINAL SINGLE POINT ENERGY      -422.637107926688
Dispersion correction             ... done (  0.0 sec)
                    ***********************HURRAY********************

CARTESIAN COORDINATES (ANGSTROEM)
---------------------------------
  C     -0.709616   -1.064642   -0.002501
  C     -1.291261    0.229848   -0.000386
  C     -0.481663    1.401480   -0.001193
  C      0.873434    1.283467   -0.001392
  C      1.471855   -0.009171   -0.001300
  C      0.649079   -1.174776   -0.002724
  H      1.120095   -2.148268   -0.003468
  C      2.855173   -0.140472    0.000806
  C      4.064323   -0.257705    0.002793
  H      5.127479   -0.357477    0.004107
  H      1.507063    2.159463   -0.001788
  H     -0.971309    2.366319   -0.000784
  O     -2.582297    0.449531    0.002607
  C     -3.511960   -0.664111    0.002014
  H     -4.494314   -0.205216    0.000984
  H     -3.364245   -1.261283   -0.896005
  H     -3.366144   -1.261138    0.900590
  H     -1.329947   -1.948366   -0.002158

 Multiplicity           Mult            ....    2
 Number of Electrons    NEL             ....   69
 Basis Dimension        Dim             ....  644

ORBITAL ENERGIES
----------------
                 SPIN UP ORBITALS
  NO   OCC          E(Eh)            E(eV)
   0   1.0000     -19.065138      -518.7888
   1   1.0000     -10.170974      -276.7663
   2   1.0000     -10.127378      -275.5800
   3   1.0000     -10.102797      -274.9111
   4   1.0000     -10.093256      -274.6515
   5   1.0000     -10.089717      -274.5552
   6   1.0000     -10.088070      -274.5103
   7   1.0000     -10.086493      -274.4674
   8   1.0000     -10.086381      -274.4644
   9   1.0000     -10.084663      -274.4176
  10   1.0000      -1.106095       -30.0984
  11   1.0000      -0.880413       -23.9572
  12   1.0000      -0.803267       -21.8580
  13   1.0000      -0.772303       -21.0154
  14   1.0000      -0.750027       -20.4093
  15   1.0000      -0.707779       -19.2596
  16   1.0000      -0.632661       -17.2156
  17   1.0000      -0.615982       -16.7617
  18   1.0000      -0.557933       -15.1821
  19   1.0000      -0.536772       -14.6063
  20   1.0000      -0.504704       -13.7337
  21   1.0000      -0.502876       -13.6840
  22   1.0000      -0.485378       -13.2078
  23   1.0000      -0.448490       -12.2040
  24   1.0000      -0.436340       -11.8734
  25   1.0000      -0.420126       -11.4322
  26   1.0000      -0.409256       -11.1364
  27   1.0000      -0.403471       -10.9790
  28   1.0000      -0.372245       -10.1293
  29   1.0000      -0.370193       -10.0735
  30   1.0000      -0.336933        -9.1684
  31   1.0000      -0.317500        -8.6396
  32   1.0000      -0.295748        -8.0477
  33   1.0000      -0.289768        -7.8850
  34   1.0000      -0.253099        -6.8872
  35   0.0000      -0.105591        -2.8733
  36   0.0000      -0.076361        -2.0779
  37   0.0000      -0.020872        -0.5679
  38   0.0000       0.003306         0.0900
  39   0.0000       0.009309         0.2533

                 SPIN DOWN ORBITALS
  NO   OCC          E(Eh)            E(eV)
   0   1.0000     -19.058983      -518.6213
   1   1.0000     -10.168605      -276.7018
   2   1.0000     -10.121966      -275.4327
   3   1.0000     -10.102963      -274.9156
   4   1.0000     -10.093527      -274.6588
   5   1.0000     -10.089049      -274.5370
   6   1.0000     -10.086939      -274.4796
   7   1.0000     -10.084907      -274.4243
   8   1.0000     -10.084462      -274.4122
   9   1.0000     -10.082911      -274.3699
  10   1.0000      -1.097071       -29.8528
  11   1.0000      -0.873321       -23.7643
  12   1.0000      -0.795016       -21.6335
  13   1.0000      -0.770090       -20.9552
  14   1.0000      -0.741987       -20.1905
  15   1.0000      -0.700293       -19.0560
  16   1.0000      -0.628222       -17.0948
  17   1.0000      -0.612194       -16.6587
  18   1.0000      -0.555188       -15.1074
  19   1.0000      -0.533454       -14.5160
  20   1.0000      -0.502610       -13.6767
  21   1.0000      -0.499618       -13.5953
  22   1.0000      -0.469896       -12.7865
  23   1.0000      -0.446040       -12.1374
  24   1.0000      -0.435682       -11.8555
  25   1.0000      -0.418329       -11.3833
  26   1.0000      -0.402498       -10.9525
  27   1.0000      -0.394367       -10.7313
  28   1.0000      -0.370811       -10.0903
  29   1.0000      -0.354250        -9.6396
  30   1.0000      -0.333904        -9.0860
  31   1.0000      -0.298542        -8.1238
  32   1.0000      -0.293187        -7.9780
  33   1.0000      -0.284193        -7.7333
  34   0.0000      -0.215957        -5.8765
  35   0.0000      -0.080873        -2.2007
  36   0.0000      -0.066370        -1.8060
  37   0.0000      -0.020326        -0.5531
  38   0.0000       0.004225         0.1150

MULLIKEN ATOMIC CHARGES AND SPIN POPULATIONS
--------------------------------------------
   0 C :   -0.085118    0.083352
   1 C :    1.430500    0.116842
   2 C :   -0.730364    0.120983
   3 C :   -1.099295   -0.109897
   4 C :    1.656528    0.410850
   5 C :   -1.174279   -0.051311
   6 H :   -0.307640   -0.002740
   7 C :    1.262705   -0.122117
   8 C :   -0.714040    0.332645
   9 H :    0.318147    0.014454
  10 H :   -0.273723   -0.007449
  11 H :    0.603714    0.008490
  12 O :   -0.638839    0.188371
  13 C :   -0.606623   -0.016470
  14 H :    0.238857   -0.001278
  15 H :    0.291033    0.008772
  16 H :    0.290820    0.008855
  17 H :    0.537618    0.017649
Sum of atomic charges         :    1.0000000

LOEWDIN ATOMIC CHARGES AND SPIN POPULATIONS
-------------------------------------------
   0 C :    0.287255    0.070284
   1 C :   -0.329028    0.124290
   2 C :    0.281080    0.076141
   3 C :    0.261136    0.027647
   4 C :   -0.154163    0.138212
   5 C :    0.271249    0.045257
   6 H :   -0.142554   -0.000484
   7 C :    0.058679    0.074572
   8 C :    0.512983    0.199129
   9 H :   -0.242748    0.046567
  10 H :   -0.145583   -0.004919
  11 H :   -0.148907    0.011757
  12 O :    0.664388    0.155774
  13 C :    0.464993    0.016639
  14 H :   -0.163030   -0.000408
  15 H :   -0.154363    0.004648
  16 H :   -0.153858    0.004669
  17 H :   -0.167530    0.010225

  Mayer bond orders larger than 0.100000
B(  0-C ,  1-C ) :   0.7820 B(  0-C ,  2-C ) :   0.1450 B(  0-C ,  4-C ) :   0.7488
B(  0-C ,  5-C ) :   1.0998 B(  0-C ,  6-H ) :  -0.1799 B(  0-C ,  7-C ) :  -0.2306
B(  0-C , 10-H ) :  -0.1276 B(  0-C , 11-H ) :  -0.1124 B(  0-C , 17-H ) :   0.2873
B(  1-C ,  2-C ) :   0.5898 B(  1-C ,  3-C ) :  -0.5374 B(  1-C ,  4-C ) :  -0.2015
B(  1-C ,  5-C ) :  -0.5380 B(  1-C ,  7-C ) :   0.3153 B(  1-C , 11-H ) :   0.1832
B(  1-C , 12-O ) :   0.3712 B(  1-C , 17-H ) :   0.1663 B(  2-C ,  3-C ) :   1.3756
B(  2-C ,  4-C ) :   0.5745 B(  2-C ,  7-C ) :  -0.1204 B(  2-C , 11-H ) :   0.2031
B(  2-C , 12-O ) :   0.3442 B(  3-C ,  5-C ) :  -0.5890 B(  3-C ,  6-H ) :   0.2423
B(  3-C ,  7-C ) :   0.4284 B(  3-C , 10-H ) :   2.0976 B(  4-C ,  5-C ) :   0.1225
B(  4-C ,  6-H ) :  -0.1294 B(  4-C ,  8-C ) :   0.7809 B(  4-C , 12-O ) :   0.1099
B(  5-C ,  6-H ) :   2.1894 B(  5-C ,  7-C ) :   0.3514 B(  5-C ,  8-C ) :  -0.1546
B(  5-C , 10-H ) :   0.2073 B(  6-H ,  7-C ) :  -0.3346 B(  6-H ,  8-C ) :  -0.3567
B(  6-H , 10-H ) :   0.4607 B(  7-C ,  8-C ) :   1.6711 B(  7-C ,  9-H ) :  -0.2852
B(  7-C , 10-H ) :  -0.4184 B(  7-C , 11-H ) :   0.1069 B(  7-C , 17-H ) :   0.1186
B(  8-C ,  9-H ) :   1.2464 B(  8-C , 10-H ) :  -0.3518 B(  8-C , 11-H ) :   0.1481
B(  8-C , 17-H ) :   0.2044 B( 10-H , 11-H ) :  -0.1057 B( 12-O , 13-C ) :   0.9421
B( 13-C , 14-H ) :   0.9821 B( 13-C , 15-H ) :   0.8877 B( 13-C , 16-H ) :   0.8879

Dispersion correction           -0.005522374
FINAL SINGLE POINT ENERGY      -422.637108006261

DIPOLE MOMENT
-------------

Method             : SCF
Type of density    : Electron Density
Multiplicity       :   2
Irrep              :   0
Energy             :  -422.6315856317827979 Eh
Relativity type    :
Basis              : AO
                                X                 Y                 Z
Electronic contribution:      5.136696268       1.787111102      -0.001783706
Nuclear contribution   :     -5.449511776      -2.471316496       0.001621456
                        -----------------------------------------
Total Dipole Moment    :     -0.312815507      -0.684205395      -0.000162250
                        -----------------------------------------
Magnitude (a.u.)       :      0.752323461
Magnitude (Debye)      :      1.912254268

Rotational constants in cm-1:             0.156689             0.024156             0.021014
Rotational constants in MHz :          4697.421054           724.174845           629.990792

                             ****ORCA TERMINATED NORMALLY****
TOTAL RUN TIME: 0 days 0 hours 14 minutes 53 seconds 249 msec
