                         Program Version 6.0.0  -   RELEASE  -
|  1> !B3LYP aug-cc-pVTZ d3 TightSCF SlowConv RIJCOSX defgrid2
|  2>
|  3> %pal
|  4> nprocs 4
|  5> end
|  6>
|  7> %scf
|  8> MaxIter 1500
|  9> end
| 10>
| 11> %maxcore 3000
| 12>
| 13> !CPCM
| 14> %cpcm smd true
| 15> SMDsolvent "MeCN"
| 16> surfacetype gepol_ses
| 17> rsolv 2.19
| 18> end
| 19>
| 20> * xyz 1 2
| 21> C           2.10074069713964     -0.03623551022709      0.33749659871253
| 22> C           2.28528308407684     -1.00752299995307     -0.66845525084634
| 23> C           3.55854065372565     -1.40796132368585     -1.00587360020280
| 24> C           4.68249131779385     -0.86605497847815     -0.34228468182816
| 25> C           4.49410486888580      0.09282810810827      0.67448234828818
| 26> C           3.21443563230482      0.50407669582157      1.00485264191955
| 27> H           3.07723883642763      1.26509156223799      1.77871020660964
| 28> H           5.34504061581579      0.52911655526770      1.19977321493419
| 29> O           5.85957111079757     -1.32009234548199     -0.73263129283529
| 30> C           7.04850127917866     -0.86024283407437     -0.12168488196846
| 31> H           7.05512576176798     -1.09734211644688      0.95677335906268
| 32> H           7.17453578603241      0.22645663792845     -0.27205541020094
| 33> H           7.86948886250749     -1.39474999506796     -0.61807937295301
| 34> H           3.72936926674930     -2.16465573433241     -1.77503931686740
| 35> H           1.42319555532723     -1.45115446559524     -1.17357438144306
| 36> S           0.53310799676805      0.50835431053803      0.87944925726859
| 37> S          -0.53256657645917      0.51157250736075     -0.87298747821769
| 38> C          -2.10050433131834     -0.03456082645027     -0.33376593608310
| 39> C          -2.28614846748860     -1.00654106417423      0.67133142906854
| 40> C          -3.55972901842260     -1.40767887923690      1.00664018727382
| 41> C          -4.68294557147944     -0.86577074838656      0.34176687797768
| 42> C          -4.49345078730343      0.09376398773271     -0.67420576981618
| 43> C          -3.21349104560759      0.50568127921148     -1.00247721129044
| 44> H          -3.07548115689053      1.26718515114297     -1.77571342523042
| 45> H          -5.34379775111145      0.53000288222862     -1.20048622064007
| 46> O          -5.86039219693820     -1.32045276361291      0.73014290561810
| 47> C          -7.04863669150853     -0.86088719818355      0.11760799023957
| 48> H          -7.05349716792618     -1.09749864586999     -0.96096207362486
| 49> H          -7.87010373607049     -1.39602142441654      0.61252372140508
| 50> H          -7.17540081825230      0.22567978049243      0.26830217206131
| 51> H          -3.73137732634319     -2.16495328714636      1.77505264858787
| 52> H          -1.42462428217865     -1.45015721725065      1.17741544502090
| 53> *
| 54>
| 55>                          ****END OF INPUT****

CARTESIAN COORDINATES (ANGSTROEM)
---------------------------------
  C      2.100741   -0.036236    0.337497
  C      2.285283   -1.007523   -0.668455
  C      3.558541   -1.407961   -1.005874
  C      4.682491   -0.866055   -0.342285
  C      4.494105    0.092828    0.674482
  C      3.214436    0.504077    1.004853
  H      3.077239    1.265092    1.778710
  H      5.345041    0.529117    1.199773
  O      5.859571   -1.320092   -0.732631
  C      7.048501   -0.860243   -0.121685
  H      7.055126   -1.097342    0.956773
  H      7.174536    0.226457   -0.272055
  H      7.869489   -1.394750   -0.618079
  H      3.729369   -2.164656   -1.775039
  H      1.423196   -1.451154   -1.173574
  S      0.533108    0.508354    0.879449
  S     -0.532567    0.511573   -0.872987
  C     -2.100504   -0.034561   -0.333766
  C     -2.286148   -1.006541    0.671331
  C     -3.559729   -1.407679    1.006640
  C     -4.682946   -0.865771    0.341767
  C     -4.493451    0.093764   -0.674206
  C     -3.213491    0.505681   -1.002477
  H     -3.075481    1.267185   -1.775713
  H     -5.343798    0.530003   -1.200486
  O     -5.860392   -1.320453    0.730143
  C     -7.048637   -0.860887    0.117608
  H     -7.053497   -1.097499   -0.960962
  H     -7.870104   -1.396021    0.612524
  H     -7.175401    0.225680    0.268302
  H     -3.731377   -2.164953    1.775053
  H     -1.424624   -1.450157    1.177415

 Total Charge           Charge          ....    1
 Multiplicity           Mult            ....    2
 Number of Electrons    NEL             ....  145
 Basis Dimension        Dim             .... 1158

ORBITAL ENERGIES
----------------
                 SPIN UP ORBITALS
  NO   OCC          E(Eh)            E(eV)
   0   1.0000     -88.975251     -2421.1397
   1   1.0000     -88.975155     -2421.1370
   2   1.0000     -19.189508      -522.1731
   3   1.0000     -19.189402      -522.1702
   4   1.0000     -10.270284      -279.4686
   5   1.0000     -10.270187      -279.4660
   6   1.0000     -10.243404      -278.7372
   7   1.0000     -10.243288      -278.7340
   8   1.0000     -10.226857      -278.2869
   9   1.0000     -10.226823      -278.2860
  10   1.0000     -10.212813      -277.9048
  11   1.0000     -10.212735      -277.9026
  12   1.0000     -10.211352      -277.8650
  13   1.0000     -10.211293      -277.8634
  14   1.0000     -10.199911      -277.5537
  15   1.0000     -10.199842      -277.5518
  16   1.0000     -10.197889      -277.4987
  17   1.0000     -10.197802      -277.4963
  18   1.0000      -8.023554      -218.3320
  19   1.0000      -8.023432      -218.3287
  20   1.0000      -5.987656      -162.9324
  21   1.0000      -5.987378      -162.9248
  22   1.0000      -5.983105      -162.8086
  23   1.0000      -5.983012      -162.8060
  24   1.0000      -5.982549      -162.7934
  25   1.0000      -5.982445      -162.7906
  26   1.0000      -1.107224       -30.1291
  27   1.0000      -1.107128       -30.1265
  28   1.0000      -0.911022       -24.7902
  29   1.0000      -0.891656       -24.2632
  30   1.0000      -0.856735       -23.3129
  31   1.0000      -0.808448       -21.9990
  32   1.0000      -0.782037       -21.2803
  33   1.0000      -0.778647       -21.1881
  34   1.0000      -0.765601       -20.8331
  35   1.0000      -0.739954       -20.1352
  36   1.0000      -0.707010       -19.2387
  37   1.0000      -0.675448       -18.3799
  38   1.0000      -0.640529       -17.4297
  39   1.0000      -0.639995       -17.4152
  40   1.0000      -0.609831       -16.5943
  41   1.0000      -0.595411       -16.2020
  42   1.0000      -0.555431       -15.1140
  43   1.0000      -0.554212       -15.0809
  44   1.0000      -0.524495       -14.2722
  45   1.0000      -0.514735       -14.0067
  46   1.0000      -0.501574       -13.6485
  47   1.0000      -0.492079       -13.3901
  48   1.0000      -0.489054       -13.3078
  49   1.0000      -0.488836       -13.3019
  50   1.0000      -0.466493       -12.6939
  51   1.0000      -0.466035       -12.6815
  52   1.0000      -0.448329       -12.1997
  53   1.0000      -0.447794       -12.1851
  54   1.0000      -0.438587       -11.9345
  55   1.0000      -0.431595       -11.7443
  56   1.0000      -0.425950       -11.5907
  57   1.0000      -0.415859       -11.3161
  58   1.0000      -0.401076       -10.9138
  59   1.0000      -0.398121       -10.8334
  60   1.0000      -0.385992       -10.5034
  61   1.0000      -0.383427       -10.4336
  62   1.0000      -0.372884       -10.1467
  63   1.0000      -0.369118       -10.0442
  64   1.0000      -0.362495        -9.8640
  65   1.0000      -0.345226        -9.3941
  66   1.0000      -0.344940        -9.3863
  67   1.0000      -0.334799        -9.1103
  68   1.0000      -0.296699        -8.0736
  69   1.0000      -0.286773        -7.8035
  70   1.0000      -0.285731        -7.7751
  71   1.0000      -0.247181        -6.7261
  72   1.0000      -0.231034        -6.2868
  73   0.0000      -0.082497        -2.2449
  74   0.0000      -0.044681        -1.2158
  75   0.0000      -0.038484        -1.0472
  76   0.0000      -0.033439        -0.9099
  77   0.0000      -0.025797        -0.7020

                 SPIN DOWN ORBITALS
  NO   OCC          E(Eh)            E(eV)
   0   1.0000     -88.973441     -2421.0904
   1   1.0000     -88.973351     -2421.0880
   2   1.0000     -19.188029      -522.1328
   3   1.0000     -19.187934      -522.1302
   4   1.0000     -10.269242      -279.4403
   5   1.0000     -10.269151      -279.4378
   6   1.0000     -10.242392      -278.7097
   7   1.0000     -10.242282      -278.7067
   8   1.0000     -10.226910      -278.2884
   9   1.0000     -10.226876      -278.2874
  10   1.0000     -10.212332      -277.8917
  11   1.0000     -10.212259      -277.8897
  12   1.0000     -10.210883      -277.8523
  13   1.0000     -10.210825      -277.8507
  14   1.0000     -10.199713      -277.5483
  15   1.0000     -10.199642      -277.5464
  16   1.0000     -10.197925      -277.4997
  17   1.0000     -10.197841      -277.4973
  18   1.0000      -8.021759      -218.2832
  19   1.0000      -8.021638      -218.2799
  20   1.0000      -5.986484      -162.9005
  21   1.0000      -5.986203      -162.8929
  22   1.0000      -5.982010      -162.7788
  23   1.0000      -5.981924      -162.7764
  24   1.0000      -5.976768      -162.6361
  25   1.0000      -5.976679      -162.6337
  26   1.0000      -1.104453       -30.0537
  27   1.0000      -1.104377       -30.0516
  28   1.0000      -0.906281       -24.6612
  29   1.0000      -0.888942       -24.1893
  30   1.0000      -0.852291       -23.1920
  31   1.0000      -0.804595       -21.8942
  32   1.0000      -0.780926       -21.2501
  33   1.0000      -0.777630       -21.1604
  34   1.0000      -0.762677       -20.7535
  35   1.0000      -0.737341       -20.0641
  36   1.0000      -0.704890       -19.1810
  37   1.0000      -0.669549       -18.2194
  38   1.0000      -0.638997       -17.3880
  39   1.0000      -0.638363       -17.3707
  40   1.0000      -0.608329       -16.5535
  41   1.0000      -0.592537       -16.1238
  42   1.0000      -0.554592       -15.0912
  43   1.0000      -0.552945       -15.0464
  44   1.0000      -0.523187       -14.2366
  45   1.0000      -0.513800       -13.9812
  46   1.0000      -0.500193       -13.6109
  47   1.0000      -0.487602       -13.2683
  48   1.0000      -0.484410       -13.1815
  49   1.0000      -0.484248       -13.1771
  50   1.0000      -0.465299       -12.6614
  51   1.0000      -0.464841       -12.6490
  52   1.0000      -0.447784       -12.1848
  53   1.0000      -0.447277       -12.1710
  54   1.0000      -0.436740       -11.8843
  55   1.0000      -0.430978       -11.7275
  56   1.0000      -0.421461       -11.4685
  57   1.0000      -0.411550       -11.1989
  58   1.0000      -0.397429       -10.8146
  59   1.0000      -0.395224       -10.7546
  60   1.0000      -0.383077       -10.4241
  61   1.0000      -0.382474       -10.4076
  62   1.0000      -0.364661        -9.9229
  63   1.0000      -0.360928        -9.8214
  64   1.0000      -0.355548        -9.6750
  65   1.0000      -0.344181        -9.3657
  66   1.0000      -0.343692        -9.3523
  67   1.0000      -0.322730        -8.7819
  68   1.0000      -0.284940        -7.7536
  69   1.0000      -0.284579        -7.7438
  70   1.0000      -0.277193        -7.5428
  71   1.0000      -0.231871        -6.3095
  72   0.0000      -0.179387        -4.8814
  73   0.0000      -0.076464        -2.0807
  74   0.0000      -0.040255        -1.0954
  75   0.0000      -0.033490        -0.9113
  76   0.0000      -0.027026        -0.7354

MULLIKEN ATOMIC CHARGES AND SPIN POPULATIONS
--------------------------------------------
   0 C :    1.135649    0.029018
   1 C :   -0.498244    0.018614
   2 C :   -0.992569   -0.003234
   3 C :    1.145599    0.067288
   4 C :   -0.183449    0.015137
   5 C :   -1.110155    0.026522
   6 H :    0.377343   -0.005057
   7 H :    0.380328    0.001279
   8 O :   -0.651098    0.048212
   9 C :   -0.663006   -0.003599
  10 H :    0.301261    0.002690
  11 H :    0.296498    0.002152
  12 H :    0.241301    0.000205
  13 H :    0.458627    0.001459
  14 H :    0.437534    0.004530
  15 S :   -0.177038    0.293516
  16 S :   -0.175929    0.294600
  17 C :    1.138607    0.029499
  18 C :   -0.466915    0.018354
  19 C :   -1.014460   -0.003095
  20 C :    1.146262    0.067874
  21 C :   -0.180878    0.014988
  22 C :   -1.114245    0.026492
  23 H :    0.378479   -0.005069
  24 H :    0.375385    0.001365
  25 O :   -0.648709    0.048562
  26 C :   -0.662107   -0.003659
  27 H :    0.301633    0.002750
  28 H :    0.242217    0.000208
  29 H :    0.297019    0.002160
  30 H :    0.439286    0.001504
  31 H :    0.445773    0.004732
Sum of atomic charges         :    1.0000000

LOEWDIN ATOMIC CHARGES AND SPIN POPULATIONS
-------------------------------------------
   0 C :   -0.579943    0.072560
   1 C :    0.112939    0.025206
   2 C :    0.225115    0.013954
   3 C :   -0.380923    0.044572
   4 C :    0.230630    0.023702
   5 C :    0.124629    0.028701
   6 H :   -0.169265    0.004640
   7 H :   -0.170917    0.002018
   8 O :    0.617196    0.044985
   9 C :    0.364613    0.004694
  10 H :   -0.152352    0.001234
  11 H :   -0.152262    0.001243
  12 H :   -0.162757   -0.000125
  13 H :   -0.155195    0.000213
  14 H :   -0.203175    0.004097
  15 S :    0.951093    0.227192
  16 S :    0.951353    0.227825
  17 C :   -0.579727    0.072872
  18 C :    0.113042    0.025324
  19 C :    0.225236    0.014125
  20 C :   -0.380797    0.044887
  21 C :    0.230722    0.023779
  22 C :    0.124708    0.028867
  23 H :   -0.169210    0.004654
  24 H :   -0.170879    0.002012
  25 O :    0.617292    0.045317
  26 C :    0.364730    0.004729
  27 H :   -0.152322    0.001243
  28 H :   -0.162736   -0.000126
  29 H :   -0.152240    0.001252
  30 H :   -0.155158    0.000229
  31 H :   -0.203443    0.004123

  Mayer bond orders larger than 0.100000
B(  0-C ,  1-C ) :   0.6772 B(  0-C ,  2-C ) :  -0.1337 B(  0-C ,  5-C ) :   0.6668
B(  0-C , 15-S ) :   0.4267 B(  1-C ,  2-C ) :   1.0946 B(  1-C ,  3-C ) :  -0.2119
B(  1-C ,  8-O ) :   0.1234 B(  1-C , 14-H ) :   0.7270 B(  1-C , 16-S ) :   0.1370
B(  1-C , 18-C ) :   0.1352 B(  2-C ,  3-C ) :   0.7336 B(  2-C ,  5-C ) :   0.1123
B(  2-C ,  8-O ) :   0.3100 B(  2-C , 13-H ) :   0.5576 B(  3-C ,  4-C ) :   1.0036
B(  3-C ,  5-C ) :  -0.1066 B(  3-C ,  8-O ) :   0.3390 B(  4-C ,  5-C ) :   1.0452
B(  4-C ,  7-H ) :   0.6655 B(  4-C ,  8-O ) :  -0.1887 B(  4-C ,  9-C ) :  -0.1289
B(  5-C ,  6-H ) :   0.7110 B(  5-C , 15-S ) :   0.1166 B(  8-O ,  9-C ) :   0.9535
B(  9-C , 10-H ) :   0.8986 B(  9-C , 11-H ) :   0.9028 B(  9-C , 12-H ) :   0.9822
B( 15-S , 16-S ) :   1.0902 B( 15-S , 18-C ) :   0.1324 B( 16-S , 17-C ) :   0.4209
B( 16-S , 22-C ) :   0.1199 B( 17-C , 18-C ) :   0.6814 B( 17-C , 19-C ) :  -0.1436
B( 17-C , 22-C ) :   0.6664 B( 18-C , 19-C ) :   1.0377 B( 18-C , 20-C ) :  -0.2124
B( 18-C , 25-O ) :   0.1262 B( 18-C , 31-H ) :   0.7129 B( 19-C , 20-C ) :   0.7383
B( 19-C , 22-C ) :   0.1147 B( 19-C , 25-O ) :   0.3110 B( 19-C , 30-H ) :   0.5889
B( 20-C , 21-C ) :   0.9997 B( 20-C , 22-C ) :  -0.1016 B( 20-C , 25-O ) :   0.3360
B( 21-C , 22-C ) :   1.0521 B( 21-C , 24-H ) :   0.6760 B( 21-C , 25-O ) :  -0.1924
B( 21-C , 26-C ) :  -0.1313 B( 22-C , 23-H ) :   0.7074 B( 25-O , 26-C ) :   0.9506
B( 26-C , 27-H ) :   0.8985 B( 26-C , 28-H ) :   0.9807 B( 26-C , 29-H ) :   0.9023

Dispersion correction           -0.070815238
FINAL SINGLE POINT ENERGY     -1488.402940384822

DIPOLE MOMENT
-------------

Method             : SCF
Type of density    : Electron Density
Multiplicity       :   2
Irrep              :   0
Energy             : -1488.3321251466159083 Eh
Relativity type    :
Basis              : AO
                                X                 Y                 Z
Electronic contribution:     -0.008853415       3.336847799       0.016253919
Nuclear contribution   :     -0.000025572      -2.851825111      -0.017728862
                        -----------------------------------------
Total Dipole Moment    :     -0.008878987       0.485022688      -0.001474942
                        -----------------------------------------
Magnitude (a.u.)       :      0.485106194
Magnitude (Debye)      :      1.233041953

Rotational constants in cm-1:             0.050702             0.003581             0.003572
Rotational constants in MHz :          1519.993315           107.353371           107.097515

                             ****ORCA TERMINATED NORMALLY****
TOTAL RUN TIME: 0 days 0 hours 21 minutes 20 seconds 76 msec
