                         Program Version 6.0.0  -   RELEASE  -
|  1> !r2SCANh aug-cc-pVTZ d3 TightSCF SlowConv RIJCOSX defgrid2
|  2>
|  3> %pal
|  4> nprocs 4
|  5> end
|  6>
|  7> %scf
|  8> MaxIter 1500
|  9> end
| 10>
| 11> %maxcore 3000
| 12>
| 13> !CPCM
| 14> %cpcm smd true
| 15> SMDsolvent "MeCN"
| 16> surfacetype gepol_ses
| 17> rsolv 2.19
| 18> end
| 19>
| 20> * xyz 1 2
| 21> C          -0.08274669059718     -1.04399274826201      0.00954198550444
| 22> C          -1.44314186979999     -1.21224349192059      0.01464115375041
| 23> C          -2.32257727617337     -0.09487222329371      0.01274887003500
| 24> C          -1.76475290459407      1.20761482302953      0.00780256836072
| 25> C          -0.40273191503338      1.38761253420536      0.00299374201136
| 26> C           0.48723075022230      0.26923379961588      0.00339892002300
| 27> C           1.88361104255076      0.51997141228763     -0.00136731410568
| 28> C           2.88609272782847     -0.43252038403740     -0.00211440107444
| 29> C           4.32371272330116     -0.12403052833475     -0.00716059814151
| 30> H           4.81199450703941     -0.59263895023193      0.87108589562038
| 31> H           4.80704713115468     -0.59771697456439     -0.88539713829447
| 32> H           4.53724499406217      0.95562079688104     -0.01081444259812
| 33> H           2.61316130337916     -1.49525746809077      0.00127055185440
| 34> H           2.19060539304120      1.57295312497944     -0.00515248687208
| 35> H           0.01742107746022      2.39740330737597      0.00010725500974
| 36> H          -2.43168783850088      2.07400339025986      0.00974847718212
| 37> C          -3.79206162044774     -0.30228879497229     -0.00564898818348
| 38> H          -4.34940861071486      0.62196968873633      0.20771494941170
| 39> H          -4.10189712650768     -0.66414858988669     -1.00697947362935
| 40> H          -4.09284114272650     -1.08666315679518      0.71118909458011
| 41> H          -1.86630567510074     -2.22073732773736      0.02172898720586
| 42> H           0.56388072015687     -1.92419663924397      0.01175289234987
| 43> *
| 44>
| 45>                          ****END OF INPUT****

CARTESIAN COORDINATES (ANGSTROEM)
---------------------------------
  C     -0.082747   -1.043993    0.009542
  C     -1.443142   -1.212243    0.014641
  C     -2.322577   -0.094872    0.012749
  C     -1.764753    1.207615    0.007803
  C     -0.402732    1.387613    0.002994
  C      0.487231    0.269234    0.003399
  C      1.883611    0.519971   -0.001367
  C      2.886093   -0.432520   -0.002114
  C      4.323713   -0.124031   -0.007161
  H      4.811995   -0.592639    0.871086
  H      4.807047   -0.597717   -0.885397
  H      4.537245    0.955621   -0.010814
  H      2.613161   -1.495257    0.001271
  H      2.190605    1.572953   -0.005152
  H      0.017421    2.397403    0.000107
  H     -2.431688    2.074003    0.009748
  C     -3.792062   -0.302289   -0.005649
  H     -4.349409    0.621970    0.207715
  H     -4.101897   -0.664149   -1.006979
  H     -4.092841   -1.086663    0.711189
  H     -1.866306   -2.220737    0.021729
  H      0.563881   -1.924197    0.011753

 Total Charge           Charge          ....    1
 Multiplicity           Mult            ....    2
 Number of Electrons    NEL             ....   71
 Basis Dimension        Dim             ....  736

ORBITAL ENERGIES
----------------
                 SPIN UP ORBITALS
  NO   OCC          E(Eh)            E(eV)
   0   1.0000     -10.229423      -278.3568
   1   1.0000     -10.225909      -278.2611
   2   1.0000     -10.224177      -278.2140
   3   1.0000     -10.211827      -277.8779
   4   1.0000     -10.201973      -277.6098
   5   1.0000     -10.201611      -277.5999
   6   1.0000     -10.189727      -277.2766
   7   1.0000     -10.189516      -277.2708
   8   1.0000     -10.169491      -276.7259
   9   1.0000     -10.164843      -276.5994
  10   1.0000      -0.904113       -24.6022
  11   1.0000      -0.851601       -23.1732
  12   1.0000      -0.803877       -21.8746
  13   1.0000      -0.781745       -21.2724
  14   1.0000      -0.737202       -20.0603
  15   1.0000      -0.682056       -18.5597
  16   1.0000      -0.639249       -17.3949
  17   1.0000      -0.615027       -16.7357
  18   1.0000      -0.576528       -15.6881
  19   1.0000      -0.529042       -14.3960
  20   1.0000      -0.495312       -13.4781
  21   1.0000      -0.476035       -12.9536
  22   1.0000      -0.449370       -12.2280
  23   1.0000      -0.438488       -11.9319
  24   1.0000      -0.438099       -11.9213
  25   1.0000      -0.433404       -11.7935
  26   1.0000      -0.428102       -11.6493
  27   1.0000      -0.396428       -10.7874
  28   1.0000      -0.394292       -10.7292
  29   1.0000      -0.386909       -10.5283
  30   1.0000      -0.371766       -10.1163
  31   1.0000      -0.365917        -9.9571
  32   1.0000      -0.346661        -9.4331
  33   1.0000      -0.324178        -8.8213
  34   1.0000      -0.288617        -7.8537
  35   1.0000      -0.256512        -6.9800
  36   0.0000      -0.105639        -2.8746
  37   0.0000      -0.053824        -1.4646
  38   0.0000      -0.009333        -0.2540
  39   0.0000       0.008483         0.2308
  40   0.0000       0.018743         0.5100

                 SPIN DOWN ORBITALS
  NO   OCC          E(Eh)            E(eV)
   0   1.0000     -10.222049      -278.1561
   1   1.0000     -10.221724      -278.1472
   2   1.0000     -10.220884      -278.1244
   3   1.0000     -10.211281      -277.8631
   4   1.0000     -10.200144      -277.5600
   5   1.0000     -10.199800      -277.5507
   6   1.0000     -10.190705      -277.3032
   7   1.0000     -10.190374      -277.2942
   8   1.0000     -10.169722      -276.7322
   9   1.0000     -10.164963      -276.6027
  10   1.0000      -0.896788       -24.4028
  11   1.0000      -0.840122       -22.8609
  12   1.0000      -0.792080       -21.5536
  13   1.0000      -0.780014       -21.2253
  14   1.0000      -0.736287       -20.0354
  15   1.0000      -0.675995       -18.3948
  16   1.0000      -0.635909       -17.3040
  17   1.0000      -0.608196       -16.5499
  18   1.0000      -0.570851       -15.5336
  19   1.0000      -0.527460       -14.3529
  20   1.0000      -0.493442       -13.4273
  21   1.0000      -0.473070       -12.8729
  22   1.0000      -0.446973       -12.1628
  23   1.0000      -0.438039       -11.9196
  24   1.0000      -0.431654       -11.7459
  25   1.0000      -0.423879       -11.5343
  26   1.0000      -0.413396       -11.2491
  27   1.0000      -0.394041       -10.7224
  28   1.0000      -0.386040       -10.5047
  29   1.0000      -0.380920       -10.3654
  30   1.0000      -0.370749       -10.0886
  31   1.0000      -0.364582        -9.9208
  32   1.0000      -0.344843        -9.3836
  33   1.0000      -0.302958        -8.2439
  34   1.0000      -0.284023        -7.7287
  35   0.0000      -0.194621        -5.2959
  36   0.0000      -0.069663        -1.8956
  37   0.0000      -0.043721        -1.1897
  38   0.0000       0.009233         0.2512
  39   0.0000       0.014656         0.3988

MULLIKEN ATOMIC CHARGES AND SPIN POPULATIONS
--------------------------------------------
   0 C :   -0.654898    0.081846
   1 C :   -1.074907   -0.072672
   2 C :    1.532901    0.336539
   3 C :   -0.846799   -0.073165
   4 C :   -0.905462    0.073133
   5 C :    2.355990    0.177157
   6 C :    0.001580    0.026812
   7 C :   -0.092177    0.371107
   8 C :   -0.824735   -0.045682
   9 H :    0.200922    0.040006
  10 H :    0.198379    0.039879
  11 H :    0.263098   -0.009046
  12 H :    0.285236    0.028854
  13 H :    0.057481    0.009145
  14 H :    0.123008    0.016845
  15 H :    0.210583   -0.004623
  16 C :   -0.701484   -0.047421
  17 H :    0.196455   -0.002395
  18 H :    0.269393    0.032335
  19 H :    0.217251    0.015071
  20 H :    0.270370    0.001040
  21 H :   -0.082186    0.005233
Sum of atomic charges         :    1.0000000

LOEWDIN ATOMIC CHARGES AND SPIN POPULATIONS
-------------------------------------------
   0 C :    0.269391    0.065604
   1 C :    0.271621    0.025354
   2 C :   -0.076332    0.135096
   3 C :    0.274264    0.031242
   4 C :    0.267276    0.068325
   5 C :   -0.082118    0.110194
   6 C :    0.290840    0.107388
   7 C :    0.304577    0.224884
   8 C :    0.614705    0.071752
   9 H :   -0.138182    0.016162
  10 H :   -0.138185    0.016165
  11 H :   -0.154279    0.001230
  12 H :   -0.148531    0.038570
  13 H :   -0.150352    0.005911
  14 H :   -0.142601    0.010322
  15 H :   -0.147231   -0.003712
  16 C :    0.615073    0.047396
  17 H :   -0.153914    0.001825
  18 H :   -0.130523    0.013967
  19 H :   -0.142323    0.007982
  20 H :   -0.142476   -0.004779
  21 H :   -0.160699    0.009122

  Mayer bond orders larger than 0.100000
B(  0-C ,  1-C ) :   1.1188 B(  0-C ,  2-C ) :   0.1392 B(  0-C ,  3-C ) :  -0.1362
B(  0-C ,  4-C ) :  -0.5687 B(  0-C ,  6-C ) :   0.1654 B(  0-C , 21-H ) :   1.6618
B(  1-C ,  2-C ) :   0.5259 B(  1-C ,  4-C ) :  -0.1183 B(  1-C ,  7-C ) :  -0.1106
B(  1-C , 14-H ) :  -0.1014 B(  1-C , 16-C ) :   0.1045 B(  1-C , 20-H ) :   0.9104
B(  1-C , 21-H ) :  -0.1572 B(  2-C ,  3-C ) :   0.4456 B(  2-C ,  6-C ) :   0.1466
B(  2-C ,  7-C ) :   0.1022 B(  2-C , 14-H ) :  -0.1269 B(  2-C , 16-C ) :   0.2795
B(  2-C , 21-H ) :  -0.1203 B(  3-C ,  4-C ) :   1.5478 B(  3-C ,  5-C ) :  -0.1297
B(  3-C , 15-H ) :   1.0347 B(  3-C , 16-C ) :  -0.1566 B(  3-C , 21-H ) :  -0.1045
B(  4-C ,  5-C ) :  -0.4089 B(  4-C ,  7-C ) :   0.1423 B(  4-C , 14-H ) :   1.3838
B(  5-C ,  6-C ) :   0.3454 B(  5-C ,  7-C ) :  -0.1016 B(  5-C , 12-H ) :  -0.1283
B(  5-C , 14-H ) :  -0.1304 B(  5-C , 21-H ) :  -0.2663 B(  6-C ,  7-C ) :   0.6396
B(  6-C , 13-H ) :   1.1956 B(  6-C , 14-H ) :  -0.1082 B(  7-C ,  8-C ) :   0.6236
B(  7-C , 12-H ) :   1.1845 B(  7-C , 13-H ) :  -0.1537 B(  8-C ,  9-H ) :   1.0238
B(  8-C , 10-H ) :   1.0239 B(  8-C , 11-H ) :   0.9394 B(  8-C , 12-H ) :  -0.1865
B( 14-H , 21-H ) :   0.1229 B( 16-C , 17-H ) :   1.0217 B( 16-C , 18-H ) :   0.9477
B( 16-C , 19-H ) :   1.0010

Dispersion correction           -0.006928178
FINAL SINGLE POINT ENERGY      -387.979511735067

DIPOLE MOMENT
-------------

Method             : SCF
Type of density    : Electron Density
Multiplicity       :   2
Irrep              :   0
Energy             :  -387.9725835566554224 Eh
Relativity type    :
Basis              : AO
                                X                 Y                 Z
Electronic contribution:     -1.595661026       0.804063399       0.056134888
Nuclear contribution   :      2.533197376      -0.996205714      -0.098486582
                        -----------------------------------------
Total Dipole Moment    :      0.937536350      -0.192142315      -0.042351694
                        -----------------------------------------
Magnitude (a.u.)       :      0.957959678
Magnitude (Debye)      :      2.434939993

Rotational constants in cm-1:             0.153944             0.020635             0.018320
Rotational constants in MHz :          4615.121792           618.608795           549.210532

                             ****ORCA TERMINATED NORMALLY****
TOTAL RUN TIME: 0 days 0 hours 13 minutes 55 seconds 882 msec
