                         Program Version 6.0.0  -   RELEASE  -
|  1> !r2SCANh aug-cc-pVTZ d3 TightSCF SlowConv RIJCOSX defgrid2
|  2>
|  3> %pal
|  4> nprocs 4
|  5> end
|  6>
|  7> %scf
|  8> MaxIter 1500
|  9> end
| 10>
| 11> %maxcore 3000
| 12>
| 13> !CPCM
| 14> %cpcm smd true
| 15> SMDsolvent "MeCN"
| 16> surfacetype gepol_ses
| 17> rsolv 2.19
| 18> end
| 19>
| 20> * xyz 0 1
| 21> C          -0.22997754219743     -1.20609091856311     -0.00046087004095
| 22> C           1.16128384069195     -1.20031253591911      0.00041394587123
| 23> C           1.87254503831811     -0.00003037040882      0.00072012391754
| 24> C           1.16131377140118      1.20026930808148      0.00041360790641
| 25> C          -0.22994707632405      1.20608173416170     -0.00046177829750
| 26> C          -0.95218511536342      0.00000427823419     -0.00003761551285
| 27> N          -2.33340895991450      0.00002157595282      0.04653779431621
| 28> H          -2.79855452143895      0.84821355690402     -0.25483389378867
| 29> H          -2.79857532928795     -0.84816111010491     -0.25482834496791
| 30> H          -0.77344381556999      2.15676174884881      0.00298430668171
| 31> H           1.69817818740019      2.15419904894576     -0.00079679497611
| 32> H           2.96571339060225     -0.00004426352233      0.00028554339021
| 33> H           1.69812535441562     -2.15425546581862     -0.00079688995407
| 34> H          -0.77349762273302     -2.15675758679187      0.00298456545474
| 35> *
| 36>
| 37>                          ****END OF INPUT****

CARTESIAN COORDINATES (ANGSTROEM)
---------------------------------
  C     -0.229978   -1.206091   -0.000461
  C      1.161284   -1.200313    0.000414
  C      1.872545   -0.000030    0.000720
  C      1.161314    1.200269    0.000414
  C     -0.229947    1.206082   -0.000462
  C     -0.952185    0.000004   -0.000038
  N     -2.333409    0.000022    0.046538
  H     -2.798555    0.848214   -0.254834
  H     -2.798575   -0.848161   -0.254828
  H     -0.773444    2.156762    0.002984
  H      1.698178    2.154199   -0.000797
  H      2.965713   -0.000044    0.000286
  H      1.698125   -2.154255   -0.000797
  H     -0.773498   -2.156758    0.002985

 Total Charge           Charge          ....    0
 Multiplicity           Mult            ....    1
 Number of Electrons    NEL             ....   50
 Basis Dimension        Dim             ....  483

ORBITAL ENERGIES
----------------

  NO   OCC          E(Eh)            E(eV)
   0   2.0000     -14.304790      -389.2531
   1   2.0000     -10.200621      -277.5730
   2   2.0000     -10.158247      -276.4199
   3   2.0000     -10.158231      -276.4195
   4   2.0000     -10.151519      -276.2369
   5   2.0000     -10.151514      -276.2367
   6   2.0000     -10.147503      -276.1276
   7   2.0000      -0.918897       -25.0045
   8   2.0000      -0.835911       -22.7463
   9   2.0000      -0.741427       -20.1753
  10   2.0000      -0.721341       -19.6287
  11   2.0000      -0.603115       -16.4116
  12   2.0000      -0.589943       -16.0532
  13   2.0000      -0.512717       -13.9517
  14   2.0000      -0.493575       -13.4309
  15   2.0000      -0.464311       -12.6346
  16   2.0000      -0.417368       -11.3572
  17   2.0000      -0.413135       -11.2420
  18   2.0000      -0.401426       -10.9234
  19   2.0000      -0.381897       -10.3919
  20   2.0000      -0.342440        -9.3183
  21   2.0000      -0.322316        -8.7707
  22   2.0000      -0.308900        -8.4056
  23   2.0000      -0.250845        -6.8258
  24   2.0000      -0.201730        -5.4894
  25   0.0000      -0.022844        -0.6216
  26   0.0000      -0.006184        -0.1683
  27   0.0000       0.010518         0.2862
  28   0.0000       0.023717         0.6454
  29   0.0000       0.028448         0.7741

MULLIKEN ATOMIC CHARGES
-----------------------
   0 C :   -0.941005
   1 C :   -0.292755
   2 C :   -0.550473
   3 C :   -0.292761
   4 C :   -0.940916
   5 C :    1.307133
   6 N :   -0.613283
   7 H :    0.056256
   8 H :    0.056387
   9 H :    0.508168
  10 H :    0.337599
  11 H :    0.519566
  12 H :    0.337650
  13 H :    0.508435
Sum of atomic charges:   -0.0000000

LOEWDIN ATOMIC CHARGES
----------------------
   0 C :    0.197062
   1 C :    0.157431
   2 C :    0.158627
   3 C :    0.157431
   4 C :    0.197062
   5 C :   -0.275442
   6 N :    0.854287
   7 H :   -0.284638
   8 H :   -0.284638
   9 H :   -0.171031
  10 H :   -0.174910
  11 H :   -0.185301
  12 H :   -0.174910
  13 H :   -0.171031

  Mayer bond orders larger than 0.100000
B(  0-C ,  1-C ) :   1.1302 B(  0-C ,  2-C ) :   0.3368 B(  0-C ,  3-C ) :  -0.1737
B(  0-C ,  4-C ) :   0.5590 B(  0-C ,  5-C ) :   0.5812 B(  0-C , 13-H ) :   0.3013
B(  1-C ,  2-C ) :   1.0441 B(  1-C ,  3-C ) :  -0.1341 B(  1-C ,  4-C ) :  -0.1739
B(  1-C ,  5-C ) :  -0.2213 B(  1-C , 12-H ) :   0.8603 B(  2-C ,  3-C ) :   1.0449
B(  2-C ,  4-C ) :   0.3371 B(  2-C ,  5-C ) :  -0.1154 B(  2-C , 11-H ) :   0.5047
B(  3-C ,  4-C ) :   1.1302 B(  3-C ,  5-C ) :  -0.2214 B(  3-C , 10-H ) :   0.8601
B(  4-C ,  5-C ) :   0.5810 B(  4-C ,  9-H ) :   0.3015 B(  5-C ,  6-N ) :   0.5103
B(  5-C ,  9-H ) :   0.1463 B(  5-C , 13-H ) :   0.1465 B(  6-N ,  7-H ) :   1.0870
B(  6-N ,  8-H ) :   1.0868

Dispersion correction           -0.003921744
FINAL SINGLE POINT ENERGY      -287.546997449968

DIPOLE MOMENT
-------------

Method             : SCF
Type of density    : Electron Density
Multiplicity       :   1
Irrep              :   0
Energy             :  -287.5430757060362339 Eh
Relativity type    :
Basis              : AO
                                X                 Y                 Z
Electronic contribution:     -0.130386694       0.000003324       0.039832546
Nuclear contribution   :     -0.743352745       0.000007126      -0.484101489
                        -----------------------------------------
Total Dipole Moment    :     -0.873739439       0.000010450      -0.444268943
                        -----------------------------------------
Magnitude (a.u.)       :      0.980201766
Magnitude (Debye)      :      2.491474888

Rotational constants in cm-1:             0.187523             0.086550             0.059285
Rotational constants in MHz :          5621.786837          2594.705838          1777.328239

                             ****ORCA TERMINATED NORMALLY****
TOTAL RUN TIME: 0 days 0 hours 3 minutes 3 seconds 303 msec
