                         Program Version 6.0.0  -   RELEASE  -
|  1> !PBE0 aug-cc-pVTZ d3 TightSCF SlowConv RIJCOSX defgrid2
|  2>
|  3> %pal
|  4> nprocs 4
|  5> end
|  6>
|  7> %scf
|  8> MaxIter 1500
|  9> end
| 10>
| 11> %maxcore 3000
| 12>
| 13> !CPCM
| 14> %cpcm smd true
| 15> SMDsolvent "MeCN"
| 16> surfacetype gepol_ses
| 17> rsolv 2.19
| 18> end
| 19>
| 20> * xyz 1 2
| 21> C          -1.18929710111744     -1.09285531809476     -0.10819644925615
| 22> C           0.00589173329489     -1.79822529332208     -0.13401141651239
| 23> C           1.19808208156691     -1.09105158000585     -0.06434654491920
| 24> C           1.21365138858984      0.35785054897918      0.03424223925553
| 25> C           2.51775471479426      1.05048436689676      0.10640427638312
| 26> H           2.41427085604479      2.14280676868630      0.17575377847974
| 27> H           3.09603271561737      0.68522468132195      0.97881748737636
| 28> H           3.13366664954396      0.79986441621953     -0.78044888567292
| 29> C          -0.00007800896972      1.04312717812580      0.05823770417539
| 30> C          -1.21092205755184      0.35593020163616     -0.01041203166499
| 31> C          -2.51780389192698      1.04678727365115      0.01197629521183
| 32> H          -3.09403194335214      0.80285450596818     -0.90319738383305
| 33> H          -2.41838300212946      2.13863620693826      0.09339400927998
| 34> H          -3.13338924600238      0.67411631081689      0.85502734287022
| 35> H          -0.00212028703487      2.13377489791986      0.13228993338047
| 36> H           2.15561414738440     -1.62182776088860     -0.08279661789994
| 37> H           0.00790773530576     -2.88854491189358     -0.20783219258290
| 38> H          -2.14457188405735     -1.62532769295516     -0.16174234407112
| 39> *
| 40>
| 41>                          ****END OF INPUT****

CARTESIAN COORDINATES (ANGSTROEM)
---------------------------------
  C     -1.189297   -1.092855   -0.108196
  C      0.005892   -1.798225   -0.134011
  C      1.198082   -1.091052   -0.064347
  C      1.213651    0.357851    0.034242
  C      2.517755    1.050484    0.106404
  H      2.414271    2.142807    0.175754
  H      3.096033    0.685225    0.978817
  H      3.133667    0.799864   -0.780449
  C     -0.000078    1.043127    0.058238
  C     -1.210922    0.355930   -0.010412
  C     -2.517804    1.046787    0.011976
  H     -3.094032    0.802855   -0.903197
  H     -2.418383    2.138636    0.093394
  H     -3.133389    0.674116    0.855027
  H     -0.002120    2.133775    0.132290
  H      2.155614   -1.621828   -0.082797
  H      0.007908   -2.888545   -0.207832
  H     -2.144572   -1.625328   -0.161742

 Total Charge           Charge          ....    1
 Multiplicity           Mult            ....    2
 Number of Electrons    NEL             ....   57
 Basis Dimension        Dim             ....  598

ORBITAL ENERGIES
----------------
                 SPIN UP ORBITALS
  NO   OCC          E(Eh)            E(eV)
   0   1.0000     -10.312132      -280.6074
   1   1.0000     -10.312080      -280.6060
   2   1.0000     -10.299621      -280.2669
   3   1.0000     -10.299577      -280.2657
   4   1.0000     -10.267765      -279.4001
   5   1.0000     -10.261645      -279.2336
   6   1.0000     -10.241372      -278.6819
   7   1.0000     -10.241349      -278.6813
   8   1.0000      -0.938666       -25.5424
   9   1.0000      -0.855063       -23.2675
  10   1.0000      -0.830528       -22.5998
  11   1.0000      -0.745502       -20.2862
  12   1.0000      -0.738726       -20.1018
  13   1.0000      -0.654131       -17.7998
  14   1.0000      -0.629488       -17.1292
  15   1.0000      -0.554630       -15.0922
  16   1.0000      -0.530721       -14.4417
  17   1.0000      -0.493101       -13.4180
  18   1.0000      -0.474493       -12.9116
  19   1.0000      -0.465589       -12.6693
  20   1.0000      -0.453185       -12.3318
  21   1.0000      -0.449632       -12.2351
  22   1.0000      -0.427858       -11.6426
  23   1.0000      -0.412112       -11.2141
  24   1.0000      -0.398728       -10.8499
  25   1.0000      -0.391059       -10.6413
  26   1.0000      -0.383161       -10.4263
  27   1.0000      -0.308082        -8.3833
  28   1.0000      -0.307988        -8.3808
  29   0.0000      -0.077791        -2.1168
  30   0.0000      -0.041994        -1.1427
  31   0.0000      -0.001709        -0.0465
  32   0.0000       0.011283         0.3070
  33   0.0000       0.013689         0.3725

                 SPIN DOWN ORBITALS
  NO   OCC          E(Eh)            E(eV)
   0   1.0000     -10.308672      -280.5132
   1   1.0000     -10.308627      -280.5120
   2   1.0000     -10.293942      -280.1124
   3   1.0000     -10.293902      -280.1113
   4   1.0000     -10.270073      -279.4629
   5   1.0000     -10.263022      -279.2710
   6   1.0000     -10.241276      -278.6793
   7   1.0000     -10.241253      -278.6787
   8   1.0000      -0.928114       -25.2553
   9   1.0000      -0.841988       -22.9117
  10   1.0000      -0.827828       -22.5263
  11   1.0000      -0.744253       -20.2522
  12   1.0000      -0.726795       -19.7771
  13   1.0000      -0.649185       -17.6652
  14   1.0000      -0.622468       -16.9382
  15   1.0000      -0.551334       -15.0026
  16   1.0000      -0.527166       -14.3449
  17   1.0000      -0.490260       -13.3407
  18   1.0000      -0.464557       -12.6413
  19   1.0000      -0.456425       -12.4199
  20   1.0000      -0.448548       -12.2056
  21   1.0000      -0.437810       -11.9134
  22   1.0000      -0.426803       -11.6139
  23   1.0000      -0.410442       -11.1687
  24   1.0000      -0.389097       -10.5879
  25   1.0000      -0.380214       -10.3462
  26   1.0000      -0.375855       -10.2275
  27   1.0000      -0.303252        -8.2519
  28   0.0000      -0.204534        -5.5656
  29   0.0000      -0.038924        -1.0592
  30   0.0000      -0.027653        -0.7525
  31   0.0000      -0.000900        -0.0245
  32   0.0000       0.011884         0.3234

MULLIKEN ATOMIC CHARGES AND SPIN POPULATIONS
--------------------------------------------
   0 C :   -0.721913    0.346324
   1 C :   -0.683907   -0.161284
   2 C :   -0.725650    0.345785
   3 C :    0.909634    0.265792
   4 C :   -0.653395   -0.014787
   5 H :    0.239813   -0.005060
   6 H :    0.275723    0.021708
   7 H :    0.280064    0.021459
   8 C :   -0.687184   -0.105285
   9 C :    0.909630    0.265074
  10 C :   -0.652025   -0.014733
  11 H :    0.278456    0.021766
  12 H :    0.240308   -0.005043
  13 H :    0.275994    0.021274
  14 H :    0.254310    0.004855
  15 H :    0.407309   -0.004279
  16 H :    0.648789    0.000629
  17 H :    0.404044   -0.004197
Sum of atomic charges         :    1.0000000

LOEWDIN ATOMIC CHARGES AND SPIN POPULATIONS
-------------------------------------------
   0 C :    0.311876    0.200983
   1 C :    0.273315    0.043190
   2 C :    0.311815    0.200733
   3 C :   -0.053205    0.156617
   4 C :    0.620199    0.050648
   5 H :   -0.145226    0.002302
   6 H :   -0.126025    0.013207
   7 H :   -0.126200    0.013092
   8 C :    0.289454    0.025540
   9 C :   -0.053323    0.156414
  10 C :    0.620174    0.050545
  11 H :   -0.125931    0.013231
  12 H :   -0.145268    0.002299
  13 H :   -0.126308    0.013021
  14 H :   -0.140802   -0.007417
  15 H :   -0.121100    0.038613
  16 H :   -0.142371   -0.011697
  17 H :   -0.121073    0.038677

  Mayer bond orders larger than 0.100000
B(  0-C ,  1-C ) :   1.3549 B(  0-C ,  3-C ) :  -0.1228 B(  0-C ,  8-C ) :  -0.1014
B(  0-C ,  9-C ) :   0.7684 B(  0-C , 10-C ) :   0.1465 B(  0-C , 17-H ) :   0.7650
B(  1-C ,  2-C ) :   1.3467 B(  1-C ,  3-C ) :   0.1246 B(  1-C ,  9-C ) :   0.1230
B(  1-C , 16-H ) :   0.2538 B(  2-C ,  3-C ) :   0.7695 B(  2-C ,  4-C ) :   0.1495
B(  2-C ,  8-C ) :  -0.1004 B(  2-C ,  9-C ) :  -0.1244 B(  2-C , 15-H ) :   0.7611
B(  3-C ,  4-C ) :   0.5678 B(  3-C ,  8-C ) :   0.7339 B(  3-C ,  9-C ) :   0.2306
B(  4-C ,  5-H ) :   0.9601 B(  4-C ,  6-H ) :   0.9169 B(  4-C ,  7-H ) :   0.9109
B(  4-C ,  8-C ) :  -0.1476 B(  8-C ,  9-C ) :   0.7343 B(  8-C , 10-C ) :  -0.1465
B(  8-C , 14-H ) :   1.0063 B(  9-C , 10-C ) :   0.5665 B( 10-C , 11-H ) :   0.9128
B( 10-C , 12-H ) :   0.9607 B( 10-C , 13-H ) :   0.9165

Dispersion correction           -0.015039093
FINAL SINGLE POINT ENERGY      -310.401946944607

DIPOLE MOMENT
-------------

Method             : SCF
Type of density    : Electron Density
Multiplicity       :   2
Irrep              :   0
Energy             :  -310.3869078516038940 Eh
Relativity type    :
Basis              : AO
                                X                 Y                 Z
Electronic contribution:      0.006782710      -3.191360980      -0.217748241
Nuclear contribution   :     -0.005606480       2.888237007       0.196904737
                        -----------------------------------------
Total Dipole Moment    :      0.001176230      -0.303123972      -0.020843504
                        -----------------------------------------
Magnitude (a.u.)       :      0.303842028
Magnitude (Debye)      :      0.772305059

Rotational constants in cm-1:             0.117442             0.059099             0.039898
Rotational constants in MHz :          3520.819355          1771.755031          1196.125429

                             ****ORCA TERMINATED NORMALLY****
TOTAL RUN TIME: 0 days 0 hours 5 minutes 37 seconds 186 msec
