                         Program Version 6.0.0  -   RELEASE  -
|  1> !PBE0 aug-cc-pVTZ d3 TightSCF SlowConv RIJCOSX defgrid2
|  2>
|  3> %pal
|  4> nprocs 4
|  5> end
|  6>
|  7> %scf
|  8> MaxIter 1500
|  9> end
| 10>
| 11> %maxcore 3000
| 12>
| 13> !CPCM
| 14> %cpcm smd true
| 15> SMDsolvent "MeCN"
| 16> surfacetype gepol_ses
| 17> rsolv 2.19
| 18> end
| 19>
| 20> * xyz 1 2
| 21> C           2.44830417164420     -0.69527642473796      0.00000945881878
| 22> C           2.44832214826430      0.69521603339414      0.00001009734484
| 23> C           1.23352505326865      1.40025135317577      0.00000577718412
| 24> C           0.00001141556131      0.71453178803145      0.00000268426234
| 25> C          -1.23348320904465      1.40028329659239      0.00000107782236
| 26> C          -2.44830108548662      0.69527938835391      0.00000695148737
| 27> C          -2.44832067103510     -0.69521530453956      0.00000530486429
| 28> C          -1.23352061718470     -1.40025032772324     -0.00000393184308
| 29> C          -0.00000717114678     -0.71452684352053     -0.00000494703196
| 30> C           1.23348727294566     -1.40028215170085     -0.00000132918117
| 31> H           1.23935708532449     -2.49454817867840      0.00000050523970
| 32> H          -1.23942268133971     -2.49451730914708     -0.00000545360366
| 33> H          -3.39340211959580     -1.24489598698530      0.00000832828244
| 34> H          -3.39336678788360      1.24498332942293      0.00000859404642
| 35> H          -1.23935478912557      2.49455128204595      0.00000167009943
| 36> H           1.23942795953164      2.49451607920762      0.00000299068588
| 37> H           3.39340268697296      1.24489500413589      0.00001313139295
| 38> H           3.39337233832933     -1.24497302732713      0.00001569012894
| 39> *
| 40>
| 41>                          ****END OF INPUT****

CARTESIAN COORDINATES (ANGSTROEM)
---------------------------------
  C      2.448304   -0.695276    0.000009
  C      2.448322    0.695216    0.000010
  C      1.233525    1.400251    0.000006
  C      0.000011    0.714532    0.000003
  C     -1.233483    1.400283    0.000001
  C     -2.448301    0.695279    0.000007
  C     -2.448321   -0.695215    0.000005
  C     -1.233521   -1.400250   -0.000004
  C     -0.000007   -0.714527   -0.000005
  C      1.233487   -1.400282   -0.000001
  H      1.239357   -2.494548    0.000001
  H     -1.239423   -2.494517   -0.000005
  H     -3.393402   -1.244896    0.000008
  H     -3.393367    1.244983    0.000009
  H     -1.239355    2.494551    0.000002
  H      1.239428    2.494516    0.000003
  H      3.393403    1.244895    0.000013
  H      3.393372   -1.244973    0.000016

 Total Charge           Charge          ....    1
 Multiplicity           Mult            ....    2
 Number of Electrons    NEL             ....   67
 Basis Dimension        Dim             ....  644

ORBITAL ENERGIES
----------------
                 SPIN UP ORBITALS
  NO   OCC          E(Eh)            E(eV)
   0   1.0000     -10.289941      -280.0035
   1   1.0000     -10.289921      -280.0030
   2   1.0000     -10.289902      -280.0025
   3   1.0000     -10.289889      -280.0021
   4   1.0000     -10.277847      -279.6744
   5   1.0000     -10.277348      -279.6608
   6   1.0000     -10.274194      -279.5750
   7   1.0000     -10.274192      -279.5750
   8   1.0000     -10.273543      -279.5573
   9   1.0000     -10.273530      -279.5570
  10   1.0000      -0.946334       -25.7511
  11   1.0000      -0.890508       -24.2319
  12   1.0000      -0.842746       -22.9323
  13   1.0000      -0.805793       -21.9268
  14   1.0000      -0.782527       -21.2936
  15   1.0000      -0.688418       -18.7328
  16   1.0000      -0.667367       -18.1600
  17   1.0000      -0.652450       -17.7541
  18   1.0000      -0.564533       -15.3617
  19   1.0000      -0.559389       -15.2217
  20   1.0000      -0.545619       -14.8471
  21   1.0000      -0.492975       -13.4145
  22   1.0000      -0.491798       -13.3825
  23   1.0000      -0.469455       -12.7745
  24   1.0000      -0.463561       -12.6141
  25   1.0000      -0.453931       -12.3521
  26   1.0000      -0.438897       -11.9430
  27   1.0000      -0.417233       -11.3535
  28   1.0000      -0.389162       -10.5896
  29   1.0000      -0.383782       -10.4432
  30   1.0000      -0.376935       -10.2569
  31   1.0000      -0.350710        -9.5433
  32   1.0000      -0.298110        -8.1120
  33   1.0000      -0.279078        -7.5941
  34   0.0000      -0.098648        -2.6844
  35   0.0000      -0.047793        -1.3005
  36   0.0000      -0.024604        -0.6695
  37   0.0000      -0.001249        -0.0340
  38   0.0000       0.010350         0.2816

                 SPIN DOWN ORBITALS
  NO   OCC          E(Eh)            E(eV)
   0   1.0000     -10.285972      -279.8955
   1   1.0000     -10.285937      -279.8946
   2   1.0000     -10.285936      -279.8945
   3   1.0000     -10.285910      -279.8938
   4   1.0000     -10.279005      -279.7060
   5   1.0000     -10.278508      -279.6924
   6   1.0000     -10.273619      -279.5594
   7   1.0000     -10.273617      -279.5593
   8   1.0000     -10.272955      -279.5413
   9   1.0000     -10.272942      -279.5410
  10   1.0000      -0.941654       -25.6237
  11   1.0000      -0.883525       -24.0419
  12   1.0000      -0.833603       -22.6835
  13   1.0000      -0.805283       -21.9129
  14   1.0000      -0.769153       -20.9297
  15   1.0000      -0.683544       -18.6002
  16   1.0000      -0.663668       -18.0593
  17   1.0000      -0.647759       -17.6264
  18   1.0000      -0.561559       -15.2808
  19   1.0000      -0.555082       -15.1045
  20   1.0000      -0.543596       -14.7920
  21   1.0000      -0.491206       -13.3664
  22   1.0000      -0.490550       -13.3486
  23   1.0000      -0.467160       -12.7121
  24   1.0000      -0.460524       -12.5315
  25   1.0000      -0.439721       -11.9654
  26   1.0000      -0.436191       -11.8694
  27   1.0000      -0.416160       -11.3243
  28   1.0000      -0.381366       -10.3775
  29   1.0000      -0.376145       -10.2354
  30   1.0000      -0.367409        -9.9977
  31   1.0000      -0.318825        -8.6757
  32   1.0000      -0.297984        -8.1085
  33   0.0000      -0.196443        -5.3455
  34   0.0000      -0.070473        -1.9177
  35   0.0000      -0.038592        -1.0501
  36   0.0000      -0.007374        -0.2006
  37   0.0000      -0.000429        -0.0117

MULLIKEN ATOMIC CHARGES AND SPIN POPULATIONS
--------------------------------------------
   0 C :   -0.412519    0.033105
   1 C :   -0.411552    0.033093
   2 C :   -1.024578    0.250629
   3 C :    1.360254   -0.056392
   4 C :   -1.018823    0.250590
   5 C :   -0.413069    0.033106
   6 C :   -0.405872    0.033108
   7 C :   -1.024271    0.250517
   8 C :    1.357264   -0.056405
   9 C :   -1.026776    0.250553
  10 H :    0.246869   -0.006558
  11 H :    0.245109   -0.006689
  12 H :    0.767340    0.001192
  13 H :    0.742817    0.001110
  14 H :    0.250924   -0.006665
  15 H :    0.244822   -0.006612
  16 H :    0.758999    0.001144
  17 H :    0.763062    0.001176
Sum of atomic charges         :    1.0000000

LOEWDIN ATOMIC CHARGES AND SPIN POPULATIONS
-------------------------------------------
   0 C :    0.272035    0.071630
   1 C :    0.272036    0.071628
   2 C :    0.294798    0.132363
   3 C :   -0.096207    0.027754
   4 C :    0.294800    0.132364
   5 C :    0.272035    0.071629
   6 C :    0.272038    0.071628
   7 C :    0.294805    0.132362
   8 C :   -0.096203    0.027753
   9 C :    0.294802    0.132362
  10 H :   -0.127703    0.025469
  11 H :   -0.127702    0.025469
  12 H :   -0.141030    0.006663
  13 H :   -0.141035    0.006663
  14 H :   -0.127698    0.025470
  15 H :   -0.127704    0.025470
  16 H :   -0.141032    0.006662
  17 H :   -0.141033    0.006662

  Mayer bond orders larger than 0.100000
B(  0-C ,  1-C ) :   1.3609 B(  0-C ,  3-C ) :  -0.2148 B(  0-C ,  9-C ) :   1.2465
B(  0-C , 16-H ) :   0.1037 B(  0-C , 17-H ) :   0.1463 B(  1-C ,  2-C ) :   1.2407
B(  1-C ,  8-C ) :  -0.2192 B(  1-C , 16-H ) :   0.1507 B(  1-C , 17-H ) :   0.1048
B(  2-C ,  3-C ) :   0.2623 B(  2-C ,  4-C ) :   0.3244 B(  2-C ,  8-C ) :  -0.2714
B(  2-C ,  9-C ) :   0.1007 B(  2-C , 15-H ) :   1.0663 B(  2-C , 16-H ) :  -0.1675
B(  3-C ,  4-C ) :   0.2612 B(  3-C ,  6-C ) :  -0.2162 B(  3-C ,  7-C ) :  -0.2726
B(  3-C ,  8-C ) :   1.3096 B(  3-C ,  9-C ) :  -0.2705 B(  4-C ,  5-C ) :   1.2317
B(  4-C ,  7-C ) :   0.1010 B(  4-C ,  8-C ) :  -0.2734 B(  4-C , 13-H ) :  -0.1645
B(  4-C , 14-H ) :   1.0581 B(  5-C ,  6-C ) :   1.3510 B(  5-C ,  8-C ) :  -0.2121
B(  5-C , 13-H ) :   0.1783 B(  6-C ,  7-C ) :   1.2422 B(  6-C , 12-H ) :   0.1428
B(  6-C , 13-H ) :   0.1051 B(  7-C ,  8-C ) :   0.2618 B(  7-C ,  9-C ) :   0.3145
B(  7-C , 11-H ) :   1.0713 B(  7-C , 12-H ) :  -0.1719 B(  8-C ,  9-C ) :   0.2618
B(  9-C , 10-H ) :   1.0638 B(  9-C , 17-H ) :  -0.1689

Dispersion correction           -0.018468744
FINAL SINGLE POINT ENERGY      -385.369624443145

DIPOLE MOMENT
-------------

Method             : SCF
Type of density    : Electron Density
Multiplicity       :   2
Irrep              :   0
Energy             :  -385.3511556986583741 Eh
Relativity type    :
Basis              : AO
                                X                 Y                 Z
Electronic contribution:     -0.000005966      -0.000011792      -0.000015642
Nuclear contribution   :     -0.000000135       0.000002239       0.000018059
                        -----------------------------------------
Total Dipole Moment    :     -0.000006101      -0.000009553       0.000002417
                        -----------------------------------------
Magnitude (a.u.)       :      0.000011590
Magnitude (Debye)      :      0.000029460

Rotational constants in cm-1:             0.104687             0.040748             0.029331
Rotational constants in MHz :          3138.446851          1221.580167           879.321255

                             ****ORCA TERMINATED NORMALLY****
TOTAL RUN TIME: 0 days 0 hours 5 minutes 33 seconds 567 msec
