                         Program Version 6.0.0  -   RELEASE  -
|  1> !PBE0 aug-cc-pVTZ d3 TightSCF SlowConv RIJCOSX defgrid2
|  2>
|  3> %pal
|  4> nprocs 4
|  5> end
|  6>
|  7> %scf
|  8> MaxIter 1500
|  9> end
| 10>
| 11> %maxcore 3000
| 12>
| 13> !CPCM
| 14> %cpcm smd true
| 15> SMDsolvent "MeCN"
| 16> surfacetype gepol_ses
| 17> rsolv 2.19
| 18> end
| 19>
| 20> * xyz 0 1
| 21> C           0.42903816797988     -1.14370342260353     -0.19375133840947
| 22> N           1.23090536349830     -0.00018108549555      0.21241157549017
| 23> H           1.32661660064153     -0.00085078462932      1.22885627448115
| 24> C           0.42918767964663      1.14398838233565     -0.19235272832111
| 25> C          -1.04960974603338      0.77261574951429      0.06492785280490
| 26> C          -1.04906283726916     -0.77294678133786      0.06683505909787
| 27> H          -1.38035607535846     -1.16390392177494      1.04420027054079
| 28> H          -1.72458244369567     -1.20024957174541     -0.69292350481507
| 29> H          -1.38487048878375      1.16593613289024      1.03994785440171
| 30> H          -1.72261217593395      1.19722636930467     -0.69855684493278
| 31> H           0.59041632586080      1.31476098653939     -1.27323726969509
| 32> H           0.75473592936517      2.05790809606369      0.33083351670359
| 33> H           0.58863701367587     -1.31196075363090     -1.27529624277050
| 34> H           0.75559928640620     -2.05873729543043      0.32686602542384
| 35> *
| 36>
| 37>                          ****END OF INPUT****

CARTESIAN COORDINATES (ANGSTROEM)
---------------------------------
  C      0.429038   -1.143703   -0.193751
  N      1.230905   -0.000181    0.212412
  H      1.326617   -0.000851    1.228856
  C      0.429188    1.143988   -0.192353
  C     -1.049610    0.772616    0.064928
  C     -1.049063   -0.772947    0.066835
  H     -1.380356   -1.163904    1.044200
  H     -1.724582   -1.200250   -0.692924
  H     -1.384870    1.165936    1.039948
  H     -1.722612    1.197226   -0.698557
  H      0.590416    1.314761   -1.273237
  H      0.754736    2.057908    0.330834
  H      0.588637   -1.311961   -1.275296
  H      0.755599   -2.058737    0.326866

 Total Charge           Charge          ....    0
 Multiplicity           Mult            ....    1
 Number of Electrons    NEL             ....   40
 Basis Dimension        Dim             ....  437

ORBITAL ENERGIES
----------------

  NO   OCC          E(Eh)            E(eV)
   0   2.0000     -14.366197      -390.9241
   1   2.0000     -10.234560      -278.4965
   2   2.0000     -10.234547      -278.4962
   3   2.0000     -10.210679      -277.8467
   4   2.0000     -10.210473      -277.8411
   5   2.0000      -0.942227       -25.6393
   6   2.0000      -0.768768       -20.9192
   7   2.0000      -0.730612       -19.8810
   8   2.0000      -0.608997       -16.5716
   9   2.0000      -0.582314       -15.8456
  10   2.0000      -0.512028       -13.9330
  11   2.0000      -0.473889       -12.8952
  12   2.0000      -0.435231       -11.8433
  13   2.0000      -0.431143       -11.7320
  14   2.0000      -0.376319       -10.2402
  15   2.0000      -0.355837        -9.6828
  16   2.0000      -0.342548        -9.3212
  17   2.0000      -0.342223        -9.3123
  18   2.0000      -0.316475        -8.6117
  19   2.0000      -0.244589        -6.6556
  20   0.0000       0.002693         0.0733
  21   0.0000       0.018029         0.4906
  22   0.0000       0.022003         0.5987
  23   0.0000       0.022712         0.6180
  24   0.0000       0.042285         1.1506

MULLIKEN ATOMIC CHARGES
-----------------------
   0 C :   -0.269150
   1 N :   -0.415698
   2 H :    0.028181
   3 C :   -0.268291
   4 C :   -0.417961
   5 C :   -0.416681
   6 H :    0.190568
   7 H :    0.216643
   8 H :    0.191965
   9 H :    0.215093
  10 H :    0.226098
  11 H :    0.247038
  12 H :    0.225025
  13 H :    0.247170
Sum of atomic charges:   -0.0000000

LOEWDIN ATOMIC CHARGES
----------------------
   0 C :    0.143768
   1 N :    0.536355
   2 H :   -0.292718
   3 C :    0.143990
   4 C :    0.296373
   5 C :    0.296201
   6 H :   -0.144601
   7 H :   -0.142557
   8 H :   -0.144649
   9 H :   -0.142647
  10 H :   -0.141256
  11 H :   -0.133591
  12 H :   -0.141131
  13 H :   -0.133538

  Mayer bond orders larger than 0.100000
B(  0-C ,  1-N ) :   0.8787 B(  0-C ,  5-C ) :   0.9772 B(  0-C , 12-H ) :   0.9545
B(  0-C , 13-H ) :   0.9258 B(  1-N ,  2-H ) :   0.9445 B(  1-N ,  3-C ) :   0.8765
B(  3-C ,  4-C ) :   0.9780 B(  3-C , 10-H ) :   0.9542 B(  3-C , 11-H ) :   0.9257
B(  4-C ,  5-C ) :   0.9764 B(  4-C ,  8-H ) :   0.9916 B(  4-C ,  9-H ) :   0.9181
B(  5-C ,  6-H ) :   0.9927 B(  5-C ,  7-H ) :   0.9163

Dispersion correction           -0.008953843
FINAL SINGLE POINT ENERGY      -212.421144157155

DIPOLE MOMENT
-------------

Method             : SCF
Type of density    : Electron Density
Multiplicity       :   1
Irrep              :   0
Energy             :  -212.4121903141550263 Eh
Relativity type    :
Basis              : AO
                                X                 Y                 Z
Electronic contribution:      1.462183089      -0.000967979       0.338682587
Nuclear contribution   :     -2.069088816       0.000471850       0.035748568
                        -----------------------------------------
Total Dipole Moment    :     -0.606905728      -0.000496129       0.374431155
                        -----------------------------------------
Magnitude (a.u.)       :      0.713115347
Magnitude (Debye)      :      1.812595163

Rotational constants in cm-1:             0.230180             0.223654             0.130688
Rotational constants in MHz :          6900.610800          6704.969164          3917.942142

                             ****ORCA TERMINATED NORMALLY****
TOTAL RUN TIME: 0 days 0 hours 2 minutes 13 seconds 709 msec
