                         Program Version 6.0.0  -   RELEASE  -
|  1> !TPSSh aug-cc-pVTZ d3 TightSCF SlowConv RIJCOSX defgrid2
|  2>
|  3> %pal
|  4> nprocs 4
|  5> end
|  6>
|  7> %scf
|  8> MaxIter 1500
|  9> end
| 10>
| 11> %maxcore 3000
| 12>
| 13> !CPCM
| 14> %cpcm smd true
| 15> SMDsolvent "MeCN"
| 16> surfacetype gepol_ses
| 17> rsolv 2.19
| 18> end
| 19>
| 20> * xyz -1 2
| 21> C           0.22794298897248     -1.32265639381783      0.00010090294401
| 22> C           1.59543811909498     -1.22519922622522      0.00005920870666
| 23> C           2.24938913290759      0.05051285824288     -0.00006076880347
| 24> C           1.41323843170898      1.21344313185840     -0.00013147831105
| 25> C           0.04476039121495      1.11078484934738     -0.00009132277474
| 26> C          -0.60963123993324     -0.16243960932374      0.00001856177073
| 27> C          -2.03234655015939     -0.32642555516269      0.00004823556518
| 28> O          -2.66249266053587     -1.38070299418175      0.00028693239647
| 29> O          -2.71431442900417      0.87834037288675      0.00017303848078
| 30> C          -4.10409629646245      0.76410388717440      0.00037606736278
| 31> H          -4.47622443606713      0.22239507752821     -0.88993521865745
| 32> H          -4.50472531304601      1.79227894799534      0.00110489591886
| 33> H          -4.47585642501352      0.22119730713171      0.89009526934874
| 34> H          -0.56969461364873      2.01480881708110     -0.00015706084987
| 35> H           1.88675005189144      2.20080747549968     -0.00022323008499
| 36> C           3.65255521641015      0.15685604656258     -0.00011286386991
| 37> N           4.82172741475790      0.24605470544831     -0.00015284690981
| 38> H           2.21001750339424     -2.13142621067461      0.00011344187289
| 39> H          -0.26118628648220     -2.30109838737090      0.00018753589417
| 40> *
| 41>
| 42>                          ****END OF INPUT****

CARTESIAN COORDINATES (ANGSTROEM)
---------------------------------
  C      0.227943   -1.322656    0.000101
  C      1.595438   -1.225199    0.000059
  C      2.249389    0.050513   -0.000061
  C      1.413238    1.213443   -0.000131
  C      0.044760    1.110785   -0.000091
  C     -0.609631   -0.162440    0.000019
  C     -2.032347   -0.326426    0.000048
  O     -2.662493   -1.380703    0.000287
  O     -2.714314    0.878340    0.000173
  C     -4.104096    0.764104    0.000376
  H     -4.476224    0.222395   -0.889935
  H     -4.504725    1.792279    0.001105
  H     -4.475856    0.221197    0.890095
  H     -0.569695    2.014809   -0.000157
  H      1.886750    2.200807   -0.000223
  C      3.652555    0.156856   -0.000113
  N      4.821727    0.246055   -0.000153
  H      2.210018   -2.131426    0.000113
  H     -0.261186   -2.301098    0.000188

 Total Charge           Charge          ....   -1
 Multiplicity           Mult            ....    2
 Number of Electrons    NEL             ....   85
 Basis Dimension        Dim             ....  713

ORBITAL ENERGIES
----------------
                 SPIN UP ORBITALS
  NO   OCC          E(Eh)            E(eV)
   0   1.0000     -19.066446      -518.8244
   1   1.0000     -19.006292      -517.1875
   2   1.0000     -14.225969      -387.1083
   3   1.0000     -10.196967      -277.4736
   4   1.0000     -10.144854      -276.0555
   5   1.0000     -10.133976      -275.7595
   6   1.0000     -10.121722      -275.4261
   7   1.0000     -10.108912      -275.0775
   8   1.0000     -10.108896      -275.0770
   9   1.0000     -10.103416      -274.9279
  10   1.0000     -10.102324      -274.8982
  11   1.0000     -10.098937      -274.8060
  12   1.0000      -1.048715       -28.5370
  13   1.0000      -0.959344       -26.1051
  14   1.0000      -0.866011       -23.5654
  15   1.0000      -0.820928       -22.3386
  16   1.0000      -0.744052       -20.2467
  17   1.0000      -0.717351       -19.5201
  18   1.0000      -0.680728       -18.5236
  19   1.0000      -0.621490       -16.9116
  20   1.0000      -0.570102       -15.5133
  21   1.0000      -0.532778       -14.4976
  22   1.0000      -0.511863       -13.9285
  23   1.0000      -0.484171       -13.1750
  24   1.0000      -0.440398       -11.9838
  25   1.0000      -0.439534       -11.9603
  26   1.0000      -0.413428       -11.2499
  27   1.0000      -0.405795       -11.0422
  28   1.0000      -0.390935       -10.6379
  29   1.0000      -0.387972       -10.5572
  30   1.0000      -0.375140       -10.2081
  31   1.0000      -0.356200        -9.6927
  32   1.0000      -0.355097        -9.6627
  33   1.0000      -0.334800        -9.1104
  34   1.0000      -0.323077        -8.7914
  35   1.0000      -0.313063        -8.5189
  36   1.0000      -0.312021        -8.4905
  37   1.0000      -0.291931        -7.9439
  38   1.0000      -0.265550        -7.2260
  39   1.0000      -0.245007        -6.6670
  40   1.0000      -0.236156        -6.4261
  41   1.0000      -0.235155        -6.3989
  42   1.0000      -0.104221        -2.8360
  43   0.0000      -0.012308        -0.3349
  44   0.0000      -0.003732        -0.1016
  45   0.0000       0.007400         0.2014
  46   0.0000       0.011168         0.3039
  47   0.0000       0.013981         0.3804

                 SPIN DOWN ORBITALS
  NO   OCC          E(Eh)            E(eV)
   0   1.0000     -19.065571      -518.8005
   1   1.0000     -19.003275      -517.1054
   2   1.0000     -14.222594      -387.0165
   3   1.0000     -10.195369      -277.4301
   4   1.0000     -10.144903      -276.0569
   5   1.0000     -10.134166      -275.7647
   6   1.0000     -10.117938      -275.3231
   7   1.0000     -10.108320      -275.0614
   8   1.0000     -10.108305      -275.0610
   9   1.0000     -10.102663      -274.9074
  10   1.0000     -10.101585      -274.8781
  11   1.0000     -10.095455      -274.7113
  12   1.0000      -1.046242       -28.4697
  13   1.0000      -0.955132       -25.9905
  14   1.0000      -0.861363       -23.4389
  15   1.0000      -0.816491       -22.2179
  16   1.0000      -0.736794       -20.0492
  17   1.0000      -0.713797       -19.4234
  18   1.0000      -0.677922       -18.4472
  19   1.0000      -0.614870       -16.7315
  20   1.0000      -0.569298       -15.4914
  21   1.0000      -0.529979       -14.4215
  22   1.0000      -0.509803       -13.8724
  23   1.0000      -0.482167       -13.1204
  24   1.0000      -0.437371       -11.9015
  25   1.0000      -0.435202       -11.8424
  26   1.0000      -0.411743       -11.2041
  27   1.0000      -0.403492       -10.9796
  28   1.0000      -0.389963       -10.6114
  29   1.0000      -0.387048       -10.5321
  30   1.0000      -0.362336        -9.8597
  31   1.0000      -0.352449        -9.5906
  32   1.0000      -0.343191        -9.3387
  33   1.0000      -0.331620        -9.0238
  34   1.0000      -0.321714        -8.7543
  35   1.0000      -0.310747        -8.4559
  36   1.0000      -0.301357        -8.2004
  37   1.0000      -0.290707        -7.9105
  38   1.0000      -0.257340        -7.0026
  39   1.0000      -0.234544        -6.3823
  40   1.0000      -0.233801        -6.3621
  41   1.0000      -0.214533        -5.8377
  42   0.0000      -0.061065        -1.6617
  43   0.0000      -0.008363        -0.2276
  44   0.0000      -0.002441        -0.0664
  45   0.0000       0.008109         0.2206
  46   0.0000       0.015385         0.4186

MULLIKEN ATOMIC CHARGES AND SPIN POPULATIONS
--------------------------------------------
   0 C :   -1.031682    0.079934
   1 C :   -0.922627    0.066391
   2 C :    1.273511    0.208312
   3 C :   -1.080542    0.066763
   4 C :   -0.227310    0.076198
   5 C :    1.548315    0.193065
   6 C :    0.899201    0.078090
   7 O :   -1.078649    0.112595
   8 O :   -0.415237    0.025328
   9 C :   -0.299247   -0.003522
  10 H :    0.188589    0.002244
  11 H :    0.100227   -0.000683
  12 H :    0.188970    0.002233
  13 H :    0.047706   -0.010281
  14 H :   -0.066205   -0.005951
  15 C :    1.132835   -0.028442
  16 N :   -1.116498    0.156602
  17 H :   -0.067200   -0.008356
  18 H :   -0.074157   -0.010521
Sum of atomic charges         :   -1.0000000

LOEWDIN ATOMIC CHARGES AND SPIN POPULATIONS
-------------------------------------------
   0 C :    0.153704    0.065454
   1 C :    0.150725    0.063103
   2 C :   -0.261097    0.137507
   3 C :    0.149716    0.063267
   4 C :    0.159471    0.066841
   5 C :   -0.204644    0.142481
   6 C :   -0.895681    0.106446
   7 O :    0.423615    0.099300
   8 O :    0.558104    0.031945
   9 C :    0.258112    0.002896
  10 H :   -0.183596    0.000969
  11 H :   -0.180938    0.000015
  12 H :   -0.183718    0.000965
  13 H :   -0.202057    0.008184
  14 H :   -0.181668    0.007098
  15 C :   -0.335191    0.067479
  16 N :    0.153672    0.120948
  17 H :   -0.181929    0.007069
  18 H :   -0.196600    0.008033

  Mayer bond orders larger than 0.100000
B(  0-C ,  1-C ) :   2.0610 B(  0-C ,  3-C ) :   0.1502 B(  0-C ,  4-C ) :  -0.7065
B(  0-C ,  6-C ) :   0.4352 B(  0-C , 15-C ) :  -0.1537 B(  0-C , 18-H ) :   1.2136
B(  1-C ,  2-C ) :   0.3136 B(  1-C ,  3-C ) :  -0.2245 B(  1-C ,  4-C ) :   0.1593
B(  1-C ,  5-C ) :  -0.2309 B(  1-C ,  6-C ) :  -0.1469 B(  1-C , 15-C ) :   0.2674
B(  1-C , 17-H ) :   1.3088 B(  2-C ,  3-C ) :   0.2517 B(  2-C ,  4-C ) :   0.1193
B(  2-C ,  5-C ) :  -0.1425 B(  2-C ,  6-C ) :   0.2514 B(  2-C , 14-H ) :  -0.2069
B(  2-C , 15-C ) :   0.8662 B(  2-C , 16-N ) :   0.8676 B(  2-C , 17-H ) :  -0.1803
B(  3-C ,  4-C ) :   1.6835 B(  3-C ,  5-C ) :  -0.1489 B(  3-C , 14-H ) :   1.3616
B(  3-C , 15-C ) :   0.3092 B(  4-C ,  5-C ) :   0.3895 B(  4-C ,  6-C ) :   0.2619
B(  4-C , 13-H ) :   1.1619 B(  4-C , 15-C ) :  -0.2117 B(  5-C ,  6-C ) :   0.4893
B(  5-C ,  7-O ) :   0.1807 B(  5-C ,  8-O ) :   0.1655 B(  5-C , 13-H ) :  -0.1253
B(  5-C , 15-C ) :   0.3779 B(  6-C ,  7-O ) :   0.5015 B(  6-C ,  8-O ) :   0.7265
B(  6-C , 15-C ) :   0.2244 B(  6-C , 18-H ) :  -0.1088 B(  7-O , 18-H ) :   0.1894
B(  8-O ,  9-C ) :   1.0109 B(  9-C , 10-H ) :   0.9404 B(  9-C , 11-H ) :   0.9993
B(  9-C , 12-H ) :   0.9398 B( 13-H , 18-H ) :   0.1738 B( 14-H , 17-H ) :   0.1680
B( 15-C , 16-N ) :   0.4820 B( 15-C , 18-H ) :  -0.1273

Dispersion correction           -0.023875243
FINAL SINGLE POINT ENERGY      -552.729695761320

DIPOLE MOMENT
-------------

Method             : SCF
Type of density    : Electron Density
Multiplicity       :   2
Irrep              :   0
Energy             :  -552.7058205182365782 Eh
Relativity type    :
Basis              : AO
                                X                 Y                 Z
Electronic contribution:      6.617069938      -1.048578729      -0.001090894
Nuclear contribution   :     -9.634977547       1.865335493       0.000753927
                        -----------------------------------------
Total Dipole Moment    :     -3.017907610       0.816756764      -0.000336967
                        -----------------------------------------
Magnitude (a.u.)       :      3.126476942
Magnitude (Debye)      :      7.946872837

Rotational constants in cm-1:             0.113906             0.014521             0.012911
Rotational constants in MHz :          3414.805321           435.337364           387.058045

                             ****ORCA TERMINATED NORMALLY****
TOTAL RUN TIME: 0 days 0 hours 9 minutes 35 seconds 212 msec
