                         Program Version 6.0.0  -   RELEASE  -
|  1> !PBE0 aug-cc-pVTZ d3 TightSCF SlowConv RIJCOSX defgrid2
|  2>
|  3> %pal
|  4> nprocs 4
|  5> end
|  6>
|  7> %scf
|  8> MaxIter 1500
|  9> end
| 10>
| 11> %maxcore 3000
| 12>
| 13> !CPCM
| 14> %cpcm smd true
| 15> SMDsolvent "MeCN"
| 16> surfacetype gepol_ses
| 17> rsolv 2.19
| 18> end
| 19>
| 20> * xyz -1 2
| 21> C          -1.22535307927293     -0.03882807002799     -0.00002255469277
| 22> C          -1.22206264378164      1.41582015720061     -0.00002423880206
| 23> C           0.00004637420421      2.08121905033007     -0.00000415463824
| 24> C           1.22212161683371      1.41575862792076      0.00002170232485
| 25> C           1.22534433396412     -0.03888819251674      0.00002507087618
| 26> C          -0.00002135567409     -0.71608207495025      0.00000157424078
| 27> H          -0.00004774645346     -1.81053735349218      0.00000261550832
| 28> C           2.43402384370652     -0.77080587803239      0.00007579493229
| 29> N           3.44413671726320     -1.36247120639636      0.00011250089172
| 30> H           2.16848850432676      1.96074544120089      0.00003301965359
| 31> H           0.00007494156619      3.17901522614598     -0.00000842096167
| 32> H          -2.16840192148197      1.96085605610510     -0.00003754989011
| 33> C          -2.43406244869294     -0.77069683887805     -0.00005052688718
| 34> N          -3.44419623650770     -1.36232524460946     -0.00007393255569
| 35> *
| 36>
| 37>                          ****END OF INPUT****

CARTESIAN COORDINATES (ANGSTROEM)
---------------------------------
  C     -1.225353   -0.038828   -0.000023
  C     -1.222063    1.415820   -0.000024
  C      0.000046    2.081219   -0.000004
  C      1.222122    1.415759    0.000022
  C      1.225344   -0.038888    0.000025
  C     -0.000021   -0.716082    0.000002
  H     -0.000048   -1.810537    0.000003
  C      2.434024   -0.770806    0.000076
  N      3.444137   -1.362471    0.000113
  H      2.168489    1.960745    0.000033
  H      0.000075    3.179015   -0.000008
  H     -2.168402    1.960856   -0.000038
  C     -2.434062   -0.770697   -0.000051
  N     -3.444196   -1.362325   -0.000074

 Total Charge           Charge          ....   -1
 Multiplicity           Mult            ....    2
 Number of Electrons    NEL             ....   67
 Basis Dimension        Dim             ....  552

ORBITAL ENERGIES
----------------
                 SPIN UP ORBITALS
  NO   OCC          E(Eh)            E(eV)
   0   1.0000     -14.369461      -391.0129
   1   1.0000     -14.369458      -391.0128
   2   1.0000     -10.257830      -279.1297
   3   1.0000     -10.257824      -279.1296
   4   1.0000     -10.245527      -278.7950
   5   1.0000     -10.242932      -278.7243
   6   1.0000     -10.242867      -278.7226
   7   1.0000     -10.221412      -278.1388
   8   1.0000     -10.214767      -277.9579
   9   1.0000     -10.214736      -277.9571
  10   1.0000      -0.923547       -25.1310
  11   1.0000      -0.920365       -25.0444
  12   1.0000      -0.873643       -23.7730
  13   1.0000      -0.786196       -21.3935
  14   1.0000      -0.775217       -21.0947
  15   1.0000      -0.658194       -17.9104
  16   1.0000      -0.643631       -17.5141
  17   1.0000      -0.575671       -15.6648
  18   1.0000      -0.494830       -13.4650
  19   1.0000      -0.487716       -13.2714
  20   1.0000      -0.463545       -12.6137
  21   1.0000      -0.431770       -11.7491
  22   1.0000      -0.414230       -11.2718
  23   1.0000      -0.386780       -10.5248
  24   1.0000      -0.386063       -10.5053
  25   1.0000      -0.381066       -10.3693
  26   1.0000      -0.368154       -10.0180
  27   1.0000      -0.365735        -9.9521
  28   1.0000      -0.341861        -9.3025
  29   1.0000      -0.335658        -9.1337
  30   1.0000      -0.329690        -8.9713
  31   1.0000      -0.273207        -7.4343
  32   1.0000      -0.265557        -7.2262
  33   1.0000      -0.114815        -3.1243
  34   0.0000      -0.030381        -0.8267
  35   0.0000       0.001632         0.0444
  36   0.0000       0.017760         0.4833
  37   0.0000       0.018882         0.5138
  38   0.0000       0.031309         0.8519

                 SPIN DOWN ORBITALS
  NO   OCC          E(Eh)            E(eV)
   0   1.0000     -14.367428      -390.9576
   1   1.0000     -14.367426      -390.9575
   2   1.0000     -10.257882      -279.1312
   3   1.0000     -10.257877      -279.1310
   4   1.0000     -10.246375      -278.8180
   5   1.0000     -10.241200      -278.6772
   6   1.0000     -10.241174      -278.6765
   7   1.0000     -10.223651      -278.1997
   8   1.0000     -10.208756      -277.7944
   9   1.0000     -10.208751      -277.7942
  10   1.0000      -0.920225       -25.0406
  11   1.0000      -0.917231       -24.9591
  12   1.0000      -0.868606       -23.6360
  13   1.0000      -0.777624       -21.1602
  14   1.0000      -0.770626       -20.9698
  15   1.0000      -0.644207       -17.5298
  16   1.0000      -0.641542       -17.4573
  17   1.0000      -0.574612       -15.6360
  18   1.0000      -0.489459       -13.3189
  19   1.0000      -0.485537       -13.2121
  20   1.0000      -0.460262       -12.5244
  21   1.0000      -0.431441       -11.7401
  22   1.0000      -0.401329       -10.9207
  23   1.0000      -0.383311       -10.4304
  24   1.0000      -0.382867       -10.4183
  25   1.0000      -0.369576       -10.0567
  26   1.0000      -0.365177        -9.9370
  27   1.0000      -0.364142        -9.9088
  28   1.0000      -0.334268        -9.0959
  29   1.0000      -0.328214        -8.9312
  30   1.0000      -0.328039        -8.9264
  31   1.0000      -0.261822        -7.1245
  32   1.0000      -0.235026        -6.3954
  33   0.0000      -0.030172        -0.8210
  34   0.0000      -0.025448        -0.6925
  35   0.0000       0.003518         0.0957
  36   0.0000       0.019941         0.5426
  37   0.0000       0.020025         0.5449

MULLIKEN ATOMIC CHARGES AND SPIN POPULATIONS
--------------------------------------------
   0 C :    1.100550    0.105183
   1 C :   -0.912286    0.426702
   2 C :   -0.559662   -0.122028
   3 C :   -0.913300    0.426698
   4 C :    1.101918    0.105187
   5 C :   -1.084907   -0.043249
   6 H :   -0.002083    0.008365
   7 C :    0.496357   -0.017800
   8 N :   -0.880090    0.099346
   9 H :    0.204489   -0.030160
  10 H :    0.627540   -0.009684
  11 H :    0.204621   -0.030125
  12 C :    0.496089   -0.017783
  13 N :   -0.879235    0.099347
Sum of atomic charges         :   -1.0000000

LOEWDIN ATOMIC CHARGES AND SPIN POPULATIONS
-------------------------------------------
   0 C :   -0.258435    0.103413
   1 C :    0.149547    0.200320
   2 C :    0.119694    0.056357
   3 C :    0.149542    0.200320
   4 C :   -0.258435    0.103414
   5 C :    0.138745    0.013070
   6 H :   -0.162565   -0.001144
   7 C :   -0.324295    0.044007
   8 N :    0.171639    0.074741
   9 H :   -0.197359    0.046920
  10 H :   -0.178066   -0.007085
  11 H :   -0.197358    0.046921
  12 C :   -0.324293    0.044006
  13 N :    0.171640    0.074739

  Mayer bond orders larger than 0.100000
B(  0-C ,  1-C ) :   0.2583 B(  0-C ,  2-C ) :   0.1269 B(  0-C ,  4-C ) :   0.2674
B(  0-C ,  5-C ) :   0.6378 B(  0-C , 11-H ) :  -0.1270 B(  0-C , 12-C ) :   0.8472
B(  0-C , 13-N ) :   0.1378 B(  1-C ,  2-C ) :   1.2805 B(  1-C ,  5-C ) :  -0.2023
B(  1-C , 11-H ) :   1.1116 B(  1-C , 12-C ) :   0.3134 B(  2-C ,  3-C ) :   1.2831
B(  2-C ,  4-C ) :   0.1265 B(  2-C , 10-H ) :   0.4400 B(  3-C ,  4-C ) :   0.2565
B(  3-C ,  5-C ) :  -0.2019 B(  3-C ,  7-C ) :   0.3146 B(  3-C ,  9-H ) :   1.1118
B(  4-C ,  5-C ) :   0.6389 B(  4-C ,  6-H ) :  -0.1001 B(  4-C ,  7-C ) :   0.8454
B(  4-C ,  8-N ) :   0.1372 B(  4-C ,  9-H ) :  -0.1266 B(  5-C ,  6-H ) :   1.3679
B(  5-C ,  7-C ) :   0.1296 B(  5-C , 12-C ) :   0.1304 B(  7-C ,  8-N ) :   1.6051
B(  7-C , 12-C ) :   0.2011 B( 12-C , 13-N ) :   1.6068

Dispersion correction           -0.014129699
FINAL SINGLE POINT ENERGY      -416.498958409082

DIPOLE MOMENT
-------------

Method             : SCF
Type of density    : Electron Density
Multiplicity       :   2
Irrep              :   0
Energy             :  -416.4848287100299444 Eh
Relativity type    :
Basis              : AO
                                X                 Y                 Z
Electronic contribution:     -0.000109418      -3.202483045       0.000010271
Nuclear contribution   :      0.000114608       5.003113123      -0.000033044
                        -----------------------------------------
Total Dipole Moment    :      0.000005190       1.800630078      -0.000022773
                        -----------------------------------------
Magnitude (a.u.)       :      1.800630079
Magnitude (Debye)      :      4.576837932

Rotational constants in cm-1:             0.086960             0.030317             0.022480
Rotational constants in MHz :          2607.004234           908.865871           673.920567

                             ****ORCA TERMINATED NORMALLY****
TOTAL RUN TIME: 0 days 0 hours 5 minutes 5 seconds 26 msec
