                         Program Version 6.0.0  -   RELEASE  -
|  1> !PBE0 freq aug-cc-pVTZ d3 TightSCF SlowConv RIJCOSX defgrid2
|  2>
|  3> %pal
|  4> nprocs 12
|  5> end
|  6>
|  7> %scf
|  8> MaxIter 1500
|  9> end
| 10>
| 11> %maxcore 5000
| 12>
| 13> !CPCM
| 14> %cpcm smd true
| 15> SMDsolvent "MeCN"
| 16> surfacetype gepol_ses
| 17> rsolv 2.19
| 18> end
| 19>
| 20> * xyz 0 1
| 21>   C           1.34553984154909     -0.63236984385472      0.81624119461852
| 22>   C           2.58788636231364     -1.24601385354840      0.86636957175527
| 23>   C           3.66318872444278     -0.72592419882634      0.15816795814026
| 24>   C           3.48936911558684      0.42073851319885     -0.60449510139917
| 25>   C           2.25009020282094      1.04037417240525     -0.66875155599769
| 26>   C           1.18374314114989      0.50826931286186      0.04064706083188
| 27>   O          -0.00000414722889      1.19853483529506      0.00025630765471
| 28>   C          -1.18371989540813      0.50828261658623     -0.04036073130962
| 29>   C          -2.25030617168008      1.04050107614836      0.66860596239864
| 30>   C          -3.48953908320157      0.42080552580165      0.60412878184192
| 31>   C          -3.66314711361840     -0.72595118087598     -0.15843659532427
| 32>   C          -2.58767784248889     -1.24605525180994     -0.86634797766658
| 33>   C          -1.34535957554399     -0.63240615689687     -0.81589748863111
| 34>   H          -0.50980383089408     -1.03435827234278     -1.37468189365216
| 35>   H          -2.71445174895909     -2.13603706597183     -1.47104928407345
| 36>   H          -4.63046938306197     -1.21057917047969     -0.20356247105608
| 37>   H          -4.32160119389064      0.83671782551749      1.15934698133164
| 38>   H          -2.09999884544462      1.93369929085952      1.26217567437452
| 39>   H           2.09958328879921      1.93344325653802     -1.26246194401695
| 40>   H           4.32126574088169      0.83662009373654     -1.15997772743611
| 41>   H           4.63056391510086     -1.21046843872295      0.20315268044664
| 42>   H           2.71482858188132     -2.13596020461692      1.47108933287260
| 43>   H           0.51006821689415     -1.03410708100240      1.37530096429659
| 44>
| 45> *
| 46>
| 47>                          ****END OF INPUT****

CARTESIAN COORDINATES (ANGSTROEM)
---------------------------------
  C      1.345540   -0.632370    0.816241
  C      2.587886   -1.246014    0.866370
  C      3.663189   -0.725924    0.158168
  C      3.489369    0.420739   -0.604495
  C      2.250090    1.040374   -0.668752
  C      1.183743    0.508269    0.040647
  O     -0.000004    1.198535    0.000256
  C     -1.183720    0.508283   -0.040361
  C     -2.250306    1.040501    0.668606
  C     -3.489539    0.420806    0.604129
  C     -3.663147   -0.725951   -0.158437
  C     -2.587678   -1.246055   -0.866348
  C     -1.345360   -0.632406   -0.815897
  H     -0.509804   -1.034358   -1.374682
  H     -2.714452   -2.136037   -1.471049
  H     -4.630469   -1.210579   -0.203562
  H     -4.321601    0.836718    1.159347
  H     -2.099999    1.933699    1.262176
  H      2.099583    1.933443   -1.262462
  H      4.321266    0.836620   -1.159978
  H      4.630564   -1.210468    0.203153
  H      2.714829   -2.135960    1.471089
  H      0.510068   -1.034107    1.375301

 Total Charge           Charge          ....    0
 Multiplicity           Mult            ....    1
 Number of Electrons    NEL             ....   90
 Basis Dimension        Dim             ....  828

ORBITAL ENERGIES
----------------

  NO   OCC          E(Eh)            E(eV)
   0   2.0000     -19.256575      -523.9980
   1   2.0000     -10.293540      -280.1015
   2   2.0000     -10.293531      -280.1012
   3   2.0000     -10.232194      -278.4321
   4   2.0000     -10.232187      -278.4320
   5   2.0000     -10.231905      -278.4243
   6   2.0000     -10.231903      -278.4242
   7   2.0000     -10.230094      -278.3750
   8   2.0000     -10.230058      -278.3740
   9   2.0000     -10.228627      -278.3351
  10   2.0000     -10.228621      -278.3349
  11   2.0000     -10.225383      -278.2468
  12   2.0000     -10.225377      -278.2467
  13   2.0000      -1.121241       -30.5105
  14   2.0000      -0.896182       -24.3864
  15   2.0000      -0.881487       -23.9865
  16   2.0000      -0.794340       -21.6151
  17   2.0000      -0.779391       -21.2083
  18   2.0000      -0.775359       -21.0986
  19   2.0000      -0.751484       -20.4489
  20   2.0000      -0.660724       -17.9792
  21   2.0000      -0.640990       -17.4422
  22   2.0000      -0.629128       -17.1194
  23   2.0000      -0.601445       -16.3662
  24   2.0000      -0.567871       -15.4525
  25   2.0000      -0.528272       -14.3750
  26   2.0000      -0.503327       -13.6962
  27   2.0000      -0.498060       -13.5529
  28   2.0000      -0.490760       -13.3543
  29   2.0000      -0.458876       -12.4867
  30   2.0000      -0.455103       -12.3840
  31   2.0000      -0.439346       -11.9552
  32   2.0000      -0.438419       -11.9300
  33   2.0000      -0.425283       -11.5725
  34   2.0000      -0.416629       -11.3370
  35   2.0000      -0.387782       -10.5521
  36   2.0000      -0.378116       -10.2891
  37   2.0000      -0.372189       -10.1278
  38   2.0000      -0.371019       -10.0959
  39   2.0000      -0.351481        -9.5643
  40   2.0000      -0.344666        -9.3788
  41   2.0000      -0.278690        -7.5836
  42   2.0000      -0.271679        -7.3928
  43   2.0000      -0.269775        -7.3410
  44   2.0000      -0.237777        -6.4702
  45   0.0000      -0.022038        -0.5997
  46   0.0000      -0.014388        -0.3915
  47   0.0000      -0.005135        -0.1397
  48   0.0000       0.001414         0.0385
  49   0.0000       0.003941         0.1072

MULLIKEN ATOMIC CHARGES
-----------------------
   0 C :   -0.571907
   1 C :   -0.700150
   2 C :   -0.660318
   3 C :   -0.491193
   4 C :   -1.270367
   5 C :    1.266902
   6 O :   -0.816445
   7 C :    1.267501
   8 C :   -1.267465
   9 C :   -0.492323
  10 C :   -0.655289
  11 C :   -0.704888
  12 C :   -0.572894
  13 H :    0.656815
  14 H :    0.500051
  15 H :    0.590949
  16 H :    0.519949
  17 H :    0.564645
  18 H :    0.565809
  19 H :    0.522418
  20 H :    0.586311
  21 H :    0.501653
  22 H :    0.660234
Sum of atomic charges:   -0.0000000

LOEWDIN ATOMIC CHARGES
----------------------
   0 C :    0.197779
   1 C :    0.188004
   2 C :    0.182824
   3 C :    0.181199
   4 C :    0.202671
   5 C :   -0.407676
   6 O :    0.628413
   7 C :   -0.407621
   8 C :    0.202698
   9 C :    0.181198
  10 C :    0.182823
  11 C :    0.188010
  12 C :    0.197694
  13 H :   -0.167151
  14 H :   -0.171117
  15 H :   -0.178183
  16 H :   -0.172561
  17 H :   -0.170050
  18 H :   -0.170048
  19 H :   -0.172568
  20 H :   -0.178182
  21 H :   -0.171133
  22 H :   -0.167024

  Mayer bond orders larger than 0.100000
B(  0-C ,  1-C ) :   1.2847 B(  0-C ,  4-C ) :   0.3203 B(  0-C ,  5-C ) :   1.0093
B(  0-C ,  7-C ) :  -0.1099 B(  0-C , 12-C ) :   0.2821 B(  0-C , 22-H ) :   0.2496
B(  1-C ,  2-C ) :   1.3849 B(  1-C ,  4-C ) :  -0.1114 B(  1-C ,  5-C ) :  -0.3232
B(  1-C , 21-H ) :   0.6431 B(  2-C ,  3-C ) :   1.4230 B(  2-C ,  4-C ) :   0.4101
B(  2-C , 20-H ) :   0.4362 B(  3-C ,  4-C ) :   1.4251 B(  3-C ,  5-C ) :  -0.3714
B(  3-C , 19-H ) :   0.6020 B(  4-C ,  5-C ) :   0.3549 B(  4-C ,  6-O ) :   0.2041
B(  4-C , 18-H ) :   0.2193 B(  5-C ,  6-O ) :   0.5647 B(  5-C , 12-C ) :  -0.1101
B(  6-O ,  7-C ) :   0.5645 B(  6-O ,  8-C ) :   0.2002 B(  7-C ,  8-C ) :   0.3546
B(  7-C ,  9-C ) :  -0.3758 B(  7-C , 11-C ) :  -0.3217 B(  7-C , 12-C ) :   1.0088
B(  8-C ,  9-C ) :   1.4298 B(  8-C , 10-C ) :   0.4038 B(  8-C , 11-C ) :  -0.1105
B(  8-C , 12-C ) :   0.3192 B(  8-C , 17-H ) :   0.2224 B(  9-C , 10-C ) :   1.4146
B(  9-C , 16-H ) :   0.6035 B( 10-C , 11-C ) :   1.3897 B( 10-C , 15-H ) :   0.4305
B( 11-C , 12-C ) :   1.2875 B( 11-C , 14-H ) :   0.6460 B( 12-C , 13-H ) :   0.2532

Dispersion correction           -0.023696119
FINAL SINGLE POINT ENERGY      -538.100819586257

DIPOLE MOMENT
-------------

Method             : SCF
Type of density    : Electron Density
Multiplicity       :   1
Irrep              :   0
Energy             :  -538.0771234673687786 Eh
Relativity type    :
Basis              : AO
                                X                 Y                 Z
Electronic contribution:     -0.000318238       2.505237819       0.001705743
Nuclear contribution   :     -0.000054758      -3.041575932      -0.000726358
                        -----------------------------------------
Total Dipole Moment    :     -0.000372997      -0.536338113       0.000979385
                        -----------------------------------------
Magnitude (a.u.)       :      0.536339137
Magnitude (Debye)      :      1.363265746

VIBRATIONAL FREQUENCIES
-----------------------

Scaling factor for frequencies =  1.000000000  (already applied!)

     0:       0.00 cm**-1
     1:       0.00 cm**-1
     2:       0.00 cm**-1
     3:       0.00 cm**-1
     4:       0.00 cm**-1
     5:       0.00 cm**-1
     6:     -53.76 cm**-1 ***imaginary mode***
     7:     -45.33 cm**-1 ***imaginary mode***
     8:      75.30 cm**-1
     9:     209.20 cm**-1
    10:     231.94 cm**-1
    11:     315.04 cm**-1
    12:     384.24 cm**-1
    13:     414.15 cm**-1
    14:     418.21 cm**-1
    15:     482.31 cm**-1
    16:     506.51 cm**-1
    17:     570.58 cm**-1
    18:     608.80 cm**-1
    19:     619.87 cm**-1
    20:     632.09 cm**-1
    21:     704.42 cm**-1
    22:     706.68 cm**-1
    23:     765.30 cm**-1
    24:     770.74 cm**-1
    25:     817.20 cm**-1
    26:     837.86 cm**-1
    27:     838.40 cm**-1
    28:     891.08 cm**-1
    29:     920.78 cm**-1
    30:     927.44 cm**-1
    31:     990.94 cm**-1
    32:     991.64 cm**-1
    33:    1011.72 cm**-1
    34:    1012.11 cm**-1
    35:    1016.68 cm**-1
    36:    1017.47 cm**-1
    37:    1044.79 cm**-1
    38:    1044.85 cm**-1
    39:    1090.75 cm**-1
    40:    1092.85 cm**-1
    41:    1154.90 cm**-1
    42:    1155.39 cm**-1
    43:    1167.20 cm**-1
    44:    1167.86 cm**-1
    45:    1234.98 cm**-1
    46:    1280.31 cm**-1
    47:    1314.77 cm**-1
    48:    1329.39 cm**-1
    49:    1361.81 cm**-1
    50:    1369.93 cm**-1
    51:    1480.81 cm**-1
    52:    1490.45 cm**-1
    53:    1516.00 cm**-1
    54:    1525.99 cm**-1
    55:    1645.24 cm**-1
    56:    1648.67 cm**-1
    57:    1655.44 cm**-1
    58:    1666.77 cm**-1
    59:    3186.60 cm**-1
    60:    3186.69 cm**-1
    61:    3194.32 cm**-1
    62:    3194.38 cm**-1
    63:    3204.62 cm**-1
    64:    3204.87 cm**-1
    65:    3210.20 cm**-1
    66:    3210.42 cm**-1
    67:    3215.20 cm**-1
    68:    3215.41 cm**-1

IR SPECTRUM
-----------

 Mode   freq       eps      Int      T**2         TX        TY        TZ
       cm**-1   L/(mol*cm) km/mol    a.u.
----------------------------------------------------------------------------
  8:     75.30   0.000075    0.38  0.000312  (-0.000024  0.017668 -0.000009)
  9:    209.20   0.000396    2.00  0.000590  ( 0.023777 -0.000032  0.004968)
 10:    231.94   0.000021    0.11  0.000028  (-0.000101 -0.005307 -0.000047)
 11:    315.04   0.000134    0.68  0.000133  (-0.000014  0.011519  0.000003)
 12:    384.24   0.001695    8.57  0.001377  (-0.034886 -0.000007  0.012635)
 13:    414.15   0.000270    1.37  0.000204  (-0.013152 -0.000004 -0.005539)
 14:    418.21   0.000000    0.00  0.000000  ( 0.000034  0.000147  0.000026)
 15:    482.31   0.004252   21.49  0.002751  (-0.000024 -0.052449 -0.000044)
 16:    506.51   0.009224   46.62  0.005683  ( 0.048900  0.000023  0.057375)
 17:    570.58   0.000147    0.74  0.000081  (-0.000507 -0.000009  0.008963)
 18:    608.80   0.000127    0.64  0.000065  ( 0.000007 -0.008069 -0.000017)
 19:    619.87   0.000254    1.28  0.000128  ( 0.005574  0.000012 -0.009830)
 20:    632.09   0.000645    3.26  0.000318  (-0.000002 -0.017841  0.000002)
 21:    704.42   0.018895   95.49  0.008371  ( 0.035991 -0.000871  0.084109)
 22:    706.68   0.010284   51.97  0.004541  ( 0.000491  0.067380  0.001077)
 23:    765.30   0.002728   13.79  0.001113  (-0.000009  0.033354 -0.000131)
 24:    770.74   0.027416  138.55  0.011100  ( 0.008708  0.000044  0.104997)
 25:    817.20   0.007278   36.78  0.002779  ( 0.000010  0.052720  0.000025)
 26:    837.86   0.000247    1.25  0.000092  ( 0.007815 -0.000709  0.005508)
 27:    838.40   0.000211    1.07  0.000079  ( 0.000563  0.008839  0.000385)
 28:    891.08   0.012809   64.73  0.004486  (-0.066975 -0.000003  0.000567)
 29:    920.78   0.003071   15.52  0.001041  ( 0.015072 -0.000231  0.028525)
 30:    927.44   0.002002   10.12  0.000674  ( 0.000124  0.025953  0.000223)
 31:    990.94   0.000075    0.38  0.000024  (-0.001234  0.000030  0.004707)
 32:    991.64   0.000015    0.08  0.000005  ( 0.000034  0.002171 -0.000050)
 33:   1011.72   0.000143    0.72  0.000044  (-0.005359  0.000215 -0.003919)
 34:   1012.11   0.000026    0.13  0.000008  (-0.000440 -0.002767 -0.000344)
 35:   1016.68   0.000582    2.94  0.000179  ( 0.013350  0.000002  0.000644)
 36:   1017.47   0.000000    0.00  0.000000  (-0.000118  0.000216 -0.000017)
 37:   1044.79   0.001672    8.45  0.000500  ( 0.018413 -0.012552  0.001709)
 38:   1044.85   0.003872   19.57  0.001157  ( 0.033130  0.006984  0.003188)
 39:   1090.75   0.005242   26.49  0.001500  (-0.015433 -0.000101  0.035517)
 40:   1092.85   0.004710   23.80  0.001345  ( 0.000041 -0.036673 -0.000217)
 41:   1154.90   0.000066    0.33  0.000018  ( 0.001318  0.000004 -0.004019)
 42:   1155.39   0.000098    0.49  0.000026  ( 0.000001  0.005143  0.000036)
 43:   1167.20   0.000832    4.20  0.000222  ( 0.000356 -0.014906  0.000091)
 44:   1167.86   0.005077   25.66  0.001357  ( 0.036785  0.000135 -0.001863)
 45:   1234.98   0.002657   13.43  0.000671  (-0.000114  0.025911  0.000009)
 46:   1280.31   0.168984  853.98  0.041188  (-0.202896 -0.000016 -0.004641)
 47:   1314.77   0.000571    2.89  0.000136  (-0.011336 -0.000010  0.002650)
 48:   1329.39   0.000351    1.77  0.000082  ( 0.000004 -0.009071  0.000088)
 49:   1361.81   0.004392   22.20  0.001007  ( 0.031145 -0.000028 -0.006041)
 50:   1369.93   0.000023    0.12  0.000005  (-0.000005  0.002311 -0.000007)
 51:   1480.81   0.000724    3.66  0.000152  (-0.008741  0.000030 -0.008722)
 52:   1490.45   0.000497    2.51  0.000104  ( 0.000074 -0.010205 -0.000033)
 53:   1516.00   0.089910  454.37  0.018508  ( 0.135910 -0.000047  0.006001)
 54:   1525.99   0.005977   30.20  0.001222  ( 0.000256  0.034959  0.000062)
 55:   1645.24   0.018826   95.14  0.003571  ( 0.057221 -0.000051  0.017223)
 56:   1648.67   0.026570  134.27  0.005029  (-0.069271 -0.000001  0.015189)
 57:   1655.44   0.005796   29.29  0.001093  (-0.000119 -0.033055 -0.000099)
 58:   1666.77   0.000492    2.48  0.000092  ( 0.000054  0.009593  0.000030)
 59:   3186.60   0.000575    2.91  0.000056  ( 0.007087 -0.000984  0.002267)
 60:   3186.69   0.000206    1.04  0.000020  ( 0.001730  0.004116  0.000514)
 61:   3194.32   0.001806    9.13  0.000176  (-0.006899  0.000986  0.011309)
 62:   3194.38   0.001731    8.75  0.000169  ( 0.000530  0.012966 -0.000843)
 63:   3204.62   0.006277   31.72  0.000611  ( 0.024590 -0.000999  0.002357)
 64:   3204.87   0.002180   11.02  0.000212  ( 0.001723  0.014467  0.000174)
 65:   3210.20   0.002099   10.61  0.000204  ( 0.006514  0.000084 -0.012714)
 66:   3210.42   0.001943    9.82  0.000189  ( 0.000128 -0.013742 -0.000070)
 67:   3215.20   0.002086   10.54  0.000202  (-0.014164  0.000026  0.001350)
 68:   3215.41   0.000066    0.33  0.000006  (-0.000342 -0.002502 -0.000004)

--------------------------
THERMOCHEMISTRY AT 298.15K
--------------------------

Temperature         ...   298.15 K
Pressure            ...     1.00 atm
Total Mass          ...   170.21 AMU
Quasi RRHO          ...     True
Cut-Off Frequency   ...     1.00 cm^-1

Throughout the following assumptions are being made:
  (1) The electronic state is orbitally nondegenerate
  (2) There are no thermally accessible electronically excited states
  (3) Hindered rotations indicated by low frequency modes are not
      treated as such but are treated as vibrations and this may
      cause some error
  (4) All equations used are the standard statistical mechanics
      equations for an ideal gas
  (5) All vibrations are strictly harmonic

freq.      75.30  E(vib)   ...       0.49
freq.     209.20  E(vib)   ...       0.34
freq.     231.94  E(vib)   ...       0.32
freq.     315.04  E(vib)   ...       0.25
freq.     384.24  E(vib)   ...       0.20
freq.     414.15  E(vib)   ...       0.19
freq.     418.21  E(vib)   ...       0.18
freq.     482.31  E(vib)   ...       0.15
freq.     506.51  E(vib)   ...       0.14
freq.     570.58  E(vib)   ...       0.11
freq.     608.80  E(vib)   ...       0.10
freq.     619.87  E(vib)   ...       0.09
freq.     632.09  E(vib)   ...       0.09
freq.     704.42  E(vib)   ...       0.07
freq.     706.68  E(vib)   ...       0.07
freq.     765.30  E(vib)   ...       0.06
freq.     770.74  E(vib)   ...       0.05
freq.     817.20  E(vib)   ...       0.05
freq.     837.86  E(vib)   ...       0.04
freq.     838.40  E(vib)   ...       0.04
freq.     891.08  E(vib)   ...       0.04
freq.     920.78  E(vib)   ...       0.03
freq.     927.44  E(vib)   ...       0.03
freq.     990.94  E(vib)   ...       0.02
freq.     991.64  E(vib)   ...       0.02
freq.    1011.72  E(vib)   ...       0.02
freq.    1012.11  E(vib)   ...       0.02
freq.    1016.68  E(vib)   ...       0.02
freq.    1017.47  E(vib)   ...       0.02
freq.    1044.79  E(vib)   ...       0.02
freq.    1044.85  E(vib)   ...       0.02
freq.    1090.75  E(vib)   ...       0.02
freq.    1092.85  E(vib)   ...       0.02
freq.    1154.90  E(vib)   ...       0.01
freq.    1155.39  E(vib)   ...       0.01
freq.    1167.20  E(vib)   ...       0.01
freq.    1167.86  E(vib)   ...       0.01
freq.    1234.98  E(vib)   ...       0.01
freq.    1280.31  E(vib)   ...       0.01
freq.    1314.77  E(vib)   ...       0.01
freq.    1329.39  E(vib)   ...       0.01
freq.    1361.81  E(vib)   ...       0.01
freq.    1369.93  E(vib)   ...       0.01
freq.    1480.81  E(vib)   ...       0.00
freq.    1490.45  E(vib)   ...       0.00
freq.    1516.00  E(vib)   ...       0.00
freq.    1525.99  E(vib)   ...       0.00
freq.    1645.24  E(vib)   ...       0.00
freq.    1648.67  E(vib)   ...       0.00
freq.    1655.44  E(vib)   ...       0.00
freq.    1666.77  E(vib)   ...       0.00
freq.    3186.60  E(vib)   ...       0.00
freq.    3186.69  E(vib)   ...       0.00
freq.    3194.32  E(vib)   ...       0.00
freq.    3194.38  E(vib)   ...       0.00
freq.    3204.62  E(vib)   ...       0.00
freq.    3204.87  E(vib)   ...       0.00
freq.    3210.20  E(vib)   ...       0.00
freq.    3210.42  E(vib)   ...       0.00
freq.    3215.20  E(vib)   ...       0.00
freq.    3215.41  E(vib)   ...       0.00

------------
INNER ENERGY
------------

The inner energy is: U= E(el) + E(ZPE) + E(vib) + E(rot) + E(trans)
    E(el)   - is the total energy from the electronic structure calculation
              = E(kin-el) + E(nuc-el) + E(el-el) + E(nuc-nuc)
    E(ZPE)  - the the zero temperature vibrational energy from the frequency calculation
    E(vib)  - the the finite temperature correction to E(ZPE) due to population
              of excited vibrational states
    E(rot)  - is the rotational thermal energy
    E(trans)- is the translational thermal energy

Summary of contributions to the inner energy U:
Electronic energy                ...   -538.10081959 Eh
Zero point energy                ...      0.18487455 Eh     116.01 kcal/mol
Thermal vibrational correction   ...      0.00550079 Eh       3.45 kcal/mol
Thermal rotational correction    ...      0.00141627 Eh       0.89 kcal/mol
Thermal translational correction ...      0.00141627 Eh       0.89 kcal/mol
-----------------------------------------------------------------------
Total thermal energy                   -537.90761170 Eh

Summary of corrections to the electronic energy:
(perhaps to be used in another calculation)
Total thermal correction                  0.00833334 Eh       5.23 kcal/mol
Non-thermal (ZPE) correction              0.18487455 Eh     116.01 kcal/mol
-----------------------------------------------------------------------
Total correction                          0.19320788 Eh     121.24 kcal/mol

--------
ENTHALPY
--------

The enthalpy is H = U + kB*T
                kB is Boltzmann's constant
Total thermal energy              ...   -537.90761170 Eh
Thermal Enthalpy correction       ...      0.00094421 Eh       0.59 kcal/mol
-----------------------------------------------------------------------
Total Enthalpy                    ...   -537.90666749 Eh

Note: Only C1 symmetry has been detected, increase convergence thresholds
      if your molecule has a higher symmetry. Symmetry factor of 1.0 is
      used for the rotational entropy correction.

Note: Rotational entropy computed according to Herzberg
Infrared and Raman Spectra, Chapter V,1, Van Nostrand Reinhold, 1945
Point Group:  C1, Symmetry Number:   1
Rotational constants in cm-1:     0.080043     0.014684     0.013796

Vibrational entropy computed according to the QRRHO of S. Grimme
Chem.Eur.J. 2012 18 9955 using a reference frequency of 100.0 cm-1

-------
ENTROPY
-------

The entropy contributions are T*S = T*(S(el)+S(vib)+S(rot)+S(trans))
     S(el)   - electronic entropy
     S(vib)  - vibrational entropy
     S(rot)  - rotational entropy
     S(trans)- translational entropy
The entropies will be listed as multiplied by the temperature to get
units of energy

Electronic entropy                ...      0.00000000 Eh      0.00 kcal/mol
Vibrational entropy               ...      0.00846996 Eh      5.31 kcal/mol
Rotational entropy                ...      0.01471775 Eh      9.24 kcal/mol
Translational entropy             ...      0.01962451 Eh     12.31 kcal/mol
-----------------------------------------------------------------------
Final entropy term                ...      0.04281222 Eh     26.87 kcal/mol

In case the symmetry of your molecule has not been determined correctly
or in case you have a reason to use a different symmetry number we print
out the resulting rotational entropy values for sn=1,12:

                             ****ORCA TERMINATED NORMALLY****
TOTAL RUN TIME: 0 days 0 hours 59 minutes 14 seconds 6 msec
