                         Program Version 6.0.0  -   RELEASE  -
|  1> !B3LYP aug-cc-pVTZ d3 TightSCF SlowConv RIJCOSX defgrid2
|  2>
|  3> %pal
|  4> nprocs 4
|  5> end
|  6>
|  7> %scf
|  8> MaxIter 1500
|  9> end
| 10>
| 11> %maxcore 3000
| 12>
| 13> !CPCM
| 14> %cpcm smd true
| 15> SMDsolvent "MeCN"
| 16> surfacetype gepol_ses
| 17> rsolv 2.19
| 18> end
| 19>
| 20> * xyz 0 1
| 21> C          -0.72498712360752     -1.03199143591489     -0.00035587408950
| 22> C          -1.31725281953672      0.23700082940336     -0.00009216740947
| 23> C          -0.49927603036286      1.37741269983118     -0.00017815340748
| 24> C           0.87877130461947      1.25225114649976     -0.00046421372633
| 25> C           1.48912617012247     -0.01748708715836     -0.00062594889474
| 26> C           0.66252427774642     -1.14934366375667     -0.00064528665934
| 27> H           1.11889620163877     -2.14249327366435     -0.00083021648088
| 28> C           2.91104462440564     -0.14733894022628     -0.00063151415770
| 29> C           4.11990582812650     -0.25742637188868      0.00161358861277
| 30> H           5.19058139416864     -0.35415649223885      0.00097524906911
| 31> H           1.50779855780145      2.14601626186340     -0.00050473395896
| 32> H          -0.98017045333696      2.35860761783862      0.00000793066196
| 33> O          -2.64430351331883      0.45808400164866      0.00024605971359
| 34> C          -3.51534558275692     -0.63765175952228      0.00045178300619
| 35> H          -4.53490407246321     -0.22445155867607      0.00076695107216
| 36> H          -3.38161982455796     -1.26589006640153     -0.90098962915142
| 37> H          -3.38109122143507     -1.26596319208985      0.90176498266982
| 38> H          -1.33393961725331     -1.93771991554716     -0.00032660686979
| 39> *
| 40>
| 41>                          ****END OF INPUT****

CARTESIAN COORDINATES (ANGSTROEM)
---------------------------------
  C     -0.724987   -1.031991   -0.000356
  C     -1.317253    0.237001   -0.000092
  C     -0.499276    1.377413   -0.000178
  C      0.878771    1.252251   -0.000464
  C      1.489126   -0.017487   -0.000626
  C      0.662524   -1.149344   -0.000645
  H      1.118896   -2.142493   -0.000830
  C      2.911045   -0.147339   -0.000632
  C      4.119906   -0.257426    0.001614
  H      5.190581   -0.354156    0.000975
  H      1.507799    2.146016   -0.000505
  H     -0.980170    2.358608    0.000008
  O     -2.644304    0.458084    0.000246
  C     -3.515346   -0.637652    0.000452
  H     -4.534904   -0.224452    0.000767
  H     -3.381620   -1.265890   -0.900990
  H     -3.381091   -1.265963    0.901765
  H     -1.333940   -1.937720   -0.000327

 Total Charge           Charge          ....    0
 Multiplicity           Mult            ....    1
 Number of Electrons    NEL             ....   70
 Basis Dimension        Dim             ....  644

ORBITAL ENERGIES
----------------

  NO   OCC          E(Eh)            E(eV)
   0   2.0000     -19.166272      -521.5408
   1   2.0000     -10.244161      -278.7578
   2   2.0000     -10.216640      -278.0089
   3   2.0000     -10.200457      -277.5686
   4   2.0000     -10.187820      -277.2247
   5   2.0000     -10.187256      -277.2093
   6   2.0000     -10.185253      -277.1548
   7   2.0000     -10.179446      -276.9968
   8   2.0000     -10.178166      -276.9620
   9   2.0000     -10.172573      -276.8098
  10   2.0000      -1.082073       -29.4447
  11   2.0000      -0.866655       -23.5829
  12   2.0000      -0.788749       -21.4629
  13   2.0000      -0.756806       -20.5937
  14   2.0000      -0.738796       -20.1037
  15   2.0000      -0.696065       -18.9409
  16   2.0000      -0.620896       -16.8954
  17   2.0000      -0.606315       -16.4987
  18   2.0000      -0.549480       -14.9521
  19   2.0000      -0.530715       -14.4415
  20   2.0000      -0.497759       -13.5447
  21   2.0000      -0.492740       -13.4081
  22   2.0000      -0.470936       -12.8148
  23   2.0000      -0.446193       -12.1415
  24   2.0000      -0.426683       -11.6106
  25   2.0000      -0.417548       -11.3621
  26   2.0000      -0.394673       -10.7396
  27   2.0000      -0.391148       -10.6437
  28   2.0000      -0.364092        -9.9075
  29   2.0000      -0.346593        -9.4313
  30   2.0000      -0.330124        -8.9831
  31   2.0000      -0.294303        -8.0084
  32   2.0000      -0.286338        -7.7916
  33   2.0000      -0.265422        -7.2225
  34   2.0000      -0.221613        -6.0304
  35   0.0000      -0.033833        -0.9206
  36   0.0000      -0.020419        -0.5556
  37   0.0000      -0.003843        -0.1046
  38   0.0000       0.006466         0.1759
  39   0.0000       0.012330         0.3355

MULLIKEN ATOMIC CHARGES
-----------------------
   0 C :   -0.192854
   1 C :    1.363822
   2 C :   -0.805127
   3 C :   -1.170082
   4 C :    1.587289
   5 C :   -1.317076
   6 H :   -0.328218
   7 C :    1.164742
   8 C :   -0.839891
   9 H :    0.314306
  10 H :   -0.288672
  11 H :    0.544000
  12 O :   -0.720351
  13 C :   -0.657239
  14 H :    0.243962
  15 H :    0.280694
  16 H :    0.279606
  17 H :    0.541089
Sum of atomic charges:   -0.0000000

LOEWDIN ATOMIC CHARGES
----------------------
   0 C :    0.211156
   1 C :   -0.397569
   2 C :    0.205429
   3 C :    0.184974
   4 C :   -0.236934
   5 C :    0.189990
   6 H :   -0.158195
   7 C :   -0.029522
   8 C :    0.390262
   9 H :   -0.284813
  10 H :   -0.159643
  11 H :   -0.166209
  12 O :    0.597125
  13 C :    0.319401
  14 H :   -0.167065
  15 H :   -0.157388
  16 H :   -0.157346
  17 H :   -0.183653

  Mayer bond orders larger than 0.100000
B(  0-C ,  1-C ) :   0.9938 B(  0-C ,  2-C ) :   0.2033 B(  0-C ,  4-C ) :   0.6974
B(  0-C ,  5-C ) :   0.9565 B(  0-C ,  6-H ) :  -0.2477 B(  0-C ,  7-C ) :  -0.2364
B(  0-C ,  8-C ) :  -0.1457 B(  0-C , 11-H ) :  -0.1170 B(  0-C , 17-H ) :   0.3298
B(  1-C ,  2-C ) :   0.7023 B(  1-C ,  3-C ) :  -0.5506 B(  1-C ,  4-C ) :  -0.1173
B(  1-C ,  5-C ) :  -0.4819 B(  1-C ,  7-C ) :   0.2575 B(  1-C ,  8-C ) :   0.1139
B(  1-C , 10-H ) :  -0.1191 B(  1-C , 11-H ) :   0.1601 B(  1-C , 12-O ) :   0.2376
B(  1-C , 17-H ) :   0.1719 B(  2-C ,  3-C ) :   1.2794 B(  2-C ,  4-C ) :   0.5600
B(  2-C ,  7-C ) :  -0.1530 B(  2-C , 10-H ) :  -0.1037 B(  2-C , 11-H ) :   0.3329
B(  2-C , 12-O ) :   0.3205 B(  3-C ,  4-C ) :   0.1444 B(  3-C ,  5-C ) :  -0.5953
B(  3-C ,  6-H ) :   0.2510 B(  3-C ,  7-C ) :   0.5222 B(  3-C , 10-H ) :   2.1979
B(  4-C ,  5-C ) :   0.1416 B(  4-C ,  6-H ) :  -0.3488 B(  4-C ,  7-C ) :  -0.1400
B(  4-C ,  8-C ) :   0.8626 B(  4-C , 10-H ) :  -0.2256 B(  4-C , 12-O ) :   0.1337
B(  5-C ,  6-H ) :   2.3344 B(  5-C ,  7-C ) :   0.4393 B(  5-C ,  8-C ) :  -0.1968
B(  5-C , 10-H ) :   0.2405 B(  6-H ,  7-C ) :  -0.2200 B(  6-H ,  8-C ) :  -0.4047
B(  6-H , 10-H ) :   0.5253 B(  6-H , 17-H ) :  -0.1087 B(  7-C ,  8-C ) :   1.8712
B(  7-C ,  9-H ) :  -0.2181 B(  7-C , 10-H ) :  -0.2792 B(  8-C ,  9-H ) :   1.1785
B(  8-C , 10-H ) :  -0.4160 B(  8-C , 11-H ) :   0.1284 B(  8-C , 17-H ) :   0.1988
B( 10-H , 11-H ) :  -0.1027 B( 12-O , 13-C ) :   1.0156 B( 13-C , 14-H ) :   0.9763
B( 13-C , 15-H ) :   0.9100 B( 13-C , 16-H ) :   0.9110

Dispersion correction           -0.031298966
FINAL SINGLE POINT ENERGY      -422.861744945497

DIPOLE MOMENT
-------------

Method             : SCF
Type of density    : Electron Density
Multiplicity       :   1
Irrep              :   0
Energy             :  -422.8304459792459511 Eh
Relativity type    :
Basis              : AO
                                X                 Y                 Z
Electronic contribution:      4.450511639       1.945881124      -0.001244407
Nuclear contribution   :     -5.472543809      -2.520175441       0.001174688
                        -----------------------------------------
Total Dipole Moment    :     -1.022032170      -0.574294317      -0.000069719
                        -----------------------------------------
Magnitude (a.u.)       :      1.172332599
Magnitude (Debye)      :      2.979832656

Rotational constants in cm-1:             0.162149             0.023538             0.020637
Rotational constants in MHz :          4861.113339           705.666032           618.684466

                             ****ORCA TERMINATED NORMALLY****
TOTAL RUN TIME: 0 days 0 hours 5 minutes 23 seconds 385 msec
