                         Program Version 6.0.0  -   RELEASE  -
|  1> !r2SCAN aug-cc-pVTZ d3 TightSCF SlowConv RIJCOSX defgrid2
|  2>
|  3> %pal
|  4> nprocs 4
|  5> end
|  6>
|  7> %scf
|  8> MaxIter 1500
|  9> end
| 10>
| 11> %maxcore 3000
| 12>
| 13> !CPCM
| 14> %cpcm smd true
| 15> SMDsolvent "MeCN"
| 16> surfacetype gepol_ses
| 17> rsolv 2.19
| 18> end
| 19>
| 20> * xyz 1 2
| 21> C          -0.67908643386725      1.23607676469241      0.05037688455432
| 22> C           0.69063537473082      1.22239505984825      0.03433122006490
| 23> C           1.41935940969442      0.00089697821530      0.02361032838992
| 24> C           2.90264582314279      0.00023187234458     -0.03154544602423
| 25> H           3.33275857806013      0.90982454248379      0.41704425889491
| 26> H           3.23040482362577     -0.02388819542517     -1.09174805024851
| 27> H           3.33188322628672     -0.89033444842890      0.45524306190015
| 28> C           0.69116135048355     -1.22128045675289      0.03322526814773
| 29> C          -0.67837863172589     -1.23584655805266      0.04927182441236
| 30> C          -1.40125371058004     -0.00006366269893      0.05776120704274
| 31> N          -2.73211521344069     -0.00040267889955      0.07439012831924
| 32> H          -3.26281790606968     -0.86988933466929      0.08068697932374
| 33> H          -3.26324263121073      0.86881860998728      0.08143282938743
| 34> H          -1.22754000431610     -2.18185307095538      0.05799598423108
| 35> H           1.24009901564024     -2.16715763912366      0.03003003714593
| 36> H           1.23900198016691      2.16857067789729      0.03198987167601
| 37> H          -1.22875875062097      2.18177673953752      0.05992551278228
| 38> *
| 39>
| 40>                          ****END OF INPUT****

CARTESIAN COORDINATES (ANGSTROEM)
---------------------------------
  C     -0.679086    1.236077    0.050377
  C      0.690635    1.222395    0.034331
  C      1.419359    0.000897    0.023610
  C      2.902646    0.000232   -0.031545
  H      3.332759    0.909825    0.417044
  H      3.230405   -0.023888   -1.091748
  H      3.331883   -0.890334    0.455243
  C      0.691161   -1.221280    0.033225
  C     -0.678379   -1.235847    0.049272
  C     -1.401254   -0.000064    0.057761
  N     -2.732115   -0.000403    0.074390
  H     -3.262818   -0.869889    0.080687
  H     -3.263243    0.868819    0.081433
  H     -1.227540   -2.181853    0.057996
  H      1.240099   -2.167158    0.030030
  H      1.239002    2.168571    0.031990
  H     -1.228759    2.181777    0.059926

 Total Charge           Charge          ....    1
 Multiplicity           Mult            ....    2
 Number of Electrons    NEL             ....   57
 Basis Dimension        Dim             ....  575

ORBITAL ENERGIES
----------------
                 SPIN UP ORBITALS
  NO   OCC          E(Eh)            E(eV)
   0   1.0000     -14.251239      -387.7959
   1   1.0000     -10.140414      -275.9347
   2   1.0000     -10.100179      -274.8399
   3   1.0000     -10.081397      -274.3288
   4   1.0000     -10.081308      -274.3263
   5   1.0000     -10.070804      -274.0405
   6   1.0000     -10.070755      -274.0392
   7   1.0000     -10.044055      -273.3126
   8   1.0000      -0.958579       -26.0843
   9   1.0000      -0.851587       -23.1729
  10   1.0000      -0.762046       -20.7363
  11   1.0000      -0.753788       -20.5116
  12   1.0000      -0.670910       -18.2564
  13   1.0000      -0.619550       -16.8588
  14   1.0000      -0.593881       -16.1603
  15   1.0000      -0.535068       -14.5599
  16   1.0000      -0.530124       -14.4254
  17   1.0000      -0.463539       -12.6135
  18   1.0000      -0.445095       -12.1117
  19   1.0000      -0.425919       -11.5898
  20   1.0000      -0.423297       -11.5185
  21   1.0000      -0.419963       -11.4278
  22   1.0000      -0.400412       -10.8958
  23   1.0000      -0.365554        -9.9472
  24   1.0000      -0.356938        -9.7128
  25   1.0000      -0.332020        -9.0347
  26   1.0000      -0.328413        -8.9366
  27   1.0000      -0.278510        -7.5786
  28   1.0000      -0.233229        -6.3465
  29   0.0000      -0.068070        -1.8523
  30   0.0000      -0.064959        -1.7676
  31   0.0000       0.004436         0.1207
  32   0.0000       0.015427         0.4198
  33   0.0000       0.022932         0.6240

                 SPIN DOWN ORBITALS
  NO   OCC          E(Eh)            E(eV)
   0   1.0000     -14.242295      -387.5526
   1   1.0000     -10.139491      -275.9096
   2   1.0000     -10.093452      -274.6568
   3   1.0000     -10.077993      -274.2361
   4   1.0000     -10.077935      -274.2346
   5   1.0000     -10.072364      -274.0830
   6   1.0000     -10.072325      -274.0819
   7   1.0000     -10.044225      -273.3173
   8   1.0000      -0.945445       -25.7269
   9   1.0000      -0.842628       -22.9291
  10   1.0000      -0.750326       -20.4174
  11   1.0000      -0.750053       -20.4100
  12   1.0000      -0.667966       -18.1763
  13   1.0000      -0.616265       -16.7694
  14   1.0000      -0.586644       -15.9634
  15   1.0000      -0.532978       -14.5031
  16   1.0000      -0.525629       -14.3031
  17   1.0000      -0.458838       -12.4856
  18   1.0000      -0.442120       -12.0307
  19   1.0000      -0.421263       -11.4631
  20   1.0000      -0.419518       -11.4157
  21   1.0000      -0.405009       -11.0209
  22   1.0000      -0.382400       -10.4056
  23   1.0000      -0.364659        -9.9229
  24   1.0000      -0.355076        -9.6621
  25   1.0000      -0.330173        -8.9845
  26   1.0000      -0.307065        -8.3557
  27   1.0000      -0.269604        -7.3363
  28   0.0000      -0.188493        -5.1292
  29   0.0000      -0.055693        -1.5155
  30   0.0000      -0.037042        -1.0080
  31   0.0000       0.005986         0.1629
  32   0.0000       0.017108         0.4655

MULLIKEN ATOMIC CHARGES AND SPIN POPULATIONS
--------------------------------------------
   0 C :   -0.661595    0.214164
   1 C :   -0.722480   -0.152247
   2 C :    1.470909    0.477004
   3 C :   -0.636252   -0.071866
   4 H :    0.206702    0.003841
   5 H :    0.257829    0.046466
   6 H :    0.208766    0.005440
   7 C :   -0.736413   -0.150269
   8 C :   -0.667254    0.212192
   9 C :    1.183121    0.052967
  10 N :   -0.418244    0.380418
  11 H :    0.055816   -0.010710
  12 H :    0.055112   -0.010664
  13 H :    0.561621    0.005686
  14 H :    0.140921   -0.003721
  15 H :    0.135339   -0.004392
  16 H :    0.566105    0.005692
Sum of atomic charges         :    1.0000000

LOEWDIN ATOMIC CHARGES AND SPIN POPULATIONS
-------------------------------------------
   0 C :    0.282614    0.104331
   1 C :    0.260213    0.035040
   2 C :   -0.081627    0.177740
   3 C :    0.609336    0.062615
   4 H :   -0.151800    0.005337
   5 H :   -0.130888    0.019949
   6 H :   -0.150883    0.005991
   7 C :    0.259997    0.034816
   8 C :    0.282491    0.103470
   9 C :   -0.167461    0.129944
  10 N :    0.957597    0.238275
  11 H :   -0.199033    0.030782
  12 H :   -0.199042    0.030767
  13 H :   -0.139819    0.018037
  14 H :   -0.145753   -0.007648
  15 H :   -0.146180   -0.007664
  16 H :   -0.139760    0.018217

  Mayer bond orders larger than 0.100000
B(  0-C ,  1-C ) :   1.4159 B(  0-C ,  2-C ) :   0.2416 B(  0-C ,  7-C ) :  -0.1819
B(  0-C ,  8-C ) :   0.2255 B(  0-C ,  9-C ) :   0.6081 B(  0-C , 10-N ) :  -0.1411
B(  0-C , 16-H ) :   0.2519 B(  1-C ,  2-C ) :   0.2977 B(  1-C ,  7-C ) :  -0.1244
B(  1-C ,  8-C ) :  -0.1728 B(  1-C ,  9-C ) :  -0.2454 B(  1-C , 15-H ) :   1.1127
B(  2-C ,  3-C ) :   0.3200 B(  2-C ,  7-C ) :   0.2993 B(  2-C ,  8-C ) :   0.2388
B(  2-C ,  9-C ) :   0.1803 B(  3-C ,  4-H ) :   0.9830 B(  3-C ,  5-H ) :   0.9170
B(  3-C ,  6-H ) :   0.9807 B(  3-C ,  7-C ) :   0.1086 B(  7-C ,  8-C ) :   1.4217
B(  7-C ,  9-C ) :  -0.2444 B(  7-C , 14-H ) :   1.1004 B(  8-C ,  9-C ) :   0.6094
B(  8-C , 10-N ) :  -0.1435 B(  8-C , 13-H ) :   0.2602 B(  9-C , 10-N ) :   0.8026
B(  9-C , 13-H ) :   0.1373 B(  9-C , 16-H ) :   0.1390 B( 10-N , 11-H ) :   1.1252
B( 10-N , 12-H ) :   1.1266

Dispersion correction           -0.004851468
FINAL SINGLE POINT ENERGY      -326.683131556780

DIPOLE MOMENT
-------------

Method             : SCF
Type of density    : Electron Density
Multiplicity       :   2
Irrep              :   0
Energy             :  -326.6782800890995873 Eh
Relativity type    :
Basis              : AO
                                X                 Y                 Z
Electronic contribution:     -5.120560128       0.002252888       0.154423962
Nuclear contribution   :      3.125767574      -0.005388112      -0.182011929
                        -----------------------------------------
Total Dipole Moment    :     -1.994792554      -0.003135225      -0.027587967
                        -----------------------------------------
Magnitude (a.u.)       :      1.994985779
Magnitude (Debye)      :      5.070850863

Rotational constants in cm-1:             0.174913             0.049835             0.039071
Rotational constants in MHz :          5243.747665          1494.011541          1171.305405

                             ****ORCA TERMINATED NORMALLY****
TOTAL RUN TIME: 0 days 0 hours 3 minutes 55 seconds 284 msec
