                         Program Version 6.0.0  -   RELEASE  -
|  1> !TPSSh opt aug-cc-pVTZ d3 TightSCF SlowConv RIJCOSX defgrid2
|  2>
|  3> %pal
|  4> nprocs 8
|  5> end
|  6>
|  7> %scf
|  8> MaxIter 1500
|  9> end
| 10>
| 11> %maxcore 3500
| 12>
| 13> !CPCM
| 14> %cpcm smd true
| 15> SMDsolvent "MeCN"
| 16> surfacetype gepol_ses
| 17> rsolv 2.19
| 18> end
| 19>
| 20> * xyz 0 1
| 21>   C           1.35661311001034      0.08242353673381     -0.04830147992154
| 22>   C           0.72528734400678      1.33237499260851      0.02931980589731
| 23>   C          -0.65716684626784      1.42571283843268      0.04302512633637
| 24>   C          -1.44754625606451      0.26653460954742      0.00874339988909
| 25>   C          -0.82552870874395     -0.98502153376474     -0.04770168852446
| 26>   C           0.56772235704198     -1.06633130194090     -0.08313298846277
| 27>   H           1.05006188676245     -2.04577688056741     -0.14354433447971
| 28>   H          -1.41135553820799     -1.90566385705075     -0.07389044457674
| 29>   O          -2.78063858244739      0.45554290336633      0.03645550634804
| 30>   C          -3.62283453444167     -0.66142074230683      0.01078196288993
| 31>   H          -4.65283077190408     -0.27592428677814      0.04102787975267
| 32>   H          -3.48787720923621     -1.25466269618222     -0.91406269819965
| 33>   H          -3.45860421924221     -1.31813897835911      0.88673287617431
| 34>   H          -1.16047233306293      2.39441311771435      0.09515969980486
| 35>   H           1.33361129819119      2.23967992641979      0.08145593960365
| 36>   S           3.13145786803727     -0.06127748319567     -0.01892864657318
| 37>   H           3.36519883556877      0.49010163532289     -1.23773021595817
| 38> *
| 39>
| 40>                          ****END OF INPUT****
 Total Charge           Charge          ....    0
 Multiplicity           Mult            ....    1
 Number of Electrons    NEL             ....   74
Dispersion correction           -0.021335244
FINAL SINGLE POINT ENERGY      -745.174169866578
Dispersion correction             ... done (  0.0 sec)
Dispersion correction           -0.021357085
FINAL SINGLE POINT ENERGY      -745.175377807935
Dispersion correction             ... done (  0.1 sec)
Dispersion correction           -0.021367478
FINAL SINGLE POINT ENERGY      -745.175659924659
Dispersion correction             ... done (  0.1 sec)
FINAL SINGLE POINT ENERGY      -745.175839041720
FINAL SINGLE POINT ENERGY      -745.176083591943
FINAL SINGLE POINT ENERGY      -745.176200317338
FINAL SINGLE POINT ENERGY      -745.176382887855
FINAL SINGLE POINT ENERGY      -745.176459457795
FINAL SINGLE POINT ENERGY      -745.176494066433
FINAL SINGLE POINT ENERGY      -745.176501730384
Dispersion correction             ... done (  0.1 sec)
Dispersion correction           -0.021392290
FINAL SINGLE POINT ENERGY      -745.176508551175
Dispersion correction             ... done (  0.1 sec)
Dispersion correction           -0.021392124
FINAL SINGLE POINT ENERGY      -745.176511159781
Dispersion correction             ... done (  0.1 sec)
                    ***********************HURRAY********************

CARTESIAN COORDINATES (ANGSTROEM)
---------------------------------
  C      1.341830   -0.006651   -0.215826
  C      0.755392    1.261299   -0.163267
  C     -0.620770    1.391738   -0.070029
  C     -1.438915    0.258681   -0.031020
  C     -0.858567   -1.008864   -0.086041
  C      0.525919   -1.134066   -0.176297
  H      0.960100   -2.126167   -0.214841
  H     -1.465143   -1.902957   -0.057884
  O     -2.779278    0.486030    0.060420
  C     -3.634890   -0.660062    0.102517
  H     -4.647108   -0.268061    0.171358
  H     -3.532255   -1.257347   -0.807190
  H     -3.418806   -1.276808    0.978875
  H     -1.074015    2.374503   -0.027427
  H      1.372609    2.150915   -0.195516
  S      3.103379   -0.235498   -0.339374
  H      3.435615    1.065880   -0.263049

 Multiplicity           Mult            ....    1
 Number of Electrons    NEL             ....   74
 Basis Dimension        Dim             ....  602

ORBITAL ENERGIES
----------------

  NO   OCC          E(Eh)            E(eV)
   0   2.0000     -88.749932     -2415.0084
   1   2.0000     -19.083955      -519.3008
   2   2.0000     -10.173604      -276.8378
   3   2.0000     -10.155215      -276.3374
   4   2.0000     -10.149213      -276.1741
   5   2.0000     -10.122592      -275.4497
   6   2.0000     -10.121973      -275.4329
   7   2.0000     -10.116917      -275.2953
   8   2.0000     -10.116088      -275.2727
   9   2.0000      -7.875727      -214.3094
  10   2.0000      -5.827042      -158.5619
  11   2.0000      -5.823131      -158.4555
  12   2.0000      -5.818341      -158.3251
  13   2.0000      -1.040187       -28.3049
  14   2.0000      -0.845248       -23.0004
  15   2.0000      -0.765962       -20.8429
  16   2.0000      -0.736477       -20.0405
  17   2.0000      -0.701511       -19.0891
  18   2.0000      -0.657586       -17.8938
  19   2.0000      -0.598613       -16.2891
  20   2.0000      -0.566192       -15.4069
  21   2.0000      -0.513709       -13.9787
  22   2.0000      -0.473598       -12.8873
  23   2.0000      -0.450985       -12.2719
  24   2.0000      -0.444944       -12.1075
  25   2.0000      -0.430139       -11.7047
  26   2.0000      -0.409414       -11.1407
  27   2.0000      -0.398972       -10.8566
  28   2.0000      -0.375735       -10.2243
  29   2.0000      -0.373690       -10.1686
  30   2.0000      -0.344733        -9.3807
  31   2.0000      -0.326588        -8.8869
  32   2.0000      -0.324142        -8.8204
  33   2.0000      -0.310757        -8.4561
  34   2.0000      -0.262590        -7.1454
  35   2.0000      -0.252215        -6.8631
  36   2.0000      -0.196182        -5.3384
  37   0.0000      -0.030924        -0.8415
  38   0.0000      -0.015345        -0.4176
  39   0.0000      -0.009347        -0.2544
  40   0.0000       0.003436         0.0935
  41   0.0000       0.005938         0.1616

MULLIKEN ATOMIC CHARGES
-----------------------
   0 C :    0.541772
   1 C :   -0.455549
   2 C :   -0.625742
   3 C :    0.975477
   4 C :   -0.206055
   5 C :   -0.649534
   6 H :    0.355644
   7 H :    0.327853
   8 O :   -0.724578
   9 C :   -0.285130
  10 H :    0.041818
  11 H :    0.211972
  12 H :    0.210601
  13 H :    0.389622
  14 H :    0.282621
  15 S :   -0.477966
  16 H :    0.087173
Sum of atomic charges:   -0.0000000

LOEWDIN ATOMIC CHARGES
----------------------
   0 C :   -0.583529
   1 C :    0.114455
   2 C :    0.193731
   3 C :   -0.407339
   4 C :    0.194158
   5 C :    0.101819
   6 H :   -0.192909
   7 H :   -0.199373
   8 O :    0.594116
   9 C :    0.353912
  10 H :   -0.178655
  11 H :   -0.171805
  12 H :   -0.171260
  13 H :   -0.178082
  14 H :   -0.195452
  15 S :    1.291594
  16 H :   -0.565382

  Mayer bond orders larger than 0.100000
B(  0-C ,  1-C ) :   1.1034 B(  0-C ,  5-C ) :   1.2502 B(  0-C , 15-S ) :   0.3562
B(  1-C ,  2-C ) :   1.4740 B(  1-C ,  3-C ) :  -0.2714 B(  1-C , 13-H ) :   0.1168
B(  1-C , 14-H ) :   0.7034 B(  2-C ,  3-C ) :   0.8800 B(  2-C ,  4-C ) :   0.1827
B(  2-C ,  8-O ) :   0.3475 B(  2-C , 13-H ) :   0.4879 B(  3-C ,  4-C ) :   1.0795
B(  3-C ,  5-C ) :  -0.1997 B(  3-C ,  7-H ) :   0.1264 B(  3-C ,  8-O ) :   0.1338
B(  3-C ,  9-C ) :   0.1113 B(  4-C ,  5-C ) :   1.1578 B(  4-C ,  7-H ) :   0.5580
B(  4-C ,  8-O ) :  -0.1426 B(  5-C ,  6-H ) :   0.6973 B(  5-C , 15-S ) :   0.1000
B(  8-O ,  9-C ) :   0.9764 B(  9-C , 10-H ) :   1.0805 B(  9-C , 11-H ) :   0.9210
B(  9-C , 12-H ) :   0.9221 B( 15-S , 16-H ) :   1.0620

Dispersion correction           -0.021392336
FINAL SINGLE POINT ENERGY      -745.176511050912

DIPOLE MOMENT
-------------

Method             : SCF
Type of density    : Electron Density
Multiplicity       :   1
Irrep              :   0
Energy             :  -745.1551187146261555 Eh
Relativity type    :
Basis              : AO
                                X                 Y                 Z
Electronic contribution:      7.104577677       0.986761867      -0.504496710
Nuclear contribution   :     -7.949922054      -1.160166529       0.583559420
                        -----------------------------------------
Total Dipole Moment    :     -0.845344377      -0.173404662       0.079062711
                        -----------------------------------------
Magnitude (a.u.)       :      0.866560560
Magnitude (Debye)      :      2.202621898

Rotational constants in cm-1:             0.158611             0.023088             0.020233
Rotational constants in MHz :          4755.045987           692.162963           606.562634

                             ****ORCA TERMINATED NORMALLY****
TOTAL RUN TIME: 0 days 0 hours 51 minutes 30 seconds 148 msec
