                         Program Version 6.0.0  -   RELEASE  -
|  1> !r2SCANh aug-cc-pVTZ d3 TightSCF SlowConv RIJCOSX defgrid2
|  2>
|  3> %pal
|  4> nprocs 15
|  5> end
|  6>
|  7> %scf
|  8> MaxIter 1500
|  9> end
| 10>
| 11> %maxcore 3500
| 12>
| 13> !CPCM
| 14> %cpcm smd true
| 15> SMDsolvent "WATER"
| 16> surfacetype gepol_ses
| 17> rsolv 1.40
| 18> end
| 19>
| 20> * xyz 0 1
| 21> C           0.00636908025291      0.00344693466191     -3.48568134762916
| 22> C          -0.07329586297975     -0.04398063872276      0.74138085624868
| 23> C           1.10272166896467     -0.10799321931825      1.50278690341546
| 24> C           1.00614211679588     -0.13690311443854      2.89048895011345
| 25> C          -0.25700371911238     -0.09995487217630      3.47371798070641
| 26> C          -1.36597504158140     -0.04157282452465      2.62711576918004
| 27> N          -1.28290853833089     -0.01622478520361      1.30443177594435
| 28> H           2.07864268736179     -0.16148217056008      1.01390529605249
| 29> H           1.90787256726744     -0.19674804501795      3.50759598842189
| 30> H          -0.38580781708437     -0.12069403978637      4.55934543988249
| 31> H          -2.37943344126066     -0.01230626984174      3.04845755675130
| 32> C          -0.01960087155986     -0.01156089996578     -0.74687997443611
| 33> C           1.03675391875749      0.62425707841442     -1.41531420429447
| 34> C           1.04680281402184      0.63075677304619     -2.80669132538117
| 35> C          -1.00064817669856     -0.59696094289784     -2.72713929450383
| 36> N          -1.01921053020765     -0.60549492558988     -1.40177260600152
| 37> H           1.82553959271218      1.12971852084172     -0.85261087525814
| 38> H           1.85413972205566      1.12838604917571     -3.35269269539613
| 39> H          -0.03136082161732     -0.01872909991858     -4.57822525423132
| 40> H          -1.83911827075703     -1.10093954717764     -3.22567631758471
| 41> *
| 42>
| 43>                          ****END OF INPUT****

CARTESIAN COORDINATES (ANGSTROEM)
---------------------------------
  C      0.006369    0.003447   -3.485681
  C     -0.073296   -0.043981    0.741381
  C      1.102722   -0.107993    1.502787
  C      1.006142   -0.136903    2.890489
  C     -0.257004   -0.099955    3.473718
  C     -1.365975   -0.041573    2.627116
  N     -1.282909   -0.016225    1.304432
  H      2.078643   -0.161482    1.013905
  H      1.907873   -0.196748    3.507596
  H     -0.385808   -0.120694    4.559345
  H     -2.379433   -0.012306    3.048458
  C     -0.019601   -0.011561   -0.746880
  C      1.036754    0.624257   -1.415314
  C      1.046803    0.630757   -2.806691
  C     -1.000648   -0.596961   -2.727139
  N     -1.019211   -0.605495   -1.401773
  H      1.825540    1.129719   -0.852611
  H      1.854140    1.128386   -3.352693
  H     -0.031361   -0.018729   -4.578225
  H     -1.839118   -1.100940   -3.225676

 Total Charge           Charge          ....    0
 Multiplicity           Mult            ....    1
 Number of Electrons    NEL             ....   82
 Basis Dimension        Dim             ....  736

ORBITAL ENERGIES
----------------

  NO   OCC          E(Eh)            E(eV)
   0   2.0000     -14.307325      -389.3221
   1   2.0000     -14.307311      -389.3217
   2   2.0000     -10.206209      -277.7251
   3   2.0000     -10.205952      -277.7181
   4   2.0000     -10.194619      -277.4097
   5   2.0000     -10.194604      -277.4093
   6   2.0000     -10.178025      -276.9581
   7   2.0000     -10.177978      -276.9569
   8   2.0000     -10.170678      -276.7582
   9   2.0000     -10.170646      -276.7574
  10   2.0000     -10.168223      -276.6914
  11   2.0000     -10.168209      -276.6910
  12   2.0000      -0.966953       -26.3121
  13   2.0000      -0.944855       -25.7108
  14   2.0000      -0.809287       -22.0218
  15   2.0000      -0.803419       -21.8621
  16   2.0000      -0.795120       -21.6363
  17   2.0000      -0.741705       -20.1828
  18   2.0000      -0.651732       -17.7345
  19   2.0000      -0.639893       -17.4124
  20   2.0000      -0.614077       -16.7099
  21   2.0000      -0.596455       -16.2304
  22   2.0000      -0.529506       -14.4086
  23   2.0000      -0.492284       -13.3957
  24   2.0000      -0.490366       -13.3435
  25   2.0000      -0.465606       -12.6698
  26   2.0000      -0.463203       -12.6044
  27   2.0000      -0.432248       -11.7621
  28   2.0000      -0.417334       -11.3562
  29   2.0000      -0.416232       -11.3262
  30   2.0000      -0.395937       -10.7740
  31   2.0000      -0.389395       -10.5960
  32   2.0000      -0.388496       -10.5715
  33   2.0000      -0.362538        -9.8652
  34   2.0000      -0.347713        -9.4617
  35   2.0000      -0.296814        -8.0767
  36   2.0000      -0.289354        -7.8737
  37   2.0000      -0.282165        -7.6781
  38   2.0000      -0.259387        -7.0583
  39   2.0000      -0.250497        -6.8164
  40   2.0000      -0.242710        -6.6045
  41   0.0000      -0.068951        -1.8762
  42   0.0000      -0.044581        -1.2131
  43   0.0000      -0.040472        -1.1013
  44   0.0000      -0.003027        -0.0824
  45   0.0000       0.008615         0.2344

MULLIKEN ATOMIC CHARGES
-----------------------
   0 C :   -0.086113
   1 C :    1.439077
   2 C :   -0.515071
   3 C :   -0.884684
   4 C :   -0.084174
   5 C :   -0.654535
   6 N :   -0.679223
   7 H :    0.058475
   8 H :    0.534222
   9 H :    0.215153
  10 H :    0.574317
  11 C :    1.416551
  12 C :   -0.514310
  13 C :   -0.885019
  14 C :   -0.641786
  15 N :   -0.676644
  16 H :    0.060291
  17 H :    0.537114
  18 H :    0.207334
  19 H :    0.579024
Sum of atomic charges:   -0.0000000

LOEWDIN ATOMIC CHARGES
----------------------
   0 C :    0.207247
   1 C :   -0.327298
   2 C :    0.219660
   3 C :    0.206847
   4 C :    0.207285
   5 C :    0.004072
   6 N :    0.360890
   7 H :   -0.167354
   8 H :   -0.155943
   9 H :   -0.167339
  10 H :   -0.180803
  11 C :   -0.327352
  12 C :    0.219749
  13 C :    0.206842
  14 C :    0.004085
  15 N :    0.360866
  16 H :   -0.167370
  17 H :   -0.155955
  18 H :   -0.167373
  19 H :   -0.180755

  Mayer bond orders larger than 0.100000
B(  0-C , 13-C ) :   1.2164 B(  0-C , 14-C ) :   0.7229 B(  0-C , 15-N ) :  -0.1363
B(  0-C , 18-H ) :   1.0658 B(  1-C ,  2-C ) :   0.5563 B(  1-C ,  3-C ) :  -0.2153
B(  1-C ,  6-N ) :   0.1928 B(  1-C ,  7-H ) :  -0.1516 B(  1-C , 11-C ) :   0.1895
B(  1-C , 15-N ) :   0.1620 B(  2-C ,  3-C ) :   1.2615 B(  2-C ,  5-C ) :  -0.1632
B(  2-C ,  7-H ) :   1.3605 B(  2-C , 10-H ) :   0.1076 B(  3-C ,  4-C ) :   1.2208
B(  3-C ,  5-C ) :   0.3933 B(  3-C ,  6-N ) :   0.1050 B(  3-C ,  7-H ) :  -0.1543
B(  3-C ,  8-H ) :   0.5550 B(  4-C ,  5-C ) :   0.7282 B(  4-C ,  6-N ) :  -0.1353
B(  4-C ,  9-H ) :   1.0532 B(  5-C ,  6-N ) :   1.4955 B(  5-C , 10-H ) :   0.4013
B(  6-N , 11-C ) :   0.1690 B(  7-H ,  9-H ) :   0.1008 B( 11-C , 12-C ) :   0.5657
B( 11-C , 13-C ) :  -0.2074 B( 11-C , 15-N ) :   0.2017 B( 11-C , 16-H ) :  -0.1499
B( 12-C , 13-C ) :   1.2653 B( 12-C , 14-C ) :  -0.1603 B( 12-C , 16-H ) :   1.3580
B( 12-C , 19-H ) :   0.1082 B( 13-C , 14-C ) :   0.3939 B( 13-C , 15-N ) :   0.1051
B( 13-C , 16-H ) :  -0.1543 B( 13-C , 17-H ) :   0.5502 B( 13-C , 18-H ) :  -0.1020
B( 14-C , 15-N ) :   1.4967 B( 14-C , 19-H ) :   0.3969 B( 16-H , 18-H ) :   0.1058

Dispersion correction           -0.007407070
FINAL SINGLE POINT ENERGY      -495.262777195638

DIPOLE MOMENT
-------------

Method             : SCF
Type of density    : Electron Density
Multiplicity       :   1
Irrep              :   0
Energy             :  -495.2553701260522985 Eh
Relativity type    :
Basis              : AO
                                X                 Y                 Z
Electronic contribution:     -1.449786571      -0.370775216      -0.060400424
Nuclear contribution   :      3.378460210       0.864564887       0.140838942
                        -----------------------------------------
Total Dipole Moment    :      1.928673638       0.493789670       0.080438518
                        -----------------------------------------
Magnitude (a.u.)       :      1.992506110
Magnitude (Debye)      :      5.064548044

Rotational constants in cm-1:             0.098656             0.019232             0.016535
Rotational constants in MHz :          2957.622560           576.568291           495.704573

                             ****ORCA TERMINATED NORMALLY****
TOTAL RUN TIME: 0 days 0 hours 4 minutes 32 seconds 516 msec
