                         Program Version 6.0.0  -   RELEASE  -
|  1> !PBE0 freq def2-SV(p) d3 TightSCF SlowConv RIJCOSX defgrid2
|  2>
|  3> %pal
|  4> nprocs 12
|  5> end
|  6>
|  7> %scf
|  8> MaxIter 1500
|  9> end
| 10>
| 11> %maxcore 5000
| 12>
| 13> !CPCM
| 14> %cpcm smd true
| 15> SMDsolvent "MeCN"
| 16> surfacetype gepol_ses
| 17> rsolv 2.19
| 18> end
| 19>
| 20> * xyz 0 1
| 21> C          -1.20493585551389     -0.02283061654050      0.00014009664813
| 22> C          -1.20688480327355      1.38103649315500      0.00043204021753
| 23> C           0.00003282962729      2.07308181872027      0.00002206548807
| 24> C           1.20692577242290      1.38099453026057     -0.00049448505130
| 25> C           1.20493691158635     -0.02287231170524     -0.00037292478215
| 26> C          -0.00001213122149     -0.73302700674549     -0.00019087397539
| 27> H          -0.00003207973451     -1.82429344681365     -0.00029382591805
| 28> C           2.44478725248109     -0.73778009179389     -0.00017218295703
| 29> N           3.45104160770069     -1.31305674139776      0.00134545943385
| 30> H           2.15506619133710      1.92318766636704     -0.00061821191167
| 31> H           0.00005301433222      3.16569550891267      0.00009589524319
| 32> H          -2.15500711971630      1.92325978928249      0.00063323720588
| 33> C          -2.44481384084731     -0.73769089343856     -0.00001171977511
| 34> N          -3.45109354918057     -1.31292519826293     -0.00045446986595
| 35> *
| 36>
| 37>                          ****END OF INPUT****

CARTESIAN COORDINATES (ANGSTROEM)
---------------------------------
  C     -1.204936   -0.022831    0.000140
  C     -1.206885    1.381036    0.000432
  C      0.000033    2.073082    0.000022
  C      1.206926    1.380995   -0.000494
  C      1.204937   -0.022872   -0.000373
  C     -0.000012   -0.733027   -0.000191
  H     -0.000032   -1.824293   -0.000294
  C      2.444787   -0.737780   -0.000172
  N      3.451042   -1.313057    0.001345
  H      2.155066    1.923188   -0.000618
  H      0.000053    3.165696    0.000096
  H     -2.155007    1.923260    0.000633
  C     -2.444814   -0.737691   -0.000012
  N     -3.451094   -1.312925   -0.000454

 Total Charge           Charge          ....    0
 Multiplicity           Mult            ....    1
 Number of Electrons    NEL             ....   66
 Basis Dimension        Dim             ....  148

ORBITAL ENERGIES
----------------

  NO   OCC          E(Eh)            E(eV)
   0   2.0000     -14.406810      -392.0292
   1   2.0000     -14.406802      -392.0290
   2   2.0000     -10.297911      -280.2204
   3   2.0000     -10.297882      -280.2196
   4   2.0000     -10.294449      -280.1262
   5   2.0000     -10.294427      -280.1256
   6   2.0000     -10.280892      -279.7573
   7   2.0000     -10.273207      -279.5482
   8   2.0000     -10.273190      -279.5477
   9   2.0000     -10.261008      -279.2162
  10   2.0000      -0.946387       -25.7525
  11   2.0000      -0.940242       -25.5853
  12   2.0000      -0.912092       -24.8193
  13   2.0000      -0.824300       -22.4303
  14   2.0000      -0.805611       -21.9218
  15   2.0000      -0.685689       -18.6586
  16   2.0000      -0.681524       -18.5452
  17   2.0000      -0.613860       -16.7040
  18   2.0000      -0.526468       -14.3259
  19   2.0000      -0.524510       -14.2726
  20   2.0000      -0.512886       -13.9563
  21   2.0000      -0.468470       -12.7477
  22   2.0000      -0.444944       -12.1076
  23   2.0000      -0.413636       -11.2556
  24   2.0000      -0.407968       -11.1014
  25   2.0000      -0.404209       -10.9991
  26   2.0000      -0.396269       -10.7830
  27   2.0000      -0.392396       -10.6777
  28   2.0000      -0.366959        -9.9855
  29   2.0000      -0.366279        -9.9670
  30   2.0000      -0.365055        -9.9337
  31   2.0000      -0.296815        -8.0768
  32   2.0000      -0.291939        -7.9441
  33   0.0000      -0.069604        -1.8940
  34   0.0000      -0.052678        -1.4334
  35   0.0000       0.020009         0.5445
  36   0.0000       0.035641         0.9698
  37   0.0000       0.043296         1.1781

MULLIKEN ATOMIC CHARGES
-----------------------
   0 C :   -0.102163
   1 C :   -0.052121
   2 C :   -0.102271
   3 C :   -0.052123
   4 C :   -0.102163
   5 C :   -0.057491
   6 H :    0.153427
   7 C :   -0.004646
   8 N :   -0.064445
   9 H :    0.149195
  10 H :    0.154701
  11 H :    0.149196
  12 C :   -0.004647
  13 N :   -0.064448
Sum of atomic charges:   -0.0000000

LOEWDIN ATOMIC CHARGES
----------------------
   0 C :   -0.084838
   1 C :   -0.060651
   2 C :   -0.109446
   3 C :   -0.060651
   4 C :   -0.084838
   5 C :   -0.044958
   6 H :    0.171340
   7 C :    0.012973
   8 N :   -0.122201
   9 H :    0.165486
  10 H :    0.161528
  11 H :    0.165486
  12 C :    0.012973
  13 N :   -0.122202

  Mayer bond orders larger than 0.100000
B(  0-C ,  1-C ) :   1.3497 B(  0-C ,  5-C ) :   1.3543 B(  0-C , 12-C ) :   1.0751
B(  1-C ,  2-C ) :   1.3799 B(  1-C , 11-H ) :   0.9601 B(  2-C ,  3-C ) :   1.3799
B(  2-C , 10-H ) :   0.9566 B(  3-C ,  4-C ) :   1.3497 B(  3-C ,  9-H ) :   0.9601
B(  4-C ,  5-C ) :   1.3543 B(  4-C ,  7-C ) :   1.0751 B(  5-C ,  6-H ) :   0.9582
B(  7-C ,  8-N ) :   2.9909 B( 12-C , 13-N ) :   2.9909

Dispersion correction           -0.014207855
FINAL SINGLE POINT ENERGY      -415.953078327309

DIPOLE MOMENT
-------------

Method             : SCF
Type of density    : Electron Density
Multiplicity       :   1
Irrep              :   0
Energy             :  -415.9388704719594330 Eh
Relativity type    :
Basis              : AO
                                X                 Y                 Z
Electronic contribution:     -0.000036093      -2.652516607      -0.000518057
Nuclear contribution   :      0.000081027       4.868914164      -0.000299247
                        -----------------------------------------
Total Dipole Moment    :      0.000044934       2.216397557      -0.000817304
                        -----------------------------------------
Magnitude (a.u.)       :      2.216397708
Magnitude (Debye)      :      5.633635262

VIBRATIONAL FREQUENCIES
-----------------------

Scaling factor for frequencies =  1.000000000  (already applied!)

     0:       0.00 cm**-1
     1:       0.00 cm**-1
     2:       0.00 cm**-1
     3:       0.00 cm**-1
     4:       0.00 cm**-1
     5:       0.00 cm**-1
     6:     117.31 cm**-1
     7:     121.42 cm**-1
     8:     159.40 cm**-1
     9:     196.95 cm**-1
    10:     388.93 cm**-1
    11:     397.29 cm**-1
    12:     461.99 cm**-1
    13:     465.16 cm**-1
    14:     541.30 cm**-1
    15:     546.39 cm**-1
    16:     612.65 cm**-1
    17:     659.50 cm**-1
    18:     702.95 cm**-1
    19:     715.80 cm**-1
    20:     824.09 cm**-1
    21:     926.98 cm**-1
    22:     936.27 cm**-1
    23:     962.55 cm**-1
    24:    1016.61 cm**-1
    25:    1030.40 cm**-1
    26:    1118.37 cm**-1
    27:    1171.17 cm**-1
    28:    1178.96 cm**-1
    29:    1290.10 cm**-1
    30:    1310.88 cm**-1
    31:    1396.19 cm**-1
    32:    1467.34 cm**-1
    33:    1524.82 cm**-1
    34:    1655.42 cm**-1
    35:    1687.66 cm**-1
    36:    2393.14 cm**-1
    37:    2395.56 cm**-1
    38:    3226.68 cm**-1
    39:    3236.38 cm**-1
    40:    3242.55 cm**-1
    41:    3244.25 cm**-1

IR SPECTRUM
-----------

 Mode   freq       eps      Int      T**2         TX        TY        TZ
       cm**-1   L/(mol*cm) km/mol    a.u.
----------------------------------------------------------------------------
  6:    117.31   0.003010   15.21  0.008008  (-0.000002  0.089486  0.000134)
  7:    121.42   0.001661    8.39  0.004268  (-0.000148 -0.000160  0.065331)
  8:    159.40   0.000000    0.00  0.000000  (-0.000046  0.000225 -0.000023)
  9:    196.95   0.000574    2.90  0.000909  ( 0.030153  0.000005  0.000171)
 10:    388.93   0.000000    0.00  0.000000  ( 0.000049  0.000091 -0.000016)
 11:    397.29   0.000215    1.08  0.000169  ( 0.000111  0.000031  0.012982)
 12:    461.99   0.000002    0.01  0.000001  (-0.001127  0.000005 -0.000156)
 13:    465.16   0.000283    1.43  0.000190  ( 0.000004  0.013772  0.000020)
 14:    541.30   0.006060   30.62  0.003494  (-0.000061  0.000052  0.059107)
 15:    546.39   0.000392    1.98  0.000224  (-0.000003 -0.014965  0.000089)
 16:    612.65   0.000353    1.78  0.000180  (-0.013399  0.000001  0.000211)
 17:    659.50   0.000000    0.00  0.000000  ( 0.000068 -0.000048  0.000006)
 18:    702.95   0.010859   54.88  0.004821  (-0.000046 -0.000008  0.069430)
 19:    715.80   0.000045    0.23  0.000020  (-0.000003 -0.004426 -0.000014)
 20:    824.09   0.004828   24.40  0.001828  ( 0.000034 -0.000014  0.042759)
 21:    926.98   0.002544   12.86  0.000856  ( 0.029260  0.000000 -0.000468)
 22:    936.27   0.002428   12.27  0.000809  (-0.000451  0.000003 -0.028444)
 23:    962.55   0.000000    0.00  0.000000  ( 0.000008  0.000367  0.000004)
 24:   1016.61   0.000278    1.40  0.000085  ( 0.000006 -0.009238  0.000009)
 25:   1030.40   0.000004    0.02  0.000001  ( 0.000067 -0.000002 -0.001041)
 26:   1118.37   0.003111   15.72  0.000868  (-0.000006 -0.029463 -0.000004)
 27:   1171.17   0.000021    0.11  0.000006  ( 0.002353  0.000001  0.000064)
 28:   1178.96   0.003001   15.17  0.000794  ( 0.028185 -0.000002  0.000161)
 29:   1290.10   0.000911    4.60  0.000220  ( 0.000005  0.014841  0.000004)
 30:   1310.88   0.000005    0.02  0.000001  (-0.001062  0.000000 -0.000046)
 31:   1396.19   0.001156    5.84  0.000258  (-0.016075  0.000003 -0.000025)
 32:   1467.34   0.002315   11.70  0.000492  ( 0.000005 -0.022190  0.000003)
 33:   1524.82   0.003827   19.34  0.000783  ( 0.027986 -0.000001  0.000032)
 34:   1655.42   0.000028    0.14  0.000005  ( 0.000008 -0.002291  0.000000)
 35:   1687.66   0.002570   12.99  0.000475  (-0.021798  0.000002  0.000055)
 36:   2393.14   0.038535  194.74  0.005025  ( 0.070887 -0.000007 -0.000020)
 37:   2395.56   0.010484   52.98  0.001366  (-0.000013 -0.036957 -0.000001)
 38:   3226.68   0.000085    0.43  0.000008  (-0.000001 -0.002869 -0.000002)
 39:   3236.38   0.000001    0.00  0.000000  ( 0.000285 -0.000001  0.000034)
 40:   3242.55   0.000161    0.81  0.000015  ( 0.000000  0.003933  0.000000)
 41:   3244.25   0.000147    0.74  0.000014  (-0.000001  0.003759 -0.000002)

--------------------------
THERMOCHEMISTRY AT 298.15K
--------------------------

Temperature         ...   298.15 K
Pressure            ...     1.00 atm
Total Mass          ...   128.13 AMU
Quasi RRHO          ...     True
Cut-Off Frequency   ...     1.00 cm^-1

Throughout the following assumptions are being made:
  (1) The electronic state is orbitally nondegenerate
  (2) There are no thermally accessible electronically excited states
  (3) Hindered rotations indicated by low frequency modes are not
      treated as such but are treated as vibrations and this may
      cause some error
  (4) All equations used are the standard statistical mechanics
      equations for an ideal gas
  (5) All vibrations are strictly harmonic

freq.     117.31  E(vib)   ...       0.44
freq.     121.42  E(vib)   ...       0.44
freq.     159.40  E(vib)   ...       0.39
freq.     196.95  E(vib)   ...       0.35
freq.     388.93  E(vib)   ...       0.20
freq.     397.29  E(vib)   ...       0.20
freq.     461.99  E(vib)   ...       0.16
freq.     465.16  E(vib)   ...       0.16
freq.     541.30  E(vib)   ...       0.12
freq.     546.39  E(vib)   ...       0.12
freq.     612.65  E(vib)   ...       0.10
freq.     659.50  E(vib)   ...       0.08
freq.     702.95  E(vib)   ...       0.07
freq.     715.80  E(vib)   ...       0.07
freq.     824.09  E(vib)   ...       0.05
freq.     926.98  E(vib)   ...       0.03
freq.     936.27  E(vib)   ...       0.03
freq.     962.55  E(vib)   ...       0.03
freq.    1016.61  E(vib)   ...       0.02
freq.    1030.40  E(vib)   ...       0.02
freq.    1118.37  E(vib)   ...       0.01
freq.    1171.17  E(vib)   ...       0.01
freq.    1178.96  E(vib)   ...       0.01
freq.    1290.10  E(vib)   ...       0.01
freq.    1310.88  E(vib)   ...       0.01
freq.    1396.19  E(vib)   ...       0.00
freq.    1467.34  E(vib)   ...       0.00
freq.    1524.82  E(vib)   ...       0.00
freq.    1655.42  E(vib)   ...       0.00
freq.    1687.66  E(vib)   ...       0.00
freq.    2393.14  E(vib)   ...       0.00
freq.    2395.56  E(vib)   ...       0.00
freq.    3226.68  E(vib)   ...       0.00
freq.    3236.38  E(vib)   ...       0.00
freq.    3242.55  E(vib)   ...       0.00
freq.    3244.25  E(vib)   ...       0.00

------------
INNER ENERGY
------------

The inner energy is: U= E(el) + E(ZPE) + E(vib) + E(rot) + E(trans)
    E(el)   - is the total energy from the electronic structure calculation
              = E(kin-el) + E(nuc-el) + E(el-el) + E(nuc-nuc)
    E(ZPE)  - the the zero temperature vibrational energy from the frequency calculation
    E(vib)  - the the finite temperature correction to E(ZPE) due to population
              of excited vibrational states
    E(rot)  - is the rotational thermal energy
    E(trans)- is the translational thermal energy

Summary of contributions to the inner energy U:
Electronic energy                ...   -415.95307833 Eh
Zero point energy                ...      0.09869802 Eh      61.93 kcal/mol
Thermal vibrational correction   ...      0.00499762 Eh       3.14 kcal/mol
Thermal rotational correction    ...      0.00141627 Eh       0.89 kcal/mol
Thermal translational correction ...      0.00141627 Eh       0.89 kcal/mol
-----------------------------------------------------------------------
Total thermal energy                   -415.84655014 Eh

Summary of corrections to the electronic energy:
(perhaps to be used in another calculation)
Total thermal correction                  0.00783016 Eh       4.91 kcal/mol
Non-thermal (ZPE) correction              0.09869802 Eh      61.93 kcal/mol
-----------------------------------------------------------------------
Total correction                          0.10652819 Eh      66.85 kcal/mol

--------
ENTHALPY
--------

The enthalpy is H = U + kB*T
                kB is Boltzmann's constant
Total thermal energy              ...   -415.84655014 Eh
Thermal Enthalpy correction       ...      0.00094421 Eh       0.59 kcal/mol
-----------------------------------------------------------------------
Total Enthalpy                    ...   -415.84560593 Eh

Note: Only C1 symmetry has been detected, increase convergence thresholds
      if your molecule has a higher symmetry. Symmetry factor of 1.0 is
      used for the rotational entropy correction.

Note: Rotational entropy computed according to Herzberg
Infrared and Raman Spectra, Chapter V,1, Van Nostrand Reinhold, 1945
Point Group:  C1, Symmetry Number:   1
Rotational constants in cm-1:     0.090545     0.030295     0.022700

Vibrational entropy computed according to the QRRHO of S. Grimme
Chem.Eur.J. 2012 18 9955 using a reference frequency of 100.0 cm-1

-------
ENTROPY
-------

The entropy contributions are T*S = T*(S(el)+S(vib)+S(rot)+S(trans))
     S(el)   - electronic entropy
     S(vib)  - vibrational entropy
     S(rot)  - rotational entropy
     S(trans)- translational entropy
The entropies will be listed as multiplied by the temperature to get
units of energy

Electronic entropy                ...      0.00000000 Eh      0.00 kcal/mol
Vibrational entropy               ...      0.00836011 Eh      5.25 kcal/mol
Rotational entropy                ...      0.01408258 Eh      8.84 kcal/mol
Translational entropy             ...      0.01922234 Eh     12.06 kcal/mol
-----------------------------------------------------------------------
Final entropy term                ...      0.04166503 Eh     26.15 kcal/mol

In case the symmetry of your molecule has not been determined correctly
or in case you have a reason to use a different symmetry number we print
out the resulting rotational entropy values for sn=1,12:

 non-linear molecules -----------------------------------
|  sn= 1 | S(rot)=       0.01408258 Eh      8.84 kcal/mol|
|  sn= 2 | S(rot)=       0.01342812 Eh      8.43 kcal/mol|
|  sn= 3 | S(rot)=       0.01304529 Eh      8.19 kcal/mol|
|  sn= 4 | S(rot)=       0.01277366 Eh      8.02 kcal/mol|
|  sn= 5 | S(rot)=       0.01256298 Eh      7.88 kcal/mol|
|  sn= 6 | S(rot)=       0.01239083 Eh      7.78 kcal/mol|
|  sn= 7 | S(rot)=       0.01224529 Eh      7.68 kcal/mol|
|  sn= 8 | S(rot)=       0.01211921 Eh      7.60 kcal/mol|
|  sn= 9 | S(rot)=       0.01200800 Eh      7.54 kcal/mol|
|  sn=10 | S(rot)=       0.01190852 Eh      7.47 kcal/mol|
|  sn=11 | S(rot)=       0.01181853 Eh      7.42 kcal/mol|
|  sn=12 | S(rot)=       0.01173638 Eh      7.36 kcal/mol|
 linear molecules ---------------------------------------
|  Dinfh | S(rot)=       0.00889991 Eh      5.58 kcal/mol|
|  Cinfv | S(rot)=       0.00955436 Eh      6.00 kcal/mol|
 --------------------------------------------------------

-------------------
GIBBS FREE ENERGY
-------------------

The Gibbs free energy is G = H - T*S

                             ****ORCA TERMINATED NORMALLY****
TOTAL RUN TIME: 0 days 0 hours 6 minutes 4 seconds 947 msec
