                         Program Version 6.0.0  -   RELEASE  -
|  1> !r2SCAN opt aug-cc-pVTZ d3 TightSCF SlowConv RIJCOSX defgrid2
|  2>
|  3> %pal
|  4> nprocs 8
|  5> end
|  6>
|  7> %scf
|  8> MaxIter 1500
|  9> end
| 10>
| 11> %maxcore 3500
| 12>
| 13> !CPCM
| 14> %cpcm smd true
| 15> SMDsolvent "MeCN"
| 16> surfacetype gepol_ses
| 17> rsolv 2.19
| 18> end
| 19>
| 20> * xyz 0 1
| 21> 6        0.869258600     -1.201261200     -0.144915000
| 22> 6        1.234613600      0.150270800     -0.130886400
| 23> 6        0.208119000      1.103463400     -0.079009800
| 24> 6       -1.139836200      0.753061400      0.007900200
| 25> 6       -1.490324200     -0.608879200      0.015923200
| 26> 6       -0.468486600     -1.562701600     -0.071344200
| 27> 1       -0.733964800     -2.614925200     -0.095442200
| 28> 6       -2.927417800     -1.030229800      0.094477600
| 29> 1       -3.018839000     -2.116245000      0.088339600
| 30> 1       -3.509157600     -0.636032600     -0.746434600
| 31> 1       -3.405843000     -0.654324400      1.005901000
| 32> 6       -2.198956600      1.813740200      0.086955000
| 33> 1       -2.786571400      1.726087400      1.008512800
| 34> 1       -2.909900200      1.735958000     -0.744029400
| 35> 1       -1.757571200      2.810172600      0.061799000
| 36> 1        0.475496800      2.156237800     -0.087427600
| 37> 6        2.623814200      0.609179400     -0.159846800
| 38> 6        3.724800400     -0.148721200      0.319744600
| 39> 1        3.690067000     -1.232861800      0.820241200
| 40> 1        4.707011000      0.307806400      0.245942600
| 41> 1        2.743099000      1.690805800     -0.581609000
| 42> 1        1.627673200     -1.975115200     -0.246688400
| 43> *
| 44>
| 45>                          ****END OF INPUT****
 Total Charge           Charge          ....    0
 Multiplicity           Mult            ....    1
 Number of Electrons    NEL             ....   72
Dispersion correction           -0.007072208
FINAL SINGLE POINT ENERGY      -388.180155103534
Dispersion correction             ... done (  0.1 sec)
Dispersion correction           -0.007097507
FINAL SINGLE POINT ENERGY      -388.197840855403
Dispersion correction             ... done (  0.0 sec)
Dispersion correction           -0.007100134
FINAL SINGLE POINT ENERGY      -388.198594573732
Dispersion correction             ... done (  0.1 sec)
FINAL SINGLE POINT ENERGY      -388.198868691642
FINAL SINGLE POINT ENERGY      -388.199038716692
FINAL SINGLE POINT ENERGY      -388.199099220194
FINAL SINGLE POINT ENERGY      -388.199152515714
FINAL SINGLE POINT ENERGY      -388.199169997331
FINAL SINGLE POINT ENERGY      -388.199174694120
Dispersion correction             ... done (  0.1 sec)
Dispersion correction           -0.007091567
FINAL SINGLE POINT ENERGY      -388.199175697513
Dispersion correction             ... done (  0.1 sec)
Dispersion correction           -0.007091569
FINAL SINGLE POINT ENERGY      -388.199176440580
Dispersion correction             ... done (  0.0 sec)
                    ***********************HURRAY********************

CARTESIAN COORDINATES (ANGSTROEM)
---------------------------------
  C      0.869112   -1.201463    0.054489
  C      1.234595    0.149767    0.031087
  C      0.208204    1.102957    0.014262
  C     -1.139840    0.752925    0.019153
  C     -1.490588   -0.608765    0.042429
  C     -0.468847   -1.562583    0.059895
  H     -0.734744   -2.614598    0.078627
  C     -2.927878   -1.030012    0.048268
  H     -3.019106   -2.115927    0.066754
  H     -3.456819   -0.659504   -0.834896
  H     -3.458640   -0.629775    0.917238
  C     -2.198766    1.813868   -0.001128
  H     -2.849953    1.746212    0.875227
  H     -2.846208    1.715288   -0.877308
  H     -1.756650    2.809918   -0.017930
  H      0.476191    2.155516   -0.004086
  C      2.623972    0.608857    0.023082
  C      3.725074   -0.148554    0.029755
  H      3.691052   -1.232261    0.042308
  H      4.706847    0.308980    0.022600
  H      2.742861    1.690222    0.009430
  H      1.627216   -1.975583    0.068848

 Multiplicity           Mult            ....    1
 Number of Electrons    NEL             ....   72
 Basis Dimension        Dim             ....  736

ORBITAL ENERGIES
----------------

  NO   OCC          E(Eh)            E(eV)
   0   2.0000     -10.045805      -273.3602
   1   2.0000     -10.045267      -273.3456
   2   2.0000     -10.044855      -273.3344
   3   2.0000     -10.041377      -273.2398
   4   2.0000     -10.034053      -273.0405
   5   2.0000     -10.033549      -273.0268
   6   2.0000     -10.033114      -273.0149
   7   2.0000     -10.026692      -272.8401
   8   2.0000     -10.023153      -272.7439
   9   2.0000     -10.022989      -272.7394
  10   2.0000      -0.831717       -22.6322
  11   2.0000      -0.769323       -20.9343
  12   2.0000      -0.731868       -19.9152
  13   2.0000      -0.713475       -19.4146
  14   2.0000      -0.663682       -18.0597
  15   2.0000      -0.635806       -17.3012
  16   2.0000      -0.570476       -15.5234
  17   2.0000      -0.564084       -15.3495
  18   2.0000      -0.508434       -13.8352
  19   2.0000      -0.464529       -12.6405
  20   2.0000      -0.446970       -12.1627
  21   2.0000      -0.416620       -11.3368
  22   2.0000      -0.401842       -10.9347
  23   2.0000      -0.396242       -10.7823
  24   2.0000      -0.380481       -10.3534
  25   2.0000      -0.374108       -10.1800
  26   2.0000      -0.363035        -9.8787
  27   2.0000      -0.349057        -9.4983
  28   2.0000      -0.346519        -9.4293
  29   2.0000      -0.340749        -9.2722
  30   2.0000      -0.326116        -8.8741
  31   2.0000      -0.302452        -8.2301
  32   2.0000      -0.296789        -8.0760
  33   2.0000      -0.273380        -7.4390
  34   2.0000      -0.230978        -6.2852
  35   2.0000      -0.204287        -5.5589
  36   0.0000      -0.064273        -1.7489
  37   0.0000      -0.032088        -0.8731
  38   0.0000       0.006803         0.1851
  39   0.0000       0.017848         0.4857
  40   0.0000       0.020700         0.5633

MULLIKEN ATOMIC CHARGES
-----------------------
   0 C :   -0.252081
   1 C :    2.227292
   2 C :   -1.298561
   3 C :    0.817692
   4 C :    1.060113
   5 C :   -1.281468
   6 H :   -0.074085
   7 C :   -0.705312
   8 H :    0.067825
   9 H :    0.195088
  10 H :    0.194465
  11 C :   -0.699824
  12 H :    0.189661
  13 H :    0.189005
  14 H :    0.082988
  15 H :   -0.422801
  16 C :    0.099749
  17 C :   -0.958078
  18 H :    0.148986
  19 H :    0.302384
  20 H :    0.038379
  21 H :    0.078584
Sum of atomic charges:   -0.0000000

LOEWDIN ATOMIC CHARGES
----------------------
   0 C :    0.210246
   1 C :   -0.152716
   2 C :    0.225359
   3 C :   -0.102981
   4 C :   -0.107151
   5 C :    0.221614
   6 H :   -0.174678
   7 C :    0.588168
   8 H :   -0.172735
   9 H :   -0.160058
  10 H :   -0.160015
  11 C :    0.590066
  12 H :   -0.159936
  13 H :   -0.159979
  14 H :   -0.172312
  15 H :   -0.174182
  16 C :    0.165371
  17 C :    0.529206
  18 H :   -0.227651
  19 H :   -0.222590
  20 H :   -0.194840
  21 H :   -0.188205

  Mayer bond orders larger than 0.100000
B(  0-C ,  2-C ) :  -0.8930 B(  0-C ,  3-C ) :  -0.2571 B(  0-C ,  4-C ) :   0.1330
B(  0-C ,  5-C ) :   0.4804 B(  0-C ,  6-H ) :  -0.1542 B(  0-C , 16-C ) :   0.2268
B(  0-C , 18-H ) :  -0.1464 B(  0-C , 21-H ) :   1.5825 B(  1-C ,  2-C ) :  -0.7486
B(  1-C ,  3-C ) :   0.5266 B(  1-C ,  4-C ) :  -0.2874 B(  1-C ,  7-C ) :   0.1013
B(  1-C , 15-H ) :  -0.5743 B(  1-C , 16-C ) :  -0.1265 B(  1-C , 21-H ) :  -0.1670
B(  2-C ,  3-C ) :   0.4977 B(  2-C ,  4-C ) :  -0.3549 B(  2-C ,  5-C ) :   0.2013
B(  2-C , 11-C ) :  -0.1921 B(  2-C , 15-H ) :   2.4691 B(  2-C , 16-C ) :   0.2353
B(  2-C , 17-C ) :   0.1282 B(  2-C , 20-H ) :  -0.1347 B(  3-C ,  4-C ) :   1.1934
B(  3-C ,  5-C ) :   0.1736 B(  3-C ,  7-C ) :   0.1670 B(  3-C , 11-C ) :  -0.1578
B(  3-C , 12-H ) :  -0.1123 B(  3-C , 13-H ) :  -0.1121 B(  3-C , 15-H ) :  -0.2836
B(  3-C , 20-H ) :   0.1159 B(  3-C , 21-H ) :  -0.2493 B(  4-C ,  5-C ) :   0.4292
B(  4-C ,  7-C ) :   0.1367 B(  4-C , 11-C ) :   0.4375 B(  4-C , 15-H ) :  -0.1048
B(  4-C , 16-C ) :   0.1122 B(  4-C , 21-H ) :  -0.1297 B(  5-C ,  6-H ) :   1.4072
B(  5-C ,  7-C ) :  -0.1719 B(  5-C , 17-C ) :  -0.1433 B(  5-C , 21-H ) :  -0.1668
B(  7-C ,  8-H ) :   1.0821 B(  7-C ,  9-H ) :   1.0211 B(  7-C , 10-H ) :   1.0211
B( 11-C , 12-H ) :   1.0333 B( 11-C , 13-H ) :   1.0339 B( 11-C , 14-H ) :   1.0462
B( 15-H , 16-C ) :  -0.1968 B( 16-C , 17-C ) :   0.7816 B( 16-C , 18-H ) :  -0.1156
B( 16-C , 20-H ) :   1.1332 B( 17-C , 18-H ) :   1.2500 B( 17-C , 19-H ) :   0.7933
B( 17-C , 20-H ) :  -0.2097

Dispersion correction           -0.007091638
FINAL SINGLE POINT ENERGY      -388.199175576672

DIPOLE MOMENT
-------------

Method             : SCF
Type of density    : Electron Density
Multiplicity       :   1
Irrep              :   0
Energy             :  -388.1920839384131341 Eh
Relativity type    :
Basis              : AO
                                X                 Y                 Z
Electronic contribution:      3.946862825      -1.049240620       0.030329171
Nuclear contribution   :     -4.602631096       1.147326414      -0.033019677
                        -----------------------------------------
Total Dipole Moment    :     -0.655768272       0.098085793      -0.002690506
                        -----------------------------------------
Magnitude (a.u.)       :      0.663068690
Magnitude (Debye)      :      1.685386671

Rotational constants in cm-1:             0.097842             0.028759             0.022409
Rotational constants in MHz :          2933.228539           862.171765           671.804916

                             ****ORCA TERMINATED NORMALLY****
TOTAL RUN TIME: 0 days 0 hours 27 minutes 40 seconds 928 msec
