                         Program Version 6.0.0  -   RELEASE  -
|  1> !B3LYP aug-cc-pVTZ d3 TightSCF SlowConv RIJCOSX defgrid2
|  2>
|  3> %pal
|  4> nprocs 4
|  5> end
|  6>
|  7> %scf
|  8> MaxIter 1500
|  9> end
| 10>
| 11> %maxcore 3000
| 12>
| 13> !CPCM
| 14> %cpcm smd true
| 15> SMDsolvent "MeCN"
| 16> surfacetype gepol_ses
| 17> rsolv 2.19
| 18> end
| 19>
| 20> * xyz 1 1
| 21> S          -0.00010944424839      1.35688622383581     -0.00045588940143
| 22> C          -1.36031372365063      0.28664543166242     -0.00546340006884
| 23> C          -2.62476671337193      0.84705677005335     -0.00971453464717
| 24> C          -3.78353785154568      0.02886102280580     -0.01423429397565
| 25> C          -3.60107018284620     -1.39624179093014     -0.01297231605589
| 26> C          -2.35199681392559     -1.94146658195771     -0.00876136479511
| 27> H          -2.20685076914384     -3.02424367637830     -0.00793305758699
| 28> C          -1.17128315978886     -1.13818915246922     -0.00497020504615
| 29> N          -0.00001727096531     -1.76076243632930     -0.00102819010967
| 30> C           1.17121135470124     -1.13812134734186      0.00317013049378
| 31> C           2.35197256200709     -1.94133049036071      0.00663254829317
| 32> C           3.60101296929016     -1.39603417388084      0.01111542619478
| 33> C           3.78339829568492      0.02907907789014      0.01307239629264
| 34> C           2.62457944996628      0.84720769458296      0.00871634184597
| 35> C           1.36015864778127      0.28672353397519      0.00420556171077
| 36> H           2.71641587399496      1.93353835850929      0.00870793171486
| 37> N           5.01788004531514      0.56609746843354      0.01833544940540
| 38> C           5.18814133491822      2.00584377316990      0.01634403450098
| 39> H           4.74542942133653      2.46193420678108     -0.88734870267485
| 40> H           4.72786575445769      2.46596005134639      0.90894953027437
| 41> H           6.25942535209398      2.24475285672826      0.02662709311567
| 42> C           6.19613286716415     -0.28271908536379      0.01876057872020
| 43> H           7.09315770451857      0.34984666853403      0.03069035539786
| 44> H           6.22593666634906     -0.93099154946415      0.91190332484387
| 45> H           6.23822191663831     -0.91632293624570     -0.88458991452958
| 46> H           4.46615171425756     -2.05841324252657      0.01286181646995
| 47> H           2.20688865714732     -3.02411577980646      0.00525686441104
| 48> H          -4.46616949026249     -2.05867393830664     -0.01518022916305
| 49> N          -5.01805188093167      0.56580837981430     -0.01910492853996
| 50> C          -6.19625511800718     -0.28307615883811     -0.01957513903852
| 51> H          -6.23708281763836     -0.91821943273873      0.88272679402223
| 52> H          -6.22732906825129     -0.92976319747341     -0.91384668889601
| 53> H          -7.09331253060909      0.34948868396873     -0.02891629923048
| 54> C          -5.18838315405153      2.00554867169595     -0.01756056694950
| 55> H          -4.74545392382641      2.46196127570139      0.88586029063703
| 56> H          -4.72835954265605      2.46538730377880     -0.91044348638837
| 57> H          -6.25968060226678      2.24440376590571     -0.02761767922995
| 58> H          -2.71666652963520      1.93338075123861     -0.00930728201738
| 59> *
| 60>
| 61>                          ****END OF INPUT****

CARTESIAN COORDINATES (ANGSTROEM)
---------------------------------
  S     -0.000109    1.356886   -0.000456
  C     -1.360314    0.286645   -0.005463
  C     -2.624767    0.847057   -0.009715
  C     -3.783538    0.028861   -0.014234
  C     -3.601070   -1.396242   -0.012972
  C     -2.351997   -1.941467   -0.008761
  H     -2.206851   -3.024244   -0.007933
  C     -1.171283   -1.138189   -0.004970
  N     -0.000017   -1.760762   -0.001028
  C      1.171211   -1.138121    0.003170
  C      2.351973   -1.941330    0.006633
  C      3.601013   -1.396034    0.011115
  C      3.783398    0.029079    0.013072
  C      2.624579    0.847208    0.008716
  C      1.360159    0.286724    0.004206
  H      2.716416    1.933538    0.008708
  N      5.017880    0.566097    0.018335
  C      5.188141    2.005844    0.016344
  H      4.745429    2.461934   -0.887349
  H      4.727866    2.465960    0.908950
  H      6.259425    2.244753    0.026627
  C      6.196133   -0.282719    0.018761
  H      7.093158    0.349847    0.030690
  H      6.225937   -0.930992    0.911903
  H      6.238222   -0.916323   -0.884590
  H      4.466152   -2.058413    0.012862
  H      2.206889   -3.024116    0.005257
  H     -4.466169   -2.058674   -0.015180
  N     -5.018052    0.565808   -0.019105
  C     -6.196255   -0.283076   -0.019575
  H     -6.237083   -0.918219    0.882727
  H     -6.227329   -0.929763   -0.913847
  H     -7.093313    0.349489   -0.028916
  C     -5.188383    2.005549   -0.017561
  H     -4.745454    2.461961    0.885860
  H     -4.728360    2.465387   -0.910443
  H     -6.259681    2.244404   -0.027618
  H     -2.716667    1.933381   -0.009307

 Total Charge           Charge          ....    1
 Multiplicity           Mult            ....    1
 Number of Electrons    NEL             ....  150
 Basis Dimension        Dim             .... 1338

ORBITAL ENERGIES
----------------

  NO   OCC          E(Eh)            E(eV)
   0   2.0000     -88.944221     -2420.2953
   1   2.0000     -14.374560      -391.1517
   2   2.0000     -14.374558      -391.1516
   3   2.0000     -14.350629      -390.5005
   4   2.0000     -10.251481      -278.9570
   5   2.0000     -10.251458      -278.9563
   6   2.0000     -10.246876      -278.8317
   7   2.0000     -10.246836      -278.8306
   8   2.0000     -10.237455      -278.5753
   9   2.0000     -10.237450      -278.5752
  10   2.0000     -10.205399      -277.7030
  11   2.0000     -10.205393      -277.7029
  12   2.0000     -10.205357      -277.7019
  13   2.0000     -10.205326      -277.7010
  14   2.0000     -10.199825      -277.5513
  15   2.0000     -10.199807      -277.5509
  16   2.0000     -10.196424      -277.4588
  17   2.0000     -10.196341      -277.4566
  18   2.0000     -10.195230      -277.4263
  19   2.0000     -10.195200      -277.4255
  20   2.0000      -7.996434      -217.5940
  21   2.0000      -5.960053      -162.1813
  22   2.0000      -5.956321      -162.0797
  23   2.0000      -5.953792      -162.0109
  24   2.0000      -0.984782       -26.7973
  25   2.0000      -0.982827       -26.7441
  26   2.0000      -0.976595       -26.5745
  27   2.0000      -0.877568       -23.8798
  28   2.0000      -0.875417       -23.8213
  29   2.0000      -0.830143       -22.5893
  30   2.0000      -0.785838       -21.3837
  31   2.0000      -0.777171       -21.1479
  32   2.0000      -0.756922       -20.5969
  33   2.0000      -0.734125       -19.9766
  34   2.0000      -0.732424       -19.9303
  35   2.0000      -0.708272       -19.2731
  36   2.0000      -0.695495       -18.9254
  37   2.0000      -0.652762       -17.7626
  38   2.0000      -0.628499       -17.1023
  39   2.0000      -0.626882       -17.0583
  40   2.0000      -0.605416       -16.4742
  41   2.0000      -0.567753       -15.4493
  42   2.0000      -0.562016       -15.2932
  43   2.0000      -0.530439       -14.4340
  44   2.0000      -0.524770       -14.2797
  45   2.0000      -0.522546       -14.2192
  46   2.0000      -0.497884       -13.5481
  47   2.0000      -0.480425       -13.0730
  48   2.0000      -0.479528       -13.0486
  49   2.0000      -0.469496       -12.7756
  50   2.0000      -0.456198       -12.4138
  51   2.0000      -0.455631       -12.3983
  52   2.0000      -0.449010       -12.2182
  53   2.0000      -0.448539       -12.2054
  54   2.0000      -0.437670       -11.9096
  55   2.0000      -0.435216       -11.8428
  56   2.0000      -0.411051       -11.1853
  57   2.0000      -0.410627       -11.1737
  58   2.0000      -0.409124       -11.1328
  59   2.0000      -0.409117       -11.1326
  60   2.0000      -0.400318       -10.8932
  61   2.0000      -0.399303       -10.8656
  62   2.0000      -0.395425       -10.7601
  63   2.0000      -0.382762       -10.4155
  64   2.0000      -0.375809       -10.2263
  65   2.0000      -0.365612        -9.9488
  66   2.0000      -0.363457        -9.8902
  67   2.0000      -0.355018        -9.6605
  68   2.0000      -0.351058        -9.5528
  69   2.0000      -0.315090        -8.5740
  70   2.0000      -0.291767        -7.9394
  71   2.0000      -0.287946        -7.8354
  72   2.0000      -0.270679        -7.3656
  73   2.0000      -0.233726        -6.3600
  74   2.0000      -0.211671        -5.7599
  75   0.0000      -0.123478        -3.3600
  76   0.0000      -0.044687        -1.2160
  77   0.0000      -0.033207        -0.9036
  78   0.0000      -0.020970        -0.5706
  79   0.0000      -0.010123        -0.2755

MULLIKEN ATOMIC CHARGES
-----------------------
   0 S :    0.141885
   1 C :    0.839265
   2 C :   -0.915394
   3 C :    1.341353
   4 C :    0.088823
   5 C :   -0.983417
   6 H :    0.253496
   7 C :    0.605896
   8 N :   -1.057321
   9 C :    0.604195
  10 C :   -0.962653
  11 C :    0.120370
  12 C :    1.225110
  13 C :   -0.931925
  14 C :    0.892293
  15 H :   -0.062551
  16 N :   -0.202628
  17 C :   -0.946008
  18 H :    0.281494
  19 H :    0.282231
  20 H :    0.281888
  21 C :   -0.922617
  22 H :    0.308278
  23 H :    0.242510
  24 H :    0.245791
  25 H :    0.256034
  26 H :    0.259062
  27 H :    0.205010
  28 N :   -0.212281
  29 C :   -0.899754
  30 H :    0.244537
  31 H :    0.242250
  32 H :    0.308126
  33 C :   -0.950223
  34 H :    0.282566
  35 H :    0.282140
  36 H :    0.281859
  37 H :   -0.069690
Sum of atomic charges:    1.0000000

LOEWDIN ATOMIC CHARGES
----------------------
   0 S :    1.413470
   1 C :   -0.453263
   2 C :    0.164390
   3 C :   -0.189403
   4 C :    0.256061
   5 C :    0.227192
   6 H :   -0.154658
   7 C :   -0.342284
   8 N :    0.401616
   9 C :   -0.342420
  10 C :    0.227159
  11 C :    0.256072
  12 C :   -0.189435
  13 C :    0.164124
  14 C :   -0.453608
  15 H :   -0.198428
  16 N :    0.267301
  17 C :    0.513014
  18 H :   -0.130511
  19 H :   -0.131442
  20 H :   -0.153593
  21 C :    0.514381
  22 H :   -0.154610
  23 H :   -0.132466
  24 H :   -0.131223
  25 H :   -0.177720
  26 H :   -0.154636
  27 H :   -0.177742
  28 N :    0.267314
  29 C :    0.514374
  30 H :   -0.131336
  31 H :   -0.132317
  32 H :   -0.154626
  33 C :    0.513041
  34 H :   -0.130543
  35 H :   -0.131427
  36 H :   -0.153568
  37 H :   -0.198250

  Mayer bond orders larger than 0.100000
B(  0-S ,  1-C ) :   0.2473 B(  0-S ,  2-C ) :   0.2131 B(  0-S ,  7-C ) :   0.2465
B(  0-S ,  8-N ) :  -0.1688 B(  0-S ,  9-C ) :   0.2398 B(  0-S , 10-C ) :  -0.1009
B(  0-S , 13-C ) :   0.2176 B(  0-S , 14-C ) :   0.2385 B(  1-C ,  2-C ) :   0.2738
B(  1-C ,  3-C ) :  -0.1553 B(  1-C ,  4-C ) :  -0.3027 B(  1-C ,  7-C ) :   0.6982
B(  1-C ,  8-N ) :  -0.1268 B(  1-C , 13-C ) :   0.2212 B(  1-C , 14-C ) :  -0.6094
B(  1-C , 28-N ) :   0.3560 B(  1-C , 33-C ) :   0.1734 B(  2-C ,  3-C ) :   0.1858
B(  2-C ,  5-C ) :  -0.1070 B(  2-C ,  7-C ) :   0.4514 B(  2-C ,  9-C ) :  -0.3243
B(  2-C , 11-C ) :  -0.1089 B(  2-C , 14-C ) :   0.2565 B(  2-C , 16-N ) :   0.1396
B(  2-C , 25-H ) :  -0.2025 B(  2-C , 26-H ) :   0.1235 B(  2-C , 27-H ) :   0.1014
B(  2-C , 28-N ) :  -0.5410 B(  2-C , 29-C ) :   0.1576 B(  2-C , 33-C ) :  -0.2465
B(  2-C , 37-H ) :   1.4367 B(  3-C ,  4-C ) :   0.4921 B(  3-C ,  5-C ) :  -0.2768
B(  3-C ,  7-C ) :   0.1071 B(  3-C , 11-C ) :   0.1056 B(  3-C , 25-H ) :   0.1688
B(  3-C , 27-H ) :  -0.1520 B(  3-C , 28-N ) :   0.1377 B(  3-C , 29-C ) :  -0.1717
B(  3-C , 33-C ) :  -0.2753 B(  3-C , 37-H ) :  -0.1814 B(  4-C ,  5-C ) :   1.0592
B(  4-C ,  7-C ) :   0.4492 B(  4-C ,  8-N ) :   0.1456 B(  4-C , 11-C ) :   0.1708
B(  4-C , 27-H ) :   1.0076 B(  4-C , 28-N ) :  -0.5548 B(  4-C , 29-C ) :  -0.1993
B(  5-C ,  6-H ) :   0.8531 B(  5-C ,  7-C ) :  -0.5280 B(  5-C ,  8-N ) :   0.4210
B(  5-C ,  9-C ) :   0.3441 B(  5-C , 12-C ) :   0.1465 B(  5-C , 26-H ) :  -0.1041
B(  6-H ,  8-N ) :   0.1707 B(  6-H ,  9-C ) :  -0.2169 B(  6-H , 11-C ) :  -0.1375
B(  6-H , 12-C ) :   0.1315 B(  6-H , 13-C ) :   0.1152 B(  6-H , 14-C ) :   0.1399
B(  7-C ,  8-N ) :   0.2489 B(  7-C ,  9-C ) :   0.7896 B(  7-C , 10-C ) :   0.4854
B(  7-C , 12-C ) :  -0.2123 B(  7-C , 13-C ) :  -0.2689 B(  7-C , 26-H ) :  -0.1204
B(  7-C , 27-H ) :   0.1167 B(  7-C , 28-N ) :  -0.1840 B(  8-N ,  9-C ) :   0.1825
B(  8-N , 10-C ) :   0.4441 B(  8-N , 11-C ) :   0.1527 B(  8-N , 14-C ) :  -0.1512
B(  8-N , 26-H ) :   0.1980 B(  9-C , 10-C ) :  -0.5192 B(  9-C , 11-C ) :   0.4520
B(  9-C , 12-C ) :   0.1229 B(  9-C , 13-C ) :   0.4413 B(  9-C , 14-C ) :   0.6786
B(  9-C , 16-N ) :  -0.1772 B(  9-C , 27-H ) :   0.1526 B( 10-C , 11-C ) :   1.0320
B( 10-C , 12-C ) :  -0.2268 B( 10-C , 13-C ) :  -0.1592 B( 10-C , 26-H ) :   0.8517
B( 11-C , 12-C ) :   0.6119 B( 11-C , 13-C ) :  -0.1006 B( 11-C , 14-C ) :  -0.3180
B( 11-C , 16-N ) :  -0.5913 B( 11-C , 21-C ) :  -0.2312 B( 11-C , 25-H ) :   0.9788
B( 11-C , 27-H ) :   0.1798 B( 12-C , 13-C ) :   0.2348 B( 12-C , 14-C ) :  -0.1397
B( 12-C , 15-H ) :  -0.1764 B( 12-C , 16-N ) :   0.1368 B( 12-C , 17-C ) :  -0.1977
B( 12-C , 21-C ) :  -0.1589 B( 12-C , 25-H ) :  -0.1282 B( 12-C , 27-H ) :  -0.1195
B( 13-C , 14-C ) :   0.2967 B( 13-C , 15-H ) :   1.4334 B( 13-C , 16-N ) :  -0.5292
B( 13-C , 17-C ) :  -0.3017 B( 13-C , 21-C ) :   0.2157 B( 13-C , 27-H ) :  -0.2524
B( 13-C , 28-N ) :   0.1806 B( 14-C , 16-N ) :   0.3507 B( 14-C , 17-C ) :   0.1547
B( 14-C , 27-H ) :  -0.1593 B( 15-H , 17-C ) :  -0.1080 B( 16-N , 17-C ) :   1.2388
B( 16-N , 21-C ) :   1.2358 B( 17-C , 18-H ) :   0.9398 B( 17-C , 19-H ) :   0.9390
B( 17-C , 20-H ) :   0.9258 B( 21-C , 22-H ) :   0.8542 B( 21-C , 23-H ) :   0.9969
B( 21-C , 24-H ) :   0.9977 B( 21-C , 25-H ) :  -0.1667 B( 27-H , 29-C ) :  -0.1514
B( 28-N , 29-C ) :   1.2250 B( 28-N , 33-C ) :   1.2498 B( 29-C , 30-H ) :   0.9960
B( 29-C , 31-H ) :   0.9932 B( 29-C , 32-H ) :   0.8536 B( 33-C , 34-H ) :   0.9393
B( 33-C , 35-H ) :   0.9393 B( 33-C , 36-H ) :   0.9215

Dispersion correction           -0.085889970
FINAL SINGLE POINT ENERGY     -1182.684069835266

DIPOLE MOMENT
-------------

Method             : SCF
Type of density    : Electron Density
Multiplicity       :   1
Irrep              :   0
Energy             : -1182.5981798650061592 Eh
Relativity type    :
Basis              : AO
                                X                 Y                 Z
Electronic contribution:     -0.003769715      -3.302580941       0.000121687
Nuclear contribution   :     -0.000160838       4.600849614       0.000182721
                        -----------------------------------------
Total Dipole Moment    :     -0.003930553       1.298268673       0.000304408
                        -----------------------------------------
Magnitude (a.u.)       :      1.298274659
Magnitude (Debye)      :      3.299951931

Rotational constants in cm-1:             0.035338             0.004431             0.003949
Rotational constants in MHz :          1059.419573           132.841416           118.400139

                             ****ORCA TERMINATED NORMALLY****
TOTAL RUN TIME: 0 days 0 hours 23 minutes 49 seconds 633 msec
