                         Program Version 6.0.0  -   RELEASE  -
|  1> !r2SCAN opt aug-cc-pVTZ d3 TightSCF SlowConv RIJCOSX defgrid2
|  2>
|  3> %pal
|  4> nprocs 8
|  5> end
|  6>
|  7> %scf
|  8> MaxIter 1500
|  9> end
| 10>
| 11> %maxcore 3500
| 12>
| 13> !CPCM
| 14> %cpcm smd true
| 15> SMDsolvent "MeCN"
| 16> surfacetype gepol_ses
| 17> rsolv 2.19
| 18> end
| 19>
| 20> * xyz -1 2
| 21> C          -1.22535307927293     -0.03882807002799     -0.00002255469277
| 22> C          -1.22206264378164      1.41582015720061     -0.00002423880206
| 23> C           0.00004637420421      2.08121905033007     -0.00000415463824
| 24> C           1.22212161683371      1.41575862792076      0.00002170232485
| 25> C           1.22534433396412     -0.03888819251674      0.00002507087618
| 26> C          -0.00002135567409     -0.71608207495025      0.00000157424078
| 27> H          -0.00004774645346     -1.81053735349218      0.00000261550832
| 28> C           2.43402384370652     -0.77080587803239      0.00007579493229
| 29> N           3.44413671726320     -1.36247120639636      0.00011250089172
| 30> H           2.16848850432676      1.96074544120089      0.00003301965359
| 31> H           0.00007494156619      3.17901522614598     -0.00000842096167
| 32> H          -2.16840192148197      1.96085605610510     -0.00003754989011
| 33> C          -2.43406244869294     -0.77069683887805     -0.00005052688718
| 34> N          -3.44419623650770     -1.36232524460946     -0.00007393255569
| 35> *
| 36>
| 37>                          ****END OF INPUT****
 Total Charge           Charge          ....   -1
 Multiplicity           Mult            ....    2
 Number of Electrons    NEL             ....   67
Dispersion correction           -0.004793198
FINAL SINGLE POINT ENERGY      -416.757709659704
Dispersion correction             ... done (  0.1 sec)
Dispersion correction           -0.004807667
FINAL SINGLE POINT ENERGY      -416.758432872850
Dispersion correction             ... done (  0.1 sec)
Dispersion correction           -0.004811080
FINAL SINGLE POINT ENERGY      -416.758473191806
Dispersion correction             ... done (  0.0 sec)
Dispersion correction           -0.004811365
FINAL SINGLE POINT ENERGY      -416.758477762790
Dispersion correction             ... done (  0.1 sec)
                    ***********************HURRAY********************

CARTESIAN COORDINATES (ANGSTROEM)
---------------------------------
  C     -1.215526   -0.039157    0.000006
  C     -1.218184    1.412467   -0.000199
  C      0.000046    2.078216   -0.000004
  C      1.218245    1.412411    0.000199
  C      1.215521   -0.039214    0.000007
  C     -0.000019   -0.727122    0.000009
  H     -0.000045   -1.811011    0.000015
  C      2.414880   -0.761183   -0.000161
  N      3.428524   -1.344147   -0.000308
  H      2.156000    1.951294    0.000856
  H      0.000071    3.163895   -0.000009
  H     -2.155915    1.951394   -0.000864
  C     -2.414918   -0.761072    0.000179
  N     -3.428588   -1.343992    0.000325

 Multiplicity           Mult            ....    2
 Number of Electrons    NEL             ....   67
 Basis Dimension        Dim             ....  552

ORBITAL ENERGIES
----------------
                 SPIN UP ORBITALS
  NO   OCC          E(Eh)            E(eV)
   0   1.0000     -14.141546      -384.8110
   1   1.0000     -14.141545      -384.8110
   2   1.0000     -10.061867      -273.7973
   3   1.0000     -10.061862      -273.7972
   4   1.0000     -10.051492      -273.5150
   5   1.0000     -10.051272      -273.5090
   6   1.0000     -10.050823      -273.4968
   7   1.0000     -10.028664      -272.8938
   8   1.0000     -10.023860      -272.7631
   9   1.0000     -10.023846      -272.7627
  10   1.0000      -0.860992       -23.4288
  11   1.0000      -0.857200       -23.3256
  12   1.0000      -0.814734       -22.1700
  13   1.0000      -0.731861       -19.9149
  14   1.0000      -0.720809       -19.6142
  15   1.0000      -0.608056       -16.5460
  16   1.0000      -0.594345       -16.1729
  17   1.0000      -0.527947       -14.3662
  18   1.0000      -0.451087       -12.2747
  19   1.0000      -0.439404       -11.9568
  20   1.0000      -0.418019       -11.3749
  21   1.0000      -0.390050       -10.6138
  22   1.0000      -0.372213       -10.1284
  23   1.0000      -0.339753        -9.2452
  24   1.0000      -0.338433        -9.2092
  25   1.0000      -0.336148        -9.1471
  26   1.0000      -0.323139        -8.7931
  27   1.0000      -0.321502        -8.7485
  28   1.0000      -0.300449        -8.1756
  29   1.0000      -0.293488        -7.9862
  30   1.0000      -0.288847        -7.8599
  31   1.0000      -0.238958        -6.5024
  32   1.0000      -0.232111        -6.3160
  33   1.0000      -0.091815        -2.4984
  34   0.0000      -0.054725        -1.4891
  35   0.0000       0.001995         0.0543
  36   0.0000       0.005000         0.1361
  37   0.0000       0.015792         0.4297
  38   0.0000       0.023221         0.6319

                 SPIN DOWN ORBITALS
  NO   OCC          E(Eh)            E(eV)
   0   1.0000     -14.139243      -384.7484
   1   1.0000     -14.139241      -384.7483
   2   1.0000     -10.061622      -273.7906
   3   1.0000     -10.061616      -273.7905
   4   1.0000     -10.051696      -273.5205
   5   1.0000     -10.049596      -273.4634
   6   1.0000     -10.049558      -273.4624
   7   1.0000     -10.031065      -272.9592
   8   1.0000     -10.017309      -272.5848
   9   1.0000     -10.017308      -272.5848
  10   1.0000      -0.857524       -23.3344
  11   1.0000      -0.853932       -23.2367
  12   1.0000      -0.810014       -22.0416
  13   1.0000      -0.723486       -19.6870
  14   1.0000      -0.716930       -19.5087
  15   1.0000      -0.594035       -16.1645
  16   1.0000      -0.592497       -16.1227
  17   1.0000      -0.527429       -14.3521
  18   1.0000      -0.445707       -12.1283
  19   1.0000      -0.437408       -11.9025
  20   1.0000      -0.415759       -11.3134
  21   1.0000      -0.389501       -10.5989
  22   1.0000      -0.360340        -9.8054
  23   1.0000      -0.336393        -9.1537
  24   1.0000      -0.333190        -9.0666
  25   1.0000      -0.327956        -8.9241
  26   1.0000      -0.321499        -8.7484
  27   1.0000      -0.318515        -8.6672
  28   1.0000      -0.292313        -7.9543
  29   1.0000      -0.288574        -7.8525
  30   1.0000      -0.287592        -7.8258
  31   1.0000      -0.231978        -6.3124
  32   1.0000      -0.206134        -5.6092
  33   0.0000      -0.051884        -1.4118
  34   0.0000      -0.050990        -1.3875
  35   0.0000       0.003847         0.1047
  36   0.0000       0.007389         0.2011
  37   0.0000       0.018171         0.4945

MULLIKEN ATOMIC CHARGES AND SPIN POPULATIONS
--------------------------------------------
   0 C :    1.443508    0.100237
   1 C :   -0.945543    0.464868
   2 C :   -0.481596   -0.207317
   3 C :   -0.945537    0.464870
   4 C :    1.443511    0.100235
   5 C :   -1.131319   -0.041274
   6 H :   -0.219261    0.004547
   7 C :    0.453616   -0.014422
   8 N :   -0.903132    0.099600
   9 H :    0.121387   -0.011818
  10 H :    0.492494   -0.032882
  11 H :    0.121400   -0.011818
  12 C :    0.453605   -0.014426
  13 N :   -0.903132    0.099600
Sum of atomic charges         :   -1.0000000

LOEWDIN ATOMIC CHARGES AND SPIN POPULATIONS
-------------------------------------------
   0 C :   -0.260858    0.100498
   1 C :    0.164152    0.199193
   2 C :    0.134408    0.051864
   3 C :    0.164151    0.199193
   4 C :   -0.260859    0.100498
   5 C :    0.148430    0.017396
   6 H :   -0.172164    0.000077
   7 C :   -0.328201    0.046816
   8 N :    0.169758    0.076153
   9 H :   -0.205382    0.046882
  10 H :   -0.189612   -0.008420
  11 H :   -0.205381    0.046882
  12 C :   -0.328200    0.046815
  13 N :    0.169758    0.076153

  Mayer bond orders larger than 0.100000
B(  0-C ,  1-C ) :  -0.1667 B(  0-C ,  2-C ) :   0.2323 B(  0-C ,  4-C ) :   0.4993
B(  0-C ,  5-C ) :   0.2733 B(  0-C ,  6-H ) :  -0.2653 B(  0-C , 11-H ) :  -0.1903
B(  0-C , 12-C ) :   0.7439 B(  0-C , 13-N ) :   0.1508 B(  1-C ,  2-C ) :   1.0933
B(  1-C ,  3-C ) :  -0.1299 B(  1-C ,  5-C ) :  -0.2293 B(  1-C , 11-H ) :   1.2443
B(  1-C , 12-C ) :   0.3819 B(  2-C ,  3-C ) :   1.0934 B(  2-C ,  4-C ) :   0.2323
B(  2-C ,  6-H ) :  -0.1085 B(  2-C ,  9-H ) :  -0.1354 B(  2-C , 10-H ) :   0.6422
B(  2-C , 11-H ) :  -0.1354 B(  3-C ,  4-C ) :  -0.1668 B(  3-C ,  5-C ) :  -0.2292
B(  3-C ,  7-C ) :   0.3819 B(  3-C ,  9-H ) :   1.2443 B(  4-C ,  5-C ) :   0.2733
B(  4-C ,  6-H ) :  -0.2653 B(  4-C ,  7-C ) :   0.7439 B(  4-C ,  8-N ) :   0.1508
B(  4-C ,  9-H ) :  -0.1903 B(  5-C ,  6-H ) :   1.7171 B(  5-C ,  7-C ) :   0.1435
B(  5-C ,  8-N ) :   0.1113 B(  5-C ,  9-H ) :   0.1340 B(  5-C , 11-H ) :   0.1340
B(  5-C , 12-C ) :   0.1435 B(  5-C , 13-N ) :   0.1113 B(  6-H ,  9-H ) :   0.1046
B(  6-H , 11-H ) :   0.1046 B(  7-C ,  8-N ) :   1.5765 B(  7-C , 12-C ) :   0.2632
B( 12-C , 13-N ) :   1.5765

Dispersion correction           -0.004811233
FINAL SINGLE POINT ENERGY      -416.758479180450

DIPOLE MOMENT
-------------

Method             : SCF
Type of density    : Electron Density
Multiplicity       :   2
Irrep              :   0
Energy             :  -416.7536679474429206 Eh
Relativity type    :
Basis              : AO
                                X                 Y                 Z
Electronic contribution:     -0.000090728      -3.058713025       0.000001293
Nuclear contribution   :      0.000112492       4.957639268      -0.000022391
                        -----------------------------------------
Total Dipole Moment    :      0.000021764       1.898926243      -0.000021098
                        -----------------------------------------
Magnitude (a.u.)       :      1.898926243
Magnitude (Debye)      :      4.826686927

Rotational constants in cm-1:             0.087907             0.030655             0.022729
Rotational constants in MHz :          2635.381056           919.026541           681.403328

                             ****ORCA TERMINATED NORMALLY****
TOTAL RUN TIME: 0 days 0 hours 11 minutes 11 seconds 985 msec
