                         Program Version 6.0.0  -   RELEASE  -
|  1> !B3LYP aug-cc-pVTZ d3 TightSCF SlowConv RIJCOSX defgrid2
|  2>
|  3> %pal
|  4> nprocs 4
|  5> end
|  6>
|  7> %scf
|  8> MaxIter 1500
|  9> end
| 10>
| 11> %maxcore 3000
| 12>
| 13> !CPCM
| 14> %cpcm smd true
| 15> SMDsolvent "MeCN"
| 16> surfacetype gepol_ses
| 17> rsolv 2.19
| 18> end
| 19>
| 20> * xyz 0 1
| 21> C          -1.22529066987343      0.66704743781773      0.00002168359140
| 22> C          -0.03496126853419      1.39469871106093      0.00001681573232
| 23> C           1.19034742281071      0.72763815656934      0.00000486668415
| 24> C           1.22529060623977     -0.66703623444881     -0.00000274991533
| 25> C           0.03496151907311     -1.39468785704343      0.00000348152268
| 26> C          -1.19034789437969     -0.72762723255936      0.00001493638754
| 27> H          -2.12407118413544     -1.29834756579676      0.00001940750089
| 28> H           0.06240295882327     -2.48867478107419     -0.00000153324095
| 29> H           2.18642211750805     -1.19027035399337     -0.00001108378126
| 30> H           2.12407102187395      1.29835788033297      0.00000056110263
| 31> H          -0.06240416187133      2.48868564425629      0.00002192326032
| 32> H          -2.18642146753477      1.19028329487864      0.00003019115560
| 33> *
| 34>
| 35>                          ****END OF INPUT****

CARTESIAN COORDINATES (ANGSTROEM)
---------------------------------
  C     -1.225291    0.667047    0.000022
  C     -0.034961    1.394699    0.000017
  C      1.190347    0.727638    0.000005
  C      1.225291   -0.667036   -0.000003
  C      0.034962   -1.394688    0.000003
  C     -1.190348   -0.727627    0.000015
  H     -2.124071   -1.298348    0.000019
  H      0.062403   -2.488675   -0.000002
  H      2.186422   -1.190270   -0.000011
  H      2.124071    1.298358    0.000001
  H     -0.062404    2.488686    0.000022
  H     -2.186421    1.190283    0.000030

 Total Charge           Charge          ....    0
 Multiplicity           Mult            ....    1
 Number of Electrons    NEL             ....   42
 Basis Dimension        Dim             ....  414

ORBITAL ENERGIES
----------------

  NO   OCC          E(Eh)            E(eV)
   0   2.0000     -10.175844      -276.8988
   1   2.0000     -10.175568      -276.8913
   2   2.0000     -10.175563      -276.8911
   3   2.0000     -10.174923      -276.8737
   4   2.0000     -10.174917      -276.8736
   5   2.0000     -10.174677      -276.8670
   6   2.0000      -0.852800       -23.2059
   7   2.0000      -0.743070       -20.2200
   8   2.0000      -0.743055       -20.2196
   9   2.0000      -0.598006       -16.2726
  10   2.0000      -0.598001       -16.2724
  11   2.0000      -0.517519       -14.0824
  12   2.0000      -0.452407       -12.3106
  13   2.0000      -0.445089       -12.1115
  14   2.0000      -0.416150       -11.3240
  15   2.0000      -0.416134       -11.3236
  16   2.0000      -0.370614       -10.0849
  17   2.0000      -0.339454        -9.2370
  18   2.0000      -0.339448        -9.2369
  19   2.0000      -0.256790        -6.9876
  20   2.0000      -0.256769        -6.9870
  21   0.0000      -0.014207        -0.3866
  22   0.0000      -0.014198        -0.3863
  23   0.0000      -0.002747        -0.0747
  24   0.0000       0.015258         0.4152
  25   0.0000       0.015267         0.4154

MULLIKEN ATOMIC CHARGES
-----------------------
   0 C :   -0.412252
   1 C :   -0.401476
   2 C :   -0.407821
   3 C :   -0.412600
   4 C :   -0.403876
   5 C :   -0.405476
   6 H :    0.403964
   7 H :    0.416609
   8 H :    0.401862
   9 H :    0.406489
  10 H :    0.417360
  11 H :    0.397216
Sum of atomic charges:    0.0000000

LOEWDIN ATOMIC CHARGES
----------------------
   0 C :    0.171521
   1 C :    0.171490
   2 C :    0.171557
   3 C :    0.171520
   4 C :    0.171488
   5 C :    0.171560
   6 H :   -0.171515
   7 H :   -0.171522
   8 H :   -0.171532
   9 H :   -0.171514
  10 H :   -0.171520
  11 H :   -0.171535

  Mayer bond orders larger than 0.100000
B(  0-C ,  1-C ) :   1.1847 B(  0-C ,  5-C ) :   1.1770 B(  0-C , 11-H ) :   0.7596
B(  1-C ,  2-C ) :   1.1861 B(  1-C , 10-H ) :   0.7301 B(  2-C ,  3-C ) :   1.1812
B(  2-C ,  9-H ) :   0.7480 B(  3-C ,  4-C ) :   1.1831 B(  3-C ,  8-H ) :   0.7532
B(  4-C ,  5-C ) :   1.1844 B(  4-C ,  7-H ) :   0.7314 B(  5-C ,  6-H ) :   0.7521

Dispersion correction           -0.018887226
FINAL SINGLE POINT ENERGY      -232.208026202723

DIPOLE MOMENT
-------------

Method             : SCF
Type of density    : Electron Density
Multiplicity       :   1
Irrep              :   0
Energy             :  -232.1891389768497902 Eh
Relativity type    :
Basis              : AO
                                X                 Y                 Z
Electronic contribution:     -0.000001230      -0.000000573      -0.000001655
Nuclear contribution   :     -0.000000373       0.000000984       0.000000374
                        -----------------------------------------
Total Dipole Moment    :     -0.000001603       0.000000411      -0.000001281
                        -----------------------------------------
Magnitude (a.u.)       :      0.000002093
Magnitude (Debye)      :      0.000005319

Rotational constants in cm-1:             0.189685             0.189678             0.094841
Rotational constants in MHz :          5686.605662          5686.389794          2843.248863

                             ****ORCA TERMINATED NORMALLY****
TOTAL RUN TIME: 0 days 0 hours 1 minutes 31 seconds 21 msec
