                         Program Version 6.0.0  -   RELEASE  -
|  1> !PBE0 def2-SV(p) Opt Freq d3 TightSCF SlowConv RIJCOSX defgrid2
|  2>
|  3> %pal
|  4> nprocs 4
|  5> end
|  6>
|  7> %scf
|  8> MaxIter 1500
|  9> end
| 10>
| 11> %maxcore 3000
| 12>
| 13>
| 14>
| 15> * xyz -1 2
| 16> C    -1.2126216   -0.0367755   -0.0000234
| 17> C    -1.2075270    1.4044917   -0.0000343
| 18> C     0.0000407    2.0713930   -0.0000050
| 19> C     1.2075940    1.4044297    0.0000312
| 20> C     1.2126019   -0.0368247    0.0000318
| 21> C    -0.0000096   -0.7179098    0.0000064
| 22> H    -0.0000350   -1.8042482    0.0000124
| 23> C     2.4044096   -0.7445364    0.0000663
| 24> N     3.4070804   -1.3372328    0.0000873
| 25> H     2.1504834    1.9327236    0.0000587
| 26> H     0.0000682    3.1559434   -0.0000085
| 27> H    -2.1503942    1.9328275   -0.0000624
| 28> C    -2.4044464   -0.7444219   -0.0000452
| 29> N    -3.4071535   -1.3370799   -0.0000644
| 30> *
| 31>
| 32>                          ****END OF INPUT****
 Total Charge           Charge          ....   -1
 Multiplicity           Mult            ....    2
 Number of Electrons    NEL             ....   67
Dispersion correction           -0.014267649
FINAL SINGLE POINT ENERGY      -415.963228744366
Dispersion correction             ... done (  0.1 sec)
Dispersion correction           -0.014151882
FINAL SINGLE POINT ENERGY      -415.965743579973
Dispersion correction             ... done (  0.0 sec)
Dispersion correction           -0.014131480
FINAL SINGLE POINT ENERGY      -415.965844664231
Dispersion correction             ... done (  0.0 sec)
FINAL SINGLE POINT ENERGY      -415.965856770708
Dispersion correction             ... done (  0.0 sec)
Dispersion correction           -0.014128762
FINAL SINGLE POINT ENERGY      -415.965860731640
Dispersion correction             ... done (  0.1 sec)
Dispersion correction           -0.014129393
FINAL SINGLE POINT ENERGY      -415.965861795381
Dispersion correction             ... done (  0.0 sec)
                    ***********************HURRAY********************

CARTESIAN COORDINATES (ANGSTROEM)
---------------------------------
  C     -1.225353   -0.038828   -0.000023
  C     -1.222063    1.415820   -0.000024
  C      0.000046    2.081219   -0.000004
  C      1.222122    1.415759    0.000022
  C      1.225344   -0.038888    0.000025
  C     -0.000021   -0.716082    0.000002
  H     -0.000048   -1.810537    0.000003
  C      2.434024   -0.770806    0.000076
  N      3.444137   -1.362471    0.000113
  H      2.168489    1.960745    0.000033
  H      0.000075    3.179015   -0.000008
  H     -2.168402    1.960856   -0.000038
  C     -2.434062   -0.770697   -0.000051
  N     -3.444196   -1.362325   -0.000074

 Multiplicity           Mult            ....    2
 Number of Electrons    NEL             ....   67
 Basis Dimension        Dim             ....  148

ORBITAL ENERGIES
----------------
                 SPIN UP ORBITALS
  NO   OCC          E(Eh)            E(eV)
   0   1.0000     -14.228126      -387.1670
   1   1.0000     -14.228118      -387.1668
   2   1.0000     -10.117858      -275.3209
   3   1.0000     -10.117841      -275.3205
   4   1.0000     -10.111766      -275.1552
   5   1.0000     -10.106695      -275.0172
   6   1.0000     -10.106683      -275.0168
   7   1.0000     -10.095049      -274.7003
   8   1.0000     -10.083808      -274.3944
   9   1.0000     -10.083795      -274.3940
  10   1.0000      -0.765828       -20.8393
  11   1.0000      -0.761299       -20.7160
  12   1.0000      -0.724660       -19.7190
  13   1.0000      -0.637710       -17.3530
  14   1.0000      -0.631309       -17.1788
  15   1.0000      -0.515911       -14.0387
  16   1.0000      -0.499127       -13.5819
  17   1.0000      -0.438327       -11.9275
  18   1.0000      -0.362607        -9.8670
  19   1.0000      -0.346054        -9.4166
  20   1.0000      -0.326131        -8.8745
  21   1.0000      -0.303650        -8.2627
  22   1.0000      -0.270801        -7.3689
  23   1.0000      -0.247365        -6.7311
  24   1.0000      -0.235188        -6.3998
  25   1.0000      -0.233740        -6.3604
  26   1.0000      -0.222900        -6.0654
  27   1.0000      -0.220914        -6.0114
  28   1.0000      -0.196987        -5.3603
  29   1.0000      -0.188467        -5.1285
  30   1.0000      -0.188363        -5.1256
  31   1.0000      -0.132630        -3.6091
  32   1.0000      -0.122411        -3.3310
  33   1.0000       0.029466         0.8018
  34   0.0000       0.116770         3.1775
  35   0.0000       0.184964         5.0331
  36   0.0000       0.199926         5.4403
  37   0.0000       0.201003         5.4696
  38   0.0000       0.201299         5.4776

                 SPIN DOWN ORBITALS
  NO   OCC          E(Eh)            E(eV)
   0   1.0000     -14.225774      -387.1030
   1   1.0000     -14.225766      -387.1028
   2   1.0000     -10.118203      -275.3303
   3   1.0000     -10.118186      -275.3298
   4   1.0000     -10.112832      -275.1841
   5   1.0000     -10.104611      -274.9605
   6   1.0000     -10.104610      -274.9604
   7   1.0000     -10.097549      -274.7683
   8   1.0000     -10.077513      -274.2231
   9   1.0000     -10.077512      -274.2231
  10   1.0000      -0.762092       -20.7376
  11   1.0000      -0.757835       -20.6217
  12   1.0000      -0.719379       -19.5753
  13   1.0000      -0.628648       -17.1064
  14   1.0000      -0.626957       -17.0604
  15   1.0000      -0.502408       -13.6712
  16   1.0000      -0.496983       -13.5236
  17   1.0000      -0.437206       -11.8970
  18   1.0000      -0.357339        -9.7237
  19   1.0000      -0.343740        -9.3536
  20   1.0000      -0.322741        -8.7822
  21   1.0000      -0.303264        -8.2522
  22   1.0000      -0.257089        -6.9957
  23   1.0000      -0.244089        -6.6420
  24   1.0000      -0.232888        -6.3372
  25   1.0000      -0.221771        -6.0347
  26   1.0000      -0.219767        -5.9802
  27   1.0000      -0.217458        -5.9173
  28   1.0000      -0.186881        -5.0853
  29   1.0000      -0.186780        -5.0825
  30   1.0000      -0.182648        -4.9701
  31   1.0000      -0.122182        -3.3247
  32   1.0000      -0.089408        -2.4329
  33   0.0000       0.117662         3.2018
  34   0.0000       0.121664         3.3107
  35   0.0000       0.186469         5.0741
  36   0.0000       0.202347         5.5061
  37   0.0000       0.202548         5.5116

MULLIKEN ATOMIC CHARGES AND SPIN POPULATIONS
--------------------------------------------
   0 C :   -0.138603    0.128206
   1 C :   -0.142656    0.451646
   2 C :   -0.083893   -0.201941
   3 C :   -0.142657    0.451645
   4 C :   -0.138606    0.128207
   5 C :   -0.100096   -0.081069
   6 H :    0.065573    0.003045
   7 C :   -0.097068   -0.027356
   8 N :   -0.121034    0.110292
   9 H :    0.035730   -0.026557
  10 H :    0.045684    0.007504
  11 H :    0.035731   -0.026557
  12 C :   -0.097068   -0.027357
  13 N :   -0.121037    0.110292
Sum of atomic charges         :   -1.0000000

LOEWDIN ATOMIC CHARGES AND SPIN POPULATIONS
-------------------------------------------
   0 C :   -0.165049    0.117719
   1 C :   -0.212838    0.355220
   2 C :   -0.136154   -0.099129
   3 C :   -0.212837    0.355219
   4 C :   -0.165050    0.117720
   5 C :   -0.066898   -0.041260
   6 H :    0.125172    0.000913
   7 C :   -0.046862    0.006671
   8 N :   -0.197767    0.100617
   9 H :    0.108759   -0.012177
  10 H :    0.105394    0.003377
  11 H :    0.108759   -0.012178
  12 C :   -0.046862    0.006671
  13 N :   -0.197766    0.100617

  Mayer bond orders larger than 0.100000
B(  0-C ,  1-C ) :   1.1422 B(  0-C ,  5-C ) :   1.3856 B(  0-C , 12-C ) :   1.1627
B(  1-C ,  2-C ) :   1.3967 B(  1-C , 11-H ) :   0.9625 B(  2-C ,  3-C ) :   1.3967
B(  2-C , 10-H ) :   0.9564 B(  3-C ,  4-C ) :   1.1422 B(  3-C ,  9-H ) :   0.9625
B(  4-C ,  5-C ) :   1.3856 B(  4-C ,  7-C ) :   1.1627 B(  5-C ,  6-H ) :   0.9591
B(  7-C ,  8-N ) :   2.9027 B( 12-C , 13-N ) :   2.9027

Dispersion correction           -0.014129699
FINAL SINGLE POINT ENERGY      -415.965862109271

DIPOLE MOMENT
-------------

Method             : SCF
Type of density    : Electron Density
Multiplicity       :   2
Irrep              :   0
Energy             :  -415.9517324102185398 Eh
Relativity type    :
Basis              : AO
                                X                 Y                 Z
Electronic contribution:     -0.000091634      -3.766359475       0.000020228
Nuclear contribution   :      0.000114608       5.003113123      -0.000033044
                        -----------------------------------------
Total Dipole Moment    :      0.000022974       1.236753648      -0.000012815
                        -----------------------------------------
Magnitude (a.u.)       :      1.236753649
Magnitude (Debye)      :      3.143577950

VIBRATIONAL FREQUENCIES
-----------------------

Scaling factor for frequencies =  1.000000000  (already applied!)

     0:       0.00 cm**-1
     1:       0.00 cm**-1
     2:       0.00 cm**-1
     3:       0.00 cm**-1
     4:       0.00 cm**-1
     5:       0.00 cm**-1
     6:     119.83 cm**-1
     7:     125.85 cm**-1
     8:     138.59 cm**-1
     9:     199.41 cm**-1
    10:     345.46 cm**-1
    11:     406.67 cm**-1
    12:     423.94 cm**-1
    13:     472.71 cm**-1
    14:     512.15 cm**-1
    15:     563.60 cm**-1
    16:     598.51 cm**-1
    17:     614.04 cm**-1
    18:     627.73 cm**-1
    19:     648.73 cm**-1
    20:     685.02 cm**-1
    21:     701.23 cm**-1
    22:     894.99 cm**-1
    23:     933.01 cm**-1
    24:     942.74 cm**-1
    25:     993.30 cm**-1
    26:    1084.73 cm**-1
    27:    1100.25 cm**-1
    28:    1156.31 cm**-1
    29:    1282.25 cm**-1
    30:    1293.12 cm**-1
    31:    1382.07 cm**-1
    32:    1418.36 cm**-1
    33:    1438.88 cm**-1
    34:    1520.34 cm**-1
    35:    1567.19 cm**-1
    36:    2249.54 cm**-1
    37:    2312.29 cm**-1
    38:    3150.81 cm**-1
    39:    3194.47 cm**-1
    40:    3208.22 cm**-1
    41:    3216.22 cm**-1

IR SPECTRUM
-----------

 Mode   freq       eps      Int      T**2         TX        TY        TZ
       cm**-1   L/(mol*cm) km/mol    a.u.
----------------------------------------------------------------------------
  6:    119.83   0.001471    7.44  0.003832  ( 0.000001  0.061901 -0.000012)
  7:    125.85   0.000814    4.11  0.002018  (-0.000012  0.000016  0.044923)
  8:    138.59   0.000000    0.00  0.000000  ( 0.000002 -0.000013  0.000027)
  9:    199.41   0.000215    1.08  0.000336  ( 0.018330  0.000003 -0.000001)
 10:    345.46   0.000000    0.00  0.000000  (-0.000003  0.000001 -0.000003)
 11:    406.67   0.002014   10.18  0.001545  (-0.000009 -0.000000 -0.039308)
 12:    423.94   0.005839   29.51  0.004298  ( 0.065561  0.000000 -0.000004)
 13:    472.71   0.000073    0.37  0.000048  (-0.000006  0.006950 -0.000002)
 14:    512.15   0.005083   25.69  0.003097  ( 0.000001  0.000000  0.055653)
 15:    563.60   0.000114    0.57  0.000063  (-0.000002  0.007928  0.000001)
 16:    598.51   0.000000    0.00  0.000000  (-0.000002  0.000003  0.000023)
 17:    614.04   0.000003    0.02  0.000002  ( 0.001300 -0.000001  0.000003)
 18:    627.73   0.008877   44.86  0.004413  ( 0.000002  0.000000 -0.066430)
 19:    648.73   0.000000    0.00  0.000000  ( 0.000001 -0.000003 -0.000028)
 20:    685.02   0.000036    0.18  0.000016  (-0.000011 -0.000001  0.004051)
 21:    701.23   0.000000    0.00  0.000000  ( 0.000001  0.000118  0.000001)
 22:    894.99   0.004547   22.98  0.001586  ( 0.039819 -0.000001  0.000001)
 23:    933.01   0.000824    4.17  0.000276  (-0.000006 -0.000000 -0.016604)
 24:    942.74   0.000031    0.16  0.000010  ( 0.000003  0.000000  0.003210)
 25:    993.30   0.000012    0.06  0.000004  (-0.000014  0.001920  0.000000)
 26:   1084.73   0.082809  418.48  0.023823  (-0.154347  0.000000 -0.000004)
 27:   1100.25   0.000656    3.32  0.000186  (-0.000039  0.013645 -0.000000)
 28:   1156.31   0.010400   52.56  0.002807  ( 0.052978 -0.000001  0.000001)
 29:   1282.25   0.011600   58.62  0.002823  (-0.053133  0.000000 -0.000001)
 30:   1293.12   0.000000    0.00  0.000000  (-0.000012  0.000028 -0.000000)
 31:   1382.07   0.033410  168.84  0.007544  ( 0.086855 -0.000002  0.000002)
 32:   1418.36   0.045471  229.79  0.010004  ( 0.100022 -0.000003  0.000002)
 33:   1438.88   0.000060    0.30  0.000013  (-0.000016 -0.003613 -0.000000)
 34:   1520.34   0.086739  438.34  0.017804  (-0.133431  0.000002 -0.000003)
 35:   1567.19   0.000212    1.07  0.000042  ( 0.000005  0.006490 -0.000000)
 36:   2249.54   0.271796  1373.55  0.037704  (-0.194176  0.000007 -0.000005)
 37:   2312.29   0.022935  115.90  0.003095  (-0.000009 -0.055635  0.000001)
 38:   3150.81   0.007198   36.38  0.000713  (-0.000001 -0.026701  0.000000)
 39:   3194.47   0.001728    8.73  0.000169  ( 0.000002  0.012993 -0.000000)
 40:   3208.22   0.005950   30.07  0.000579  (-0.024056  0.000021 -0.000000)
 41:   3216.22   0.005294   26.75  0.000514  ( 0.000022  0.022663 -0.000000)

--------------------------
THERMOCHEMISTRY AT 298.15K
--------------------------

Temperature         ...   298.15 K
Pressure            ...     1.00 atm
Total Mass          ...   128.13 AMU
Quasi RRHO          ...     True
Cut-Off Frequency   ...     1.00 cm^-1

Throughout the following assumptions are being made:
  (1) The electronic state is orbitally nondegenerate
      but the spin degeneracy is treated
  (2) There are no thermally accessible electronically excited states
  (3) Hindered rotations indicated by low frequency modes are not
      treated as such but are treated as vibrations and this may
      cause some error
  (4) All equations used are the standard statistical mechanics
      equations for an ideal gas
  (5) All vibrations are strictly harmonic

freq.     119.83  E(vib)   ...       0.44
freq.     125.85  E(vib)   ...       0.43
freq.     138.59  E(vib)   ...       0.42
freq.     199.41  E(vib)   ...       0.35
freq.     345.46  E(vib)   ...       0.23
freq.     406.67  E(vib)   ...       0.19
freq.     423.94  E(vib)   ...       0.18
freq.     472.71  E(vib)   ...       0.15
freq.     512.15  E(vib)   ...       0.14
freq.     563.60  E(vib)   ...       0.11
freq.     598.51  E(vib)   ...       0.10
freq.     614.04  E(vib)   ...       0.10
freq.     627.73  E(vib)   ...       0.09
freq.     648.73  E(vib)   ...       0.08
freq.     685.02  E(vib)   ...       0.07
freq.     701.23  E(vib)   ...       0.07
freq.     894.99  E(vib)   ...       0.03
freq.     933.01  E(vib)   ...       0.03
freq.     942.74  E(vib)   ...       0.03
freq.     993.30  E(vib)   ...       0.02
freq.    1084.73  E(vib)   ...       0.02
freq.    1100.25  E(vib)   ...       0.02
freq.    1156.31  E(vib)   ...       0.01
freq.    1282.25  E(vib)   ...       0.01
freq.    1293.12  E(vib)   ...       0.01
freq.    1382.07  E(vib)   ...       0.01
freq.    1418.36  E(vib)   ...       0.00
freq.    1438.88  E(vib)   ...       0.00
freq.    1520.34  E(vib)   ...       0.00
freq.    1567.19  E(vib)   ...       0.00
freq.    2249.54  E(vib)   ...       0.00
freq.    2312.29  E(vib)   ...       0.00
freq.    3150.81  E(vib)   ...       0.00
freq.    3194.47  E(vib)   ...       0.00
freq.    3208.22  E(vib)   ...       0.00
freq.    3216.22  E(vib)   ...       0.00

------------
INNER ENERGY
------------

The inner energy is: U= E(el) + E(ZPE) + E(vib) + E(rot) + E(trans)
    E(el)   - is the total energy from the electronic structure calculation
              = E(kin-el) + E(nuc-el) + E(el-el) + E(nuc-nuc)
    E(ZPE)  - the the zero temperature vibrational energy from the frequency calculation
    E(vib)  - the the finite temperature correction to E(ZPE) due to population
              of excited vibrational states
    E(rot)  - is the rotational thermal energy
    E(trans)- is the translational thermal energy

Summary of contributions to the inner energy U:
Electronic energy                ...   -415.96586211 Eh
Zero point energy                ...      0.09459536 Eh      59.36 kcal/mol
Thermal vibrational correction   ...      0.00534217 Eh       3.35 kcal/mol
Thermal rotational correction    ...      0.00141627 Eh       0.89 kcal/mol
Thermal translational correction ...      0.00141627 Eh       0.89 kcal/mol
-----------------------------------------------------------------------
Total thermal energy                   -415.86309203 Eh

Summary of corrections to the electronic energy:
(perhaps to be used in another calculation)
Total thermal correction                  0.00817471 Eh       5.13 kcal/mol
Non-thermal (ZPE) correction              0.09459536 Eh      59.36 kcal/mol
-----------------------------------------------------------------------
Total correction                          0.10277008 Eh      64.49 kcal/mol

--------
ENTHALPY
--------

The enthalpy is H = U + kB*T
                kB is Boltzmann's constant
Total thermal energy              ...   -415.86309203 Eh
Thermal Enthalpy correction       ...      0.00094421 Eh       0.59 kcal/mol
-----------------------------------------------------------------------
Total Enthalpy                    ...   -415.86214782 Eh

Note: Rotational entropy computed according to Herzberg
Infrared and Raman Spectra, Chapter V,1, Van Nostrand Reinhold, 1945
Point Group:  C2v, Symmetry Number:   2
Rotational constants in cm-1:     0.086960     0.030317     0.022480

Vibrational entropy computed according to the QRRHO of S. Grimme
Chem.Eur.J. 2012 18 9955 using a reference frequency of 100.0 cm-1

-------
ENTROPY
-------

The entropy contributions are T*S = T*(S(el)+S(vib)+S(rot)+S(trans))
     S(el)   - electronic entropy
     S(vib)  - vibrational entropy
     S(rot)  - rotational entropy
     S(trans)- translational entropy
The entropies will be listed as multiplied by the temperature to get
units of energy

Electronic entropy                ...      0.00065446 Eh      0.41 kcal/mol
Vibrational entropy               ...      0.00889751 Eh      5.58 kcal/mol
Rotational entropy                ...      0.01345145 Eh      8.44 kcal/mol
Translational entropy             ...      0.01922234 Eh     12.06 kcal/mol
-----------------------------------------------------------------------
Final entropy term                ...      0.04222576 Eh     26.50 kcal/mol

In case the symmetry of your molecule has not been determined correctly
or in case you have a reason to use a different symmetry number we print
out the resulting rotational entropy values for sn=1,12:

 non-linear molecules -----------------------------------
|  sn= 1 | S(rot)=       0.01410591 Eh      8.85 kcal/mol|
|  sn= 2 | S(rot)=       0.01345145 Eh      8.44 kcal/mol|
|  sn= 3 | S(rot)=       0.01306862 Eh      8.20 kcal/mol|
|  sn= 4 | S(rot)=       0.01279700 Eh      8.03 kcal/mol|
|  sn= 5 | S(rot)=       0.01258631 Eh      7.90 kcal/mol|
|  sn= 6 | S(rot)=       0.01241416 Eh      7.79 kcal/mol|
|  sn= 7 | S(rot)=       0.01226862 Eh      7.70 kcal/mol|
|  sn= 8 | S(rot)=       0.01214254 Eh      7.62 kcal/mol|
|  sn= 9 | S(rot)=       0.01203133 Eh      7.55 kcal/mol|
|  sn=10 | S(rot)=       0.01193185 Eh      7.49 kcal/mol|
|  sn=11 | S(rot)=       0.01184186 Eh      7.43 kcal/mol|
|  sn=12 | S(rot)=       0.01175971 Eh      7.38 kcal/mol|
 linear molecules ---------------------------------------
|  Dinfh | S(rot)=       0.00890911 Eh      5.59 kcal/mol|
|  Cinfv | S(rot)=       0.00956357 Eh      6.00 kcal/mol|
 --------------------------------------------------------

-------------------
GIBBS FREE ENERGY
-------------------

The Gibbs free energy is G = H - T*S

Total enthalpy                    ...   -415.86214782 Eh
Total entropy correction          ...     -0.04222576 Eh    -26.50 kcal/mol
-----------------------------------------------------------------------
Final Gibbs free energy         ...   -415.90437359 Eh

                             ****ORCA TERMINATED NORMALLY****
TOTAL RUN TIME: 0 days 0 hours 7 minutes 57 seconds 107 msec
