                         Program Version 6.0.0  -   RELEASE  -
|  1> !TPSSh aug-cc-pVTZ d3 TightSCF SlowConv RIJCOSX defgrid2
|  2>
|  3> %pal
|  4> nprocs 4
|  5> end
|  6>
|  7> %scf
|  8> MaxIter 1500
|  9> end
| 10>
| 11> %maxcore 3000
| 12>
| 13> !CPCM
| 14> %cpcm smd true
| 15> SMDsolvent "MeCN"
| 16> surfacetype gepol_ses
| 17> rsolv 2.19
| 18> end
| 19>
| 20> * xyz 1 2
| 21> C           2.10074069713964     -0.03623551022709      0.33749659871253
| 22> C           2.28528308407684     -1.00752299995307     -0.66845525084634
| 23> C           3.55854065372565     -1.40796132368585     -1.00587360020280
| 24> C           4.68249131779385     -0.86605497847815     -0.34228468182816
| 25> C           4.49410486888580      0.09282810810827      0.67448234828818
| 26> C           3.21443563230482      0.50407669582157      1.00485264191955
| 27> H           3.07723883642763      1.26509156223799      1.77871020660964
| 28> H           5.34504061581579      0.52911655526770      1.19977321493419
| 29> O           5.85957111079757     -1.32009234548199     -0.73263129283529
| 30> C           7.04850127917866     -0.86024283407437     -0.12168488196846
| 31> H           7.05512576176798     -1.09734211644688      0.95677335906268
| 32> H           7.17453578603241      0.22645663792845     -0.27205541020094
| 33> H           7.86948886250749     -1.39474999506796     -0.61807937295301
| 34> H           3.72936926674930     -2.16465573433241     -1.77503931686740
| 35> H           1.42319555532723     -1.45115446559524     -1.17357438144306
| 36> S           0.53310799676805      0.50835431053803      0.87944925726859
| 37> S          -0.53256657645917      0.51157250736075     -0.87298747821769
| 38> C          -2.10050433131834     -0.03456082645027     -0.33376593608310
| 39> C          -2.28614846748860     -1.00654106417423      0.67133142906854
| 40> C          -3.55972901842260     -1.40767887923690      1.00664018727382
| 41> C          -4.68294557147944     -0.86577074838656      0.34176687797768
| 42> C          -4.49345078730343      0.09376398773271     -0.67420576981618
| 43> C          -3.21349104560759      0.50568127921148     -1.00247721129044
| 44> H          -3.07548115689053      1.26718515114297     -1.77571342523042
| 45> H          -5.34379775111145      0.53000288222862     -1.20048622064007
| 46> O          -5.86039219693820     -1.32045276361291      0.73014290561810
| 47> C          -7.04863669150853     -0.86088719818355      0.11760799023957
| 48> H          -7.05349716792618     -1.09749864586999     -0.96096207362486
| 49> H          -7.87010373607049     -1.39602142441654      0.61252372140508
| 50> H          -7.17540081825230      0.22567978049243      0.26830217206131
| 51> H          -3.73137732634319     -2.16495328714636      1.77505264858787
| 52> H          -1.42462428217865     -1.45015721725065      1.17741544502090
| 53> *
| 54>
| 55>                          ****END OF INPUT****

CARTESIAN COORDINATES (ANGSTROEM)
---------------------------------
  C      2.100741   -0.036236    0.337497
  C      2.285283   -1.007523   -0.668455
  C      3.558541   -1.407961   -1.005874
  C      4.682491   -0.866055   -0.342285
  C      4.494105    0.092828    0.674482
  C      3.214436    0.504077    1.004853
  H      3.077239    1.265092    1.778710
  H      5.345041    0.529117    1.199773
  O      5.859571   -1.320092   -0.732631
  C      7.048501   -0.860243   -0.121685
  H      7.055126   -1.097342    0.956773
  H      7.174536    0.226457   -0.272055
  H      7.869489   -1.394750   -0.618079
  H      3.729369   -2.164656   -1.775039
  H      1.423196   -1.451154   -1.173574
  S      0.533108    0.508354    0.879449
  S     -0.532567    0.511573   -0.872987
  C     -2.100504   -0.034561   -0.333766
  C     -2.286148   -1.006541    0.671331
  C     -3.559729   -1.407679    1.006640
  C     -4.682946   -0.865771    0.341767
  C     -4.493451    0.093764   -0.674206
  C     -3.213491    0.505681   -1.002477
  H     -3.075481    1.267185   -1.775713
  H     -5.343798    0.530003   -1.200486
  O     -5.860392   -1.320453    0.730143
  C     -7.048637   -0.860887    0.117608
  H     -7.053497   -1.097499   -0.960962
  H     -7.870104   -1.396021    0.612524
  H     -7.175401    0.225680    0.268302
  H     -3.731377   -2.164953    1.775053
  H     -1.424624   -1.450157    1.177415

 Total Charge           Charge          ....    1
 Multiplicity           Mult            ....    2
 Number of Electrons    NEL             ....  145
 Basis Dimension        Dim             .... 1158

ORBITAL ENERGIES
----------------
                 SPIN UP ORBITALS
  NO   OCC          E(Eh)            E(eV)
   0   1.0000     -88.827926     -2417.1307
   1   1.0000     -88.827849     -2417.1287
   2   1.0000     -19.116971      -520.1992
   3   1.0000     -19.116880      -520.1968
   4   1.0000     -10.209497      -277.8145
   5   1.0000     -10.209419      -277.8124
   6   1.0000     -10.184712      -277.1401
   7   1.0000     -10.184618      -277.1375
   8   1.0000     -10.170629      -276.7569
   9   1.0000     -10.170599      -276.7561
  10   1.0000     -10.154086      -276.3067
  11   1.0000     -10.154022      -276.3050
  12   1.0000     -10.152736      -276.2700
  13   1.0000     -10.152687      -276.2687
  14   1.0000     -10.142097      -275.9805
  15   1.0000     -10.142041      -275.9790
  16   1.0000     -10.140047      -275.9247
  17   1.0000     -10.139974      -275.9227
  18   1.0000      -7.949921      -216.3284
  19   1.0000      -7.949825      -216.3257
  20   1.0000      -5.901359      -160.5841
  21   1.0000      -5.901095      -160.5770
  22   1.0000      -5.896359      -160.4481
  23   1.0000      -5.896286      -160.4461
  24   1.0000      -5.895090      -160.4135
  25   1.0000      -5.895003      -160.4112
  26   1.0000      -1.085043       -29.5255
  27   1.0000      -1.084960       -29.5233
  28   1.0000      -0.888580       -24.1795
  29   1.0000      -0.871491       -23.7145
  30   1.0000      -0.834960       -22.7204
  31   1.0000      -0.788093       -21.4451
  32   1.0000      -0.763331       -20.7713
  33   1.0000      -0.760199       -20.6861
  34   1.0000      -0.746004       -20.2998
  35   1.0000      -0.720159       -19.5965
  36   1.0000      -0.688789       -18.7429
  37   1.0000      -0.656813       -17.8728
  38   1.0000      -0.622834       -16.9482
  39   1.0000      -0.622414       -16.9368
  40   1.0000      -0.592611       -16.1258
  41   1.0000      -0.578184       -15.7332
  42   1.0000      -0.538008       -14.6399
  43   1.0000      -0.536782       -14.6066
  44   1.0000      -0.505872       -13.7655
  45   1.0000      -0.494771       -13.4634
  46   1.0000      -0.483951       -13.1690
  47   1.0000      -0.475548       -12.9403
  48   1.0000      -0.471076       -12.8186
  49   1.0000      -0.470928       -12.8146
  50   1.0000      -0.451157       -12.2766
  51   1.0000      -0.450978       -12.2717
  52   1.0000      -0.431306       -11.7364
  53   1.0000      -0.430709       -11.7202
  54   1.0000      -0.421949       -11.4818
  55   1.0000      -0.414398       -11.2764
  56   1.0000      -0.410764       -11.1775
  57   1.0000      -0.400998       -10.9117
  58   1.0000      -0.386454       -10.5160
  59   1.0000      -0.382515       -10.4088
  60   1.0000      -0.370302       -10.0764
  61   1.0000      -0.367162        -9.9910
  62   1.0000      -0.357060        -9.7161
  63   1.0000      -0.354258        -9.6399
  64   1.0000      -0.348339        -9.4788
  65   1.0000      -0.327768        -8.9190
  66   1.0000      -0.327543        -8.9129
  67   1.0000      -0.320760        -8.7283
  68   1.0000      -0.283749        -7.7212
  69   1.0000      -0.276621        -7.5272
  70   1.0000      -0.275409        -7.4943
  71   1.0000      -0.237002        -6.4491
  72   1.0000      -0.220783        -6.0078
  73   0.0000      -0.093449        -2.5429
  74   0.0000      -0.055555        -1.5117
  75   0.0000      -0.049669        -1.3516
  76   0.0000      -0.045026        -1.2252
  77   0.0000      -0.036011        -0.9799

                 SPIN DOWN ORBITALS
  NO   OCC          E(Eh)            E(eV)
   0   1.0000     -88.826322     -2417.0871
   1   1.0000     -88.826250     -2417.0851
   2   1.0000     -19.115298      -520.1537
   3   1.0000     -19.115218      -520.1515
   4   1.0000     -10.208427      -277.7854
   5   1.0000     -10.208355      -277.7835
   6   1.0000     -10.183519      -277.1076
   7   1.0000     -10.183428      -277.1052
   8   1.0000     -10.170691      -276.7586
   9   1.0000     -10.170661      -276.7578
  10   1.0000     -10.153659      -276.2951
  11   1.0000     -10.153599      -276.2935
  12   1.0000     -10.152307      -276.2583
  13   1.0000     -10.152260      -276.2570
  14   1.0000     -10.141798      -275.9724
  15   1.0000     -10.141740      -275.9708
  16   1.0000     -10.140006      -275.9236
  17   1.0000     -10.139935      -275.9217
  18   1.0000      -7.948442      -216.2881
  19   1.0000      -7.948347      -216.2855
  20   1.0000      -5.900382      -160.5575
  21   1.0000      -5.900116      -160.5503
  22   1.0000      -5.895544      -160.4259
  23   1.0000      -5.895475      -160.4240
  24   1.0000      -5.890192      -160.2803
  25   1.0000      -5.890118      -160.2783
  26   1.0000      -1.082254       -29.4496
  27   1.0000      -1.082188       -29.4478
  28   1.0000      -0.884420       -24.0663
  29   1.0000      -0.868937       -23.6450
  30   1.0000      -0.830807       -22.6074
  31   1.0000      -0.784546       -21.3486
  32   1.0000      -0.762348       -20.7446
  33   1.0000      -0.759241       -20.6600
  34   1.0000      -0.743315       -20.2266
  35   1.0000      -0.717909       -19.5353
  36   1.0000      -0.686797       -18.6887
  37   1.0000      -0.651398       -17.7255
  38   1.0000      -0.621427       -16.9099
  39   1.0000      -0.620914       -16.8959
  40   1.0000      -0.591131       -16.0855
  41   1.0000      -0.575380       -15.6569
  42   1.0000      -0.537224       -14.6186
  43   1.0000      -0.535551       -14.5731
  44   1.0000      -0.504743       -13.7347
  45   1.0000      -0.493923       -13.4403
  46   1.0000      -0.482739       -13.1360
  47   1.0000      -0.471446       -12.8287
  48   1.0000      -0.466322       -12.6893
  49   1.0000      -0.466229       -12.6867
  50   1.0000      -0.449919       -12.2429
  51   1.0000      -0.449730       -12.2378
  52   1.0000      -0.430847       -11.7239
  53   1.0000      -0.430306       -11.7092
  54   1.0000      -0.420115       -11.4319
  55   1.0000      -0.413829       -11.2609
  56   1.0000      -0.406282       -11.0555
  57   1.0000      -0.396494       -10.7892
  58   1.0000      -0.383018       -10.4225
  59   1.0000      -0.380037       -10.3413
  60   1.0000      -0.367021        -9.9872
  61   1.0000      -0.366312        -9.9679
  62   1.0000      -0.350399        -9.5348
  63   1.0000      -0.346844        -9.4381
  64   1.0000      -0.341442        -9.2911
  65   1.0000      -0.326840        -8.8938
  66   1.0000      -0.326405        -8.8819
  67   1.0000      -0.310115        -8.4387
  68   1.0000      -0.274550        -7.4709
  69   1.0000      -0.274176        -7.4607
  70   1.0000      -0.266909        -7.2630
  71   1.0000      -0.224375        -6.1056
  72   0.0000      -0.186395        -5.0721
  73   0.0000      -0.087337        -2.3766
  74   0.0000      -0.050853        -1.3838
  75   0.0000      -0.044741        -1.2175
  76   0.0000      -0.038357        -1.0438

MULLIKEN ATOMIC CHARGES AND SPIN POPULATIONS
--------------------------------------------
   0 C :    0.896567    0.048257
   1 C :   -0.314999    0.010923
   2 C :   -0.808230   -0.001131
   3 C :    0.903041    0.071495
   4 C :   -0.066537    0.018065
   5 C :   -0.751423    0.018125
   6 H :    0.318393   -0.010242
   7 H :    0.285121    0.001417
   8 O :   -0.671050    0.052927
   9 C :   -0.276749   -0.004394
  10 H :    0.225201    0.003266
  11 H :    0.220859    0.002844
  12 H :    0.037829    0.000401
  13 H :    0.343105    0.000692
  14 H :    0.482912    0.004270
  15 S :   -0.325483    0.282004
  16 S :   -0.323770    0.282885
  17 C :    0.898105    0.048573
  18 C :   -0.299910    0.010776
  19 C :   -0.819745   -0.001047
  20 C :    0.903275    0.071978
  21 C :   -0.065334    0.017953
  22 C :   -0.752717    0.018279
  23 H :    0.318891   -0.010228
  24 H :    0.282798    0.001471
  25 O :   -0.669826    0.053250
  26 C :   -0.276266   -0.004442
  27 H :    0.225366    0.003309
  28 H :    0.038312    0.000402
  29 H :    0.221117    0.002859
  30 H :    0.333481    0.000711
  31 H :    0.487668    0.004352
Sum of atomic charges         :    1.0000000

LOEWDIN ATOMIC CHARGES AND SPIN POPULATIONS
-------------------------------------------
   0 C :   -0.581831    0.074153
   1 C :    0.115173    0.024802
   2 C :    0.228747    0.015751
   3 C :   -0.381287    0.045909
   4 C :    0.233673    0.025730
   5 C :    0.127063    0.028176
   6 H :   -0.171759    0.004259
   7 H :   -0.172552    0.002567
   8 O :    0.621668    0.048996
   9 C :    0.371765    0.005783
  10 H :   -0.153668    0.001594
  11 H :   -0.153571    0.001613
  12 H :   -0.163060   -0.000108
  13 H :   -0.156921    0.000703
  14 H :   -0.205423    0.003811
  15 S :    0.941527    0.215302
  16 S :    0.941750    0.215835
  17 C :   -0.581644    0.074412
  18 C :    0.115256    0.024902
  19 C :    0.228845    0.015912
  20 C :   -0.381187    0.046183
  21 C :    0.233745    0.025786
  22 C :    0.127121    0.028317
  23 H :   -0.171714    0.004270
  24 H :   -0.172520    0.002559
  25 O :    0.621748    0.049293
  26 C :    0.371872    0.005818
  27 H :   -0.153641    0.001603
  28 H :   -0.163042   -0.000109
  29 H :   -0.153552    0.001623
  30 H :   -0.156885    0.000720
  31 H :   -0.205696    0.003836

  Mayer bond orders larger than 0.100000
B(  0-C ,  1-C ) :   0.7966 B(  0-C ,  2-C ) :  -0.1585 B(  0-C ,  5-C ) :   0.9651
B(  0-C , 15-S ) :   0.3316 B(  1-C ,  2-C ) :   1.3304 B(  1-C ,  3-C ) :  -0.1757
B(  1-C ,  8-O ) :   0.1401 B(  1-C , 13-H ) :   0.1262 B(  1-C , 14-H ) :   0.5763
B(  1-C , 16-S ) :   0.1815 B(  2-C ,  3-C ) :   0.9609 B(  2-C ,  8-O ) :   0.3600
B(  2-C , 13-H ) :   0.5838 B(  2-C , 16-S ) :   0.1053 B(  3-C ,  4-C ) :   1.0685
B(  3-C ,  8-O ) :   0.1290 B(  3-C ,  9-C ) :   0.1395 B(  4-C ,  5-C ) :   1.2575
B(  4-C ,  7-H ) :   0.6668 B(  4-C ,  8-O ) :  -0.2309 B(  4-C ,  9-C ) :  -0.1091
B(  5-C ,  6-H ) :   0.6551 B(  8-O ,  9-C ) :   0.9595 B(  9-C , 10-H ) :   0.9135
B(  9-C , 11-H ) :   0.9158 B(  9-C , 12-H ) :   1.0773 B( 15-S , 16-S ) :   1.0124
B( 15-S , 18-C ) :   0.1796 B( 15-S , 19-C ) :   0.1058 B( 16-S , 17-C ) :   0.3282
B( 17-C , 18-C ) :   0.7982 B( 17-C , 19-C ) :  -0.1628 B( 17-C , 22-C ) :   0.9657
B( 18-C , 19-C ) :   1.3053 B( 18-C , 20-C ) :  -0.1782 B( 18-C , 25-O ) :   0.1414
B( 18-C , 30-H ) :   0.1230 B( 18-C , 31-H ) :   0.5711 B( 19-C , 20-C ) :   0.9637
B( 19-C , 25-O ) :   0.3603 B( 19-C , 30-H ) :   0.5992 B( 20-C , 21-C ) :   1.0662
B( 20-C , 25-O ) :   0.1274 B( 20-C , 26-C ) :   0.1408 B( 21-C , 22-C ) :   1.2611
B( 21-C , 24-H ) :   0.6710 B( 21-C , 25-O ) :  -0.2328 B( 21-C , 26-C ) :  -0.1099
B( 22-C , 23-H ) :   0.6529 B( 25-O , 26-C ) :   0.9581 B( 26-C , 27-H ) :   0.9135
B( 26-C , 28-H ) :   1.0766 B( 26-C , 29-H ) :   0.9155

Dispersion correction           -0.048494351
FINAL SINGLE POINT ENERGY     -1488.965689730664

DIPOLE MOMENT
-------------

Method             : SCF
Type of density    : Electron Density
Multiplicity       :   2
Irrep              :   0
Energy             : -1488.9171953798486356 Eh
Relativity type    :
Basis              : AO
                                X                 Y                 Z
Electronic contribution:     -0.007384163       3.239274013       0.016109375
Nuclear contribution   :     -0.000025572      -2.851825111      -0.017728862
                        -----------------------------------------
Total Dipole Moment    :     -0.007409736       0.387448902      -0.001619487
                        -----------------------------------------
Magnitude (a.u.)       :      0.387523133
Magnitude (Debye)      :      0.985005524

Rotational constants in cm-1:             0.050702             0.003581             0.003572
Rotational constants in MHz :          1519.993315           107.353371           107.097515

                             ****ORCA TERMINATED NORMALLY****
TOTAL RUN TIME: 0 days 0 hours 26 minutes 33 seconds 887 msec
