                         Program Version 6.0.0  -   RELEASE  -
|  1> !B3LYP aug-cc-pVTZ d3 TightSCF SlowConv RIJCOSX defgrid2
|  2>
|  3> %pal
|  4> nprocs 15
|  5> end
|  6>
|  7> %scf
|  8> MaxIter 1500
|  9> end
| 10>
| 11> %maxcore 3500
| 12>
| 13> !CPCM
| 14> %cpcm smd true
| 15> SMDsolvent "WATER"
| 16> surfacetype gepol_ses
| 17> rsolv 1.40
| 18> end
| 19>
| 20> * xyz -1 2
| 21> C          -0.01873170749674      0.04093753406553     -3.52858975972066
| 22> C          -0.08481953761759     -0.05154774136999      0.71463088236912
| 23> C           1.06074238697258      0.22514736046509      1.53440757464188
| 24> C           0.96830356526862      0.17882896728935      2.90786805737149
| 25> C          -0.26470551878929     -0.14423885396115      3.51526371962268
| 26> C          -1.33128436816010     -0.40174847455106      2.63782787275971
| 27> N          -1.27485689979469     -0.36556245628455      1.32561828552698
| 28> H           2.02142786234163      0.47540072062604      1.07674146761929
| 29> H           1.85377788752582      0.39275930361097      3.52001278224486
| 30> H          -0.39061214364026     -0.19370360376422      4.60098661165976
| 31> H          -2.31725327762224     -0.66048458620174      3.06445837201647
| 32> C          -0.03491140317629     -0.01288869194778     -0.72111388392229
| 33> C           1.16270029754736      0.31139406157834     -1.44337296366598
| 34> C           1.16651016564823      0.33657884142632     -2.82048186671520
| 35> C          -1.14232412396102     -0.26425404984996     -2.74235450381628
| 36> N          -1.17775822889852     -0.29650902231833     -1.42933091490151
| 37> H           2.08677406925420      0.54347018773518     -0.90745689096374
| 38> H           2.09048709414386      0.58686162656875     -3.35729468270631
| 39> H          -0.06814499795324      0.04684125814958     -4.62156621654479
| 40> H          -2.09470004459233     -0.50226242026639     -3.24971132087547
| 41> *
| 42>
| 43>                          ****END OF INPUT****

CARTESIAN COORDINATES (ANGSTROEM)
---------------------------------
  C     -0.018732    0.040938   -3.528590
  C     -0.084820   -0.051548    0.714631
  C      1.060742    0.225147    1.534408
  C      0.968304    0.178829    2.907868
  C     -0.264706   -0.144239    3.515264
  C     -1.331284   -0.401748    2.637828
  N     -1.274857   -0.365562    1.325618
  H      2.021428    0.475401    1.076741
  H      1.853778    0.392759    3.520013
  H     -0.390612   -0.193704    4.600987
  H     -2.317253   -0.660485    3.064458
  C     -0.034911   -0.012889   -0.721114
  C      1.162700    0.311394   -1.443373
  C      1.166510    0.336579   -2.820482
  C     -1.142324   -0.264254   -2.742355
  N     -1.177758   -0.296509   -1.429331
  H      2.086774    0.543470   -0.907457
  H      2.090487    0.586862   -3.357295
  H     -0.068145    0.046841   -4.621566
  H     -2.094700   -0.502262   -3.249711

 Total Charge           Charge          ....   -1
 Multiplicity           Mult            ....    2
 Number of Electrons    NEL             ....   83
 Basis Dimension        Dim             ....  736

ORBITAL ENERGIES
----------------
                 SPIN UP ORBITALS
  NO   OCC          E(Eh)            E(eV)
   0   1.0000     -14.280440      -388.5905
   1   1.0000     -14.280401      -388.5895
   2   1.0000     -10.184992      -277.1477
   3   1.0000     -10.184979      -277.1474
   4   1.0000     -10.179609      -277.0012
   5   1.0000     -10.179141      -276.9885
   6   1.0000     -10.164520      -276.5907
   7   1.0000     -10.164503      -276.5902
   8   1.0000     -10.156534      -276.3733
   9   1.0000     -10.156510      -276.3727
  10   1.0000     -10.148157      -276.1454
  11   1.0000     -10.148140      -276.1449
  12   1.0000      -0.923658       -25.1340
  13   1.0000      -0.903412       -24.5831
  14   1.0000      -0.778292       -21.1784
  15   1.0000      -0.771862       -21.0034
  16   1.0000      -0.764446       -20.8016
  17   1.0000      -0.708832       -19.2883
  18   1.0000      -0.634128       -17.2555
  19   1.0000      -0.610106       -16.6018
  20   1.0000      -0.581308       -15.8182
  21   1.0000      -0.571864       -15.5612
  22   1.0000      -0.509432       -13.8624
  23   1.0000      -0.471843       -12.8395
  24   1.0000      -0.468630       -12.7521
  25   1.0000      -0.457006       -12.4358
  26   1.0000      -0.430763       -11.7217
  27   1.0000      -0.412553       -11.2261
  28   1.0000      -0.402154       -10.9432
  29   1.0000      -0.400782       -10.9058
  30   1.0000      -0.376631       -10.2487
  31   1.0000      -0.375114       -10.2074
  32   1.0000      -0.368109       -10.0168
  33   1.0000      -0.341896        -9.3035
  34   1.0000      -0.339825        -9.2471
  35   1.0000      -0.284571        -7.7436
  36   1.0000      -0.274120        -7.4592
  37   1.0000      -0.271965        -7.4005
  38   1.0000      -0.247577        -6.7369
  39   1.0000      -0.223995        -6.0952
  40   1.0000      -0.217776        -5.9260
  41   1.0000      -0.095401        -2.5960
  42   0.0000      -0.015008        -0.4084
  43   0.0000      -0.002661        -0.0724
  44   0.0000       0.001431         0.0389
  45   0.0000       0.007095         0.1931
  46   0.0000       0.013595         0.3699

                 SPIN DOWN ORBITALS
  NO   OCC          E(Eh)            E(eV)
   0   1.0000     -14.277555      -388.5120
   1   1.0000     -14.277517      -388.5110
   2   1.0000     -10.185978      -277.1745
   3   1.0000     -10.185964      -277.1742
   4   1.0000     -10.177382      -276.9406
   5   1.0000     -10.176939      -276.9286
   6   1.0000     -10.164389      -276.5871
   7   1.0000     -10.164373      -276.5866
   8   1.0000     -10.155675      -276.3500
   9   1.0000     -10.155650      -276.3493
  10   1.0000     -10.145082      -276.0617
  11   1.0000     -10.145065      -276.0613
  12   1.0000      -0.918484       -24.9932
  13   1.0000      -0.898983       -24.4626
  14   1.0000      -0.774209       -21.0673
  15   1.0000      -0.767632       -20.8883
  16   1.0000      -0.758872       -20.6500
  17   1.0000      -0.705028       -19.1848
  18   1.0000      -0.626344       -17.0437
  19   1.0000      -0.609472       -16.5846
  20   1.0000      -0.579512       -15.7693
  21   1.0000      -0.568982       -15.4828
  22   1.0000      -0.508162       -13.8278
  23   1.0000      -0.470250       -12.7962
  24   1.0000      -0.466589       -12.6965
  25   1.0000      -0.453835       -12.3495
  26   1.0000      -0.429166       -11.6782
  27   1.0000      -0.411197       -11.1892
  28   1.0000      -0.400886       -10.9087
  29   1.0000      -0.387727       -10.5506
  30   1.0000      -0.375441       -10.2163
  31   1.0000      -0.373886       -10.1739
  32   1.0000      -0.358433        -9.7535
  33   1.0000      -0.340664        -9.2699
  34   1.0000      -0.337762        -9.1910
  35   1.0000      -0.268758        -7.3133
  36   1.0000      -0.262272        -7.1368
  37   1.0000      -0.260808        -7.0969
  38   1.0000      -0.244223        -6.6456
  39   1.0000      -0.220562        -6.0018
  40   1.0000      -0.201585        -5.4854
  41   0.0000      -0.037110        -1.0098
  42   0.0000      -0.012960        -0.3526
  43   0.0000      -0.002744        -0.0747
  44   0.0000       0.006936         0.1887
  45   0.0000       0.007071         0.1924

MULLIKEN ATOMIC CHARGES AND SPIN POPULATIONS
--------------------------------------------
   0 C :   -0.347546    0.231636
   1 C :    1.446997    0.138531
   2 C :   -0.500655    0.082647
   3 C :   -0.884580   -0.008307
   4 C :   -0.347515    0.231599
   5 C :   -0.773366   -0.057036
   6 N :   -0.754549    0.135867
   7 H :    0.021791   -0.009426
   8 H :    0.492987   -0.005248
   9 H :    0.192314   -0.016256
  10 H :    0.597763    0.007580
  11 C :    1.467335    0.138701
  12 C :   -0.495625    0.082600
  13 C :   -0.875437   -0.008222
  14 C :   -0.770666   -0.057168
  15 N :   -0.758055    0.135806
  16 H :    0.026335   -0.009622
  17 H :    0.473939   -0.005134
  18 H :    0.195247   -0.016127
  19 H :    0.593286    0.007576
Sum of atomic charges         :   -1.0000000

LOEWDIN ATOMIC CHARGES AND SPIN POPULATIONS
-------------------------------------------
   0 C :    0.144041    0.108209
   1 C :   -0.360964    0.120611
   2 C :    0.163323    0.060365
   3 C :    0.131163    0.049349
   4 C :    0.143986    0.108226
   5 C :   -0.088781    0.021458
   6 N :    0.304362    0.102314
   7 H :   -0.210466    0.009578
   8 H :   -0.178034    0.004416
   9 H :   -0.203916    0.027636
  10 H :   -0.200736   -0.003925
  11 C :   -0.360903    0.120609
  12 C :    0.163304    0.060365
  13 C :    0.131235    0.049312
  14 C :   -0.088851    0.021468
  15 N :    0.304417    0.102301
  16 H :   -0.210499    0.009586
  17 H :   -0.177995    0.004408
  18 H :   -0.203917    0.027637
  19 H :   -0.200769   -0.003923

  Mayer bond orders larger than 0.100000
B(  0-C , 13-C ) :   1.1253 B(  0-C , 14-C ) :   0.7975 B(  0-C , 15-N ) :  -0.1803
B(  0-C , 16-H ) :  -0.1085 B(  0-C , 18-H ) :   1.0816 B(  1-C ,  2-C ) :   0.4741
B(  1-C ,  3-C ) :  -0.2126 B(  1-C ,  5-C ) :  -0.3041 B(  1-C ,  6-N ) :  -0.2841
B(  1-C ,  7-H ) :  -0.1972 B(  1-C , 10-H ) :   0.1228 B(  1-C , 11-C ) :   0.4280
B(  1-C , 13-C ) :   0.1118 B(  1-C , 15-N ) :   0.3765 B(  2-C ,  3-C ) :   1.2447
B(  2-C ,  5-C ) :  -0.1817 B(  2-C ,  7-H ) :   1.5356 B(  2-C , 10-H ) :   0.1038
B(  2-C , 12-C ) :  -0.1598 B(  2-C , 16-H ) :  -0.1057 B(  3-C ,  4-C ) :   1.1226
B(  3-C ,  5-C ) :   0.4232 B(  3-C ,  7-H ) :  -0.2879 B(  3-C ,  8-H ) :   0.6146
B(  3-C ,  9-H ) :  -0.1168 B(  3-C , 11-C ) :   0.1053 B(  4-C ,  5-C ) :   0.7963
B(  4-C ,  6-N ) :  -0.1838 B(  4-C ,  7-H ) :  -0.1098 B(  4-C ,  9-H ) :   1.0832
B(  5-C ,  6-N ) :   1.6919 B(  5-C , 10-H ) :   0.3552 B(  6-N , 10-H ) :  -0.1287
B(  6-N , 11-C ) :   0.3657 B(  6-N , 15-N ) :  -0.3348 B(  7-H ,  9-H ) :   0.1524
B(  7-H , 12-C ) :  -0.1009 B( 11-C , 12-C ) :   0.4677 B( 11-C , 13-C ) :  -0.2144
B( 11-C , 14-C ) :  -0.3037 B( 11-C , 15-N ) :  -0.3016 B( 11-C , 16-H ) :  -0.2003
B( 11-C , 19-H ) :   0.1220 B( 12-C , 13-C ) :   1.2308 B( 12-C , 14-C ) :  -0.1723
B( 12-C , 16-H ) :   1.5333 B( 12-C , 19-H ) :   0.1057 B( 13-C , 14-C ) :   0.4164
B( 13-C , 16-H ) :  -0.2941 B( 13-C , 17-H ) :   0.6423 B( 13-C , 18-H ) :  -0.1175
B( 14-C , 15-N ) :   1.6858 B( 14-C , 19-H ) :   0.3616 B( 15-N , 19-H ) :  -0.1261
B( 16-H , 18-H ) :   0.1481

Dispersion correction           -0.040313591
FINAL SINGLE POINT ENERGY      -495.379029413892

DIPOLE MOMENT
-------------

Method             : SCF
Type of density    : Electron Density
Multiplicity       :   2
Irrep              :   0
Energy             :  -495.3387158223970914 Eh
Relativity type    :
Basis              : AO
                                X                 Y                 Z
Electronic contribution:     -1.706917340      -0.439366509      -0.071297930
Nuclear contribution   :      3.614122503       0.929387637       0.150326208
                        -----------------------------------------
Total Dipole Moment    :      1.907205163       0.490021128       0.079028278
                        -----------------------------------------
Magnitude (a.u.)       :      1.970735322
Magnitude (Debye)      :      5.009211100

Rotational constants in cm-1:             0.097712             0.019197             0.016045
Rotational constants in MHz :          2929.325358           575.521768           481.017920

                             ****ORCA TERMINATED NORMALLY****
TOTAL RUN TIME: 0 days 0 hours 5 minutes 32 seconds 956 msec
