                         Program Version 6.0.0  -   RELEASE  -
|  1> !B3LYP freq aug-cc-pVTZ d3 TightSCF SlowConv RIJCOSX defgrid2
|  2>
|  3> %pal
|  4> nprocs 12
|  5>
|  6> end
|  7>
|  8> %scf
|  9> MaxIter 1500
| 10> end
| 11>
| 12> %maxcore 5000
| 13>
| 14> !CPCM
| 15> %cpcm smd true
| 16> SMDsolvent "MeCN"
| 17> surfacetype gepol_ses
| 18> rsolv 2.19
| 19> end
| 20>
| 21> * xyz 1 2
| 22> C          -0.22280535121287     -1.23815032712665     -0.03903011100854
| 23> C           1.14384937680254     -1.22300872632982      0.00228964610824
| 24> C           1.83721415628454     -0.00003965810509      0.02318328999068
| 25> C           1.14388984048597      1.22295243045412      0.00229106114393
| 26> C          -0.22276412650644      1.23814600667632     -0.03903981759760
| 27> C          -0.93434977499902      0.00001011040711     -0.05988930211600
| 28> N          -2.25769821633956      0.00003063556185     -0.09822839582730
| 29> H          -2.78314848309903      0.86418816351741     -0.11500059194755
| 30> H          -2.78317854943666     -0.86410966704791     -0.11498074894141
| 31> H          -0.78035174245251      2.16364706217355     -0.05615231538775
| 32> H           1.69517008937667      2.15143750995559      0.01891199337833
| 33> H           2.91707742765604     -0.00005696533333      0.05500338229159
| 34> H           1.69509347753257     -2.15151614007778      0.01890320457904
| 35> H          -0.78042982409224     -2.16363043472537     -0.05613649466568
| 36> *
| 37>
| 38>                          ****END OF INPUT****

CARTESIAN COORDINATES (ANGSTROEM)
---------------------------------
  C     -0.222805   -1.238150   -0.039030
  C      1.143849   -1.223009    0.002290
  C      1.837214   -0.000040    0.023183
  C      1.143890    1.222952    0.002291
  C     -0.222764    1.238146   -0.039040
  C     -0.934350    0.000010   -0.059889
  N     -2.257698    0.000031   -0.098228
  H     -2.783148    0.864188   -0.115001
  H     -2.783179   -0.864110   -0.114981
  H     -0.780352    2.163647   -0.056152
  H      1.695170    2.151438    0.018912
  H      2.917077   -0.000057    0.055003
  H      1.695093   -2.151516    0.018903
  H     -0.780430   -2.163630   -0.056136

 Total Charge           Charge          ....    1
 Multiplicity           Mult            ....    2
 Number of Electrons    NEL             ....   49
 Basis Dimension        Dim             ....  483

ORBITAL ENERGIES
----------------
                 SPIN UP ORBITALS
  NO   OCC          E(Eh)            E(eV)
   0   1.0000     -14.408412      -392.0728
   1   1.0000     -10.278271      -279.6860
   2   1.0000     -10.222982      -278.1815
   3   1.0000     -10.218434      -278.0577
   4   1.0000     -10.218430      -278.0576
   5   1.0000     -10.206670      -277.7376
   6   1.0000     -10.206667      -277.7375
   7   1.0000      -1.001166       -27.2431
   8   1.0000      -0.884813       -24.0770
   9   1.0000      -0.790728       -21.5168
  10   1.0000      -0.770367       -20.9627
  11   1.0000      -0.656254       -17.8576
  12   1.0000      -0.652216       -17.7477
  13   1.0000      -0.573358       -15.6019
  14   1.0000      -0.565757       -15.3950
  15   1.0000      -0.522139       -14.2081
  16   1.0000      -0.472466       -12.8565
  17   1.0000      -0.463426       -12.6105
  18   1.0000      -0.457258       -12.4426
  19   1.0000      -0.453810       -12.3488
  20   1.0000      -0.396041       -10.7768
  21   1.0000      -0.375738       -10.2243
  22   1.0000      -0.374642       -10.1945
  23   1.0000      -0.299649        -8.1539
  24   1.0000      -0.261542        -7.1169
  25   0.0000      -0.044082        -1.1995
  26   0.0000      -0.042523        -1.1571
  27   0.0000      -0.008137        -0.2214
  28   0.0000       0.004738         0.1289
  29   0.0000       0.010132         0.2757

                 SPIN DOWN ORBITALS
  NO   OCC          E(Eh)            E(eV)
   0   1.0000     -14.400113      -391.8470
   1   1.0000     -10.277693      -279.6702
   2   1.0000     -10.217512      -278.0326
   3   1.0000     -10.215301      -277.9725
   4   1.0000     -10.215301      -277.9725
   5   1.0000     -10.208091      -277.7763
   6   1.0000     -10.208083      -277.7761
   7   1.0000      -0.986990       -26.8574
   8   1.0000      -0.876749       -23.8576
   9   1.0000      -0.787142       -21.4192
  10   1.0000      -0.756982       -20.5985
  11   1.0000      -0.652818       -17.7641
  12   1.0000      -0.645801       -17.5731
  13   1.0000      -0.570748       -15.5309
  14   1.0000      -0.560623       -15.2553
  15   1.0000      -0.517722       -14.0879
  16   1.0000      -0.468849       -12.7580
  17   1.0000      -0.460849       -12.5403
  18   1.0000      -0.456439       -12.4203
  19   1.0000      -0.425732       -11.5848
  20   1.0000      -0.393734       -10.7140
  21   1.0000      -0.372690       -10.1414
  22   1.0000      -0.343333        -9.3426
  23   1.0000      -0.290538        -7.9059
  24   0.0000      -0.175345        -4.7714
  25   0.0000      -0.032542        -0.8855
  26   0.0000      -0.019017        -0.5175
  27   0.0000      -0.007534        -0.2050
  28   0.0000       0.005283         0.1437

MULLIKEN ATOMIC CHARGES AND SPIN POPULATIONS
--------------------------------------------
   0 C :   -0.656604    0.195102
   1 C :   -0.360301   -0.099934
   2 C :   -0.356457    0.360489
   3 C :   -0.359841   -0.099930
   4 C :   -0.656227    0.195100
   5 C :    1.163211    0.095602
   6 N :   -0.337404    0.364626
   7 H :    0.060768   -0.005667
   8 H :    0.061299   -0.005662
   9 H :    0.584559   -0.004718
  10 H :    0.382665    0.002555
  11 H :    0.508437    0.004618
  12 H :    0.381445    0.002543
  13 H :    0.584449   -0.004724
Sum of atomic charges         :    1.0000000

LOEWDIN ATOMIC CHARGES AND SPIN POPULATIONS
-------------------------------------------
   0 C :    0.285991    0.109014
   1 C :    0.250043    0.043409
   2 C :    0.269567    0.177993
   3 C :    0.250042    0.043408
   4 C :    0.285992    0.109013
   5 C :   -0.159042    0.131393
   6 N :    0.969894    0.250576
   7 H :   -0.199513    0.033239
   8 H :   -0.199510    0.033238
   9 H :   -0.144942    0.019678
  10 H :   -0.156723   -0.006718
  11 H :   -0.150136    0.042796
  12 H :   -0.156723   -0.006718
  13 H :   -0.144942    0.019678

  Mayer bond orders larger than 0.100000
B(  0-C ,  1-C ) :   1.4666 B(  0-C ,  2-C ) :   0.2384 B(  0-C ,  4-C ) :   0.2949
B(  0-C ,  5-C ) :   0.6168 B(  0-C ,  6-N ) :  -0.1254 B(  0-C , 13-H ) :   0.2934
B(  1-C ,  2-C ) :   1.0315 B(  1-C ,  3-C ) :  -0.1112 B(  1-C ,  5-C ) :  -0.2281
B(  1-C , 12-H ) :   0.8013 B(  2-C ,  3-C ) :   1.0310 B(  2-C ,  4-C ) :   0.2380
B(  2-C , 11-H ) :   0.5673 B(  3-C ,  4-C ) :   1.4669 B(  3-C ,  5-C ) :  -0.2280
B(  3-C , 10-H ) :   0.7997 B(  4-C ,  5-C ) :   0.6158 B(  4-C ,  6-N ) :  -0.1276
B(  4-C ,  9-H ) :   0.2935 B(  5-C ,  6-N ) :   1.0178 B(  6-N ,  7-H ) :   1.1215
B(  6-N ,  8-H ) :   1.1203

Dispersion correction           -0.022899663
FINAL SINGLE POINT ENERGY      -287.379893215246

DIPOLE MOMENT
-------------

Method             : SCF
Type of density    : Electron Density
Multiplicity       :   2
Irrep              :   0
Energy             :  -287.3569935523300956 Eh
Relativity type    :
Basis              : AO
                                X                 Y                 Z
Electronic contribution:     -0.866877127       0.000020519      -0.025751827
Nuclear contribution   :     -0.818268317       0.000011225      -0.026306476
                        -----------------------------------------
Total Dipole Moment    :     -1.685145444       0.000031744      -0.052058303
                        -----------------------------------------
Magnitude (a.u.)       :      1.685949358
Magnitude (Debye)      :      4.285342705

VIBRATIONAL FREQUENCIES
-----------------------

Scaling factor for frequencies =  1.000000000  (already applied!)

     0:       0.00 cm**-1
     1:       0.00 cm**-1
     2:       0.00 cm**-1
     3:       0.00 cm**-1
     4:       0.00 cm**-1
     5:       0.00 cm**-1
     6:     171.36 cm**-1
     7:     354.26 cm**-1
     8:     374.56 cm**-1
     9:     435.33 cm**-1
    10:     524.53 cm**-1
    11:     528.52 cm**-1
    12:     553.37 cm**-1
    13:     593.24 cm**-1
    14:     619.77 cm**-1
    15:     786.69 cm**-1
    16:     800.39 cm**-1
    17:     828.25 cm**-1
    18:     930.87 cm**-1
    19:     995.95 cm**-1
    20:     996.79 cm**-1
    21:    1008.47 cm**-1
    22:    1009.47 cm**-1
    23:    1016.42 cm**-1
    24:    1117.08 cm**-1
    25:    1159.09 cm**-1
    26:    1183.46 cm**-1
    27:    1351.31 cm**-1
    28:    1373.40 cm**-1
    29:    1394.65 cm**-1
    30:    1473.22 cm**-1
    31:    1510.11 cm**-1
    32:    1548.00 cm**-1
    33:    1615.21 cm**-1
    34:    1633.02 cm**-1
    35:    3192.28 cm**-1
    36:    3195.15 cm**-1
    37:    3201.02 cm**-1
    38:    3208.99 cm**-1
    39:    3215.47 cm**-1
    40:    3512.78 cm**-1
    41:    3625.37 cm**-1

IR SPECTRUM
-----------

 Mode   freq       eps      Int      T**2         TX        TY        TZ
       cm**-1   L/(mol*cm) km/mol    a.u.
----------------------------------------------------------------------------
  6:    171.36   0.003163   15.99  0.005760  (-0.003222  0.000002  0.075829)
  7:    354.26   0.000001    0.01  0.000001  ( 0.000001 -0.000991 -0.000003)
  8:    374.56   0.001787    9.03  0.001489  (-0.000000  0.038585  0.000001)
  9:    435.33   0.008297   41.93  0.005947  ( 0.002026 -0.000001 -0.077093)
 10:    524.53   0.000000    0.00  0.000000  (-0.000004  0.000107 -0.000034)
 11:    528.52   0.000353    1.78  0.000208  ( 0.014432  0.000001  0.000033)
 12:    553.37   0.049122  248.24  0.027701  ( 0.005692 -0.000001 -0.166340)
 13:    593.24   0.000082    0.42  0.000043  ( 0.000002  0.006583  0.000001)
 14:    619.77   0.008070   40.78  0.004064  (-0.002185 -0.000000  0.063708)
 15:    786.69   0.016414   82.95  0.006511  ( 0.002536 -0.000000 -0.080651)
 16:    800.39   0.000000    0.00  0.000000  (-0.000001  0.000179  0.000011)
 17:    828.25   0.000443    2.24  0.000167  (-0.012900 -0.000000 -0.000791)
 18:    930.87   0.001881    9.51  0.000631  (-0.000517 -0.000002  0.025108)
 19:    995.95   0.000005    0.02  0.000001  ( 0.001214  0.000001 -0.000022)
 20:    996.79   0.000000    0.00  0.000000  (-0.000001 -0.000177  0.000004)
 21:   1008.47   0.000499    2.52  0.000155  (-0.012409 -0.000001  0.000755)
 22:   1009.47   0.000187    0.95  0.000058  ( 0.001862  0.000001  0.007380)
 23:   1016.42   0.000021    0.11  0.000006  (-0.000003  0.002535 -0.000002)
 24:   1117.08   0.005758   29.10  0.001608  ( 0.000001 -0.040105  0.000000)
 25:   1159.09   0.000044    0.22  0.000012  ( 0.000002  0.003440 -0.000000)
 26:   1183.46   0.000355    1.79  0.000094  ( 0.009673 -0.000004  0.000251)
 27:   1351.31   0.000313    1.58  0.000072  ( 0.000006 -0.008505  0.000001)
 28:   1373.40   0.006523   32.96  0.001482  (-0.000001 -0.038497  0.000002)
 29:   1394.65   0.001048    5.29  0.000234  ( 0.015303 -0.000000  0.000479)
 30:   1473.22   0.001674    8.46  0.000355  ( 0.000004  0.018833 -0.000001)
 31:   1510.11   0.021923  110.79  0.004530  ( 0.067279 -0.000003  0.001974)
 32:   1548.00   0.002075   10.49  0.000418  (-0.000002 -0.020451 -0.000000)
 33:   1615.21   0.030213  152.68  0.005837  ( 0.076367  0.000001  0.002312)
 34:   1633.02   0.024803  125.35  0.004740  ( 0.068817 -0.000002  0.002017)
 35:   3192.28   0.000178    0.90  0.000017  ( 0.004166  0.000002  0.000059)
 36:   3195.15   0.000210    1.06  0.000021  (-0.000001  0.004534  0.000000)
 37:   3201.02   0.001020    5.16  0.000099  (-0.009967  0.000001 -0.000369)
 38:   3208.99   0.000317    1.60  0.000031  (-0.000006  0.005549 -0.000000)
 39:   3215.47   0.000649    3.28  0.000063  ( 0.007933  0.000005  0.000279)
 40:   3512.78   0.088704  448.27  0.007880  ( 0.088729  0.000001  0.002692)
 41:   3625.37   0.033023  166.89  0.002843  ( 0.000003 -0.053316  0.000001)

--------------------------
THERMOCHEMISTRY AT 298.15K
--------------------------

Temperature         ...   298.15 K
Pressure            ...     1.00 atm
Total Mass          ...    93.13 AMU
Quasi RRHO          ...     True
Cut-Off Frequency   ...     1.00 cm^-1

Throughout the following assumptions are being made:
  (1) The electronic state is orbitally nondegenerate
      but the spin degeneracy is treated
  (2) There are no thermally accessible electronically excited states
  (3) Hindered rotations indicated by low frequency modes are not
      treated as such but are treated as vibrations and this may
      cause some error
  (4) All equations used are the standard statistical mechanics
      equations for an ideal gas
  (5) All vibrations are strictly harmonic

freq.     171.36  E(vib)   ...       0.38
freq.     354.26  E(vib)   ...       0.22
freq.     374.56  E(vib)   ...       0.21
freq.     435.33  E(vib)   ...       0.17
freq.     524.53  E(vib)   ...       0.13
freq.     528.52  E(vib)   ...       0.13
freq.     553.37  E(vib)   ...       0.12
freq.     593.24  E(vib)   ...       0.10
freq.     619.77  E(vib)   ...       0.09
freq.     786.69  E(vib)   ...       0.05
freq.     800.39  E(vib)   ...       0.05
freq.     828.25  E(vib)   ...       0.04
freq.     930.87  E(vib)   ...       0.03
freq.     995.95  E(vib)   ...       0.02
freq.     996.79  E(vib)   ...       0.02
freq.    1008.47  E(vib)   ...       0.02
freq.    1009.47  E(vib)   ...       0.02
freq.    1016.42  E(vib)   ...       0.02
freq.    1117.08  E(vib)   ...       0.01
freq.    1159.09  E(vib)   ...       0.01
freq.    1183.46  E(vib)   ...       0.01
freq.    1351.31  E(vib)   ...       0.01
freq.    1373.40  E(vib)   ...       0.01
freq.    1394.65  E(vib)   ...       0.00
freq.    1473.22  E(vib)   ...       0.00
freq.    1510.11  E(vib)   ...       0.00
freq.    1548.00  E(vib)   ...       0.00
freq.    1615.21  E(vib)   ...       0.00
freq.    1633.02  E(vib)   ...       0.00
freq.    3192.28  E(vib)   ...       0.00
freq.    3195.15  E(vib)   ...       0.00
freq.    3201.02  E(vib)   ...       0.00
freq.    3208.99  E(vib)   ...       0.00
freq.    3215.47  E(vib)   ...       0.00
freq.    3512.78  E(vib)   ...       0.00
freq.    3625.37  E(vib)   ...       0.00

------------
INNER ENERGY
------------

The inner energy is: U= E(el) + E(ZPE) + E(vib) + E(rot) + E(trans)
    E(el)   - is the total energy from the electronic structure calculation
              = E(kin-el) + E(nuc-el) + E(el-el) + E(nuc-nuc)
    E(ZPE)  - the the zero temperature vibrational energy from the frequency calculation
    E(vib)  - the the finite temperature correction to E(ZPE) due to population
              of excited vibrational states
    E(rot)  - is the rotational thermal energy
    E(trans)- is the translational thermal energy

Summary of contributions to the inner energy U:
Electronic energy                ...   -287.37989322 Eh
Zero point energy                ...      0.11627279 Eh      72.96 kcal/mol
Thermal vibrational correction   ...      0.00305213 Eh       1.92 kcal/mol
Thermal rotational correction    ...      0.00141627 Eh       0.89 kcal/mol
Thermal translational correction ...      0.00141627 Eh       0.89 kcal/mol
-----------------------------------------------------------------------
Total thermal energy                   -287.25773575 Eh

Summary of corrections to the electronic energy:
(perhaps to be used in another calculation)
Total thermal correction                  0.00588467 Eh       3.69 kcal/mol
Non-thermal (ZPE) correction              0.11627279 Eh      72.96 kcal/mol
-----------------------------------------------------------------------
Total correction                          0.12215746 Eh      76.65 kcal/mol

--------
ENTHALPY
--------

The enthalpy is H = U + kB*T
                kB is Boltzmann's constant
Total thermal energy              ...   -287.25773575 Eh
Thermal Enthalpy correction       ...      0.00094421 Eh       0.59 kcal/mol
-----------------------------------------------------------------------
Total Enthalpy                    ...   -287.25679155 Eh

Note: Rotational entropy computed according to Herzberg
Infrared and Raman Spectra, Chapter V,1, Van Nostrand Reinhold, 1945
Point Group:  Cs, Symmetry Number:   1
Rotational constants in cm-1:     0.181206     0.090427     0.060324

Vibrational entropy computed according to the QRRHO of S. Grimme
Chem.Eur.J. 2012 18 9955 using a reference frequency of 100.0 cm-1

-------
ENTROPY
-------

The entropy contributions are T*S = T*(S(el)+S(vib)+S(rot)+S(trans))
     S(el)   - electronic entropy
     S(vib)  - vibrational entropy
     S(rot)  - rotational entropy
     S(trans)- translational entropy
The entropies will be listed as multiplied by the temperature to get
units of energy

Electronic entropy                ...      0.00065446 Eh      0.41 kcal/mol
Vibrational entropy               ...      0.00452729 Eh      2.84 kcal/mol
Rotational entropy                ...      0.01277738 Eh      8.02 kcal/mol
Translational entropy             ...      0.01877043 Eh     11.78 kcal/mol
-----------------------------------------------------------------------
Final entropy term                ...      0.03672955 Eh     23.05 kcal/mol

In case the symmetry of your molecule has not been determined correctly
or in case you have a reason to use a different symmetry number we print
out the resulting rotational entropy values for sn=1,12:

 non-linear molecules -----------------------------------
|  sn= 1 | S(rot)=       0.01277738 Eh      8.02 kcal/mol|
|  sn= 2 | S(rot)=       0.01212292 Eh      7.61 kcal/mol|
|  sn= 3 | S(rot)=       0.01174009 Eh      7.37 kcal/mol|
|  sn= 4 | S(rot)=       0.01146846 Eh      7.20 kcal/mol|
|  sn= 5 | S(rot)=       0.01125777 Eh      7.06 kcal/mol|
|  sn= 6 | S(rot)=       0.01108563 Eh      6.96 kcal/mol|
|  sn= 7 | S(rot)=       0.01094008 Eh      6.86 kcal/mol|
|  sn= 8 | S(rot)=       0.01081401 Eh      6.79 kcal/mol|
|  sn= 9 | S(rot)=       0.01070280 Eh      6.72 kcal/mol|
|  sn=10 | S(rot)=       0.01060332 Eh      6.65 kcal/mol|
|  sn=11 | S(rot)=       0.01051333 Eh      6.60 kcal/mol|
|  sn=12 | S(rot)=       0.01043117 Eh      6.55 kcal/mol|
 linear molecules ---------------------------------------
|  Dinfh | S(rot)=       0.00797709 Eh      5.01 kcal/mol|
|  Cinfv | S(rot)=       0.00863155 Eh      5.42 kcal/mol|
 --------------------------------------------------------

-------------------
GIBBS FREE ENERGY
-------------------

The Gibbs free energy is G = H - T*S

Total enthalpy                    ...   -287.25679155 Eh
Total entropy correction          ...     -0.03672955 Eh    -23.05 kcal/mol
-----------------------------------------------------------------------
Final Gibbs free energy         ...   -287.29352109 Eh

                             ****ORCA TERMINATED NORMALLY****
TOTAL RUN TIME: 0 days 0 hours 22 minutes 7 seconds 734 msec
