                         Program Version 6.0.0  -   RELEASE  -
|  1> !r2SCANh aug-cc-pVTZ d3 TightSCF SlowConv RIJCOSX defgrid2
|  2>
|  3> %pal
|  4> nprocs 4
|  5> end
|  6>
|  7> %scf
|  8> MaxIter 1500
|  9> end
| 10>
| 11> %maxcore 3000
| 12>
| 13> !CPCM
| 14> %cpcm smd true
| 15> SMDsolvent "MeCN"
| 16> surfacetype gepol_ses
| 17> rsolv 2.19
| 18> end
| 19>
| 20> * xyz 1 2
| 21>   C           0.32102019331516     -1.19542386061728     -0.14148513269053
| 22>   N           1.10243703742587      0.00016587284657     -0.03493498389965
| 23>   H           2.12790837562502      0.00032492444948     -0.06391998039902
| 24>   C           0.32776853288643      1.19559735299303      0.11419545489126
| 25>   C          -1.10184122089178      0.73960306514008     -0.17705770971163
| 26>   C          -1.09090160245375     -0.73957390726683      0.22597738884058
| 27>   H          -1.24513402062308     -0.85614376606510      1.31228662008834
| 28>   H          -1.86247558532270     -1.33277654839199     -0.28577641973945
| 29>   H          -1.84489899623950      1.33262955312356      0.37546884555940
| 30>   H          -1.31417979146215      0.85631071138639     -1.25352523011859
| 31>   H           0.74060448118867      2.00031005458115     -0.52340635871813
| 32>   H           0.46483350827758      1.54453868347447      1.16584085187759
| 33>   H           0.40187216908273     -1.54535148914433     -1.19859107684141
| 34>   H           0.76758011919150     -1.99962684650920      0.47372433086124
| 35> *
| 36>
| 37>                          ****END OF INPUT****

CARTESIAN COORDINATES (ANGSTROEM)
---------------------------------
  C      0.321020   -1.195424   -0.141485
  N      1.102437    0.000166   -0.034935
  H      2.127908    0.000325   -0.063920
  C      0.327769    1.195597    0.114195
  C     -1.101841    0.739603   -0.177058
  C     -1.090902   -0.739574    0.225977
  H     -1.245134   -0.856144    1.312287
  H     -1.862476   -1.332777   -0.285776
  H     -1.844899    1.332630    0.375469
  H     -1.314180    0.856311   -1.253525
  H      0.740604    2.000310   -0.523406
  H      0.464834    1.544539    1.165841
  H      0.401872   -1.545351   -1.198591
  H      0.767580   -1.999627    0.473724

 Total Charge           Charge          ....    1
 Multiplicity           Mult            ....    2
 Number of Electrons    NEL             ....   39
 Basis Dimension        Dim             ....  437

ORBITAL ENERGIES
----------------
                 SPIN UP ORBITALS
  NO   OCC          E(Eh)            E(eV)
   0   1.0000     -14.441299      -392.9677
   1   1.0000     -10.222021      -278.1553
   2   1.0000     -10.221920      -278.1526
   3   1.0000     -10.173002      -276.8214
   4   1.0000     -10.172823      -276.8166
   5   1.0000      -1.023814       -27.8594
   6   1.0000      -0.802749       -21.8439
   7   1.0000      -0.773233       -21.0407
   8   1.0000      -0.634490       -17.2653
   9   1.0000      -0.612650       -16.6711
  10   1.0000      -0.569889       -15.5075
  11   1.0000      -0.532316       -14.4851
  12   1.0000      -0.458885       -12.4869
  13   1.0000      -0.443062       -12.0563
  14   1.0000      -0.424156       -11.5419
  15   1.0000      -0.418322       -11.3831
  16   1.0000      -0.367233        -9.9929
  17   1.0000      -0.361295        -9.8313
  18   1.0000      -0.332295        -9.0422
  19   1.0000      -0.306269        -8.3340
  20   0.0000       0.007957         0.2165
  21   0.0000       0.028430         0.7736
  22   0.0000       0.028507         0.7757
  23   0.0000       0.032025         0.8715
  24   0.0000       0.047706         1.2982

                 SPIN DOWN ORBITALS
  NO   OCC          E(Eh)            E(eV)
   0   1.0000     -14.418973      -392.3602
   1   1.0000     -10.222450      -278.1670
   2   1.0000     -10.222347      -278.1642
   3   1.0000     -10.172894      -276.8185
   4   1.0000     -10.172714      -276.8136
   5   1.0000      -0.986810       -26.8525
   6   1.0000      -0.791787       -21.5456
   7   1.0000      -0.770521       -20.9669
   8   1.0000      -0.624348       -16.9894
   9   1.0000      -0.609905       -16.5964
  10   1.0000      -0.559818       -15.2334
  11   1.0000      -0.505414       -13.7530
  12   1.0000      -0.441924       -12.0254
  13   1.0000      -0.432142       -11.7592
  14   1.0000      -0.414563       -11.2808
  15   1.0000      -0.401495       -10.9252
  16   1.0000      -0.366280        -9.9670
  17   1.0000      -0.359729        -9.7887
  18   1.0000      -0.328706        -8.9445
  19   0.0000      -0.167941        -4.5699
  20   0.0000       0.011136         0.3030
  21   0.0000       0.030414         0.8276
  22   0.0000       0.031014         0.8439
  23   0.0000       0.033545         0.9128

MULLIKEN ATOMIC CHARGES AND SPIN POPULATIONS
--------------------------------------------
   0 C :   -0.237652   -0.049764
   1 N :    0.056921    0.847700
   2 H :    0.161363   -0.023455
   3 C :   -0.240343   -0.050324
   4 C :   -0.232995    0.003567
   5 C :   -0.236123    0.003197
   6 H :    0.146629    0.002810
   7 H :    0.219014   -0.004008
   8 H :    0.219005   -0.003964
   9 H :    0.146642    0.002764
  10 H :    0.283081    0.036248
  11 H :    0.216067    0.099410
  12 H :    0.215949    0.099276
  13 H :    0.282441    0.036543
Sum of atomic charges         :    1.0000000

LOEWDIN ATOMIC CHARGES AND SPIN POPULATIONS
-------------------------------------------
   0 C :    0.295801    0.122015
   1 N :    0.714154    0.542384
   2 H :   -0.137160    0.067918
   3 C :    0.295598    0.121906
   4 C :    0.329717    0.005165
   5 C :    0.329787    0.005110
   6 H :   -0.121982    0.001176
   7 H :   -0.120122   -0.000436
   8 H :   -0.120282   -0.000428
   9 H :   -0.121758    0.001184
  10 H :   -0.090469    0.023473
  11 H :   -0.081503    0.043460
  12 H :   -0.081302    0.043474
  13 H :   -0.090480    0.023598

  Mayer bond orders larger than 0.100000
B(  0-C ,  1-N ) :   0.8826 B(  0-C ,  5-C ) :   0.8860 B(  0-C , 12-H ) :   0.9124
B(  0-C , 13-H ) :   0.8863 B(  1-N ,  2-H ) :   0.9910 B(  1-N ,  3-C ) :   0.8811
B(  3-C ,  4-C ) :   0.8856 B(  3-C , 10-H ) :   0.8870 B(  3-C , 11-H ) :   0.9128
B(  4-C ,  5-C ) :   0.8861 B(  4-C ,  8-H ) :   0.9572 B(  4-C ,  9-H ) :   0.9994
B(  5-C ,  6-H ) :   0.9989 B(  5-C ,  7-H ) :   0.9580

Dispersion correction           -0.002951631
FINAL SINGLE POINT ENERGY      -212.344984674139

DIPOLE MOMENT
-------------

Method             : SCF
Type of density    : Electron Density
Multiplicity       :   2
Irrep              :   0
Energy             :  -212.3420330435267545 Eh
Relativity type    :
Basis              : AO
                                X                 Y                 Z
Electronic contribution:      2.526467083      -0.001026015      -0.071929252
Nuclear contribution   :     -1.068975804      -0.000388057       0.028795519
                        -----------------------------------------
Total Dipole Moment    :      1.457491280      -0.001414071      -0.043133733
                        -----------------------------------------
Magnitude (a.u.)       :      1.458130087
Magnitude (Debye)      :      3.706272138

Rotational constants in cm-1:             0.231930             0.228924             0.129807
Rotational constants in MHz :          6953.078056          6862.972212          3891.510295

                             ****ORCA TERMINATED NORMALLY****
TOTAL RUN TIME: 0 days 0 hours 2 minutes 15 seconds 6 msec
