                         Program Version 6.0.0  -   RELEASE  -
|  1> !r2SCAN aug-cc-pVTZ d3 TightSCF SlowConv RIJCOSX defgrid2
|  2>
|  3> %pal
|  4> nprocs 4
|  5> end
|  6>
|  7> %scf
|  8> MaxIter 1500
|  9> end
| 10>
| 11> %maxcore 3000
| 12>
| 13> !CPCM
| 14> %cpcm smd true
| 15> SMDsolvent "MeCN"
| 16> surfacetype gepol_ses
| 17> rsolv 2.19
| 18> end
| 19>
| 20> * xyz 0 1
| 21> C           0.40935129847802      1.08899379791713      0.00000384882955
| 22> C          -0.95414231914494      1.32182421750193     -0.00005479572869
| 23> C          -1.86191827278499      0.25058964600211     -0.00004533890107
| 24> C          -1.36726530595103     -1.05641439163641      0.00003006046824
| 25> C           0.01094866022683     -1.27206289524966      0.00008922357585
| 26> C           0.93266713804439     -0.21888039966857      0.00007056076766
| 27> C           2.36684587509692     -0.51767487067035      0.00011575273336
| 28> C           3.38823314543713      0.35348849766597     -0.00001970079058
| 29> C           4.83064699015196     -0.03004243326080      0.00003449739731
| 30> H           5.35509581894080      0.37601378760975      0.88589322236429
| 31> H           5.35507929274862      0.37569721298307     -0.88597947614651
| 32> H           4.95899131799363     -1.12576664862183      0.00022846182052
| 33> H           3.17744825013090      1.43140986160214     -0.00019422021756
| 34> H           2.61115235789035     -1.58907062561958      0.00027211184136
| 35> H           0.38207444452641     -2.30220823516234      0.00014522513242
| 36> H          -2.04052486898389     -1.91563792247486      0.00004498692024
| 37> O          -3.17027495143014      0.57656429320608     -0.00011215197676
| 38> C          -4.11930600301544     -0.44976592613539     -0.00015689920679
| 39> H          -4.03333715560747     -1.08818765451818      0.90051262849554
| 40> H          -4.03319357489107     -1.08823722923544     -0.90077688540648
| 41> H          -5.10638730092634      0.03650069307204     -0.00024757936562
| 42> H          -1.35570411969921      2.33832899797413     -0.00010924060884
| 43> H           1.08732328276855      1.94703382671904     -0.00000059199744
| 44> *
| 45>
| 46>                          ****END OF INPUT****

CARTESIAN COORDINATES (ANGSTROEM)
---------------------------------
  C      0.409351    1.088994    0.000004
  C     -0.954142    1.321824   -0.000055
  C     -1.861918    0.250590   -0.000045
  C     -1.367265   -1.056414    0.000030
  C      0.010949   -1.272063    0.000089
  C      0.932667   -0.218880    0.000071
  C      2.366846   -0.517675    0.000116
  C      3.388233    0.353488   -0.000020
  C      4.830647   -0.030042    0.000034
  H      5.355096    0.376014    0.885893
  H      5.355079    0.375697   -0.885979
  H      4.958991   -1.125767    0.000228
  H      3.177448    1.431410   -0.000194
  H      2.611152   -1.589071    0.000272
  H      0.382074   -2.302208    0.000145
  H     -2.040525   -1.915638    0.000045
  O     -3.170275    0.576564   -0.000112
  C     -4.119306   -0.449766   -0.000157
  H     -4.033337   -1.088188    0.900513
  H     -4.033194   -1.088237   -0.900777
  H     -5.106387    0.036501   -0.000248
  H     -1.355704    2.338329   -0.000109
  H      1.087323    1.947034   -0.000001

 Total Charge           Charge          ....    0
 Multiplicity           Mult            ....    1
 Number of Electrons    NEL             ....   80
 Basis Dimension        Dim             ....  782

ORBITAL ENERGIES
----------------

  NO   OCC          E(Eh)            E(eV)
   0   2.0000     -18.993135      -516.8295
   1   2.0000     -10.100004      -274.8351
   2   2.0000     -10.078472      -274.2492
   3   2.0000     -10.045035      -273.3393
   4   2.0000     -10.041184      -273.2345
   5   2.0000     -10.040560      -273.2175
   6   2.0000     -10.037750      -273.1411
   7   2.0000     -10.037458      -273.1331
   8   2.0000     -10.036144      -273.0974
   9   2.0000     -10.033584      -273.0277
  10   2.0000     -10.026776      -272.8425
  11   2.0000      -1.043036       -28.3824
  12   2.0000      -0.825600       -22.4657
  13   2.0000      -0.764301       -20.7977
  14   2.0000      -0.724421       -19.7125
  15   2.0000      -0.713888       -19.4259
  16   2.0000      -0.672418       -18.2974
  17   2.0000      -0.630248       -17.1499
  18   2.0000      -0.580100       -15.7853
  19   2.0000      -0.559386       -15.2217
  20   2.0000      -0.514703       -14.0058
  21   2.0000      -0.501003       -13.6330
  22   2.0000      -0.454396       -12.3647
  23   2.0000      -0.449899       -12.2424
  24   2.0000      -0.434820       -11.8321
  25   2.0000      -0.411924       -11.2090
  26   2.0000      -0.392360       -10.6767
  27   2.0000      -0.386482       -10.5167
  28   2.0000      -0.375860       -10.2277
  29   2.0000      -0.371561       -10.1107
  30   2.0000      -0.363847        -9.9008
  31   2.0000      -0.356172        -9.6919
  32   2.0000      -0.330520        -8.9939
  33   2.0000      -0.318787        -8.6746
  34   2.0000      -0.308321        -8.3898
  35   2.0000      -0.308003        -8.3812
  36   2.0000      -0.290150        -7.8954
  37   2.0000      -0.250157        -6.8071
  38   2.0000      -0.240870        -6.5544
  39   2.0000      -0.187425        -5.1001
  40   0.0000      -0.053090        -1.4447
  41   0.0000      -0.038374        -1.0442
  42   0.0000       0.006998         0.1904
  43   0.0000       0.018037         0.4908
  44   0.0000       0.021001         0.5715

MULLIKEN ATOMIC CHARGES
-----------------------
   0 C :   -0.492565
   1 C :   -1.131511
   2 C :    1.249730
   3 C :   -0.346414
   4 C :   -0.889066
   5 C :    2.089169
   6 C :   -0.104695
   7 C :   -0.074297
   8 C :   -0.860016
   9 H :    0.148400
  10 H :    0.147675
  11 H :    0.249687
  12 H :    0.159230
  13 H :   -0.085249
  14 H :   -0.124623
  15 H :    0.401383
  16 O :   -0.731123
  17 C :   -0.663680
  18 H :    0.264006
  19 H :    0.264420
  20 H :    0.222237
  21 H :    0.522128
  22 H :   -0.214825
Sum of atomic charges:    0.0000000

LOEWDIN ATOMIC CHARGES
----------------------
   0 C :    0.196132
   1 C :    0.203976
   2 C :   -0.405240
   3 C :    0.205148
   4 C :    0.193766
   5 C :   -0.159721
   6 C :    0.190279
   7 C :    0.191800
   8 C :    0.547404
   9 H :   -0.165810
  10 H :   -0.165779
  11 H :   -0.175429
  12 H :   -0.186452
  13 H :   -0.185781
  14 H :   -0.166790
  15 H :   -0.189693
  16 O :    0.592029
  17 C :    0.322915
  18 H :   -0.160832
  19 H :   -0.160865
  20 H :   -0.169552
  21 H :   -0.171104
  22 H :   -0.180403

  Mayer bond orders larger than 0.100000
B(  0-C ,  1-C ) :   0.7636 B(  0-C ,  2-C ) :  -0.3550 B(  0-C ,  3-C ) :  -0.5107
B(  0-C ,  4-C ) :  -0.8566 B(  0-C ,  5-C ) :   0.2372 B(  0-C ,  6-C ) :   0.3475
B(  0-C , 12-H ) :  -0.1096 B(  0-C , 15-H ) :   0.1791 B(  0-C , 21-H ) :   0.1397
B(  0-C , 22-H ) :   1.7728 B(  1-C ,  2-C ) :   0.7260 B(  1-C ,  3-C ) :   0.3814
B(  1-C ,  5-C ) :   0.2667 B(  1-C ,  6-C ) :   0.1002 B(  1-C ,  7-C ) :  -0.1448
B(  1-C , 14-H ) :  -0.1374 B(  1-C , 16-O ) :   0.3700 B(  1-C , 21-H ) :   0.2347
B(  1-C , 22-H ) :  -0.2262 B(  2-C ,  3-C ) :   0.9768 B(  2-C ,  4-C ) :  -0.3865
B(  2-C ,  5-C ) :   0.1276 B(  2-C , 15-H ) :   0.1997 B(  2-C , 16-O ) :   0.1289
B(  2-C , 21-H ) :   0.1530 B(  3-C ,  4-C ) :   0.5491 B(  3-C ,  5-C ) :   0.3523
B(  3-C , 14-H ) :  -0.2263 B(  3-C , 15-H ) :   0.3135 B(  3-C , 16-O ) :  -0.1207
B(  3-C , 17-C ) :  -0.1369 B(  3-C , 22-H ) :  -0.1565 B(  4-C ,  5-C ) :  -0.1919
B(  4-C ,  7-C ) :   0.1972 B(  4-C , 13-H ) :  -0.1310 B(  4-C , 14-H ) :   1.8599
B(  4-C , 21-H ) :   0.1132 B(  5-C ,  7-C ) :  -0.2207 B(  5-C , 12-H ) :  -0.1615
B(  5-C , 14-H ) :  -0.4106 B(  5-C , 22-H ) :  -0.3886 B(  6-C ,  7-C ) :   1.0298
B(  6-C , 13-H ) :   1.3153 B(  6-C , 14-H ) :  -0.1175 B(  7-C ,  8-C ) :   0.4988
B(  7-C ,  9-H ) :  -0.1025 B(  7-C , 10-H ) :  -0.1024 B(  7-C , 12-H ) :   1.3364
B(  7-C , 13-H ) :  -0.1804 B(  8-C ,  9-H ) :   1.0882 B(  8-C , 10-H ) :   1.0887
B(  8-C , 11-H ) :   0.9290 B(  8-C , 12-H ) :  -0.2168 B( 14-H , 22-H ) :   0.2903
B( 15-H , 17-C ) :  -0.1216 B( 16-O , 17-C ) :   1.0551 B( 17-C , 18-H ) :   0.9083
B( 17-C , 19-H ) :   0.9080 B( 17-C , 20-H ) :   0.9903

Dispersion correction           -0.006958255
FINAL SINGLE POINT ENERGY      -463.404777832400

DIPOLE MOMENT
-------------

Method             : SCF
Type of density    : Electron Density
Multiplicity       :   1
Irrep              :   0
Energy             :  -463.3978195770628759 Eh
Relativity type    :
Basis              : AO
                                X                 Y                 Z
Electronic contribution:     -6.312575805       1.974523516      -0.000187818
Nuclear contribution   :      5.966707221      -2.452424409      -0.000108664
                        -----------------------------------------
Total Dipole Moment    :     -0.345868583      -0.477900893      -0.000296483
                        -----------------------------------------
Magnitude (a.u.)       :      0.589927477
Magnitude (Debye)      :      1.499476482

Rotational constants in cm-1:             0.150473             0.015230             0.013903
Rotational constants in MHz :          4511.057217           456.578337           416.814518

                             ****ORCA TERMINATED NORMALLY****
TOTAL RUN TIME: 0 days 0 hours 3 minutes 51 seconds 74 msec
