                         Program Version 6.0.0  -   RELEASE  -
|  1> !B3LYP aug-cc-pVTZ d3 TightSCF SlowConv RIJCOSX defgrid2
|  2>
|  3> %pal
|  4> nprocs 4
|  5> end
|  6>
|  7> %scf
|  8> MaxIter 1500
|  9> end
| 10>
| 11> %maxcore 3000
| 12>
| 13> !CPCM
| 14> %cpcm smd true
| 15> SMDsolvent "MeCN"
| 16> surfacetype gepol_ses
| 17> rsolv 2.19
| 18> end
| 19>
| 20> * xyz 0 1
| 21> C          -1.26495799748714      1.18303865458515      0.05080403605519
| 22> C          -2.60642333061191      1.31935448376271     -0.29959738324645
| 23> C          -3.44041280440145      0.20926539307814     -0.40161517964085
| 24> C          -2.90144082973563     -1.04973716221060     -0.13432170008440
| 25> C          -1.56825148928729     -1.19660014660261      0.22866378768858
| 26> C          -0.70934318580896     -0.08154664486827      0.33051202673951
| 27> N           0.61300953805947     -0.24105226876837      0.73119077146847
| 28> C           1.39986976374892     -1.37999096255953      0.29877427512661
| 29> H           2.04607670863121     -1.70992958583228      1.13451664570021
| 30> H           0.75114664396039     -2.22334685848636      0.02620697927589
| 31> C           2.27342120561242     -0.99223084807636     -0.89055156639513
| 32> H           1.61932266943223     -0.77011165873748     -1.76181164136710
| 33> H           2.95180872338646     -1.81692724050040     -1.16544343627529
| 34> O           3.08315300113024      0.11581273484299     -0.59570720798542
| 35> C           2.32868138086657      1.23424748204123     -0.20294123693064
| 36> H           3.04807602292032      2.03579294537700      0.03304751449273
| 37> H           1.68319853015679      1.57652212178956     -1.04065762734244
| 38> C           1.46842283993869      0.89253788749959      1.00660143146740
| 39> H           0.87499689376841      1.75339469243703      1.34646905231102
| 40> H           2.14234577335657      0.61412921846987      1.83973084130833
| 41> H          -1.19667964735529     -2.19528020638703      0.46959053777193
| 42> H          -3.53417239713040     -1.94099462889459     -0.19414702188547
| 43> H          -4.49070441202665      0.32074363292367     -0.68354523209589
| 44> H          -2.99695664778230      2.31986039355180     -0.51119940816597
| 45> H          -0.64456005334168      2.08028887156514      0.08361514200918
| 46> *
| 47>
| 48>                          ****END OF INPUT****

CARTESIAN COORDINATES (ANGSTROEM)
---------------------------------
  C     -1.264958    1.183039    0.050804
  C     -2.606423    1.319354   -0.299597
  C     -3.440413    0.209265   -0.401615
  C     -2.901441   -1.049737   -0.134322
  C     -1.568251   -1.196600    0.228664
  C     -0.709343   -0.081547    0.330512
  N      0.613010   -0.241052    0.731191
  C      1.399870   -1.379991    0.298774
  H      2.046077   -1.709930    1.134517
  H      0.751147   -2.223347    0.026207
  C      2.273421   -0.992231   -0.890552
  H      1.619323   -0.770112   -1.761812
  H      2.951809   -1.816927   -1.165443
  O      3.083153    0.115813   -0.595707
  C      2.328681    1.234247   -0.202941
  H      3.048076    2.035793    0.033048
  H      1.683199    1.576522   -1.040658
  C      1.468423    0.892538    1.006601
  H      0.874997    1.753395    1.346469
  H      2.142346    0.614129    1.839731
  H     -1.196680   -2.195280    0.469591
  H     -3.534172   -1.940995   -0.194147
  H     -4.490704    0.320744   -0.683545
  H     -2.996957    2.319860   -0.511199
  H     -0.644560    2.080289    0.083615

 Total Charge           Charge          ....    0
 Multiplicity           Mult            ....    1
 Number of Electrons    NEL             ....   88
 Basis Dimension        Dim             ....  851

ORBITAL ENERGIES
----------------

  NO   OCC          E(Eh)            E(eV)
   0   2.0000     -19.130585      -520.5697
   1   2.0000     -14.327359      -389.8673
   2   2.0000     -10.215318      -277.9729
   3   2.0000     -10.211046      -277.8567
   4   2.0000     -10.210975      -277.8548
   5   2.0000     -10.195403      -277.4310
   6   2.0000     -10.194583      -277.4087
   7   2.0000     -10.171986      -276.7938
   8   2.0000     -10.171948      -276.7928
   9   2.0000     -10.166275      -276.6384
  10   2.0000     -10.166074      -276.6329
  11   2.0000     -10.162011      -276.5224
  12   2.0000      -1.047154       -28.4945
  13   2.0000      -0.946307       -25.7503
  14   2.0000      -0.843105       -22.9421
  15   2.0000      -0.771282       -20.9877
  16   2.0000      -0.749903       -20.4059
  17   2.0000      -0.739158       -20.1135
  18   2.0000      -0.677376       -18.4323
  19   2.0000      -0.657700       -17.8969
  20   2.0000      -0.606974       -16.5166
  21   2.0000      -0.594042       -16.1647
  22   2.0000      -0.559668       -15.2294
  23   2.0000      -0.527815       -14.3626
  24   2.0000      -0.487660       -13.2699
  25   2.0000      -0.476887       -12.9768
  26   2.0000      -0.471231       -12.8229
  27   2.0000      -0.464559       -12.6413
  28   2.0000      -0.456791       -12.4299
  29   2.0000      -0.434585       -11.8256
  30   2.0000      -0.426891       -11.6163
  31   2.0000      -0.414668       -11.2837
  32   2.0000      -0.403915       -10.9911
  33   2.0000      -0.387374       -10.5410
  34   2.0000      -0.369524       -10.0553
  35   2.0000      -0.360958        -9.8222
  36   2.0000      -0.353382        -9.6160
  37   2.0000      -0.348748        -9.4899
  38   2.0000      -0.328647        -8.9430
  39   2.0000      -0.320354        -8.7173
  40   2.0000      -0.290828        -7.9138
  41   2.0000      -0.261533        -7.1167
  42   2.0000      -0.253415        -6.8958
  43   2.0000      -0.190278        -5.1777
  44   0.0000      -0.011827        -0.3218
  45   0.0000      -0.003977        -0.1082
  46   0.0000       0.000354         0.0096
  47   0.0000       0.008283         0.2254
  48   0.0000       0.011097         0.3020

MULLIKEN ATOMIC CHARGES
-----------------------
   0 C :   -0.375991
   1 C :   -0.881978
   2 C :   -0.567371
   3 C :   -0.667220
   4 C :   -0.804039
   5 C :    1.852955
   6 N :    0.026561
   7 C :   -0.588107
   8 H :    0.203821
   9 H :    0.218494
  10 C :   -0.075479
  11 H :    0.193005
  12 H :    0.259578
  13 O :   -0.758364
  14 C :   -0.028076
  15 H :    0.299992
  16 H :    0.220960
  17 C :   -0.690011
  18 H :    0.144361
  19 H :    0.184580
  20 H :    0.283970
  21 H :    0.394011
  22 H :    0.522821
  23 H :    0.365952
  24 H :    0.265574
Sum of atomic charges:    0.0000000

LOEWDIN ATOMIC CHARGES
----------------------
   0 C :    0.206860
   1 C :    0.169471
   2 C :    0.162507
   3 C :    0.168207
   4 C :    0.207622
   5 C :   -0.215765
   6 N :    0.274665
   7 C :    0.187363
   8 H :   -0.117943
   9 H :   -0.159529
  10 C :    0.031614
  11 H :   -0.131356
  12 H :   -0.140455
  13 O :    0.593209
  14 C :    0.029505
  15 H :   -0.139193
  16 H :   -0.135329
  17 C :    0.175946
  18 H :   -0.150063
  19 H :   -0.121351
  20 H :   -0.182408
  21 H :   -0.170359
  22 H :   -0.181273
  23 H :   -0.170075
  24 H :   -0.191869

  Mayer bond orders larger than 0.100000
B(  0-C ,  1-C ) :   0.9968 B(  0-C ,  2-C ) :   0.2305 B(  0-C ,  5-C ) :   0.5117
B(  0-C ,  6-N ) :  -0.2733 B(  0-C , 24-H ) :   0.8635 B(  1-C ,  2-C ) :   1.2663
B(  1-C ,  5-C ) :  -0.3005 B(  1-C , 23-H ) :   0.7603 B(  2-C ,  3-C ) :   1.1837
B(  2-C ,  4-C ) :   0.2073 B(  2-C ,  5-C ) :  -0.1892 B(  2-C , 22-H ) :   0.5057
B(  3-C ,  4-C ) :   1.2120 B(  3-C ,  5-C ) :  -0.2714 B(  3-C , 21-H ) :   0.7452
B(  4-C ,  5-C ) :   0.3182 B(  4-C , 20-H ) :   0.8229 B(  5-C ,  6-N ) :   0.3184
B(  5-C ,  7-C ) :  -0.1469 B(  6-N ,  7-C ) :   1.0233 B(  6-N , 17-C ) :   1.0282
B(  7-C ,  8-H ) :   0.9981 B(  7-C ,  9-H ) :   0.9373 B(  7-C , 10-C ) :   0.9785
B(  7-C , 13-O ) :   0.1323 B(  7-C , 17-C ) :   0.2218 B( 10-C , 11-H ) :   0.9904
B( 10-C , 12-H ) :   0.9382 B( 10-C , 13-O ) :   0.8252 B( 13-O , 14-C ) :   0.7785
B( 13-O , 17-C ) :   0.1360 B( 14-C , 15-H ) :   0.9160 B( 14-C , 16-H ) :   1.0008
B( 14-C , 17-C ) :   0.9111 B( 17-C , 18-H ) :   1.0437 B( 17-C , 19-H ) :   0.9530

Dispersion correction           -0.047628364
FINAL SINGLE POINT ENERGY      -518.770102876086

DIPOLE MOMENT
-------------

Method             : SCF
Type of density    : Electron Density
Multiplicity       :   1
Irrep              :   0
Energy             :  -518.7224745121135356 Eh
Relativity type    :
Basis              : AO
                                X                 Y                 Z
Electronic contribution:     -1.891324756      -0.097992372       0.510753681
Nuclear contribution   :      2.172114398       0.028135231      -0.411191187
                        -----------------------------------------
Total Dipole Moment    :      0.280789642      -0.069857140       0.099562495
                        -----------------------------------------
Magnitude (a.u.)       :      0.305999238
Magnitude (Debye)      :      0.777788251

Rotational constants in cm-1:             0.074060             0.019927             0.017479
Rotational constants in MHz :          2220.259535           597.392551           524.016525

                             ****ORCA TERMINATED NORMALLY****
TOTAL RUN TIME: 0 days 0 hours 7 minutes 15 seconds 960 msec
