                         Program Version 6.0.0  -   RELEASE  -
|  1> !r2SCANh aug-cc-pVTZ d3 TightSCF SlowConv RIJCOSX defgrid2
|  2>
|  3> %pal
|  4> nprocs 4
|  5> end
|  6>
|  7> %scf
|  8> MaxIter 1500
|  9> end
| 10>
| 11> %maxcore 3000
| 12>
| 13> !CPCM
| 14> %cpcm smd true
| 15> SMDsolvent "MeCN"
| 16> surfacetype gepol_ses
| 17> rsolv 2.19
| 18> end
| 19>
| 20> * xyz 1 2
| 21> C           0.96002552011709     -1.32253975774944      0.00002107203161
| 22> C           2.30946577689281     -1.05292578484351     -0.00001183018851
| 23> C           2.75162476164071      0.28756052755572     -0.00002650301661
| 24> C           1.83902538005307      1.36187223575537     -0.00000118304244
| 25> C           0.48711647576379      1.10797066538425      0.00002893131122
| 26> C           0.02041417697925     -0.24724272024865      0.00003631726405
| 27> C          -1.36049677571781     -0.55035510408661      0.00004151636512
| 28> N          -2.24435922885682      0.43165315940707      0.00003462017491
| 29> O          -3.46568256477989     -0.02410885729296      0.00002059528734
| 30> H          -4.06414072403569      0.75247060999126      0.00003013023410
| 31> H          -1.71241527206750     -1.59215357045924      0.00004127844656
| 32> H          -0.24324441524782      1.92013568517355      0.00004228420146
| 33> H           2.20910910746605      2.39016696582870     -0.00001172730682
| 34> H           3.82614866589464      0.49606739820897     -0.00005739041351
| 35> H           3.03863533465800     -1.86708723654366     -0.00002808352063
| 36> H           0.59646668124012     -2.35410821608081      0.00003057217215
| 37> *
| 38>
| 39>                          ****END OF INPUT****

CARTESIAN COORDINATES (ANGSTROEM)
---------------------------------
  C      0.960026   -1.322540    0.000021
  C      2.309466   -1.052926   -0.000012
  C      2.751625    0.287561   -0.000027
  C      1.839025    1.361872   -0.000001
  C      0.487116    1.107971    0.000029
  C      0.020414   -0.247243    0.000036
  C     -1.360497   -0.550355    0.000042
  N     -2.244359    0.431653    0.000035
  O     -3.465683   -0.024109    0.000021
  H     -4.064141    0.752471    0.000030
  H     -1.712415   -1.592154    0.000041
  H     -0.243244    1.920136    0.000042
  H      2.209109    2.390167   -0.000012
  H      3.826149    0.496067   -0.000057
  H      3.038635   -1.867087   -0.000028
  H      0.596467   -2.354108    0.000031

 Total Charge           Charge          ....    1
 Multiplicity           Mult            ....    2
 Number of Electrons    NEL             ....   63
 Basis Dimension        Dim             ....  575

ORBITAL ENERGIES
----------------
                 SPIN UP ORBITALS
  NO   OCC          E(Eh)            E(eV)
   0   1.0000     -19.250093      -523.8217
   1   1.0000     -14.436092      -392.8260
   2   1.0000     -10.253544      -279.0131
   3   1.0000     -10.239704      -278.6365
   4   1.0000     -10.223200      -278.1874
   5   1.0000     -10.213555      -277.9249
   6   1.0000     -10.212279      -277.8902
   7   1.0000     -10.200035      -277.5571
   8   1.0000     -10.197441      -277.4865
   9   1.0000      -1.205890       -32.8139
  10   1.0000      -0.936937       -25.4954
  11   1.0000      -0.893817       -24.3220
  12   1.0000      -0.803375       -21.8609
  13   1.0000      -0.789922       -21.4949
  14   1.0000      -0.693267       -18.8648
  15   1.0000      -0.644915       -17.5490
  16   1.0000      -0.614983       -16.7345
  17   1.0000      -0.580295       -15.7906
  18   1.0000      -0.550880       -14.9902
  19   1.0000      -0.515974       -14.0404
  20   1.0000      -0.510911       -13.9026
  21   1.0000      -0.487507       -13.2657
  22   1.0000      -0.466311       -12.6890
  23   1.0000      -0.447491       -12.1768
  24   1.0000      -0.441885       -12.0243
  25   1.0000      -0.421617       -11.4728
  26   1.0000      -0.378377       -10.2962
  27   1.0000      -0.366602        -9.9757
  28   1.0000      -0.349239        -9.5033
  29   1.0000      -0.326826        -8.8934
  30   1.0000      -0.295212        -8.0331
  31   1.0000      -0.282565        -7.6890
  32   0.0000      -0.128192        -3.4883
  33   0.0000      -0.058273        -1.5857
  34   0.0000      -0.023840        -0.6487
  35   0.0000       0.005214         0.1419
  36   0.0000       0.013471         0.3666

                 SPIN DOWN ORBITALS
  NO   OCC          E(Eh)            E(eV)
   0   1.0000     -19.242476      -523.6144
   1   1.0000     -14.427700      -392.5977
   2   1.0000     -10.254186      -279.0306
   3   1.0000     -10.236744      -278.5560
   4   1.0000     -10.217972      -278.0451
   5   1.0000     -10.211244      -277.8621
   6   1.0000     -10.210863      -277.8517
   7   1.0000     -10.200907      -277.5808
   8   1.0000     -10.198902      -277.5262
   9   1.0000      -1.192442       -32.4480
  10   1.0000      -0.925626       -25.1876
  11   1.0000      -0.883839       -24.0505
  12   1.0000      -0.792969       -21.5778
  13   1.0000      -0.786723       -21.4078
  14   1.0000      -0.687078       -18.6963
  15   1.0000      -0.642233       -17.4761
  16   1.0000      -0.609921       -16.5968
  17   1.0000      -0.574512       -15.6333
  18   1.0000      -0.548767       -14.9327
  19   1.0000      -0.512619       -13.9491
  20   1.0000      -0.485037       -13.1985
  21   1.0000      -0.470971       -12.8158
  22   1.0000      -0.463905       -12.6235
  23   1.0000      -0.447208       -12.1691
  24   1.0000      -0.439911       -11.9706
  25   1.0000      -0.400657       -10.9024
  26   1.0000      -0.377729       -10.2785
  27   1.0000      -0.364826        -9.9274
  28   1.0000      -0.322869        -8.7857
  29   1.0000      -0.319166        -8.6849
  30   1.0000      -0.291219        -7.9245
  31   0.0000      -0.216214        -5.8835
  32   0.0000      -0.094718        -2.5774
  33   0.0000      -0.049453        -1.3457
  34   0.0000      -0.002497        -0.0679
  35   0.0000       0.006132         0.1669

MULLIKEN ATOMIC CHARGES AND SPIN POPULATIONS
--------------------------------------------
   0 C :   -0.789919    0.065011
   1 C :   -0.523902   -0.063521
   2 C :   -0.080713    0.288582
   3 C :   -0.708161   -0.116326
   4 C :   -0.592791    0.134560
   5 C :    1.810879    0.213134
   6 C :    0.157568   -0.072013
   7 N :   -0.378854    0.314420
   8 O :   -0.185823    0.221555
   9 H :    0.220865   -0.013786
  10 H :    0.454625   -0.005941
  11 H :    0.060632    0.013254
  12 H :    0.549945   -0.007988
  13 H :    0.444848    0.020693
  14 H :    0.549872   -0.002266
  15 H :    0.010930    0.010632
Sum of atomic charges         :    1.0000000

LOEWDIN ATOMIC CHARGES AND SPIN POPULATIONS
-------------------------------------------
   0 C :    0.266990    0.060625
   1 C :    0.267037    0.033848
   2 C :    0.280294    0.143297
   3 C :    0.263394    0.023385
   4 C :    0.258978    0.078945
   5 C :   -0.105712    0.113850
   6 C :    0.093162    0.052216
   7 N :    0.195215    0.240722
   8 O :    0.747684    0.203315
   9 H :   -0.397592    0.012158
  10 H :   -0.139392   -0.005736
  11 H :   -0.164281    0.011519
  12 H :   -0.147757   -0.006711
  13 H :   -0.133869    0.033090
  14 H :   -0.145615   -0.003018
  15 H :   -0.138534    0.008492

  Mayer bond orders larger than 0.100000
B(  0-C ,  1-C ) :   1.2861 B(  0-C ,  2-C ) :  -0.1205 B(  0-C ,  4-C ) :  -0.4366
B(  0-C , 11-H ) :   0.1330 B(  0-C , 14-H ) :  -0.1601 B(  0-C , 15-H ) :   1.6644
B(  1-C ,  2-C ) :   1.0797 B(  1-C ,  3-C ) :   0.1289 B(  1-C , 11-H ) :  -0.1058
B(  1-C , 14-H ) :   0.4687 B(  1-C , 15-H ) :  -0.1201 B(  2-C ,  3-C ) :   1.0417
B(  2-C ,  4-C ) :  -0.1428 B(  2-C ,  5-C ) :  -0.2083 B(  2-C ,  6-C ) :   0.1616
B(  2-C , 13-H ) :   0.6720 B(  3-C ,  4-C ) :   1.2672 B(  3-C ,  5-C ) :   0.1117
B(  3-C , 12-H ) :   0.4678 B(  4-C ,  5-C ) :   0.2810 B(  4-C ,  6-C ) :   0.1903
B(  4-C , 11-H ) :   1.3089 B(  4-C , 15-H ) :   0.1421 B(  5-C ,  6-C ) :   0.2864
B(  5-C ,  8-O ) :   0.1258 B(  5-C , 11-H ) :  -0.1312 B(  5-C , 14-H ) :   0.1045
B(  5-C , 15-H ) :  -0.1740 B(  6-C ,  7-N ) :   0.7521 B(  6-C , 10-H ) :   0.5558
B(  6-C , 11-H ) :  -0.1191 B(  6-C , 12-H ) :   0.1052 B(  6-C , 15-H ) :  -0.1695
B(  7-N ,  8-O ) :   0.8312 B(  7-N , 10-H ) :  -0.1039 B(  7-N , 11-H ) :   0.1033
B(  8-O ,  9-H ) :   0.9832 B( 11-H , 15-H ) :   0.1543

Dispersion correction           -0.004892309
FINAL SINGLE POINT ENERGY      -400.570081626253

DIPOLE MOMENT
-------------

Method             : SCF
Type of density    : Electron Density
Multiplicity       :   2
Irrep              :   0
Energy             :  -400.5651893168076754 Eh
Relativity type    :
Basis              : AO
                                X                 Y                 Z
Electronic contribution:     -3.420374743       0.168003583       0.000430604
Nuclear contribution   :      3.309117951      -0.259125904      -0.000059906
                        -----------------------------------------
Total Dipole Moment    :     -0.111256792      -0.091122321       0.000370697
                        -----------------------------------------
Magnitude (a.u.)       :      0.143810600
Magnitude (Debye)      :      0.365537494

Rotational constants in cm-1:             0.166470             0.031016             0.026145
Rotational constants in MHz :          4990.645062           929.841763           783.805511

                             ****ORCA TERMINATED NORMALLY****
TOTAL RUN TIME: 0 days 0 hours 5 minutes 42 seconds 17 msec
