                         Program Version 6.0.0  -   RELEASE  -
|  1> !r2SCANh aug-cc-pVTZ d3 TightSCF SlowConv RIJCOSX defgrid2
|  2>
|  3> %pal
|  4> nprocs 4
|  5> end
|  6>
|  7> %scf
|  8> MaxIter 1500
|  9> end
| 10>
| 11> %maxcore 3000
| 12>
| 13> !CPCM
| 14> %cpcm smd true
| 15> SMDsolvent "MeCN"
| 16> surfacetype gepol_ses
| 17> rsolv 2.19
| 18> end
| 19>
| 20> * xyz 0 1
| 21> C          -0.72498712360752     -1.03199143591489     -0.00035587408950
| 22> C          -1.31725281953672      0.23700082940336     -0.00009216740947
| 23> C          -0.49927603036286      1.37741269983118     -0.00017815340748
| 24> C           0.87877130461947      1.25225114649976     -0.00046421372633
| 25> C           1.48912617012247     -0.01748708715836     -0.00062594889474
| 26> C           0.66252427774642     -1.14934366375667     -0.00064528665934
| 27> H           1.11889620163877     -2.14249327366435     -0.00083021648088
| 28> C           2.91104462440564     -0.14733894022628     -0.00063151415770
| 29> C           4.11990582812650     -0.25742637188868      0.00161358861277
| 30> H           5.19058139416864     -0.35415649223885      0.00097524906911
| 31> H           1.50779855780145      2.14601626186340     -0.00050473395896
| 32> H          -0.98017045333696      2.35860761783862      0.00000793066196
| 33> O          -2.64430351331883      0.45808400164866      0.00024605971359
| 34> C          -3.51534558275692     -0.63765175952228      0.00045178300619
| 35> H          -4.53490407246321     -0.22445155867607      0.00076695107216
| 36> H          -3.38161982455796     -1.26589006640153     -0.90098962915142
| 37> H          -3.38109122143507     -1.26596319208985      0.90176498266982
| 38> H          -1.33393961725331     -1.93771991554716     -0.00032660686979
| 39> *
| 40>
| 41>                          ****END OF INPUT****

CARTESIAN COORDINATES (ANGSTROEM)
---------------------------------
  C     -0.724987   -1.031991   -0.000356
  C     -1.317253    0.237001   -0.000092
  C     -0.499276    1.377413   -0.000178
  C      0.878771    1.252251   -0.000464
  C      1.489126   -0.017487   -0.000626
  C      0.662524   -1.149344   -0.000645
  H      1.118896   -2.142493   -0.000830
  C      2.911045   -0.147339   -0.000632
  C      4.119906   -0.257426    0.001614
  H      5.190581   -0.354156    0.000975
  H      1.507799    2.146016   -0.000505
  H     -0.980170    2.358608    0.000008
  O     -2.644304    0.458084    0.000246
  C     -3.515346   -0.637652    0.000452
  H     -4.534904   -0.224452    0.000767
  H     -3.381620   -1.265890   -0.900990
  H     -3.381091   -1.265963    0.901765
  H     -1.333940   -1.937720   -0.000327

 Total Charge           Charge          ....    0
 Multiplicity           Mult            ....    1
 Number of Electrons    NEL             ....   70
 Basis Dimension        Dim             ....  644

ORBITAL ENERGIES
----------------

  NO   OCC          E(Eh)            E(eV)
   0   2.0000     -19.159099      -521.3456
   1   2.0000     -10.230521      -278.3866
   2   2.0000     -10.200503      -277.5698
   3   2.0000     -10.187836      -277.2251
   4   2.0000     -10.174034      -276.8495
   5   2.0000     -10.173474      -276.8343
   6   2.0000     -10.171243      -276.7736
   7   2.0000     -10.165181      -276.6086
   8   2.0000     -10.163911      -276.5741
   9   2.0000     -10.157817      -276.4082
  10   2.0000      -1.087943       -29.6044
  11   2.0000      -0.869975       -23.6732
  12   2.0000      -0.790649       -21.5147
  13   2.0000      -0.758141       -20.6301
  14   2.0000      -0.738982       -20.1087
  15   2.0000      -0.694611       -18.9013
  16   2.0000      -0.618148       -16.8207
  17   2.0000      -0.603753       -16.4290
  18   2.0000      -0.544650       -14.8207
  19   2.0000      -0.524667       -14.2769
  20   2.0000      -0.489139       -13.3102
  21   2.0000      -0.484950       -13.1961
  22   2.0000      -0.463043       -12.6000
  23   2.0000      -0.438443       -11.9307
  24   2.0000      -0.417647       -11.3647
  25   2.0000      -0.408590       -11.1183
  26   2.0000      -0.386564       -10.5189
  27   2.0000      -0.384582       -10.4650
  28   2.0000      -0.353556        -9.6207
  29   2.0000      -0.339790        -9.2462
  30   2.0000      -0.319102        -8.6832
  31   2.0000      -0.288034        -7.8378
  32   2.0000      -0.279921        -7.6170
  33   2.0000      -0.262594        -7.1456
  34   2.0000      -0.217337        -5.9141
  35   0.0000      -0.044964        -1.2235
  36   0.0000      -0.032521        -0.8849
  37   0.0000       0.008731         0.2376
  38   0.0000       0.019190         0.5222
  39   0.0000       0.020529         0.5586

MULLIKEN ATOMIC CHARGES
-----------------------
   0 C :   -0.166770
   1 C :    1.392558
   2 C :   -0.873271
   3 C :   -1.209798
   4 C :    1.677133
   5 C :   -1.347886
   6 H :   -0.370168
   7 C :    1.173501
   8 C :   -0.788820
   9 H :    0.318662
  10 H :   -0.327861
  11 H :    0.573875
  12 O :   -0.706092
  13 C :   -0.684919
  14 H :    0.245692
  15 H :    0.276779
  16 H :    0.275934
  17 H :    0.541450
Sum of atomic charges:   -0.0000000

LOEWDIN ATOMIC CHARGES
----------------------
   0 C :    0.213934
   1 C :   -0.398331
   2 C :    0.209033
   3 C :    0.186349
   4 C :   -0.239771
   5 C :    0.190995
   6 H :   -0.160309
   7 C :   -0.030307
   8 C :    0.392668
   9 H :   -0.286609
  10 H :   -0.161672
  11 H :   -0.167835
  12 O :    0.593495
  13 C :    0.330018
  14 H :   -0.167770
  15 H :   -0.158994
  16 H :   -0.158953
  17 H :   -0.185940

  Mayer bond orders larger than 0.100000
B(  0-C ,  1-C ) :   0.9039 B(  0-C ,  2-C ) :   0.2386 B(  0-C ,  4-C ) :   0.7894
B(  0-C ,  5-C ) :   0.9079 B(  0-C ,  6-H ) :  -0.2554 B(  0-C ,  7-C ) :  -0.2238
B(  0-C ,  8-C ) :  -0.1647 B(  0-C , 10-H ) :  -0.1455 B(  0-C , 11-H ) :  -0.1264
B(  0-C , 17-H ) :   0.2694 B(  1-C ,  2-C ) :   0.6572 B(  1-C ,  3-C ) :  -0.6158
B(  1-C ,  4-C ) :  -0.1186 B(  1-C ,  5-C ) :  -0.5420 B(  1-C ,  7-C ) :   0.2307
B(  1-C ,  8-C ) :   0.1514 B(  1-C , 11-H ) :   0.1939 B(  1-C , 12-O ) :   0.2316
B(  1-C , 17-H ) :   0.2063 B(  2-C ,  3-C ) :   1.2787 B(  2-C ,  4-C ) :   0.6017
B(  2-C ,  7-C ) :  -0.1248 B(  2-C ,  8-C ) :  -0.1006 B(  2-C , 10-H ) :  -0.1114
B(  2-C , 11-H ) :   0.2335 B(  2-C , 12-O ) :   0.3170 B(  2-C , 17-H ) :  -0.1067
B(  3-C ,  5-C ) :  -0.7030 B(  3-C ,  6-H ) :   0.2683 B(  3-C ,  7-C ) :   0.5142
B(  3-C , 10-H ) :   2.2971 B(  4-C ,  6-H ) :  -0.3130 B(  4-C ,  7-C ) :  -0.2183
B(  4-C ,  8-C ) :   0.8675 B(  4-C , 10-H ) :  -0.1489 B(  4-C , 12-O ) :   0.1411
B(  4-C , 17-H ) :  -0.1105 B(  5-C ,  6-H ) :   2.4460 B(  5-C ,  7-C ) :   0.4113
B(  5-C ,  8-C ) :  -0.1870 B(  5-C , 10-H ) :   0.2504 B(  6-H ,  7-C ) :  -0.2858
B(  6-H ,  8-C ) :  -0.4554 B(  6-H , 10-H ) :   0.5649 B(  6-H , 11-H ) :  -0.1115
B(  6-H , 17-H ) :  -0.1218 B(  7-C ,  8-C ) :   2.1124 B(  7-C ,  9-H ) :  -0.2330
B(  7-C , 10-H ) :  -0.3493 B(  7-C , 17-H ) :   0.1231 B(  8-C ,  9-H ) :   1.2089
B(  8-C , 10-H ) :  -0.4671 B(  8-C , 11-H ) :   0.1998 B(  8-C , 17-H ) :   0.2469
B( 10-H , 11-H ) :  -0.1210 B( 10-H , 17-H ) :  -0.1009 B( 12-O , 13-C ) :   1.0389
B( 13-C , 14-H ) :   0.9803 B( 13-C , 15-H ) :   0.9049 B( 13-C , 16-H ) :   0.9056

Dispersion correction           -0.005725978
FINAL SINGLE POINT ENERGY      -422.823255510957

DIPOLE MOMENT
-------------

Method             : SCF
Type of density    : Electron Density
Multiplicity       :   1
Irrep              :   0
Energy             :  -422.8175295330636914 Eh
Relativity type    :
Basis              : AO
                                X                 Y                 Z
Electronic contribution:      4.408718154       1.956540268      -0.001240499
Nuclear contribution   :     -5.472543809      -2.520175441       0.001174688
                        -----------------------------------------
Total Dipole Moment    :     -1.063825655      -0.563635172      -0.000065811
                        -----------------------------------------
Magnitude (a.u.)       :      1.203914297
Magnitude (Debye)      :      3.060106953

Rotational constants in cm-1:             0.162149             0.023538             0.020637
Rotational constants in MHz :          4861.113339           705.666032           618.684466

                             ****ORCA TERMINATED NORMALLY****
TOTAL RUN TIME: 0 days 0 hours 6 minutes 23 seconds 507 msec
