                         Program Version 6.0.0  -   RELEASE  -
|  1> !PBE0 aug-cc-pVTZ d3 TightSCF SlowConv RIJCOSX defgrid2
|  2>
|  3> %pal
|  4> nprocs 4
|  5> end
|  6>
|  7> %scf
|  8> MaxIter 1500
|  9> end
| 10>
| 11> %maxcore 3000
| 12>
| 13> !CPCM
| 14> %cpcm smd true
| 15> SMDsolvent "MeCN"
| 16> surfacetype gepol_ses
| 17> rsolv 2.19
| 18> end
| 19>
| 20> * xyz 1 2
| 21> C          -0.22428548195010     -1.24213438922305     -0.03849982740281
| 22> C           1.14800811610277     -1.22870080724969      0.00227297677880
| 23> C           1.84566180598227     -0.00004019353139      0.02297012210753
| 24> C           1.14805042698559      1.22864411313713      0.00227054482980
| 25> C          -0.22424154749405      1.24212983950181     -0.03850931873892
| 26> C          -0.94084900168795      0.00001024661649     -0.05989305493678
| 27> N          -2.26985305582395      0.00003075135377     -0.09979281491323
| 28> H          -2.80165535396914      0.86997483968693     -0.11591197867223
| 29> H          -2.80167508667297     -0.86990117124685     -0.11590823438470
| 30> H          -0.77890173993705      2.18488554366972     -0.05504522287995
| 31> H           1.70373713208460      2.16980587419055      0.01885237386387
| 32> H           2.93889913121278     -0.00005967561260      0.05550059305168
| 33> H           1.70365895934134     -2.16988118368011      0.01885253182221
| 34> H          -0.77898600417414     -2.18486378761269     -0.05503389052528
| 35> *
| 36>
| 37>                          ****END OF INPUT****

CARTESIAN COORDINATES (ANGSTROEM)
---------------------------------
  C     -0.224285   -1.242134   -0.038500
  C      1.148008   -1.228701    0.002273
  C      1.845662   -0.000040    0.022970
  C      1.148050    1.228644    0.002271
  C     -0.224242    1.242130   -0.038509
  C     -0.940849    0.000010   -0.059893
  N     -2.269853    0.000031   -0.099793
  H     -2.801655    0.869975   -0.115912
  H     -2.801675   -0.869901   -0.115908
  H     -0.778902    2.184886   -0.055045
  H      1.703737    2.169806    0.018852
  H      2.938899   -0.000060    0.055501
  H      1.703659   -2.169881    0.018853
  H     -0.778986   -2.184864   -0.055034

 Total Charge           Charge          ....    1
 Multiplicity           Mult            ....    2
 Number of Electrons    NEL             ....   49
 Basis Dimension        Dim             ....  483

ORBITAL ENERGIES
----------------
                 SPIN UP ORBITALS
  NO   OCC          E(Eh)            E(eV)
   0   1.0000     -14.481714      -394.0675
   1   1.0000     -10.336340      -281.2661
   2   1.0000     -10.281511      -279.7741
   3   1.0000     -10.276888      -279.6483
   4   1.0000     -10.276887      -279.6483
   5   1.0000     -10.264289      -279.3055
   6   1.0000     -10.264285      -279.3054
   7   1.0000      -1.027435       -27.9579
   8   1.0000      -0.909662       -24.7532
   9   1.0000      -0.813486       -22.1361
  10   1.0000      -0.793042       -21.5798
  11   1.0000      -0.673213       -18.3191
  12   1.0000      -0.670933       -18.2570
  13   1.0000      -0.588456       -16.0127
  14   1.0000      -0.580057       -15.7842
  15   1.0000      -0.535418       -14.5695
  16   1.0000      -0.485619       -13.2144
  17   1.0000      -0.475364       -12.9353
  18   1.0000      -0.470514       -12.8033
  19   1.0000      -0.467924       -12.7329
  20   1.0000      -0.406072       -11.0498
  21   1.0000      -0.391167       -10.6442
  22   1.0000      -0.384488       -10.4624
  23   1.0000      -0.312146        -8.4939
  24   1.0000      -0.275875        -7.5069
  25   0.0000      -0.041941        -1.1413
  26   0.0000      -0.041588        -1.1317
  27   0.0000      -0.002250        -0.0612
  28   0.0000       0.010389         0.2827
  29   0.0000       0.015373         0.4183

                 SPIN DOWN ORBITALS
  NO   OCC          E(Eh)            E(eV)
   0   1.0000     -14.472812      -393.8252
   1   1.0000     -10.336079      -281.2590
   2   1.0000     -10.275323      -279.6058
   3   1.0000     -10.273282      -279.5502
   4   1.0000     -10.273279      -279.5501
   5   1.0000     -10.266242      -279.3586
   6   1.0000     -10.266231      -279.3583
   7   1.0000      -1.011973       -27.5372
   8   1.0000      -0.900728       -24.5101
   9   1.0000      -0.809799       -22.0357
  10   1.0000      -0.777767       -21.1641
  11   1.0000      -0.669737       -18.2245
  12   1.0000      -0.663853       -18.0644
  13   1.0000      -0.585814       -15.9408
  14   1.0000      -0.574612       -15.6360
  15   1.0000      -0.530450       -14.4343
  16   1.0000      -0.481884       -13.1127
  17   1.0000      -0.472745       -12.8640
  18   1.0000      -0.467160       -12.7121
  19   1.0000      -0.438593       -11.9347
  20   1.0000      -0.403662       -10.9842
  21   1.0000      -0.382614       -10.4114
  22   1.0000      -0.354010        -9.6331
  23   1.0000      -0.302440        -8.2298
  24   0.0000      -0.171018        -4.6536
  25   0.0000      -0.028824        -0.7843
  26   0.0000      -0.014570        -0.3965
  27   0.0000      -0.001117        -0.0304
  28   0.0000       0.011598         0.3156

MULLIKEN ATOMIC CHARGES AND SPIN POPULATIONS
--------------------------------------------
   0 C :   -0.651270    0.198078
   1 C :   -0.449603   -0.113832
   2 C :   -0.463940    0.363460
   3 C :   -0.450998   -0.113825
   4 C :   -0.650109    0.198073
   5 C :    0.874008    0.095283
   6 N :   -0.333286    0.371203
   7 H :    0.088281   -0.004385
   8 H :    0.088482   -0.004382
   9 H :    0.674730   -0.002253
  10 H :    0.501287    0.003424
  11 H :    0.597716    0.007991
  12 H :    0.500229    0.003411
  13 H :    0.674473   -0.002245
Sum of atomic charges         :    1.0000000

LOEWDIN ATOMIC CHARGES AND SPIN POPULATIONS
-------------------------------------------
   0 C :    0.276921    0.113359
   1 C :    0.239847    0.034858
   2 C :    0.260515    0.183392
   3 C :    0.239844    0.034858
   4 C :    0.276921    0.113358
   5 C :   -0.166522    0.129055
   6 N :    0.964285    0.256007
   7 H :   -0.192289    0.033859
   8 H :   -0.192290    0.033859
   9 H :   -0.135522    0.020877
  10 H :   -0.147405   -0.009180
  11 H :   -0.141372    0.044001
  12 H :   -0.147407   -0.009180
  13 H :   -0.135525    0.020877

  Mayer bond orders larger than 0.100000
B(  0-C ,  1-C ) :   1.5627 B(  0-C ,  2-C ) :   0.2014 B(  0-C ,  4-C ) :   0.2513
B(  0-C ,  5-C ) :   0.8222 B(  0-C ,  6-N ) :  -0.1345 B(  0-C , 13-H ) :   0.1631
B(  1-C ,  2-C ) :   1.1778 B(  1-C ,  5-C ) :  -0.2173 B(  1-C , 12-H ) :   0.6228
B(  2-C ,  3-C ) :   1.1775 B(  2-C ,  4-C ) :   0.2016 B(  2-C , 11-H ) :   0.4166
B(  3-C ,  4-C ) :   1.5607 B(  3-C ,  5-C ) :  -0.2176 B(  3-C , 10-H ) :   0.6219
B(  4-C ,  5-C ) :   0.8193 B(  4-C ,  6-N ) :  -0.1343 B(  4-C ,  9-H ) :   0.1633
B(  5-C ,  6-N ) :   1.0856 B(  6-N ,  7-H ) :   1.0981 B(  6-N ,  8-H ) :   1.0977

Dispersion correction           -0.011428278
FINAL SINGLE POINT ENERGY      -287.196789101662

DIPOLE MOMENT
-------------

Method             : SCF
Type of density    : Electron Density
Multiplicity       :   2
Irrep              :   0
Energy             :  -287.1853608238364473 Eh
Relativity type    :
Basis              : AO
                                X                 Y                 Z
Electronic contribution:     -0.926037230       0.000021911      -0.027742244
Nuclear contribution   :     -0.808315718       0.000012771      -0.024795382
                        -----------------------------------------
Total Dipole Moment    :     -1.734352948       0.000034683      -0.052537626
                        -----------------------------------------
Magnitude (a.u.)       :      1.735148510
Magnitude (Debye)      :      4.410397012

Rotational constants in cm-1:             0.179396             0.089500             0.059711
Rotational constants in MHz :          5378.149152          2683.142053          1790.077786

                             ****ORCA TERMINATED NORMALLY****
TOTAL RUN TIME: 0 days 0 hours 3 minutes 52 seconds 158 msec
