                         Program Version 6.0.0  -   RELEASE  -
|  1> !PBE0 aug-cc-pVTZ d3 TightSCF SlowConv RIJCOSX defgrid2
|  2>
|  3> %pal
|  4> nprocs 4
|  5> end
|  6>
|  7> %scf
|  8> MaxIter 1500
|  9> end
| 10>
| 11> %maxcore 3000
| 12>
| 13> !CPCM
| 14> %cpcm smd true
| 15> SMDsolvent "MeCN"
| 16> surfacetype gepol_ses
| 17> rsolv 2.19
| 18> end
| 19>
| 20> * xyz 1 2
| 21> C           2.57979434838040     -0.76512868779033      0.55002877373972
| 22> N           1.26500932172402     -1.28908125363632      0.40636602507995
| 23> C           0.28298609020251     -0.62522563405020     -0.18777766408559
| 24> N           0.31055121241113      0.70973986743819     -0.21944975029898
| 25> C          -0.90428464054798      1.50462363713153     -0.44239867601191
| 26> C          -2.03947642318260      1.21762022221086      0.53873406977095
| 27> C          -2.86207876844258     -0.03194236210921      0.24124470818338
| 28> C          -2.09231646642057     -1.34422284732392      0.30081277590326
| 29> C          -0.89800263393673     -1.40686847310809     -0.66426598959003
| 30> H          -1.19352492058052     -1.04767852417754     -1.66637286512155
| 31> H          -0.55567841992770     -2.44756644418100     -0.76734795095617
| 32> H          -1.73641294806257     -1.54754065839741      1.32696955727058
| 33> H          -2.77055233723731     -2.17340424344339      0.04048078954003
| 34> H          -3.70277523981103     -0.07756392292857      0.95370276319110
| 35> H          -3.31960998926737      0.07384959946049     -0.76068861915501
| 36> H          -1.62677902226913      1.18604117824051      1.56422468629433
| 37> H          -2.70692750664589      2.09548743827220      0.50583543871622
| 38> H          -1.23343592081792      1.34322694259980     -1.48570258502121
| 39> H          -0.59336721164102      2.55553341754968     -0.36087201839100
| 40> C           1.54294297274965      1.42951819328861      0.10261663203758
| 41> C           2.75435971769682      0.56347028127833     -0.16667570355996
| 42> H           3.66676062867917      1.07905197663072      0.17154765035364
| 43> H           2.85358487208654      0.39538376428371     -1.25327533388472
| 44> H           1.55803196576022      2.33719006220635     -0.52185668580850
| 45> H           1.49212710050547      1.76061659958086      1.15811318961915
| 46> H           2.78164201792086     -0.70742891166271      1.63950028346109
| 47> H           3.28595160067412     -1.53996281736316      0.18807279872366
| 48> *
| 49>
| 50>                          ****END OF INPUT****

CARTESIAN COORDINATES (ANGSTROEM)
---------------------------------
  C      2.579794   -0.765129    0.550029
  N      1.265009   -1.289081    0.406366
  C      0.282986   -0.625226   -0.187778
  N      0.310551    0.709740   -0.219450
  C     -0.904285    1.504624   -0.442399
  C     -2.039476    1.217620    0.538734
  C     -2.862079   -0.031942    0.241245
  C     -2.092316   -1.344223    0.300813
  C     -0.898003   -1.406868   -0.664266
  H     -1.193525   -1.047679   -1.666373
  H     -0.555678   -2.447566   -0.767348
  H     -1.736413   -1.547541    1.326970
  H     -2.770552   -2.173404    0.040481
  H     -3.702775   -0.077564    0.953703
  H     -3.319610    0.073850   -0.760689
  H     -1.626779    1.186041    1.564225
  H     -2.706928    2.095487    0.505835
  H     -1.233436    1.343227   -1.485703
  H     -0.593367    2.555533   -0.360872
  C      1.542943    1.429518    0.102617
  C      2.754360    0.563470   -0.166676
  H      3.666761    1.079052    0.171548
  H      2.853585    0.395384   -1.253275
  H      1.558032    2.337190   -0.521857
  H      1.492127    1.760617    1.158113
  H      2.781642   -0.707429    1.639500
  H      3.285952   -1.539963    0.188073

 Total Charge           Charge          ....    1
 Multiplicity           Mult            ....    2
 Number of Electrons    NEL             ....   83
 Basis Dimension        Dim             ....  874

ORBITAL ENERGIES
----------------
                 SPIN UP ORBITALS
  NO   OCC          E(Eh)            E(eV)
   0   1.0000     -14.501589      -394.6083
   1   1.0000     -14.453401      -393.2970
   2   1.0000     -10.349336      -281.6198
   3   1.0000     -10.285405      -279.8801
   4   1.0000     -10.282551      -279.8024
   5   1.0000     -10.277334      -279.6605
   6   1.0000     -10.249144      -278.8934
   7   1.0000     -10.242209      -278.7047
   8   1.0000     -10.235886      -278.5326
   9   1.0000     -10.233520      -278.4682
  10   1.0000     -10.225346      -278.2458
  11   1.0000      -1.077312       -29.3151
  12   1.0000      -0.978795       -26.6344
  13   1.0000      -0.866076       -23.5671
  14   1.0000      -0.831146       -22.6166
  15   1.0000      -0.805920       -21.9302
  16   1.0000      -0.740351       -20.1460
  17   1.0000      -0.726305       -19.7638
  18   1.0000      -0.710825       -19.3425
  19   1.0000      -0.639271       -17.3955
  20   1.0000      -0.606530       -16.5045
  21   1.0000      -0.562581       -15.3086
  22   1.0000      -0.559637       -15.2285
  23   1.0000      -0.540298       -14.7023
  24   1.0000      -0.523884       -14.2556
  25   1.0000      -0.485462       -13.2101
  26   1.0000      -0.481289       -13.0965
  27   1.0000      -0.473886       -12.8951
  28   1.0000      -0.461287       -12.5522
  29   1.0000      -0.457290       -12.4435
  30   1.0000      -0.431309       -11.7365
  31   1.0000      -0.429751       -11.6941
  32   1.0000      -0.427478       -11.6323
  33   1.0000      -0.401816       -10.9340
  34   1.0000      -0.393283       -10.7018
  35   1.0000      -0.373281       -10.1575
  36   1.0000      -0.359327        -9.7778
  37   1.0000      -0.344718        -9.3803
  38   1.0000      -0.342407        -9.3174
  39   1.0000      -0.336659        -9.1610
  40   1.0000      -0.322251        -8.7689
  41   1.0000      -0.300157        -8.1677
  42   0.0000      -0.034365        -0.9351
  43   0.0000      -0.001753        -0.0477
  44   0.0000       0.008919         0.2427
  45   0.0000       0.010600         0.2885
  46   0.0000       0.011779         0.3205

                 SPIN DOWN ORBITALS
  NO   OCC          E(Eh)            E(eV)
   0   1.0000     -14.493021      -394.3752
   1   1.0000     -14.438782      -392.8992
   2   1.0000     -10.352020      -281.6928
   3   1.0000     -10.285654      -279.8869
   4   1.0000     -10.282788      -279.8089
   5   1.0000     -10.277538      -279.6660
   6   1.0000     -10.248852      -278.8854
   7   1.0000     -10.242106      -278.7019
   8   1.0000     -10.235457      -278.5209
   9   1.0000     -10.233610      -278.4707
  10   1.0000     -10.225344      -278.2458
  11   1.0000      -1.061991       -28.8982
  12   1.0000      -0.952434       -25.9170
  13   1.0000      -0.865291       -23.5458
  14   1.0000      -0.829857       -22.5816
  15   1.0000      -0.802643       -21.8410
  16   1.0000      -0.737265       -20.0620
  17   1.0000      -0.720296       -19.6003
  18   1.0000      -0.707787       -19.2599
  19   1.0000      -0.636801       -17.3282
  20   1.0000      -0.603287       -16.4163
  21   1.0000      -0.557221       -15.1627
  22   1.0000      -0.554193       -15.0804
  23   1.0000      -0.531468       -14.4620
  24   1.0000      -0.513140       -13.9633
  25   1.0000      -0.480999       -13.0886
  26   1.0000      -0.473564       -12.8863
  27   1.0000      -0.469279       -12.7697
  28   1.0000      -0.454475       -12.3669
  29   1.0000      -0.450696       -12.2640
  30   1.0000      -0.428035       -11.6474
  31   1.0000      -0.426168       -11.5966
  32   1.0000      -0.417259       -11.3542
  33   1.0000      -0.394573       -10.7369
  34   1.0000      -0.388468       -10.5707
  35   1.0000      -0.370497       -10.0817
  36   1.0000      -0.356805        -9.7092
  37   1.0000      -0.344284        -9.3684
  38   1.0000      -0.341575        -9.2947
  39   1.0000      -0.330626        -8.9968
  40   1.0000      -0.300082        -8.1656
  41   0.0000      -0.164097        -4.4653
  42   0.0000      -0.016134        -0.4390
  43   0.0000      -0.000874        -0.0238
  44   0.0000       0.009335         0.2540
  45   0.0000       0.010961         0.2983

MULLIKEN ATOMIC CHARGES AND SPIN POPULATIONS
--------------------------------------------
   0 C :   -0.209080   -0.027697
   1 N :   -0.625526    0.674047
   2 C :    0.412087   -0.168529
   3 N :    0.358195    0.359177
   4 C :   -0.362431   -0.040753
   5 C :   -0.253372    0.025029
   6 C :   -0.265561    0.000170
   7 C :   -0.395602   -0.004576
   8 C :   -0.032549    0.030313
   9 H :    0.222221   -0.004330
  10 H :    0.075731    0.006413
  11 H :    0.166115    0.002153
  12 H :    0.150920   -0.000982
  13 H :    0.192658   -0.000403
  14 H :    0.160616   -0.001057
  15 H :    0.176951    0.003476
  16 H :    0.122150    0.002766
  17 H :    0.246067    0.028961
  18 H :    0.187569    0.000068
  19 C :   -0.384168   -0.037076
  20 C :   -0.267178    0.009992
  21 H :    0.216194    0.004895
  22 H :    0.140626   -0.004066
  23 H :    0.255712    0.017174
  24 H :    0.261519    0.020618
  25 H :    0.219291    0.047437
  26 H :    0.230845    0.056777
Sum of atomic charges         :    1.0000000

LOEWDIN ATOMIC CHARGES AND SPIN POPULATIONS
-------------------------------------------
   0 C :    0.166964    0.110632
   1 N :    0.525357    0.433653
   2 C :   -0.305352    0.073003
   3 N :    0.358078    0.211136
   4 C :    0.270837    0.035412
   5 C :    0.317328    0.009687
   6 C :    0.286153    0.001314
   7 C :    0.299790   -0.001478
   8 C :    0.319505   -0.002624
   9 H :   -0.114067   -0.001217
  10 H :   -0.130111    0.002950
  11 H :   -0.120131   -0.000258
  12 H :   -0.121752   -0.000317
  13 H :   -0.124180    0.000192
  14 H :   -0.123458    0.000219
  15 H :   -0.113342    0.001192
  16 H :   -0.118922    0.001758
  17 H :   -0.097246    0.011043
  18 H :   -0.122339    0.000597
  19 C :    0.260024    0.035678
  20 C :    0.320850    0.007609
  21 H :   -0.108955    0.001325
  22 H :   -0.112845   -0.000390
  23 H :   -0.105194    0.007449
  24 H :   -0.082325    0.010081
  25 H :   -0.113535    0.023992
  26 H :   -0.111130    0.027362

  Mayer bond orders larger than 0.100000
B(  0-C ,  1-N ) :   0.9806 B(  0-C , 20-C ) :   0.9721 B(  0-C , 25-H ) :   0.8710
B(  0-C , 26-H ) :   0.8802 B(  1-N ,  2-C ) :   0.4521 B(  1-N ,  3-N ) :   0.1236
B(  1-N ,  8-C ) :   0.1538 B(  2-C ,  3-N ) :   1.1295 B(  2-C ,  8-C ) :   0.6126
B(  3-N ,  4-C ) :   0.9539 B(  3-N , 19-C ) :   0.7522 B(  4-C ,  5-C ) :   0.9451
B(  4-C , 17-H ) :   0.8697 B(  4-C , 18-H ) :   0.9589 B(  5-C ,  6-C ) :   0.9844
B(  5-C , 15-H ) :   0.9723 B(  5-C , 16-H ) :   0.9738 B(  6-C ,  7-C ) :   0.9717
B(  6-C , 13-H ) :   0.9436 B(  6-C , 14-H ) :   0.9739 B(  7-C ,  8-C ) :   1.0226
B(  7-C , 11-H ) :   0.9584 B(  7-C , 12-H ) :   0.9900 B(  8-C ,  9-H ) :   0.9051
B(  8-C , 10-H ) :   1.0060 B( 19-C , 20-C ) :   1.0003 B( 19-C , 23-H ) :   0.9364
B( 19-C , 24-H ) :   0.8730 B( 20-C , 21-H ) :   0.8965 B( 20-C , 22-H ) :   1.0388

Dispersion correction           -0.025665125
FINAL SINGLE POINT ENERGY      -461.549367184169

DIPOLE MOMENT
-------------

Method             : SCF
Type of density    : Electron Density
Multiplicity       :   2
Irrep              :   0
Energy             :  -461.5237020594789215 Eh
Relativity type    :
Basis              : AO
                                X                 Y                 Z
Electronic contribution:      4.415401030      -1.730689702      -0.454377784
Nuclear contribution   :     -3.417837470       2.910727643       0.034174869
                        -----------------------------------------
Total Dipole Moment    :      0.997563560       1.180037941      -0.420202915
                        -----------------------------------------
Magnitude (a.u.)       :      1.601309804
Magnitude (Debye)      :      4.070206058

Rotational constants in cm-1:             0.070248             0.029206             0.022723
Rotational constants in MHz :          2105.969827           875.585908           681.207949

                             ****ORCA TERMINATED NORMALLY****
TOTAL RUN TIME: 0 days 0 hours 13 minutes 17 seconds 843 msec
