                         Program Version 6.0.0  -   RELEASE  -
|  1> !r2SCAN aug-cc-pVTZ d3 TightSCF SlowConv RIJCOSX defgrid2
|  2>
|  3> %pal
|  4> nprocs 4
|  5> end
|  6>
|  7> %scf
|  8> MaxIter 1500
|  9> end
| 10>
| 11> %maxcore 3000
| 12>
| 13> !CPCM
| 14> %cpcm smd true
| 15> SMDsolvent "MeCN"
| 16> surfacetype gepol_ses
| 17> rsolv 2.19
| 18> end
| 19>
| 20> * xyz -1 2
| 21> C          -1.65840506329252      1.23315632851947      0.02601526537403
| 22> C          -2.42578649114951      0.03281585518203      0.08528804223097
| 23> C          -1.67500855485910     -1.17845195322716      0.12036686377485
| 24> C          -0.29808583706699     -1.18487448797938      0.09449761529292
| 25> C           0.47768362470154      0.01218058376897      0.03640458659712
| 26> C          -0.28519866523432      1.22292049595471      0.00549364199425
| 27> H           0.23475594749759      2.18352828017466     -0.06045863687846
| 28> C           1.92437178707837      0.00115458002986      0.01100117558003
| 29> C           2.67883904782948     -1.19675573826742     -0.15101120804037
| 30> C           4.06549110019082     -1.20386096938929     -0.17390692614329
| 31> C           4.80148582635897     -0.01911609182057     -0.03832527138067
| 32> C           4.08714619159076      1.17581153913523      0.12162078849715
| 33> C           2.70053896682853      1.18836482105812      0.14598455531242
| 34> H           2.19415808930578      2.14532112879358      0.29368951522032
| 35> H           4.62811245028724      2.12283575750504      0.23701258282278
| 36> H           5.89571186828997     -0.02674525345583     -0.05713878250098
| 37> H           4.58896204524971     -2.15823787143737     -0.30821999533445
| 38> H           2.15467602469528     -2.14659846493838     -0.28283079681457
| 39> H           0.20917374243606     -2.15301705967323      0.14488479784911
| 40> H          -2.19771917366060     -2.13934491080503      0.17750905700078
| 41> C          -3.86642076140458      0.10366572155671      0.10496388365322
| 42> O          -4.50000624052699      1.17092445235144      0.07778084872509
| 43> C          -4.64653285281065     -1.20806217086235      0.16034754144994
| 44> H          -5.72082859909169     -0.96357086012156      0.16151446988558
| 45> H          -4.42797764815507     -1.85931891363364     -0.70698861916337
| 46> H          -4.41233005196803     -1.79426891356283      1.06923738121782
| 47> H          -2.21281117312006      2.17574341514422     -0.01014627622221
| 48> *
| 49>
| 50>                          ****END OF INPUT****

CARTESIAN COORDINATES (ANGSTROEM)
---------------------------------
  C     -1.658405    1.233156    0.026015
  C     -2.425786    0.032816    0.085288
  C     -1.675009   -1.178452    0.120367
  C     -0.298086   -1.184874    0.094498
  C      0.477684    0.012181    0.036405
  C     -0.285199    1.222920    0.005494
  H      0.234756    2.183528   -0.060459
  C      1.924372    0.001155    0.011001
  C      2.678839   -1.196756   -0.151011
  C      4.065491   -1.203861   -0.173907
  C      4.801486   -0.019116   -0.038325
  C      4.087146    1.175812    0.121621
  C      2.700539    1.188365    0.145985
  H      2.194158    2.145321    0.293690
  H      4.628112    2.122836    0.237013
  H      5.895712   -0.026745   -0.057139
  H      4.588962   -2.158238   -0.308220
  H      2.154676   -2.146598   -0.282831
  H      0.209174   -2.153017    0.144885
  H     -2.197719   -2.139345    0.177509
  C     -3.866421    0.103666    0.104964
  O     -4.500006    1.170924    0.077781
  C     -4.646533   -1.208062    0.160348
  H     -5.720829   -0.963571    0.161514
  H     -4.427978   -1.859319   -0.706989
  H     -4.412330   -1.794269    1.069237
  H     -2.212811    2.175743   -0.010146

 Total Charge           Charge          ....   -1
 Multiplicity           Mult            ....    2
 Number of Electrons    NEL             ....  105
 Basis Dimension        Dim             ....  966

ORBITAL ENERGIES
----------------
                 SPIN UP ORBITALS
  NO   OCC          E(Eh)            E(eV)
   0   1.0000     -18.892663      -514.0955
   1   1.0000     -10.070083      -274.0209
   2   1.0000     -10.036817      -273.1157
   3   1.0000     -10.028125      -272.8792
   4   1.0000     -10.028024      -272.8764
   5   1.0000     -10.026663      -272.8394
   6   1.0000     -10.024332      -272.7760
   7   1.0000     -10.024295      -272.7749
   8   1.0000     -10.022849      -272.7356
   9   1.0000     -10.020961      -272.6842
  10   1.0000     -10.019221      -272.6369
  11   1.0000     -10.018755      -272.6242
  12   1.0000     -10.016286      -272.5570
  13   1.0000     -10.010564      -272.4013
  14   1.0000     -10.010230      -272.3922
  15   1.0000      -0.951175       -25.8828
  16   1.0000      -0.816244       -22.2111
  17   1.0000      -0.793742       -21.5988
  18   1.0000      -0.732787       -19.9401
  19   1.0000      -0.702649       -19.1200
  20   1.0000      -0.694485       -18.8979
  21   1.0000      -0.686657       -18.6849
  22   1.0000      -0.657302       -17.8861
  23   1.0000      -0.592375       -16.1193
  24   1.0000      -0.566468       -15.4144
  25   1.0000      -0.539373       -14.6771
  26   1.0000      -0.531242       -14.4558
  27   1.0000      -0.494955       -13.4684
  28   1.0000      -0.476048       -12.9539
  29   1.0000      -0.436490       -11.8775
  30   1.0000      -0.419202       -11.4071
  31   1.0000      -0.412500       -11.2247
  32   1.0000      -0.384663       -10.4672
  33   1.0000      -0.383888       -10.4461
  34   1.0000      -0.382888       -10.4189
  35   1.0000      -0.380967       -10.3666
  36   1.0000      -0.374895       -10.2014
  37   1.0000      -0.360285        -9.8038
  38   1.0000      -0.351385        -9.5617
  39   1.0000      -0.343272        -9.3409
  40   1.0000      -0.338182        -9.2024
  41   1.0000      -0.325016        -8.8441
  42   1.0000      -0.314332        -8.5534
  43   1.0000      -0.299971        -8.1626
  44   1.0000      -0.299743        -8.1564
  45   1.0000      -0.296787        -8.0760
  46   1.0000      -0.266878        -7.2621
  47   1.0000      -0.254118        -6.9149
  48   1.0000      -0.232729        -6.3329
  49   1.0000      -0.226336        -6.1589
  50   1.0000      -0.195780        -5.3275
  51   1.0000      -0.185259        -5.0412
  52   1.0000      -0.091009        -2.4765
  53   0.0000      -0.033242        -0.9046
  54   0.0000      -0.027525        -0.7490
  55   0.0000      -0.010300        -0.2803
  56   0.0000       0.003567         0.0971
  57   0.0000       0.013859         0.3771

                 SPIN DOWN ORBITALS
  NO   OCC          E(Eh)            E(eV)
   0   1.0000     -18.888098      -513.9713
   1   1.0000     -10.067212      -273.9428
   2   1.0000     -10.036923      -273.1186
   3   1.0000     -10.029053      -272.9044
   4   1.0000     -10.028939      -272.9013
   5   1.0000     -10.022724      -272.7322
   6   1.0000     -10.022576      -272.7282
   7   1.0000     -10.022560      -272.7277
   8   1.0000     -10.020249      -272.6648
   9   1.0000     -10.019786      -272.6522
  10   1.0000     -10.019601      -272.6472
  11   1.0000     -10.018936      -272.6291
  12   1.0000     -10.014923      -272.5199
  13   1.0000     -10.010470      -272.3987
  14   1.0000     -10.008614      -272.3482
  15   1.0000      -0.943900       -25.6848
  16   1.0000      -0.813149       -22.1269
  17   1.0000      -0.790899       -21.5215
  18   1.0000      -0.727538       -19.7973
  19   1.0000      -0.700626       -19.0650
  20   1.0000      -0.691899       -18.8275
  21   1.0000      -0.682844       -18.5811
  22   1.0000      -0.654917       -17.8212
  23   1.0000      -0.585660       -15.9366
  24   1.0000      -0.566030       -15.4025
  25   1.0000      -0.535779       -14.5793
  26   1.0000      -0.530472       -14.4349
  27   1.0000      -0.491915       -13.3857
  28   1.0000      -0.474288       -12.9060
  29   1.0000      -0.433772       -11.8035
  30   1.0000      -0.418156       -11.3786
  31   1.0000      -0.410293       -11.1647
  32   1.0000      -0.383702       -10.4411
  33   1.0000      -0.381569       -10.3830
  34   1.0000      -0.379729       -10.3330
  35   1.0000      -0.374963       -10.2033
  36   1.0000      -0.374336       -10.1862
  37   1.0000      -0.359504        -9.7826
  38   1.0000      -0.344345        -9.3701
  39   1.0000      -0.340459        -9.2643
  40   1.0000      -0.337294        -9.1782
  41   1.0000      -0.318063        -8.6549
  42   1.0000      -0.312936        -8.5154
  43   1.0000      -0.298308        -8.1174
  44   1.0000      -0.296326        -8.0634
  45   1.0000      -0.285359        -7.7650
  46   1.0000      -0.266116        -7.2414
  47   1.0000      -0.242254        -6.5921
  48   1.0000      -0.227797        -6.1987
  49   1.0000      -0.219854        -5.9825
  50   1.0000      -0.183174        -4.9844
  51   1.0000      -0.181648        -4.9429
  52   0.0000      -0.066400        -1.8068
  53   0.0000      -0.030879        -0.8403
  54   0.0000      -0.012507        -0.3403
  55   0.0000      -0.007157        -0.1947
  56   0.0000       0.005448         0.1483

MULLIKEN ATOMIC CHARGES AND SPIN POPULATIONS
--------------------------------------------
   0 C :   -1.318592    0.106381
   1 C :    1.727255    0.129766
   2 C :   -0.770123    0.102948
   3 C :   -1.064687   -0.046746
   4 C :    2.231119    0.294709
   5 C :   -0.959634   -0.044420
   6 H :    0.004733   -0.010237
   7 C :    2.586302   -0.063646
   8 C :   -0.882780    0.165101
   9 C :   -0.941059   -0.105887
  10 C :   -0.310352    0.188519
  11 C :   -0.904266   -0.104975
  12 C :   -0.867908    0.160349
  13 H :    0.006316    0.000810
  14 H :    0.360323   -0.001835
  15 H :    0.509540   -0.007550
  16 H :    0.361727   -0.002612
  17 H :   -0.025869    0.000431
  18 H :    0.020363   -0.009632
  19 H :   -0.296657   -0.009686
  20 C :    0.817828    0.129729
  21 O :   -1.092936    0.159030
  22 C :   -0.591725   -0.040887
  23 H :    0.156367   -0.004729
  24 H :    0.211840    0.014578
  25 H :    0.214035    0.014042
  26 H :   -0.181161   -0.013551
Sum of atomic charges         :   -1.0000000

LOEWDIN ATOMIC CHARGES AND SPIN POPULATIONS
-------------------------------------------
   0 C :    0.157337    0.058782
   1 C :   -0.193962    0.104632
   2 C :    0.168510    0.058962
   3 C :    0.182345    0.037327
   4 C :   -0.137584    0.113436
   5 C :    0.180371    0.033703
   6 H :   -0.207574    0.000909
   7 C :   -0.138601    0.054494
   8 C :    0.184850    0.049226
   9 C :    0.157656    0.010966
  10 C :    0.160185    0.068593
  11 C :    0.157760    0.011177
  12 C :    0.184816    0.048836
  13 H :   -0.206944    0.011153
  14 H :   -0.179082   -0.004027
  15 H :   -0.188999    0.018454
  16 H :   -0.179014   -0.004110
  17 H :   -0.206654    0.011335
  18 H :   -0.206556    0.002005
  19 H :   -0.194456    0.010094
  20 C :   -0.645642    0.126046
  21 O :    0.382952    0.135519
  22 C :    0.520057    0.021720
  23 H :   -0.198043   -0.000493
  24 H :   -0.175156    0.005387
  25 H :   -0.174860    0.005434
  26 H :   -0.203711    0.010438

  Mayer bond orders larger than 0.100000
B(  0-C ,  1-C ) :  -0.1873 B(  0-C ,  2-C ) :  -0.4791 B(  0-C ,  4-C ) :  -0.3263
B(  0-C ,  5-C ) :   1.6966 B(  0-C , 18-H ) :  -0.2517 B(  0-C , 19-H ) :   0.1325
B(  0-C , 20-C ) :   0.1858 B(  0-C , 26-H ) :   1.4562 B(  1-C ,  2-C ) :   0.1231
B(  1-C ,  3-C ) :   0.2847 B(  1-C ,  5-C ) :   0.3095 B(  1-C , 19-H ) :  -0.5168
B(  1-C , 20-C ) :   0.4943 B(  1-C , 21-O ) :   0.4845 B(  1-C , 26-H ) :  -0.3243
B(  2-C ,  3-C ) :   1.1417 B(  2-C ,  4-C ) :  -0.2570 B(  2-C ,  5-C ) :  -0.1997
B(  2-C ,  6-H ) :  -0.2673 B(  2-C , 19-H ) :   1.9117 B(  2-C , 20-C ) :   0.1942
B(  2-C , 26-H ) :   0.1785 B(  3-C ,  4-C ) :  -0.7113 B(  3-C ,  5-C ) :  -0.8930
B(  3-C ,  7-C ) :   0.2928 B(  3-C ,  8-C ) :  -0.1242 B(  3-C , 18-H ) :   1.4741
B(  3-C , 20-C ) :  -0.1151 B(  4-C ,  5-C ) :  -0.6422 B(  4-C ,  6-H ) :  -0.2780
B(  4-C ,  7-C ) :   0.1481 B(  4-C ,  8-C ) :   0.5328 B(  4-C ,  9-C ) :   0.1443
B(  4-C , 10-C ) :   0.1722 B(  4-C , 11-C ) :   0.1707 B(  4-C , 12-C ) :   0.4398
B(  4-C , 13-H ) :  -0.1793 B(  4-C , 17-H ) :  -0.1731 B(  4-C , 18-H ) :  -0.2298
B(  4-C , 20-C ) :   0.2948 B(  4-C , 26-H ) :  -0.1298 B(  5-C ,  6-H ) :   1.6192
B(  5-C ,  7-C ) :   0.2975 B(  5-C , 19-H ) :  -0.1191 B(  5-C , 20-C ) :  -0.1287
B(  6-H ,  7-C ) :  -0.2045 B(  6-H , 18-H ) :   0.1555 B(  7-C ,  8-C ) :  -0.6480
B(  7-C ,  9-C ) :  -0.1782 B(  7-C , 10-C ) :  -0.2220 B(  7-C , 11-C ) :  -0.1643
B(  7-C , 12-C ) :  -0.5656 B(  7-C , 13-H ) :  -0.1473 B(  7-C , 15-H ) :  -0.1252
B(  7-C , 17-H ) :  -0.1697 B(  7-C , 18-H ) :  -0.1507 B(  8-C ,  9-C ) :   1.1210
B(  8-C , 12-C ) :  -0.7976 B(  8-C , 17-H ) :   1.5932 B(  9-C , 10-C ) :   0.9875
B(  9-C , 11-C ) :   0.2642 B(  9-C , 13-H ) :  -0.1243 B(  9-C , 16-H ) :   0.6747
B(  9-C , 17-H ) :  -0.1783 B( 10-C , 11-C ) :   0.9751 B( 10-C , 15-H ) :   0.5537
B( 11-C , 12-C ) :   1.1165 B( 11-C , 13-H ) :  -0.1736 B( 11-C , 14-H ) :   0.6839
B( 11-C , 17-H ) :  -0.1332 B( 12-C , 13-H ) :   1.5417 B( 12-C , 20-C ) :   0.1016
B( 13-H , 17-H ) :   0.1506 B( 13-H , 26-H ) :  -0.1108 B( 17-H , 19-H ) :  -0.1028
B( 19-H , 26-H ) :   0.1893 B( 20-C , 21-O ) :   0.4055 B( 20-C , 22-C ) :   0.8908
B( 21-O , 26-H ) :   0.2347 B( 22-C , 23-H ) :   0.9368 B( 22-C , 24-H ) :   0.9890
B( 22-C , 25-H ) :   0.9900

Dispersion correction           -0.010167864
FINAL SINGLE POINT ENERGY      -615.940419515563

DIPOLE MOMENT
-------------

Method             : SCF
Type of density    : Electron Density
Multiplicity       :   2
Irrep              :   0
Energy             :  -615.9302516519267101 Eh
Relativity type    :
Basis              : AO
                                X                 Y                 Z
Electronic contribution:      1.958811301       3.047419312      -0.130243324
Nuclear contribution   :      0.834188955      -4.415620198       0.130351873
                        -----------------------------------------
Total Dipole Moment    :      2.793000257      -1.368200886       0.000108549
                        -----------------------------------------
Magnitude (a.u.)       :      3.110116414
Magnitude (Debye)      :      7.905287681

Rotational constants in cm-1:             0.074676             0.008546             0.007689
Rotational constants in MHz :          2238.715412           256.196904           230.518012

                             ****ORCA TERMINATED NORMALLY****
TOTAL RUN TIME: 0 days 0 hours 9 minutes 3 seconds 622 msec
