                         Program Version 6.0.0  -   RELEASE  -
|  1> !B3LYP aug-cc-pVTZ d3 TightSCF SlowConv RIJCOSX defgrid2
|  2>
|  3> %pal
|  4> nprocs 15
|  5> end
|  6>
|  7> %scf
|  8> MaxIter 1500
|  9> end
| 10>
| 11> %maxcore 3500
| 12>
| 13> !CPCM
| 14> %cpcm smd true
| 15> SMDsolvent "WATER"
| 16> surfacetype gepol_ses
| 17> rsolv 1.40
| 18> end
| 19>
| 20> * xyz -1 2
| 21> C           0.00000004903308      0.00000285676658     -0.07927677165041
| 22> C          -1.16509262301003     -0.35747694639887      0.71050337241250
| 23> C           1.16509408020432      0.35747595685912      0.71050209383188
| 24> H          -2.06362612463752     -0.63312787458135      0.14412716721423
| 25> H           2.06363121454948      0.63312802636862      0.14412668715351
| 26> C          -1.16509507944368     -0.35747268029138      2.08215495800193
| 27> C           1.16509160172280      0.35747686687021      2.08215370735606
| 28> H          -2.06363192155032     -0.63312031850306      2.64853168475760
| 29> H           2.06362610689310      0.63313254757272      2.64853030477196
| 30> C           0.00000131049034     -0.00000637822162      2.87193489848665
| 31> O           0.00000216772010     -0.00000733437022      4.12586654778909
| 32> O          -0.00000078197165     -0.00000472207076     -1.33320665012500
| 33> *
| 34>
| 35>                          ****END OF INPUT****

CARTESIAN COORDINATES (ANGSTROEM)
---------------------------------
  C      0.000000    0.000003   -0.079277
  C     -1.165093   -0.357477    0.710503
  C      1.165094    0.357476    0.710502
  H     -2.063626   -0.633128    0.144127
  H      2.063631    0.633128    0.144127
  C     -1.165095   -0.357473    2.082155
  C      1.165092    0.357477    2.082154
  H     -2.063632   -0.633120    2.648532
  H      2.063626    0.633133    2.648530
  C      0.000001   -0.000006    2.871935
  O      0.000002   -0.000007    4.125867
  O     -0.000001   -0.000005   -1.333207

 Total Charge           Charge          ....   -1
 Multiplicity           Mult            ....    2
 Number of Electrons    NEL             ....   57
 Basis Dimension        Dim             ....  460

ORBITAL ENERGIES
----------------
                 SPIN UP ORBITALS
  NO   OCC          E(Eh)            E(eV)
   0   1.0000     -19.093640      -519.5644
   1   1.0000     -19.093638      -519.5643
   2   1.0000     -10.227921      -278.3159
   3   1.0000     -10.227886      -278.3149
   4   1.0000     -10.169578      -276.7283
   5   1.0000     -10.169547      -276.7274
   6   1.0000     -10.168869      -276.7090
   7   1.0000     -10.168833      -276.7080
   8   1.0000      -1.012776       -27.5590
   9   1.0000      -1.010872       -27.5072
  10   1.0000      -0.821476       -22.3535
  11   1.0000      -0.741236       -20.1701
  12   1.0000      -0.685240       -18.6463
  13   1.0000      -0.601882       -16.3780
  14   1.0000      -0.565542       -15.3892
  15   1.0000      -0.476706       -12.9718
  16   1.0000      -0.472463       -12.8564
  17   1.0000      -0.449094       -12.2205
  18   1.0000      -0.415244       -11.2994
  19   1.0000      -0.412154       -11.2153
  20   1.0000      -0.408631       -11.1194
  21   1.0000      -0.387511       -10.5447
  22   1.0000      -0.384421       -10.4606
  23   1.0000      -0.356968        -9.7136
  24   1.0000      -0.291622        -7.9354
  25   1.0000      -0.261909        -7.1269
  26   1.0000      -0.255708        -6.9582
  27   1.0000      -0.247989        -6.7481
  28   1.0000      -0.170304        -4.6342
  29   0.0000      -0.012975        -0.3531
  30   0.0000       0.003237         0.0881
  31   0.0000       0.017090         0.4650
  32   0.0000       0.018141         0.4936
  33   0.0000       0.019145         0.5210

                 SPIN DOWN ORBITALS
  NO   OCC          E(Eh)            E(eV)
   0   1.0000     -19.087075      -519.3857
   1   1.0000     -19.087073      -519.3857
   2   1.0000     -10.226266      -278.2708
   3   1.0000     -10.226233      -278.2699
   4   1.0000     -10.168474      -276.6982
   5   1.0000     -10.168443      -276.6974
   6   1.0000     -10.167751      -276.6786
   7   1.0000     -10.167719      -276.6777
   8   1.0000      -1.001112       -27.2416
   9   1.0000      -0.999021       -27.1847
  10   1.0000      -0.814953       -22.1760
  11   1.0000      -0.738175       -20.0868
  12   1.0000      -0.673673       -18.3316
  13   1.0000      -0.597210       -16.2509
  14   1.0000      -0.560970       -15.2648
  15   1.0000      -0.471926       -12.8418
  16   1.0000      -0.470220       -12.7953
  17   1.0000      -0.444324       -12.0907
  18   1.0000      -0.407624       -11.0920
  19   1.0000      -0.407016       -11.0755
  20   1.0000      -0.393442       -10.7061
  21   1.0000      -0.380762       -10.3611
  22   1.0000      -0.357536        -9.7290
  23   1.0000      -0.354374        -9.6430
  24   1.0000      -0.259647        -7.0654
  25   1.0000      -0.253279        -6.8921
  26   1.0000      -0.249727        -6.7954
  27   1.0000      -0.242426        -6.5967
  28   0.0000      -0.096819        -2.6346
  29   0.0000       0.001910         0.0520
  30   0.0000       0.003520         0.0958
  31   0.0000       0.017136         0.4663
  32   0.0000       0.018518         0.5039

MULLIKEN ATOMIC CHARGES AND SPIN POPULATIONS
--------------------------------------------
   0 C :    0.973516    0.114898
   1 C :   -0.617818    0.076120
   2 C :   -0.617933    0.076238
   3 H :    0.449064    0.000035
   4 H :    0.448790    0.000036
   5 C :   -0.617243    0.076115
   6 C :   -0.616977    0.076184
   7 H :    0.448613    0.000073
   8 H :    0.448651    0.000097
   9 C :    0.973494    0.115029
  10 O :   -1.136221    0.232574
  11 O :   -1.135937    0.232603
Sum of atomic charges         :   -1.0000000

LOEWDIN ATOMIC CHARGES AND SPIN POPULATIONS
-------------------------------------------
   0 C :   -0.703989    0.125097
   1 C :    0.140625    0.074767
   2 C :    0.140628    0.074774
   3 H :   -0.192263    0.007462
   4 H :   -0.192256    0.007464
   5 C :    0.140629    0.074773
   6 C :    0.140626    0.074767
   7 H :   -0.192257    0.007464
   8 H :   -0.192261    0.007462
   9 C :   -0.703988    0.125097
  10 O :    0.307252    0.210437
  11 O :    0.307254    0.210436

  Mayer bond orders larger than 0.100000
B(  0-C ,  1-C ) :   1.0555 B(  0-C ,  2-C ) :   1.0556 B(  0-C ,  5-C ) :  -0.1271
B(  0-C ,  6-C ) :  -0.1277 B(  0-C ,  9-C ) :   0.1902 B(  0-C , 11-O ) :   0.5197
B(  1-C ,  2-C ) :   0.4091 B(  1-C ,  3-H ) :   0.4817 B(  1-C ,  5-C ) :   1.4828
B(  1-C ,  6-C ) :  -0.1125 B(  1-C ,  9-C ) :  -0.1270 B(  1-C , 11-O ) :   0.1709
B(  2-C ,  4-H ) :   0.4815 B(  2-C ,  5-C ) :  -0.1134 B(  2-C ,  6-C ) :   1.4831
B(  2-C ,  9-C ) :  -0.1274 B(  2-C , 11-O ) :   0.1726 B(  5-C ,  6-C ) :   0.4082
B(  5-C ,  7-H ) :   0.4821 B(  5-C ,  9-C ) :   1.0551 B(  5-C , 10-O ) :   0.1720
B(  6-C ,  8-H ) :   0.4821 B(  6-C ,  9-C ) :   1.0565 B(  6-C , 10-O ) :   0.1713
B(  9-C , 10-O ) :   0.5188

Dispersion correction           -0.020838277
FINAL SINGLE POINT ENERGY      -381.573828884376

DIPOLE MOMENT
-------------

Method             : SCF
Type of density    : Electron Density
Multiplicity       :   2
Irrep              :   0
Energy             :  -381.5529906074207815 Eh
Relativity type    :
Basis              : AO
                                X                 Y                 Z
Electronic contribution:     -0.000003490      -0.000005797      -0.000009459
Nuclear contribution   :     -0.000001132       0.000017886      -0.000000443
                        -----------------------------------------
Total Dipole Moment    :     -0.000004622       0.000012089      -0.000009903
                        -----------------------------------------
Magnitude (a.u.)       :      0.000016296
Magnitude (Debye)      :      0.000041422

Rotational constants in cm-1:             0.187010             0.052742             0.041140
Rotational constants in MHz :          5606.406459          1581.174709          1233.336765

                             ****ORCA TERMINATED NORMALLY****
TOTAL RUN TIME: 0 days 0 hours 2 minutes 55 seconds 538 msec
