                         Program Version 6.0.0  -   RELEASE  -
|  1> !B3LYP aug-cc-pVTZ d3 TightSCF SlowConv RIJCOSX defgrid2
|  2>
|  3> %pal
|  4> nprocs 4
|  5> end
|  6>
|  7> %scf
|  8> MaxIter 1500
|  9> end
| 10>
| 11> %maxcore 3000
| 12>
| 13> !CPCM
| 14> %cpcm smd true
| 15> SMDsolvent "MeCN"
| 16> surfacetype gepol_ses
| 17> rsolv 2.19
| 18> end
| 19>
| 20> * xyz -1 2
| 21> C          -0.46059128201799      1.20494017119812      0.00001211596921
| 22> C           0.92271322931352      1.21537673965483      0.00007247103149
| 23> C           1.63885056458078      0.00584757553838      0.00005340465348
| 24> C           0.94016898670995     -1.22082416695804     -0.00001729460884
| 25> C          -0.43745517805739     -1.22871797254679     -0.00008369129513
| 26> C          -1.21082253995963     -0.01928165729328     -0.00007938241516
| 27> C          -2.64176417107169     -0.09933130049804     -0.00014945388498
| 28> O          -3.27680801972250     -1.18193238288940     -0.00022292736286
| 29> C          -3.42795564044194      1.21049531549301     -0.00017211433464
| 30> H          -3.21403956731584      1.83831096883377      0.88847865430575
| 31> H          -3.21389493669869      1.83838205326155     -0.88873743958169
| 32> H          -4.50069805080380      0.95600695488766     -0.00026718717856
| 33> H          -0.99549954367814     -2.16941515727402     -0.00014058350972
| 34> H           1.50562929532190     -2.15884116459823     -0.00002292839518
| 35> Cl          3.39541668285857      0.02068681811563      0.00014426998260
| 36> H           1.47138203008123      2.16312523531408      0.00014024216876
| 37> H          -0.98755245909833      2.16458456976078      0.00003664445548
| 38> *
| 39>
| 40>                          ****END OF INPUT****

CARTESIAN COORDINATES (ANGSTROEM)
---------------------------------
  C     -0.460591    1.204940    0.000012
  C      0.922713    1.215377    0.000072
  C      1.638851    0.005848    0.000053
  C      0.940169   -1.220824   -0.000017
  C     -0.437455   -1.228718   -0.000084
  C     -1.210823   -0.019282   -0.000079
  C     -2.641764   -0.099331   -0.000149
  O     -3.276808   -1.181932   -0.000223
  C     -3.427956    1.210495   -0.000172
  H     -3.214040    1.838311    0.888479
  H     -3.213895    1.838382   -0.888737
  H     -4.500698    0.956007   -0.000267
  H     -0.995500   -2.169415   -0.000141
  H      1.505629   -2.158841   -0.000023
  Cl     3.395417    0.020687    0.000144
  H      1.471382    2.163125    0.000140
  H     -0.987552    2.164585    0.000037

 Total Charge           Charge          ....   -1
 Multiplicity           Mult            ....    2
 Number of Electrons    NEL             ....   81
 Basis Dimension        Dim             ....  625

ORBITAL ENERGIES
----------------
                 SPIN UP ORBITALS
  NO   OCC          E(Eh)            E(eV)
   0   1.0000    -101.547663     -2763.2524
   1   1.0000     -19.051363      -518.4139
   2   1.0000     -10.200791      -277.5776
   3   1.0000     -10.190720      -277.3036
   4   1.0000     -10.162112      -276.5251
   5   1.0000     -10.162031      -276.5229
   6   1.0000     -10.155893      -276.3559
   7   1.0000     -10.150794      -276.2171
   8   1.0000     -10.143796      -276.0267
   9   1.0000     -10.142773      -275.9989
  10   1.0000      -9.451807      -257.1967
  11   1.0000      -7.214209      -196.3086
  12   1.0000      -7.206662      -196.1032
  13   1.0000      -7.206422      -196.0967
  14   1.0000      -0.969377       -26.3781
  15   1.0000      -0.864943       -23.5363
  16   1.0000      -0.810615       -22.0580
  17   1.0000      -0.732649       -19.9364
  18   1.0000      -0.725639       -19.7456
  19   1.0000      -0.684300       -18.6207
  20   1.0000      -0.597040       -16.2463
  21   1.0000      -0.582659       -15.8550
  22   1.0000      -0.523326       -14.2404
  23   1.0000      -0.472842       -12.8667
  24   1.0000      -0.443888       -12.0788
  25   1.0000      -0.428461       -11.6590
  26   1.0000      -0.415833       -11.3154
  27   1.0000      -0.406419       -11.0592
  28   1.0000      -0.402445       -10.9511
  29   1.0000      -0.376713       -10.2509
  30   1.0000      -0.373133       -10.1535
  31   1.0000      -0.364407        -9.9160
  32   1.0000      -0.341075        -9.2811
  33   1.0000      -0.333448        -9.0736
  34   1.0000      -0.318980        -8.6799
  35   1.0000      -0.306808        -8.3487
  36   1.0000      -0.298477        -8.1220
  37   1.0000      -0.249711        -6.7950
  38   1.0000      -0.230150        -6.2627
  39   1.0000      -0.211203        -5.7471
  40   1.0000      -0.095720        -2.6047
  41   0.0000      -0.001748        -0.0476
  42   0.0000      -0.000241        -0.0065
  43   0.0000       0.008622         0.2346
  44   0.0000       0.015529         0.4226
  45   0.0000       0.021049         0.5728

                 SPIN DOWN ORBITALS
  NO   OCC          E(Eh)            E(eV)
   0   1.0000    -101.547570     -2763.2498
   1   1.0000     -19.045936      -518.2663
   2   1.0000     -10.196017      -277.4477
   3   1.0000     -10.187094      -277.2049
   4   1.0000     -10.163133      -276.5529
   5   1.0000     -10.162999      -276.5493
   6   1.0000     -10.153830      -276.2998
   7   1.0000     -10.148663      -276.1592
   8   1.0000     -10.143079      -276.0072
   9   1.0000     -10.142385      -275.9883
  10   1.0000      -9.451713      -257.1942
  11   1.0000      -7.214351      -196.3125
  12   1.0000      -7.206368      -196.0953
  13   1.0000      -7.206154      -196.0894
  14   1.0000      -0.959098       -26.0984
  15   1.0000      -0.861071       -23.4309
  16   1.0000      -0.807553       -21.9746
  17   1.0000      -0.728886       -19.8340
  18   1.0000      -0.720417       -19.6035
  19   1.0000      -0.682115       -18.5613
  20   1.0000      -0.588364       -16.0102
  21   1.0000      -0.580528       -15.7970
  22   1.0000      -0.519748       -14.1431
  23   1.0000      -0.468698       -12.7539
  24   1.0000      -0.441810       -12.0223
  25   1.0000      -0.424854       -11.5609
  26   1.0000      -0.414528       -11.2799
  27   1.0000      -0.401818       -10.9340
  28   1.0000      -0.396142       -10.7796
  29   1.0000      -0.368935       -10.0392
  30   1.0000      -0.367067        -9.9884
  31   1.0000      -0.363311        -9.8862
  32   1.0000      -0.338623        -9.2144
  33   1.0000      -0.320708        -8.7269
  34   1.0000      -0.317834        -8.6487
  35   1.0000      -0.297961        -8.1079
  36   1.0000      -0.289833        -7.8868
  37   1.0000      -0.240885        -6.5548
  38   1.0000      -0.210291        -5.7223
  39   1.0000      -0.206345        -5.6149
  40   0.0000      -0.026446        -0.7196
  41   0.0000      -0.001847        -0.0503
  42   0.0000       0.003713         0.1010
  43   0.0000       0.008798         0.2394
  44   0.0000       0.015298         0.4163

MULLIKEN ATOMIC CHARGES AND SPIN POPULATIONS
--------------------------------------------
   0 C :   -0.423022    0.190262
   1 C :   -0.918977   -0.063351
   2 C :    0.450582    0.271672
   3 C :   -0.781400   -0.061625
   4 C :   -0.930374    0.181784
   5 C :    1.757563    0.105033
   6 C :    0.377886    0.193469
   7 O :   -1.067279    0.208171
   8 C :   -0.648994   -0.018364
   9 H :    0.219592    0.010155
  10 H :    0.220550    0.010137
  11 H :    0.145325    0.000127
  12 H :    0.178108   -0.021387
  13 H :    0.402711   -0.003086
  14 Cl:   -0.440593    0.018301
  15 H :    0.387838   -0.000213
  16 H :    0.070484   -0.021083
Sum of atomic charges         :   -1.0000000

LOEWDIN ATOMIC CHARGES AND SPIN POPULATIONS
-------------------------------------------
   0 C :    0.142150    0.086575
   1 C :    0.048246    0.034337
   2 C :   -0.815081    0.144596
   3 C :    0.047998    0.032939
   4 C :    0.127083    0.085648
   5 C :   -0.206781    0.122215
   6 C :   -0.671267    0.173911
   7 O :    0.343334    0.191538
   8 C :    0.491453    0.032527
   9 H :   -0.175658    0.008276
  10 H :   -0.175692    0.008275
  11 H :   -0.201326   -0.000688
  12 H :   -0.212723    0.018512
  13 H :   -0.205506   -0.002862
  14 Cl:    0.868656    0.048423
  15 H :   -0.204390   -0.002344
  16 H :   -0.200495    0.018123

  Mayer bond orders larger than 0.100000
B(  0-C ,  1-C ) :   1.1570 B(  0-C ,  3-C ) :  -0.1422 B(  0-C ,  4-C ) :  -0.4273
B(  0-C ,  5-C ) :   0.1597 B(  0-C ,  6-C ) :   0.2010 B(  0-C , 16-H ) :   1.3511
B(  1-C ,  2-C ) :   1.2007 B(  1-C ,  3-C ) :   0.1478 B(  1-C , 14-Cl) :   0.1169
B(  1-C , 15-H ) :   0.6979 B(  2-C ,  3-C ) :   1.1880 B(  2-C , 14-Cl) :   0.4610
B(  3-C ,  4-C ) :   1.4598 B(  3-C , 13-H ) :   0.7210 B(  3-C , 14-Cl) :   0.1333
B(  4-C ,  6-C ) :   0.4010 B(  4-C , 12-H ) :   1.0596 B(  5-C ,  6-C ) :   0.2706
B(  5-C ,  7-O ) :   0.1907 B(  5-C , 16-H ) :  -0.2397 B(  6-C ,  7-O ) :   0.6669
B(  6-C ,  8-C ) :   0.9539 B(  8-C ,  9-H ) :   0.9700 B(  8-C , 10-H ) :   0.9695
B(  8-C , 11-H ) :   0.9951

Dispersion correction           -0.033471944
FINAL SINGLE POINT ENERGY      -844.502745343926

DIPOLE MOMENT
-------------

Method             : SCF
Type of density    : Electron Density
Multiplicity       :   2
Irrep              :   0
Energy             :  -844.4692733994644414 Eh
Relativity type    :
Basis              : AO
                                X                 Y                 Z
Electronic contribution:     16.046093146      -2.867348015       0.001241425
Nuclear contribution   :    -13.986086072       4.323351945      -0.000564645
                        -----------------------------------------
Total Dipole Moment    :      2.060007073       1.456003930       0.000676780
                        -----------------------------------------
Magnitude (a.u.)       :      2.522613138
Magnitude (Debye)      :      6.411973029

Rotational constants in cm-1:             0.120838             0.018120             0.015805
Rotational constants in MHz :          3622.634829           543.238146           473.808861

                             ****ORCA TERMINATED NORMALLY****
TOTAL RUN TIME: 0 days 0 hours 6 minutes 12 seconds 702 msec
