                         Program Version 6.0.0  -   RELEASE  -
|  1> !PBE0 freq aug-cc-pVTZ d3 TightSCF SlowConv RIJCOSX defgrid2
|  2>
|  3> %pal
|  4> nprocs 12
|  5> end
|  6>
|  7> %scf
|  8> MaxIter 1500
|  9> end
| 10>
| 11> %maxcore 5000
| 12>
| 13> !CPCM
| 14> %cpcm smd true
| 15> SMDsolvent "MeCN"
| 16> surfacetype gepol_ses
| 17> rsolv 2.19
| 18> end
| 19>
| 20> * xyz 0 1
| 21> C           2.41767268941851     -0.70483303255946     -0.00021166455965
| 22> C           2.41768671490135      0.70480795344225     -0.00020265201787
| 23> C           1.23651166140538      1.39579551093315     -0.00009979952045
| 24> C           0.00000865481372      0.71155132404316     -0.00001756121161
| 25> C          -1.23648508425402      1.39581511039888      0.00009299741913
| 26> C          -2.41766365683277      0.70483987841171      0.00021243386316
| 27> C          -2.41767092036122     -0.70479291286721      0.00022931964157
| 28> C          -1.23651279018178     -1.39580162151120      0.00007635359646
| 29> C          -0.00000233314277     -0.71156650836565     -0.00003216423707
| 30> C           1.23649660570771     -1.39581854506730     -0.00011481385633
| 31> H           1.23336754720818     -2.48016218769526      0.00002397563525
| 32> H          -1.23342451675501     -2.48015113195554     -0.00005359598214
| 33> H          -3.35988435145156     -1.23952887692031     -0.00013740586286
| 34> H          -3.35987280534981      1.23959320659197     -0.00019804733022
| 35> H          -1.23334219452112      2.48016015310056     -0.00001277445091
| 36> H           1.23337923183902      2.48014574677936      0.00004280078523
| 37> H           3.35989556656334      1.23957662659981      0.00023785448401
| 38> H           3.35987128099286     -1.23960859335895      0.00024114360430
| 39> *
| 40>
| 41>                          ****END OF INPUT****

CARTESIAN COORDINATES (ANGSTROEM)
---------------------------------
  C      2.417673   -0.704833   -0.000212
  C      2.417687    0.704808   -0.000203
  C      1.236512    1.395796   -0.000100
  C      0.000009    0.711551   -0.000018
  C     -1.236485    1.395815    0.000093
  C     -2.417664    0.704840    0.000212
  C     -2.417671   -0.704793    0.000229
  C     -1.236513   -1.395802    0.000076
  C     -0.000002   -0.711567   -0.000032
  C      1.236497   -1.395819   -0.000115
  H      1.233368   -2.480162    0.000024
  H     -1.233425   -2.480151   -0.000054
  H     -3.359884   -1.239529   -0.000137
  H     -3.359873    1.239593   -0.000198
  H     -1.233342    2.480160   -0.000013
  H      1.233379    2.480146    0.000043
  H      3.359896    1.239577    0.000238
  H      3.359871   -1.239609    0.000241

 Total Charge           Charge          ....    0
 Multiplicity           Mult            ....    1
 Number of Electrons    NEL             ....   68
 Basis Dimension        Dim             ....  644

ORBITAL ENERGIES
----------------

  NO   OCC          E(Eh)            E(eV)
   0   2.0000     -10.240872      -278.6683
   1   2.0000     -10.240348      -278.6540
   2   2.0000     -10.229600      -278.3616
   3   2.0000     -10.229584      -278.3611
   4   2.0000     -10.229509      -278.3591
   5   2.0000     -10.229496      -278.3587
   6   2.0000     -10.228759      -278.3387
   7   2.0000     -10.228757      -278.3386
   8   2.0000     -10.228314      -278.3266
   9   2.0000     -10.228304      -278.3263
  10   2.0000      -0.907760       -24.7014
  11   2.0000      -0.851561       -23.1722
  12   2.0000      -0.801456       -21.8087
  13   2.0000      -0.767241       -20.8777
  14   2.0000      -0.744047       -20.2465
  15   2.0000      -0.646576       -17.5942
  16   2.0000      -0.632677       -17.2160
  17   2.0000      -0.616276       -16.7697
  18   2.0000      -0.531948       -14.4750
  19   2.0000      -0.524148       -14.2628
  20   2.0000      -0.510957       -13.9038
  21   2.0000      -0.458768       -12.4837
  22   2.0000      -0.456880       -12.4323
  23   2.0000      -0.431098       -11.7308
  24   2.0000      -0.428882       -11.6705
  25   2.0000      -0.416379       -11.3302
  26   2.0000      -0.410202       -11.1622
  27   2.0000      -0.378733       -10.3058
  28   2.0000      -0.350076        -9.5261
  29   2.0000      -0.348331        -9.4786
  30   2.0000      -0.339746        -9.2450
  31   2.0000      -0.306262        -8.3338
  32   2.0000      -0.263161        -7.1610
  33   2.0000      -0.234148        -6.3715
  34   0.0000      -0.044922        -1.2224
  35   0.0000      -0.017404        -0.4736
  36   0.0000       0.002693         0.0733
  37   0.0000       0.012425         0.3381
  38   0.0000       0.013851         0.3769

MULLIKEN ATOMIC CHARGES
-----------------------
   0 C :   -0.487129
   1 C :   -0.484172
   2 C :   -1.178874
   3 C :    1.478081
   4 C :   -1.181346
   5 C :   -0.478723
   6 C :   -0.479251
   7 C :   -1.180588
   8 C :    1.468296
   9 C :   -1.178724
  10 H :    0.190114
  11 H :    0.182204
  12 H :    0.742880
  13 H :    0.737421
  14 H :    0.184015
  15 H :    0.181317
  16 H :    0.747679
  17 H :    0.736799
Sum of atomic charges:   -0.0000000

LOEWDIN ATOMIC CHARGES
----------------------
   0 C :    0.196091
   1 C :    0.196098
   2 C :    0.212869
   3 C :   -0.134729
   4 C :    0.212874
   5 C :    0.196097
   6 C :    0.196092
   7 C :    0.212874
   8 C :   -0.134725
   9 C :    0.212875
  10 H :   -0.166926
  11 H :   -0.166924
  12 H :   -0.174680
  13 H :   -0.174676
  14 H :   -0.166930
  15 H :   -0.166926
  16 H :   -0.174672
  17 H :   -0.174682

  Mayer bond orders larger than 0.100000
B(  0-C ,  1-C ) :   1.2797 B(  0-C ,  3-C ) :  -0.2038 B(  0-C ,  7-C ) :   0.1017
B(  0-C ,  9-C ) :   1.3342 B(  0-C , 17-H ) :   0.1743 B(  1-C ,  2-C ) :   1.3225
B(  1-C ,  4-C ) :   0.1019 B(  1-C ,  8-C ) :  -0.2062 B(  1-C , 16-H ) :   0.1562
B(  2-C ,  4-C ) :   0.4621 B(  2-C ,  5-C ) :   0.1026 B(  2-C ,  8-C ) :  -0.2316
B(  2-C ,  9-C ) :   0.1042 B(  2-C , 15-H ) :   1.1826 B(  2-C , 16-H ) :  -0.2129
B(  3-C ,  6-C ) :  -0.2096 B(  3-C ,  7-C ) :  -0.2324 B(  3-C ,  8-C ) :   1.1831
B(  3-C ,  9-C ) :  -0.2283 B(  4-C ,  5-C ) :   1.3280 B(  4-C ,  7-C ) :   0.1051
B(  4-C ,  8-C ) :  -0.2299 B(  4-C , 13-H ) :  -0.2111 B(  4-C , 14-H ) :   1.1792
B(  5-C ,  6-C ) :   1.2699 B(  5-C ,  8-C ) :  -0.2072 B(  5-C , 13-H ) :   0.1735
B(  6-C ,  7-C ) :   1.3321 B(  6-C ,  9-C ) :   0.1018 B(  6-C , 12-H ) :   0.1658
B(  7-C ,  9-C ) :   0.4519 B(  7-C , 11-H ) :   1.1783 B(  7-C , 12-H ) :  -0.2121
B(  9-C , 10-H ) :   1.1636 B(  9-C , 17-H ) :  -0.2087

Dispersion correction           -0.018560145
FINAL SINGLE POINT ENERGY      -385.586565186682

DIPOLE MOMENT
-------------

Method             : SCF
Type of density    : Electron Density
Multiplicity       :   1
Irrep              :   0
Energy             :  -385.5680050421310057 Eh
Relativity type    :
Basis              : AO
                                X                 Y                 Z
Electronic contribution:      0.000014883      -0.000019476      -0.000120311
Nuclear contribution   :     -0.000038221       0.000023928       0.000174065
                        -----------------------------------------
Total Dipole Moment    :     -0.000023338       0.000004452       0.000053754
                        -----------------------------------------
Magnitude (a.u.)       :      0.000058770
Magnitude (Debye)      :      0.000149382

VIBRATIONAL FREQUENCIES
-----------------------

Scaling factor for frequencies =  1.000000000  (already applied!)

     0:       0.00 cm**-1
     1:       0.00 cm**-1
     2:       0.00 cm**-1
     3:       0.00 cm**-1
     4:       0.00 cm**-1
     5:       0.00 cm**-1
     6:     169.10 cm**-1
     7:     171.52 cm**-1
     8:     336.85 cm**-1
     9:     393.97 cm**-1
    10:     473.10 cm**-1
    11:     484.84 cm**-1
    12:     504.57 cm**-1
    13:     514.96 cm**-1
    14:     586.47 cm**-1
    15:     614.38 cm**-1
    16:     732.30 cm**-1
    17:     774.69 cm**-1
    18:     791.94 cm**-1
    19:     801.13 cm**-1
    20:     805.83 cm**-1
    21:     853.14 cm**-1
    22:     912.23 cm**-1
    23:     934.95 cm**-1
    24:     978.10 cm**-1
    25:     997.66 cm**-1
    26:    1001.21 cm**-1
    27:    1014.76 cm**-1
    28:    1020.70 cm**-1
    29:    1039.77 cm**-1
    30:    1130.36 cm**-1
    31:    1142.78 cm**-1
    32:    1148.15 cm**-1
    33:    1158.12 cm**-1
    34:    1223.39 cm**-1
    35:    1243.63 cm**-1
    36:    1275.55 cm**-1
    37:    1402.05 cm**-1
    38:    1403.69 cm**-1
    39:    1430.30 cm**-1
    40:    1482.47 cm**-1
    41:    1487.03 cm**-1
    42:    1555.65 cm**-1
    43:    1633.88 cm**-1
    44:    1653.59 cm**-1
    45:    1689.24 cm**-1
    46:    3172.60 cm**-1
    47:    3178.78 cm**-1
    48:    3181.68 cm**-1
    49:    3183.62 cm**-1
    50:    3194.06 cm**-1
    51:    3195.79 cm**-1
    52:    3207.53 cm**-1
    53:    3208.46 cm**-1

IR SPECTRUM
-----------

 Mode   freq       eps      Int      T**2         TX        TY        TZ
       cm**-1   L/(mol*cm) km/mol    a.u.
----------------------------------------------------------------------------
  6:    169.10   0.001110    5.61  0.002048  (-0.000040  0.000034 -0.045259)
  7:    171.52   0.000000    0.00  0.000000  (-0.000003 -0.000237 -0.000045)
  8:    336.85   0.001075    5.43  0.000996  ( 0.000001  0.031557  0.000000)
  9:    393.97   0.000000    0.00  0.000000  ( 0.000001 -0.000010 -0.000020)
 10:    473.10   0.000000    0.00  0.000000  ( 0.000014  0.000005 -0.000050)
 11:    484.84   0.010344   52.27  0.006658  (-0.000046  0.000008  0.081594)
 12:    504.57   0.000000    0.00  0.000000  (-0.000009 -0.000001 -0.000025)
 13:    514.96   0.000000    0.00  0.000000  ( 0.000001 -0.000001  0.000006)
 14:    586.47   0.000000    0.00  0.000000  (-0.000028  0.000017 -0.000008)
 15:    614.38   0.001944    9.82  0.000987  ( 0.031424 -0.000000 -0.000142)
 16:    732.30   0.000000    0.00  0.000000  (-0.000003  0.000001 -0.000017)
 17:    774.69   0.000000    0.00  0.000000  (-0.000000  0.000000  0.000005)
 18:    791.94   0.000000    0.00  0.000000  ( 0.000011  0.000006  0.000144)
 19:    801.13   0.000004    0.02  0.000002  ( 0.000002  0.001217 -0.000187)
 20:    805.83   0.047500  240.05  0.018395  ( 0.000037  0.000014 -0.135627)
 21:    853.14   0.000000    0.00  0.000000  ( 0.000003  0.000238  0.000011)
 22:    912.23   0.000000    0.00  0.000000  ( 0.000005  0.000010 -0.000009)
 23:    934.95   0.000000    0.00  0.000000  ( 0.000004  0.000001 -0.000000)
 24:    978.10   0.000000    0.00  0.000000  ( 0.000001  0.000012  0.000024)
 25:    997.66   0.001748    8.83  0.000547  ( 0.000595 -0.000019 -0.023372)
 26:   1001.21   0.000000    0.00  0.000000  (-0.000006  0.000294 -0.000048)
 27:   1014.76   0.000000    0.00  0.000000  ( 0.000054  0.000002 -0.000002)
 28:   1020.70   0.006787   34.30  0.002075  ( 0.045552  0.000001  0.000431)
 29:   1039.77   0.000000    0.00  0.000000  (-0.000013 -0.000002 -0.000005)
 30:   1130.36   0.002943   14.87  0.000813  (-0.000010  0.028506  0.000001)
 31:   1142.78   0.000000    0.00  0.000000  ( 0.000013 -0.000040 -0.000001)
 32:   1148.15   0.000140    0.71  0.000038  ( 0.006160  0.000022  0.000042)
 33:   1158.12   0.000000    0.00  0.000000  (-0.000002  0.000016 -0.000000)
 34:   1223.39   0.000209    1.06  0.000053  ( 0.007307  0.000005  0.000037)
 35:   1243.63   0.000000    0.00  0.000000  (-0.000005  0.000003  0.000001)
 36:   1275.55   0.001020    5.15  0.000250  (-0.000001  0.015797  0.000000)
 37:   1402.05   0.000424    2.14  0.000094  ( 0.009709  0.000104  0.000052)
 38:   1403.69   0.003161   15.97  0.000703  (-0.000038  0.026509  0.000001)
 39:   1430.30   0.000000    0.00  0.000000  ( 0.000004 -0.000010  0.000000)
 40:   1482.47   0.000000    0.00  0.000000  ( 0.000001  0.000005 -0.000000)
 41:   1487.03   0.000000    0.00  0.000000  (-0.000005 -0.000002  0.000002)
 42:   1555.65   0.003968   20.06  0.000796  ( 0.028215 -0.000005 -0.000023)
 43:   1633.88   0.000000    0.00  0.000000  ( 0.000002  0.000003  0.000000)
 44:   1653.59   0.000761    3.85  0.000144  ( 0.000001  0.011985 -0.000000)
 45:   1689.24   0.000000    0.00  0.000000  ( 0.000004  0.000000  0.000002)
 46:   3172.60   0.000000    0.00  0.000000  ( 0.000011 -0.000033 -0.000000)
 47:   3178.78   0.002293   11.59  0.000225  (-0.000017  0.015003  0.000000)
 48:   3181.68   0.000116    0.59  0.000011  ( 0.003371  0.000060 -0.000062)
 49:   3183.62   0.000000    0.00  0.000000  (-0.000003 -0.000052 -0.000001)
 50:   3194.06   0.000005    0.03  0.000001  ( 0.000019  0.000710 -0.000001)
 51:   3195.79   0.013602   68.74  0.001328  (-0.000032 -0.036444 -0.000000)
 52:   3207.53   0.010187   51.48  0.000991  ( 0.031481 -0.000035 -0.000127)
 53:   3208.46   0.000010    0.05  0.000001  ( 0.000970  0.000031 -0.000004)

--------------------------
THERMOCHEMISTRY AT 298.15K
--------------------------

Temperature         ...   298.15 K
Pressure            ...     1.00 atm
Total Mass          ...   128.17 AMU
Quasi RRHO          ...     True
Cut-Off Frequency   ...     1.00 cm^-1

Throughout the following assumptions are being made:
  (1) The electronic state is orbitally nondegenerate
  (2) There are no thermally accessible electronically excited states
  (3) Hindered rotations indicated by low frequency modes are not
      treated as such but are treated as vibrations and this may
      cause some error
  (4) All equations used are the standard statistical mechanics
      equations for an ideal gas
  (5) All vibrations are strictly harmonic

freq.     169.10  E(vib)   ...       0.38
freq.     171.52  E(vib)   ...       0.38
freq.     336.85  E(vib)   ...       0.24
freq.     393.97  E(vib)   ...       0.20
freq.     473.10  E(vib)   ...       0.15
freq.     484.84  E(vib)   ...       0.15
freq.     504.57  E(vib)   ...       0.14
freq.     514.96  E(vib)   ...       0.13
freq.     586.47  E(vib)   ...       0.11
freq.     614.38  E(vib)   ...       0.10
freq.     732.30  E(vib)   ...       0.06
freq.     774.69  E(vib)   ...       0.05
freq.     791.94  E(vib)   ...       0.05
freq.     801.13  E(vib)   ...       0.05
freq.     805.83  E(vib)   ...       0.05
freq.     853.14  E(vib)   ...       0.04
freq.     912.23  E(vib)   ...       0.03
freq.     934.95  E(vib)   ...       0.03
freq.     978.10  E(vib)   ...       0.03
freq.     997.66  E(vib)   ...       0.02
freq.    1001.21  E(vib)   ...       0.02
freq.    1014.76  E(vib)   ...       0.02
freq.    1020.70  E(vib)   ...       0.02
freq.    1039.77  E(vib)   ...       0.02
freq.    1130.36  E(vib)   ...       0.01
freq.    1142.78  E(vib)   ...       0.01
freq.    1148.15  E(vib)   ...       0.01
freq.    1158.12  E(vib)   ...       0.01
freq.    1223.39  E(vib)   ...       0.01
freq.    1243.63  E(vib)   ...       0.01
freq.    1275.55  E(vib)   ...       0.01
freq.    1402.05  E(vib)   ...       0.00
freq.    1403.69  E(vib)   ...       0.00
freq.    1430.30  E(vib)   ...       0.00
freq.    1482.47  E(vib)   ...       0.00
freq.    1487.03  E(vib)   ...       0.00
freq.    1555.65  E(vib)   ...       0.00
freq.    1633.88  E(vib)   ...       0.00
freq.    1653.59  E(vib)   ...       0.00
freq.    1689.24  E(vib)   ...       0.00
freq.    3172.60  E(vib)   ...       0.00
freq.    3178.78  E(vib)   ...       0.00
freq.    3181.68  E(vib)   ...       0.00
freq.    3183.62  E(vib)   ...       0.00
freq.    3194.06  E(vib)   ...       0.00
freq.    3195.79  E(vib)   ...       0.00
freq.    3207.53  E(vib)   ...       0.00
freq.    3208.46  E(vib)   ...       0.00

------------
INNER ENERGY
------------

The inner energy is: U= E(el) + E(ZPE) + E(vib) + E(rot) + E(trans)
    E(el)   - is the total energy from the electronic structure calculation
              = E(kin-el) + E(nuc-el) + E(el-el) + E(nuc-nuc)
    E(ZPE)  - the the zero temperature vibrational energy from the frequency calculation
    E(vib)  - the the finite temperature correction to E(ZPE) due to population
              of excited vibrational states
    E(rot)  - is the rotational thermal energy
    E(trans)- is the translational thermal energy

Summary of contributions to the inner energy U:
Electronic energy                ...   -385.58656519 Eh
Zero point energy                ...      0.14692026 Eh      92.19 kcal/mol
Thermal vibrational correction   ...      0.00411124 Eh       2.58 kcal/mol
Thermal rotational correction    ...      0.00141627 Eh       0.89 kcal/mol
Thermal translational correction ...      0.00141627 Eh       0.89 kcal/mol
-----------------------------------------------------------------------
Total thermal energy                   -385.43270114 Eh

Summary of corrections to the electronic energy:
(perhaps to be used in another calculation)
Total thermal correction                  0.00694379 Eh       4.36 kcal/mol
Non-thermal (ZPE) correction              0.14692026 Eh      92.19 kcal/mol
-----------------------------------------------------------------------
Total correction                          0.15386404 Eh      96.55 kcal/mol

--------
ENTHALPY
--------

The enthalpy is H = U + kB*T
                kB is Boltzmann's constant
Total thermal energy              ...   -385.43270114 Eh
Thermal Enthalpy correction       ...      0.00094421 Eh       0.59 kcal/mol
-----------------------------------------------------------------------
Total Enthalpy                    ...   -385.43175693 Eh

Note: Rotational entropy computed according to Herzberg
Infrared and Raman Spectra, Chapter V,1, Van Nostrand Reinhold, 1945
Point Group:  Cs, Symmetry Number:   1
Rotational constants in cm-1:     0.104947     0.041528     0.029754

Vibrational entropy computed according to the QRRHO of S. Grimme
Chem.Eur.J. 2012 18 9955 using a reference frequency of 100.0 cm-1

-------
ENTROPY
-------

The entropy contributions are T*S = T*(S(el)+S(vib)+S(rot)+S(trans))
     S(el)   - electronic entropy
     S(vib)  - vibrational entropy
     S(rot)  - rotational entropy
     S(trans)- translational entropy
The entropies will be listed as multiplied by the temperature to get
units of energy

Electronic entropy                ...      0.00000000 Eh      0.00 kcal/mol
Vibrational entropy               ...      0.00625350 Eh      3.92 kcal/mol
Rotational entropy                ...      0.01373623 Eh      8.62 kcal/mol
Translational entropy             ...      0.01922279 Eh     12.06 kcal/mol
-----------------------------------------------------------------------
Final entropy term                ...      0.03921252 Eh     24.61 kcal/mol

In case the symmetry of your molecule has not been determined correctly
or in case you have a reason to use a different symmetry number we print
out the resulting rotational entropy values for sn=1,12:

 non-linear molecules -----------------------------------
|  sn= 1 | S(rot)=       0.01373623 Eh      8.62 kcal/mol|
|  sn= 2 | S(rot)=       0.01308178 Eh      8.21 kcal/mol|
|  sn= 3 | S(rot)=       0.01269894 Eh      7.97 kcal/mol|
|  sn= 4 | S(rot)=       0.01242732 Eh      7.80 kcal/mol|
|  sn= 5 | S(rot)=       0.01221663 Eh      7.67 kcal/mol|
|  sn= 6 | S(rot)=       0.01204449 Eh      7.56 kcal/mol|
|  sn= 7 | S(rot)=       0.01189894 Eh      7.47 kcal/mol|
|  sn= 8 | S(rot)=       0.01177286 Eh      7.39 kcal/mol|
|  sn= 9 | S(rot)=       0.01166166 Eh      7.32 kcal/mol|
|  sn=10 | S(rot)=       0.01156218 Eh      7.26 kcal/mol|
|  sn=11 | S(rot)=       0.01147219 Eh      7.20 kcal/mol|
|  sn=12 | S(rot)=       0.01139003 Eh      7.15 kcal/mol|
 linear molecules ---------------------------------------
|  Dinfh | S(rot)=       0.00864439 Eh      5.42 kcal/mol|
|  Cinfv | S(rot)=       0.00929885 Eh      5.84 kcal/mol|
 --------------------------------------------------------

                             ****ORCA TERMINATED NORMALLY****
TOTAL RUN TIME: 0 days 0 hours 40 minutes 52 seconds 938 msec
