                         Program Version 6.0.0  -   RELEASE  -
|  1> !r2SCAN aug-cc-pVTZ d3 TightSCF SlowConv RIJCOSX defgrid2
|  2>
|  3> %pal
|  4> nprocs 4
|  5> end
|  6>
|  7> %scf
|  8> MaxIter 1500
|  9> end
| 10>
| 11> %maxcore 3000
| 12>
| 13> !CPCM
| 14> %cpcm smd true
| 15> SMDsolvent "MeCN"
| 16> surfacetype gepol_ses
| 17> rsolv 2.19
| 18> end
| 19>
| 20> * xyz 1 2
| 21> C          -1.88926886591052     -0.71829471042902     -0.00000151658975
| 22> C          -0.69976165931068     -1.41947642476781     -0.00004682086503
| 23> C           0.52546620787527     -0.73616642455340     -0.00005070921479
| 24> C           1.80539513424131     -1.47669107886068     -0.00023735663381
| 25> H           2.41895885184776     -1.20629923183368      0.88130420897190
| 26> H           1.65030845286960     -2.56505007458612      0.00054431743935
| 27> H           2.41781413244718     -1.20753960674201     -0.88298442839847
| 28> C           0.52547898558837      0.73614990429939      0.00000366497278
| 29> C           1.80542537047235      1.47665380279544      0.00015411128337
| 30> H           2.41897294335330      1.20625813469298     -0.88139556544038
| 31> H           1.65034488477417      2.56501332425354     -0.00063843565960
| 32> H           2.41785215045554      1.20751683668618      0.88290259762033
| 33> C          -0.69973036540407      1.41946691144153      0.00005351354497
| 34> C          -1.88925441678624      0.71829392037224      0.00005440335703
| 35> H          -2.84458396121263      1.25172450263367      0.00010059257370
| 36> H          -0.70436141297793      2.51237392702987      0.00009399193885
| 37> H          -0.70439462134719     -2.51238326028565     -0.00008450613426
| 38> H          -2.84460951097560     -1.25170515214647     -0.00000996276619
| 39> *
| 40>
| 41>                          ****END OF INPUT****

CARTESIAN COORDINATES (ANGSTROEM)
---------------------------------
  C     -1.889269   -0.718295   -0.000002
  C     -0.699762   -1.419476   -0.000047
  C      0.525466   -0.736166   -0.000051
  C      1.805395   -1.476691   -0.000237
  H      2.418959   -1.206299    0.881304
  H      1.650308   -2.565050    0.000544
  H      2.417814   -1.207540   -0.882984
  C      0.525479    0.736150    0.000004
  C      1.805425    1.476654    0.000154
  H      2.418973    1.206258   -0.881396
  H      1.650345    2.565013   -0.000638
  H      2.417852    1.207517    0.882903
  C     -0.699730    1.419467    0.000054
  C     -1.889254    0.718294    0.000054
  H     -2.844584    1.251725    0.000101
  H     -0.704361    2.512374    0.000094
  H     -0.704395   -2.512383   -0.000085
  H     -2.844610   -1.251705   -0.000010

 Total Charge           Charge          ....    1
 Multiplicity           Mult            ....    2
 Number of Electrons    NEL             ....   57
 Basis Dimension        Dim             ....  598

ORBITAL ENERGIES
----------------
                 SPIN UP ORBITALS
  NO   OCC          E(Eh)            E(eV)
   0   1.0000     -10.125424      -275.5268
   1   1.0000     -10.125198      -275.5207
   2   1.0000     -10.101964      -274.8884
   3   1.0000     -10.101650      -274.8799
   4   1.0000     -10.074172      -274.1321
   5   1.0000     -10.074150      -274.1316
   6   1.0000     -10.054512      -273.5972
   7   1.0000     -10.054427      -273.5949
   8   1.0000      -0.877595       -23.8806
   9   1.0000      -0.792103       -21.5542
  10   1.0000      -0.777000       -21.1432
  11   1.0000      -0.701800       -19.0969
  12   1.0000      -0.672925       -18.3112
  13   1.0000      -0.600789       -16.3483
  14   1.0000      -0.583382       -15.8746
  15   1.0000      -0.500624       -13.6227
  16   1.0000      -0.481660       -13.1066
  17   1.0000      -0.449568       -12.2334
  18   1.0000      -0.441947       -12.0260
  19   1.0000      -0.420590       -11.4448
  20   1.0000      -0.407557       -11.0902
  21   1.0000      -0.392673       -10.6852
  22   1.0000      -0.378874       -10.3097
  23   1.0000      -0.378552       -10.3009
  24   1.0000      -0.370158       -10.0725
  25   1.0000      -0.343459        -9.3460
  26   1.0000      -0.339183        -9.2296
  27   1.0000      -0.279127        -7.5954
  28   1.0000      -0.277228        -7.5438
  29   0.0000      -0.103953        -2.8287
  30   0.0000      -0.069563        -1.8929
  31   0.0000       0.004101         0.1116
  32   0.0000       0.016976         0.4619
  33   0.0000       0.022171         0.6033

                 SPIN DOWN ORBITALS
  NO   OCC          E(Eh)            E(eV)
   0   1.0000     -10.119686      -275.3707
   1   1.0000     -10.119464      -275.3646
   2   1.0000     -10.097663      -274.7714
   3   1.0000     -10.097353      -274.7629
   4   1.0000     -10.076035      -274.1829
   5   1.0000     -10.076012      -274.1822
   6   1.0000     -10.054559      -273.5985
   7   1.0000     -10.054474      -273.5961
   8   1.0000      -0.865649       -23.5555
   9   1.0000      -0.778444       -21.1825
  10   1.0000      -0.773279       -21.0420
  11   1.0000      -0.699630       -19.0379
  12   1.0000      -0.665869       -18.1192
  13   1.0000      -0.595523       -16.2050
  14   1.0000      -0.575221       -15.6526
  15   1.0000      -0.498771       -13.5723
  16   1.0000      -0.479501       -13.0479
  17   1.0000      -0.444785       -12.1032
  18   1.0000      -0.423251       -11.5173
  19   1.0000      -0.420340       -11.4380
  20   1.0000      -0.404650       -11.0111
  21   1.0000      -0.385147       -10.4804
  22   1.0000      -0.378214       -10.2917
  23   1.0000      -0.376974       -10.2580
  24   1.0000      -0.350692        -9.5428
  25   1.0000      -0.341771        -9.3001
  26   1.0000      -0.336629        -9.1601
  27   1.0000      -0.272139        -7.4053
  28   0.0000      -0.228902        -6.2287
  29   0.0000      -0.058258        -1.5853
  30   0.0000      -0.057137        -1.5548
  31   0.0000       0.005834         0.1588
  32   0.0000       0.019206         0.5226

MULLIKEN ATOMIC CHARGES AND SPIN POPULATIONS
--------------------------------------------
   0 C :   -0.190919    0.240029
   1 C :   -0.863198   -0.158136
   2 C :    1.085413    0.389464
   3 C :   -0.611829   -0.062053
   4 H :    0.239582    0.039854
   5 H :    0.059879   -0.006855
   6 H :    0.240280    0.039981
   7 C :    1.085965    0.389356
   8 C :   -0.610387   -0.061983
   9 H :    0.240273    0.039858
  10 H :    0.059692   -0.006851
  11 H :    0.240429    0.039968
  12 C :   -0.862070   -0.157989
  13 C :   -0.190568    0.239655
  14 H :    0.615437    0.032674
  15 H :   -0.076767   -0.014826
  16 H :   -0.076715   -0.014845
  17 H :    0.615502    0.032699
Sum of atomic charges         :    1.0000000

LOEWDIN ATOMIC CHARGES AND SPIN POPULATIONS
-------------------------------------------
   0 C :    0.294970    0.157256
   1 C :    0.278444    0.033030
   2 C :   -0.019573    0.197115
   3 C :    0.628769    0.059867
   4 H :   -0.129087    0.015742
   5 H :   -0.145203    0.001516
   6 H :   -0.128934    0.015770
   7 C :   -0.019469    0.197122
   8 C :    0.628881    0.059882
   9 H :   -0.128976    0.015752
  10 H :   -0.145245    0.001519
  11 H :   -0.128951    0.015776
  12 C :    0.278459    0.033064
  13 C :    0.294976    0.157139
  14 H :   -0.133118    0.029582
  15 H :   -0.146422   -0.009868
  16 H :   -0.146417   -0.009884
  17 H :   -0.133105    0.029620

  Mayer bond orders larger than 0.100000
B(  0-C ,  1-C ) :   1.0162 B(  0-C ,  2-C ) :   0.1270 B(  0-C ,  7-C ) :  -0.1466
B(  0-C , 13-C ) :   0.8267 B(  0-C , 17-H ) :   0.4035 B(  1-C ,  2-C ) :   0.3380
B(  1-C ,  7-C ) :  -0.1275 B(  1-C , 16-H ) :   1.4804 B(  1-C , 17-H ) :  -0.1242
B(  2-C ,  3-C ) :   0.3090 B(  2-C ,  7-C ) :   1.0990 B(  2-C , 12-C ) :  -0.1270
B(  2-C , 13-C ) :  -0.1473 B(  2-C , 16-H ) :  -0.1165 B(  3-C ,  4-H ) :   0.9389
B(  3-C ,  5-H ) :   1.1043 B(  3-C ,  6-H ) :   0.9379 B(  7-C ,  8-C ) :   0.3083
B(  7-C , 12-C ) :   0.3373 B(  7-C , 13-C ) :   0.1262 B(  7-C , 15-H ) :  -0.1163
B(  8-C ,  9-H ) :   0.9378 B(  8-C , 10-H ) :   1.1052 B(  8-C , 11-H ) :   0.9380
B( 12-C , 13-C ) :   1.0162 B( 12-C , 14-H ) :  -0.1241 B( 12-C , 15-H ) :   1.4799
B( 13-C , 14-H ) :   0.4038

Dispersion correction           -0.005327761
FINAL SINGLE POINT ENERGY      -310.589468767781

DIPOLE MOMENT
-------------

Method             : SCF
Type of density    : Electron Density
Multiplicity       :   2
Irrep              :   0
Energy             :  -310.5841410071885207 Eh
Relativity type    :
Basis              : AO
                                X                 Y                 Z
Electronic contribution:     -5.534262840       0.000037242      -0.000327834
Nuclear contribution   :      5.537517534      -0.000008895      -0.000066911
                        -----------------------------------------
Total Dipole Moment    :      0.003254694       0.000028347      -0.000394745
                        -----------------------------------------
Magnitude (a.u.)       :      0.003278667
Magnitude (Debye)      :      0.008333710

Rotational constants in cm-1:             0.102569             0.072675             0.043220
Rotational constants in MHz :          3074.941965          2178.738916          1295.716867

                             ****ORCA TERMINATED NORMALLY****
TOTAL RUN TIME: 0 days 0 hours 3 minutes 59 seconds 257 msec
