                         Program Version 6.0.0  -   RELEASE  -
|  1> !PBE0 freq aug-cc-pVTZ d3 TightSCF SlowConv RIJCOSX defgrid2
|  2>
|  3> %pal
|  4> nprocs 12
|  5> end
|  6>
|  7> %scf
|  8> MaxIter 1500
|  9> end
| 10>
| 11> %maxcore 5000
| 12>
| 13> !CPCM
| 14> %cpcm smd true
| 15> SMDsolvent "MeCN"
| 16> surfacetype gepol_ses
| 17> rsolv 2.19
| 18> end
| 19>
| 20> * xyz 0 1
| 21> C           0.93828338159986     -1.26522923136787     -0.00015147456942
| 22> C           2.30497409582440     -1.02789936094930     -0.00065662783239
| 23> C           2.78219404948867      0.27404285315626     -0.00041336863360
| 24> C           1.88645561974864      1.33920439274821      0.00047593213869
| 25> C           0.52365856875859      1.10618536265654      0.00089271854930
| 26> C           0.03464627351208     -0.20324843864205      0.00045174866478
| 27> C          -1.39120690544420     -0.50956730469341      0.00070295115610
| 28> N          -2.27091535150137      0.40802385214340     -0.00173675735925
| 29> O          -3.55210545390938     -0.11048326024825     -0.00071377106989
| 30> H          -4.11493138090143      0.67352195536732     -0.00195330838145
| 31> H          -1.68886894221446     -1.55852289950830      0.00326772814685
| 32> H          -0.17149471967468      1.93625343024244      0.00174797184648
| 33> H           2.25724005121912      2.35718347448201      0.00029338171939
| 34> H           3.84899063821232      0.46219937991130     -0.00104679656961
| 35> H           2.99668728058061     -1.86143451367510     -0.00117682490673
| 36> H           0.56408719470124     -2.28282799162321      0.00022389710077
| 37> *
| 38>
| 39>                          ****END OF INPUT****

CARTESIAN COORDINATES (ANGSTROEM)
---------------------------------
  C      0.938283   -1.265229   -0.000151
  C      2.304974   -1.027899   -0.000657
  C      2.782194    0.274043   -0.000413
  C      1.886456    1.339204    0.000476
  C      0.523659    1.106185    0.000893
  C      0.034646   -0.203248    0.000452
  C     -1.391207   -0.509567    0.000703
  N     -2.270915    0.408024   -0.001737
  O     -3.552105   -0.110483   -0.000714
  H     -4.114931    0.673522   -0.001953
  H     -1.688869   -1.558523    0.003268
  H     -0.171495    1.936253    0.001748
  H      2.257240    2.357183    0.000293
  H      3.848991    0.462199   -0.001047
  H      2.996687   -1.861435   -0.001177
  H      0.564087   -2.282828    0.000224

 Total Charge           Charge          ....    0
 Multiplicity           Mult            ....    1
 Number of Electrons    NEL             ....   64
 Basis Dimension        Dim             ....  575

ORBITAL ENERGIES
----------------

  NO   OCC          E(Eh)            E(eV)
   0   2.0000     -19.257753      -524.0301
   1   2.0000     -14.442750      -393.0072
   2   2.0000     -10.263589      -279.2865
   3   2.0000     -10.247091      -278.8375
   4   2.0000     -10.234122      -278.4846
   5   2.0000     -10.232585      -278.4428
   6   2.0000     -10.231911      -278.4244
   7   2.0000     -10.231134      -278.4033
   8   2.0000     -10.230817      -278.3947
   9   2.0000      -1.127429       -30.6789
  10   2.0000      -0.913607       -24.8605
  11   2.0000      -0.879433       -23.9306
  12   2.0000      -0.783577       -21.3222
  13   2.0000      -0.775643       -21.1063
  14   2.0000      -0.662942       -18.0396
  15   2.0000      -0.632083       -17.1998
  16   2.0000      -0.589398       -16.0383
  17   2.0000      -0.553246       -15.0546
  18   2.0000      -0.532537       -14.4911
  19   2.0000      -0.490124       -13.3369
  20   2.0000      -0.471419       -12.8280
  21   2.0000      -0.453362       -12.3366
  22   2.0000      -0.446060       -12.1379
  23   2.0000      -0.436237       -11.8706
  24   2.0000      -0.427730       -11.6391
  25   2.0000      -0.397346       -10.8123
  26   2.0000      -0.363769        -9.8987
  27   2.0000      -0.355915        -9.6849
  28   2.0000      -0.316752        -8.6193
  29   2.0000      -0.302851        -8.2410
  30   2.0000      -0.274991        -7.4829
  31   2.0000      -0.247488        -6.7345
  32   0.0000      -0.049989        -1.3603
  33   0.0000      -0.013111        -0.3568
  34   0.0000       0.002686         0.0731
  35   0.0000       0.010008         0.2723
  36   0.0000       0.017449         0.4748

MULLIKEN ATOMIC CHARGES
-----------------------
   0 C :   -1.011434
   1 C :   -0.660258
   2 C :   -0.327945
   3 C :   -0.794574
   4 C :   -0.748175
   5 C :    1.505153
   6 C :    0.000329
   7 N :   -0.468056
   8 O :   -0.313168
   9 H :    0.174401
  10 H :    0.477923
  11 H :    0.184133
  12 H :    0.656142
  13 H :    0.527545
  14 H :    0.661045
  15 H :    0.136938
Sum of atomic charges:   -0.0000000

LOEWDIN ATOMIC CHARGES
----------------------
   0 C :    0.196919
   1 C :    0.196362
   2 C :    0.192323
   3 C :    0.194569
   4 C :    0.191853
   5 C :   -0.180162
   6 C :   -0.027008
   7 N :    0.130218
   8 O :    0.671742
   9 H :   -0.516668
  10 H :   -0.178674
  11 H :   -0.185677
  12 H :   -0.172292
  13 H :   -0.172991
  14 H :   -0.172194
  15 H :   -0.168318

  Mayer bond orders larger than 0.100000
B(  0-C ,  1-C ) :   1.2947 B(  0-C ,  2-C ) :  -0.1323 B(  0-C ,  4-C ) :  -0.3894
B(  0-C ,  5-C ) :   0.3419 B(  0-C , 11-H ) :   0.1068 B(  0-C , 14-H ) :  -0.1742
B(  0-C , 15-H ) :   1.4628 B(  1-C ,  2-C ) :   1.3735 B(  1-C ,  3-C ) :   0.1399
B(  1-C , 14-H ) :   0.3250 B(  2-C ,  3-C ) :   1.3077 B(  2-C ,  4-C ) :  -0.1679
B(  2-C ,  5-C ) :  -0.1124 B(  2-C ,  6-C ) :   0.1197 B(  2-C , 12-H ) :   0.1087
B(  2-C , 13-H ) :   0.5646 B(  3-C ,  4-C ) :   1.2841 B(  3-C , 12-H ) :   0.3027
B(  4-C ,  5-C ) :   0.6231 B(  4-C ,  6-C ) :   0.1838 B(  4-C , 11-H ) :   1.1266
B(  5-C ,  6-C ) :   0.2966 B(  5-C ,  7-N ) :  -0.1438 B(  5-C , 14-H ) :   0.1191
B(  6-C ,  7-N ) :   1.1341 B(  6-C , 10-H ) :   0.5819 B(  6-C , 15-H ) :  -0.1453
B(  7-N ,  8-O ) :   0.6624 B(  7-N , 10-H ) :  -0.1023 B(  8-O ,  9-H ) :   1.0028
B( 11-H , 15-H ) :   0.1589

Dispersion correction           -0.013864225
FINAL SINGLE POINT ENERGY      -400.581494739677

DIPOLE MOMENT
-------------

Method             : SCF
Type of density    : Electron Density
Multiplicity       :   1
Irrep              :   0
Energy             :  -400.5676305144644971 Eh
Relativity type    :
Basis              : AO
                                X                 Y                 Z
Electronic contribution:     -2.996494389       0.146020193      -0.001114538
Nuclear contribution   :      3.392546247      -0.268630070       0.002271315
                        -----------------------------------------
Total Dipole Moment    :      0.396051859      -0.122609877       0.001156777
                        -----------------------------------------
Magnitude (a.u.)       :      0.414598113
Magnitude (Debye)      :      1.053824653

VIBRATIONAL FREQUENCIES
-----------------------

Scaling factor for frequencies =  1.000000000  (already applied!)

     0:       0.00 cm**-1
     1:       0.00 cm**-1
     2:       0.00 cm**-1
     3:       0.00 cm**-1
     4:       0.00 cm**-1
     5:       0.00 cm**-1
     6:      64.55 cm**-1
     7:     141.35 cm**-1
     8:     146.20 cm**-1
     9:     310.16 cm**-1
    10:     377.35 cm**-1
    11:     403.31 cm**-1
    12:     412.52 cm**-1
    13:     438.02 cm**-1
    14:     524.19 cm**-1
    15:     622.76 cm**-1
    16:     649.34 cm**-1
    17:     705.43 cm**-1
    18:     778.32 cm**-1
    19:     864.14 cm**-1
    20:     887.40 cm**-1
    21:     944.06 cm**-1
    22:     988.45 cm**-1
    23:    1006.32 cm**-1
    24:    1017.37 cm**-1
    25:    1021.40 cm**-1
    26:    1025.08 cm**-1
    27:    1048.61 cm**-1
    28:    1096.82 cm**-1
    29:    1158.45 cm**-1
    30:    1175.64 cm**-1
    31:    1240.54 cm**-1
    32:    1296.56 cm**-1
    33:    1337.12 cm**-1
    34:    1366.47 cm**-1
    35:    1443.06 cm**-1
    36:    1479.28 cm**-1
    37:    1532.14 cm**-1
    38:    1636.56 cm**-1
    39:    1662.25 cm**-1
    40:    1722.66 cm**-1
    41:    3118.45 cm**-1
    42:    3182.70 cm**-1
    43:    3189.18 cm**-1
    44:    3197.58 cm**-1
    45:    3207.50 cm**-1
    46:    3213.65 cm**-1
    47:    3761.32 cm**-1

IR SPECTRUM
-----------

 Mode   freq       eps      Int      T**2         TX        TY        TZ
       cm**-1   L/(mol*cm) km/mol    a.u.
----------------------------------------------------------------------------
  6:     64.55   0.000001    0.00  0.000004  (-0.000689  0.000413  0.001920)
  7:    141.35   0.000637    3.22  0.001406  (-0.035753  0.010480  0.004186)
  8:    146.20   0.000460    2.32  0.000982  (-0.009313  0.002483 -0.029811)
  9:    310.16   0.000142    0.72  0.000143  (-0.000354  0.000002  0.011943)
 10:    377.35   0.000560    2.83  0.000463  (-0.015612 -0.008200  0.012325)
 11:    403.31   0.029844  150.82  0.023092  ( 0.000641 -0.000696  0.151957)
 12:    412.52   0.008085   40.86  0.006116  (-0.000598  0.000264 -0.078203)
 13:    438.02   0.001310    6.62  0.000933  ( 0.024934 -0.008625 -0.015398)
 14:    524.19   0.003545   17.92  0.002111  (-0.000067  0.000290 -0.045941)
 15:    622.76   0.000003    0.02  0.000002  ( 0.001176 -0.000522  0.000040)
 16:    649.34   0.010478   52.95  0.005036  (-0.070329 -0.009421 -0.000799)
 17:    705.43   0.016443   83.10  0.007274  (-0.000056 -0.000294  0.085287)
 18:    778.32   0.012696   64.16  0.005090  ( 0.000129 -0.000128  0.071347)
 19:    864.14   0.000001    0.00  0.000000  (-0.000076 -0.000112  0.000455)
 20:    887.40   0.009170   46.34  0.003225  ( 0.055807  0.010501  0.000446)
 21:    944.06   0.000027    0.14  0.000009  (-0.000354  0.000239 -0.002943)
 22:    988.45   0.005315   26.86  0.001678  ( 0.000295 -0.000500  0.040960)
 23:   1006.32   0.000009    0.05  0.000003  ( 0.000031 -0.000435  0.001655)
 24:   1017.37   0.008254   41.71  0.002532  (-0.049600  0.008472  0.000067)
 25:   1021.40   0.062937  318.06  0.019229  (-0.135675  0.028656 -0.000189)
 26:   1025.08   0.000135    0.68  0.000041  (-0.000861  0.000199  0.006340)
 27:   1048.61   0.000614    3.10  0.000183  ( 0.011130  0.007669 -0.000091)
 28:   1096.82   0.003191   16.13  0.000908  (-0.017118 -0.024798 -0.000072)
 29:   1158.45   0.000046    0.23  0.000012  (-0.002995  0.001838 -0.000032)
 30:   1175.64   0.000123    0.62  0.000033  ( 0.005720 -0.000102  0.000028)
 31:   1240.54   0.009085   45.91  0.002285  ( 0.047344 -0.006634  0.000026)
 32:   1296.56   0.024000  121.28  0.005776  ( 0.066963  0.035945  0.000527)
 33:   1337.12   0.000017    0.09  0.000004  ( 0.000841 -0.001825 -0.000068)
 34:   1366.47   0.000298    1.50  0.000068  (-0.001596  0.008088  0.000069)
 35:   1443.06   0.001757    8.88  0.000380  (-0.019440  0.001354 -0.000371)
 36:   1479.28   0.003329   16.82  0.000702  ( 0.006444  0.025705  0.000092)
 37:   1532.14   0.002625   13.26  0.000535  (-0.023119 -0.000308 -0.000070)
 38:   1636.56   0.000180    0.91  0.000034  ( 0.003654 -0.004577  0.000001)
 39:   1662.25   0.000044    0.22  0.000008  (-0.000095 -0.002881  0.000016)
 40:   1722.66   0.000126    0.64  0.000023  (-0.000462  0.004751 -0.000061)
 41:   3118.45   0.004968   25.11  0.000497  ( 0.014934  0.016556  0.000088)
 42:   3182.70   0.001174    5.93  0.000115  (-0.008247 -0.006865 -0.000106)
 43:   3189.18   0.000073    0.37  0.000007  (-0.002604  0.000565  0.000020)
 44:   3197.58   0.003165   15.99  0.000309  ( 0.006906  0.016160  0.000110)
 45:   3207.50   0.004151   20.98  0.000404  ( 0.011970 -0.016142 -0.000029)
 46:   3213.65   0.002581   13.05  0.000251  (-0.014730 -0.005805 -0.000035)
 47:   3761.32   0.076098  384.57  0.006314  (-0.069264  0.038937 -0.000078)

--------------------------
THERMOCHEMISTRY AT 298.15K
--------------------------

Temperature         ...   298.15 K
Pressure            ...     1.00 atm
Total Mass          ...   121.14 AMU
Quasi RRHO          ...     True
Cut-Off Frequency   ...     1.00 cm^-1

Throughout the following assumptions are being made:
  (1) The electronic state is orbitally nondegenerate
  (2) There are no thermally accessible electronically excited states
  (3) Hindered rotations indicated by low frequency modes are not
      treated as such but are treated as vibrations and this may
      cause some error
  (4) All equations used are the standard statistical mechanics
      equations for an ideal gas
  (5) All vibrations are strictly harmonic

freq.      64.55  E(vib)   ...       0.51
freq.     141.35  E(vib)   ...       0.41
freq.     146.20  E(vib)   ...       0.41
freq.     310.16  E(vib)   ...       0.26
freq.     377.35  E(vib)   ...       0.21
freq.     403.31  E(vib)   ...       0.19
freq.     412.52  E(vib)   ...       0.19
freq.     438.02  E(vib)   ...       0.17
freq.     524.19  E(vib)   ...       0.13
freq.     622.76  E(vib)   ...       0.09
freq.     649.34  E(vib)   ...       0.08
freq.     705.43  E(vib)   ...       0.07
freq.     778.32  E(vib)   ...       0.05
freq.     864.14  E(vib)   ...       0.04
freq.     887.40  E(vib)   ...       0.04
freq.     944.06  E(vib)   ...       0.03
freq.     988.45  E(vib)   ...       0.02
freq.    1006.32  E(vib)   ...       0.02
freq.    1017.37  E(vib)   ...       0.02
freq.    1021.40  E(vib)   ...       0.02
freq.    1025.08  E(vib)   ...       0.02
freq.    1048.61  E(vib)   ...       0.02
freq.    1096.82  E(vib)   ...       0.02
freq.    1158.45  E(vib)   ...       0.01
freq.    1175.64  E(vib)   ...       0.01
freq.    1240.54  E(vib)   ...       0.01
freq.    1296.56  E(vib)   ...       0.01
freq.    1337.12  E(vib)   ...       0.01
freq.    1366.47  E(vib)   ...       0.01
freq.    1443.06  E(vib)   ...       0.00
freq.    1479.28  E(vib)   ...       0.00
freq.    1532.14  E(vib)   ...       0.00
freq.    1636.56  E(vib)   ...       0.00
freq.    1662.25  E(vib)   ...       0.00
freq.    1722.66  E(vib)   ...       0.00
freq.    3118.45  E(vib)   ...       0.00
freq.    3182.70  E(vib)   ...       0.00
freq.    3189.18  E(vib)   ...       0.00
freq.    3197.58  E(vib)   ...       0.00
freq.    3207.50  E(vib)   ...       0.00
freq.    3213.65  E(vib)   ...       0.00
freq.    3761.32  E(vib)   ...       0.00

------------
INNER ENERGY
------------

The inner energy is: U= E(el) + E(ZPE) + E(vib) + E(rot) + E(trans)
    E(el)   - is the total energy from the electronic structure calculation
              = E(kin-el) + E(nuc-el) + E(el-el) + E(nuc-nuc)
    E(ZPE)  - the the zero temperature vibrational energy from the frequency calculation
    E(vib)  - the the finite temperature correction to E(ZPE) due to population
              of excited vibrational states
    E(rot)  - is the rotational thermal energy
    E(trans)- is the translational thermal energy

Summary of contributions to the inner energy U:
Electronic energy                ...   -400.58149474 Eh
Zero point energy                ...      0.12619743 Eh      79.19 kcal/mol
Thermal vibrational correction   ...      0.00491684 Eh       3.09 kcal/mol
Thermal rotational correction    ...      0.00141627 Eh       0.89 kcal/mol
Thermal translational correction ...      0.00141627 Eh       0.89 kcal/mol
-----------------------------------------------------------------------
Total thermal energy                   -400.44754793 Eh

Summary of corrections to the electronic energy:
(perhaps to be used in another calculation)
Total thermal correction                  0.00774938 Eh       4.86 kcal/mol
Non-thermal (ZPE) correction              0.12619743 Eh      79.19 kcal/mol
-----------------------------------------------------------------------
Total correction                          0.13394681 Eh      84.05 kcal/mol

--------
ENTHALPY
--------

The enthalpy is H = U + kB*T
                kB is Boltzmann's constant
Total thermal energy              ...   -400.44754793 Eh
Thermal Enthalpy correction       ...      0.00094421 Eh       0.59 kcal/mol
-----------------------------------------------------------------------
Total Enthalpy                    ...   -400.44660372 Eh

Note: Only C1 symmetry has been detected, increase convergence thresholds
      if your molecule has a higher symmetry. Symmetry factor of 1.0 is
      used for the rotational entropy correction.

Note: Rotational entropy computed according to Herzberg
Infrared and Raman Spectra, Chapter V,1, Van Nostrand Reinhold, 1945
Point Group:  C1, Symmetry Number:   1
Rotational constants in cm-1:     0.174894     0.030090     0.025673

Vibrational entropy computed according to the QRRHO of S. Grimme
Chem.Eur.J. 2012 18 9955 using a reference frequency of 100.0 cm-1

-------
ENTROPY
-------

The entropy contributions are T*S = T*(S(el)+S(vib)+S(rot)+S(trans))
     S(el)   - electronic entropy
     S(vib)  - vibrational entropy
     S(rot)  - rotational entropy
     S(trans)- translational entropy
The entropies will be listed as multiplied by the temperature to get
units of energy

Electronic entropy                ...      0.00000000 Eh      0.00 kcal/mol
Vibrational entropy               ...      0.00815053 Eh      5.11 kcal/mol
Rotational entropy                ...      0.01371687 Eh      8.61 kcal/mol
Translational entropy             ...      0.01914284 Eh     12.01 kcal/mol
-----------------------------------------------------------------------
Final entropy term                ...      0.04101024 Eh     25.73 kcal/mol

In case the symmetry of your molecule has not been determined correctly
or in case you have a reason to use a different symmetry number we print
out the resulting rotational entropy values for sn=1,12:

 non-linear molecules -----------------------------------
|  sn= 1 | S(rot)=       0.01371687 Eh      8.61 kcal/mol|
|  sn= 2 | S(rot)=       0.01306241 Eh      8.20 kcal/mol|
|  sn= 3 | S(rot)=       0.01267958 Eh      7.96 kcal/mol|
|  sn= 4 | S(rot)=       0.01240795 Eh      7.79 kcal/mol|
|  sn= 5 | S(rot)=       0.01219727 Eh      7.65 kcal/mol|
|  sn= 6 | S(rot)=       0.01202512 Eh      7.55 kcal/mol|
|  sn= 7 | S(rot)=       0.01187957 Eh      7.45 kcal/mol|
|  sn= 8 | S(rot)=       0.01175350 Eh      7.38 kcal/mol|
|  sn= 9 | S(rot)=       0.01164229 Eh      7.31 kcal/mol|
|  sn=10 | S(rot)=       0.01154281 Eh      7.24 kcal/mol|
|  sn=11 | S(rot)=       0.01145282 Eh      7.19 kcal/mol|
|  sn=12 | S(rot)=       0.01137066 Eh      7.14 kcal/mol|
 linear molecules ---------------------------------------
|  Dinfh | S(rot)=       0.00878368 Eh      5.51 kcal/mol|
|  Cinfv | S(rot)=       0.00943814 Eh      5.92 kcal/mol|
 --------------------------------------------------------

                             ****ORCA TERMINATED NORMALLY****
TOTAL RUN TIME: 0 days 0 hours 24 minutes 41 seconds 945 msec
