                         Program Version 6.0.0  -   RELEASE  -
|  1> !PBE0 def2-SV(p) Opt Freq d3 TightSCF SlowConv RIJCOSX defgrid2
|  2>
|  3> %pal
|  4> nprocs 15
|  5> end
|  6>
|  7> %scf
|  8> MaxIter 1500
|  9> end
| 10>
| 11> %maxcore 3500
| 12>
| 13>
| 14>
| 15> * xyz -1 2
| 16> C       -0.732160608     -1.291623195     -1.661890015
| 17> C       -0.792828387     -1.333318251      2.562615786
| 18> C        0.160299413     -0.678263464      3.347467158
| 19> C        0.065726999     -0.743260113      4.731544090
| 20> C       -0.978864165     -1.461174788      5.304178757
| 21> C       -1.889009513     -2.086689084      4.458057262
| 22> N       -1.804062846     -2.028307911      3.121030400
| 23> H        0.804889995     -0.235256620      5.357380294
| 24> H       -1.086623813     -1.535234607      6.389744429
| 25> H       -2.727217774     -2.662763282      4.862187961
| 26> C       -0.740637806     -1.297449312      1.088931368
| 27> C        0.264464924     -0.606673791      0.406187817
| 28> C        0.268094697     -0.604179159     -0.982631125
| 29> C       -1.698771103     -1.955944214     -0.913628019
| 30> N       -1.708664721     -1.962743787      0.427312325
| 31> H        1.048779105     -0.067639310     -1.529218082
| 32> H       -0.762774045     -1.312662858     -2.754670872
| 33> H       -2.505317479     -2.510258193     -1.403520998
| 34> C        1.204991735      0.039720729      2.666785686
| 35> C        1.257182160      0.075589567      1.193105738
| 36> H        1.958874646      0.557840755      3.240904310
| 37> H        2.048875802      0.619695725      0.699577962
| 38> *
| 39>
| 40>                          ****END OF INPUT****
 Total Charge           Charge          ....   -1
 Multiplicity           Mult            ....    2
 Number of Electrons    NEL             ....   95
Dispersion correction           -0.025618802
FINAL SINGLE POINT ENERGY      -570.538406038855
Dispersion correction             ... done (  0.1 sec)
Dispersion correction           -0.025622764
FINAL SINGLE POINT ENERGY      -570.550239097207
Dispersion correction             ... done (  0.1 sec)
Dispersion correction           -0.025626065
FINAL SINGLE POINT ENERGY      -570.552233036877
Dispersion correction             ... done (  0.1 sec)
Dispersion correction           -0.025615747
FINAL SINGLE POINT ENERGY      -570.552398196444
Dispersion correction             ... done (  0.1 sec)
Dispersion correction           -0.025615299
FINAL SINGLE POINT ENERGY      -570.552427893627
Dispersion correction             ... done (  0.1 sec)
                    ***********************HURRAY********************

CARTESIAN COORDINATES (ANGSTROEM)
---------------------------------
  C     -0.711195   -1.277538   -1.664692
  C     -0.847580   -1.370513    2.560126
  C      0.176004   -0.667190    3.302036
  C      0.074418   -0.737362    4.726862
  C     -0.958199   -1.447330    5.309229
  C     -1.892469   -2.089182    4.482829
  N     -1.829469   -2.045384    3.149966
  H      0.823758   -0.222307    5.339509
  H     -1.051397   -1.511807    6.400345
  H     -2.724243   -2.661009    4.918911
  C     -0.795396   -1.334572    1.085690
  C      0.277041   -0.597843    0.453083
  C      0.276601   -0.598636   -0.977095
  C     -1.700613   -1.956995   -0.938634
  N     -1.732034   -1.978236    0.395906
  H      1.066643   -0.056071   -1.509617
  H     -0.726943   -1.288817   -2.761502
  H     -2.498597   -2.505350   -1.459732
  C      1.192238    0.031303    2.630980
  C      1.241998    0.065473    1.227480
  H      1.952950    0.553891    3.222881
  H      2.041732    0.614879    0.716890

 Multiplicity           Mult            ....    2
 Number of Electrons    NEL             ....   95
 Basis Dimension        Dim             ....  212

ORBITAL ENERGIES
----------------
                 SPIN UP ORBITALS
  NO   OCC          E(Eh)            E(eV)
   0   1.0000     -14.217470      -386.8770
   1   1.0000     -14.217402      -386.8752
   2   1.0000     -10.108215      -275.0585
   3   1.0000     -10.108051      -275.0541
   4   1.0000     -10.100148      -274.8390
   5   1.0000     -10.100133      -274.8386
   6   1.0000     -10.092773      -274.6383
   7   1.0000     -10.092761      -274.6380
   8   1.0000     -10.089962      -274.5618
   9   1.0000     -10.089915      -274.5606
  10   1.0000     -10.087886      -274.5053
  11   1.0000     -10.087812      -274.5033
  12   1.0000     -10.068078      -273.9663
  13   1.0000     -10.067699      -273.9560
  14   1.0000      -0.809789       -22.0355
  15   1.0000      -0.787134       -21.4190
  16   1.0000      -0.696349       -18.9486
  17   1.0000      -0.661862       -18.0102
  18   1.0000      -0.659123       -17.9356
  19   1.0000      -0.606715       -16.5096
  20   1.0000      -0.588540       -16.0150
  21   1.0000      -0.510570       -13.8933
  22   1.0000      -0.505955       -13.7677
  23   1.0000      -0.482149       -13.1199
  24   1.0000      -0.453908       -12.3515
  25   1.0000      -0.411751       -11.2043
  26   1.0000      -0.390974       -10.6389
  27   1.0000      -0.369198       -10.0464
  28   1.0000      -0.344978        -9.3873
  29   1.0000      -0.340417        -9.2632
  30   1.0000      -0.322641        -8.7795
  31   1.0000      -0.294600        -8.0165
  32   1.0000      -0.283228        -7.7070
  33   1.0000      -0.270349        -7.3566
  34   1.0000      -0.264564        -7.1991
  35   1.0000      -0.264457        -7.1962
  36   1.0000      -0.255506        -6.9527
  37   1.0000      -0.248361        -6.7583
  38   1.0000      -0.226887        -6.1739
  39   1.0000      -0.204961        -5.5773
  40   1.0000      -0.195127        -5.3097
  41   1.0000      -0.164079        -4.4648
  42   1.0000      -0.153350        -4.1729
  43   1.0000      -0.107996        -2.9387
  44   1.0000      -0.104793        -2.8516
  45   1.0000      -0.094453        -2.5702
  46   1.0000      -0.082635        -2.2486
  47   1.0000       0.042632         1.1601
  48   0.0000       0.107401         2.9225
  49   0.0000       0.144959         3.9445
  50   0.0000       0.178045         4.8449
  51   0.0000       0.201198         5.4749
  52   0.0000       0.206807         5.6275

                 SPIN DOWN ORBITALS
  NO   OCC          E(Eh)            E(eV)
   0   1.0000     -14.217487      -386.8775
   1   1.0000     -14.217420      -386.8757
   2   1.0000     -10.107491      -275.0388
   3   1.0000     -10.107321      -275.0342
   4   1.0000     -10.096756      -274.7467
   5   1.0000     -10.096741      -274.7463
   6   1.0000     -10.094173      -274.6764
   7   1.0000     -10.094162      -274.6761
   8   1.0000     -10.088149      -274.5125
   9   1.0000     -10.088068      -274.5103
  10   1.0000     -10.086700      -274.4731
  11   1.0000     -10.086661      -274.4720
  12   1.0000     -10.065048      -273.8839
  13   1.0000     -10.064641      -273.8728
  14   1.0000      -0.807492       -21.9730
  15   1.0000      -0.784706       -21.3529
  16   1.0000      -0.691532       -18.8175
  17   1.0000      -0.658237       -17.9115
  18   1.0000      -0.655997       -17.8506
  19   1.0000      -0.603583       -16.4243
  20   1.0000      -0.583046       -15.8655
  21   1.0000      -0.508512       -13.8373
  22   1.0000      -0.497978       -13.5507
  23   1.0000      -0.479791       -13.0558
  24   1.0000      -0.451296       -12.2804
  25   1.0000      -0.408297       -11.1103
  26   1.0000      -0.388906       -10.5827
  27   1.0000      -0.367296        -9.9946
  28   1.0000      -0.343016        -9.3340
  29   1.0000      -0.338250        -9.2042
  30   1.0000      -0.321089        -8.7373
  31   1.0000      -0.293709        -7.9922
  32   1.0000      -0.275785        -7.5045
  33   1.0000      -0.268608        -7.3092
  34   1.0000      -0.263018        -7.1571
  35   1.0000      -0.262881        -7.1533
  36   1.0000      -0.253887        -6.9086
  37   1.0000      -0.238985        -6.5031
  38   1.0000      -0.225100        -6.1253
  39   1.0000      -0.203390        -5.5345
  40   1.0000      -0.178998        -4.8708
  41   1.0000      -0.155701        -4.2368
  42   1.0000      -0.139512        -3.7963
  43   1.0000      -0.104535        -2.8445
  44   1.0000      -0.099949        -2.7197
  45   1.0000      -0.094328        -2.5668
  46   1.0000      -0.060657        -1.6506
  47   0.0000       0.112292         3.0556
  48   0.0000       0.112420         3.0591
  49   0.0000       0.160783         4.3751
  50   0.0000       0.186000         5.0613
  51   0.0000       0.201801         5.4913

MULLIKEN ATOMIC CHARGES AND SPIN POPULATIONS
--------------------------------------------
   0 C :   -0.115679   -0.109570
   1 C :   -0.030405    0.039332
   2 C :    0.092153   -0.026247
   3 C :   -0.133567    0.225944
   4 C :   -0.115681   -0.109556
   5 C :   -0.101527    0.223753
   6 N :   -0.134175   -0.012120
   7 H :    0.033353   -0.013193
   8 H :    0.042659    0.004570
   9 H :    0.044772   -0.014733
  10 C :   -0.030762    0.039372
  11 C :    0.092362   -0.026129
  12 C :   -0.133686    0.225898
  13 C :   -0.101628    0.223828
  14 N :   -0.133958   -0.012162
  15 H :    0.033405   -0.013189
  16 H :    0.042698    0.004570
  17 H :    0.044805   -0.014737
  18 C :   -0.210668    0.195375
  19 C :   -0.210790    0.195187
  20 H :    0.013167   -0.013099
  21 H :    0.013154   -0.013092
Sum of atomic charges         :   -1.0000000

LOEWDIN ATOMIC CHARGES AND SPIN POPULATIONS
-------------------------------------------
   0 C :   -0.174974   -0.060580
   1 C :   -0.016123    0.034777
   2 C :   -0.059768    0.005349
   3 C :   -0.164911    0.173382
   4 C :   -0.174981   -0.060577
   5 C :   -0.162852    0.183101
   6 N :   -0.099951    0.003553
   7 H :    0.103457   -0.006072
   8 H :    0.103681    0.002045
   9 H :    0.088862   -0.006748
  10 C :   -0.016155    0.034816
  11 C :   -0.059783    0.005420
  12 C :   -0.164939    0.173344
  13 C :   -0.162897    0.183158
  14 N :   -0.099906    0.003519
  15 H :    0.103470   -0.006070
  16 H :    0.103687    0.002045
  17 H :    0.088869   -0.006750
  18 C :   -0.214607    0.177237
  19 C :   -0.214589    0.177112
  20 H :    0.097203   -0.006032
  21 H :    0.097207   -0.006029

  Mayer bond orders larger than 0.100000
B(  0-C , 12-C ) :   1.4733 B(  0-C , 13-C ) :   1.3113 B(  0-C , 16-H ) :   0.9474
B(  1-C ,  2-C ) :   1.1924 B(  1-C ,  6-N ) :   1.5988 B(  1-C , 10-C ) :   1.0625
B(  2-C ,  3-C ) :   1.2408 B(  2-C , 18-C ) :   1.3315 B(  3-C ,  4-C ) :   1.4732
B(  3-C ,  7-H ) :   0.9509 B(  4-C ,  5-C ) :   1.3114 B(  4-C ,  8-H ) :   0.9475
B(  5-C ,  6-N ) :   1.4735 B(  5-C ,  9-H ) :   0.9583 B( 10-C , 11-C ) :   1.1924
B( 10-C , 14-N ) :   1.5989 B( 11-C , 12-C ) :   1.2407 B( 11-C , 19-C ) :   1.3316
B( 12-C , 15-H ) :   0.9509 B( 13-C , 14-N ) :   1.4735 B( 13-C , 17-H ) :   0.9583
B( 18-C , 19-C ) :   1.2652 B( 18-C , 20-H ) :   0.9642 B( 19-C , 21-H ) :   0.9641

Dispersion correction           -0.025616610
FINAL SINGLE POINT ENERGY      -570.552430372111

DIPOLE MOMENT
-------------

Method             : SCF
Type of density    : Electron Density
Multiplicity       :   2
Irrep              :   0
Energy             :  -570.5268137622967970 Eh
Relativity type    :
Basis              : AO
                                X                 Y                 Z
Electronic contribution:     -2.236346849      -1.534649205      -0.116396563
Nuclear contribution   :      2.898055306       1.988769949       0.150906317
                        -----------------------------------------
Total Dipole Moment    :      0.661708457       0.454120745       0.034509754
                        -----------------------------------------
Magnitude (a.u.)       :      0.803289895
Magnitude (Debye)      :      2.041800649

VIBRATIONAL FREQUENCIES
-----------------------

Scaling factor for frequencies =  1.000000000  (already applied!)

     0:       0.00 cm**-1
     1:       0.00 cm**-1
     2:       0.00 cm**-1
     3:       0.00 cm**-1
     4:       0.00 cm**-1
     5:       0.00 cm**-1
     6:      83.89 cm**-1
     7:     105.38 cm**-1
     8:     219.38 cm**-1
     9:     239.75 cm**-1
    10:     256.99 cm**-1
    11:     381.98 cm**-1
    12:     411.08 cm**-1
    13:     440.49 cm**-1
    14:     444.52 cm**-1
    15:     515.06 cm**-1
    16:     522.38 cm**-1
    17:     551.56 cm**-1
    18:     552.33 cm**-1
    19:     603.00 cm**-1
    20:     616.90 cm**-1
    21:     705.88 cm**-1
    22:     711.35 cm**-1
    23:     713.90 cm**-1
    24:     742.74 cm**-1
    25:     759.50 cm**-1
    26:     796.06 cm**-1
    27:     813.56 cm**-1
    28:     836.43 cm**-1
    29:     840.59 cm**-1
    30:     862.87 cm**-1
    31:     891.49 cm**-1
    32:     897.62 cm**-1
    33:     949.98 cm**-1
    34:     950.80 cm**-1
    35:    1029.06 cm**-1
    36:    1068.00 cm**-1
    37:    1078.91 cm**-1
    38:    1098.72 cm**-1
    39:    1115.45 cm**-1
    40:    1131.88 cm**-1
    41:    1194.75 cm**-1
    42:    1209.65 cm**-1
    43:    1242.23 cm**-1
    44:    1268.31 cm**-1
    45:    1304.16 cm**-1
    46:    1336.83 cm**-1
    47:    1422.02 cm**-1
    48:    1423.94 cm**-1
    49:    1437.39 cm**-1
    50:    1438.59 cm**-1
    51:    1454.54 cm**-1
    52:    1535.65 cm**-1
    53:    1537.97 cm**-1
    54:    1561.76 cm**-1
    55:    1581.00 cm**-1
    56:    1612.88 cm**-1
    57:    1667.08 cm**-1
    58:    3126.21 cm**-1
    59:    3127.47 cm**-1
    60:    3146.18 cm**-1
    61:    3153.72 cm**-1
    62:    3154.33 cm**-1
    63:    3167.81 cm**-1
    64:    3176.03 cm**-1
    65:    3177.47 cm**-1

IR SPECTRUM
-----------

 Mode   freq       eps      Int      T**2         TX        TY        TZ
       cm**-1   L/(mol*cm) km/mol    a.u.
----------------------------------------------------------------------------
  6:     83.89   0.000000    0.00  0.000001  (-0.000263  0.000218  0.001153)
  7:    105.38   0.000742    3.75  0.002198  (-0.026569  0.038620 -0.000415)
  8:    219.38   0.000218    1.10  0.000310  ( 0.009952 -0.014520  0.000032)
  9:    239.75   0.001057    5.34  0.001376  (-0.030514 -0.021032 -0.001723)
 10:    256.99   0.000001    0.00  0.000001  ( 0.000158  0.000096 -0.000845)
 11:    381.98   0.000002    0.01  0.000001  ( 0.000063  0.000054 -0.001148)
 12:    411.08   0.000362    1.83  0.000275  ( 0.013671  0.009370 -0.000296)
 13:    440.49   0.014272   72.12  0.010111  ( 0.003505  0.002403 -0.100462)
 14:    444.52   0.000005    0.03  0.000004  ( 0.000656 -0.001345  0.001176)
 15:    515.06   0.005214   26.35  0.003159  ( 0.001880  0.001546 -0.056151)
 16:    522.38   0.000444    2.24  0.000265  ( 0.009182 -0.013422 -0.000705)
 17:    551.56   0.000884    4.47  0.000500  ( 0.018434  0.012642  0.000605)
 18:    552.33   0.000007    0.04  0.000004  ( 0.001614  0.001200 -0.000089)
 19:    603.00   0.000000    0.00  0.000000  (-0.000055 -0.000014  0.000277)
 20:    616.90   0.006377   32.23  0.003226  ( 0.001931  0.001364 -0.056747)
 21:    705.88   0.032613  164.81  0.014418  (-0.004347 -0.002945  0.119961)
 22:    711.35   0.000164    0.83  0.000072  ( 0.004663 -0.007040  0.000802)
 23:    713.90   0.000318    1.61  0.000139  ( 0.009718  0.006659  0.000515)
 24:    742.74   0.014588   73.72  0.006129  (-0.044218  0.064606 -0.000094)
 25:    759.50   0.000000    0.00  0.000000  ( 0.000058 -0.000072  0.000269)
 26:    796.06   0.004138   20.91  0.001622  ( 0.022717 -0.033256  0.000058)
 27:    813.56   0.000003    0.02  0.000001  ( 0.000068 -0.000029 -0.001083)
 28:    836.43   0.000000    0.00  0.000000  (-0.000062  0.000103  0.000321)
 29:    840.59   0.002411   12.18  0.000895  ( 0.016894 -0.024687  0.000088)
 30:    862.87   0.000097    0.49  0.000035  (-0.004884 -0.003325 -0.000023)
 31:    891.49   0.000099    0.50  0.000035  ( 0.000209  0.000146 -0.005895)
 32:    897.62   0.000000    0.00  0.000000  (-0.000016  0.000024  0.000079)
 33:    949.98   0.000016    0.08  0.000005  ( 0.001272 -0.001930 -0.000230)
 34:    950.80   0.000006    0.03  0.000002  ( 0.000027  0.000073 -0.001371)
 35:   1029.06   0.000139    0.70  0.000042  (-0.000232 -0.000179  0.006490)
 36:   1068.00   0.003496   17.67  0.001021  (-0.026310 -0.018087 -0.001454)
 37:   1078.91   0.045296  228.91  0.013101  ( 0.004042  0.002774 -0.114356)
 38:   1098.72   0.002736   13.82  0.000777  (-0.022944 -0.015763 -0.001424)
 39:   1115.45   0.024398  123.30  0.006826  ( 0.002957  0.002014 -0.082540)
 40:   1131.88   0.000000    0.00  0.000000  ( 0.000174  0.000132  0.000107)
 41:   1194.75   0.002552   12.90  0.000667  (-0.021189 -0.014572 -0.002280)
 42:   1209.65   0.191619  968.36  0.049433  (-0.007974 -0.005460  0.222126)
 43:   1242.23   0.011061   55.90  0.002779  ( 0.001940  0.001334 -0.052661)
 44:   1268.31   0.004039   20.41  0.000994  ( 0.025970  0.017826  0.001284)
 45:   1304.16   0.036466  184.28  0.008726  (-0.003228 -0.002222  0.093329)
 46:   1336.83   0.003316   16.76  0.000774  (-0.022911 -0.015760 -0.000931)
 47:   1422.02   0.002626   13.27  0.000576  ( 0.019776  0.013586  0.000823)
 48:   1423.94   0.002161   10.92  0.000474  (-0.000776 -0.000533  0.021741)
 49:   1437.39   0.003039   15.36  0.000660  (-0.001912 -0.001312  0.025579)
 50:   1438.59   0.001000    5.05  0.000217  ( 0.011848  0.008156  0.003174)
 51:   1454.54   0.000135    0.68  0.000029  (-0.004405 -0.003073 -0.000242)
 52:   1535.65   0.012475   63.04  0.002535  (-0.001370 -0.000940  0.050321)
 53:   1537.97   0.001468    7.42  0.000298  ( 0.014205  0.009744 -0.001032)
 54:   1561.76   0.047103  238.04  0.009412  (-0.003422 -0.002357  0.096926)
 55:   1581.00   0.031419  158.78  0.006202  (-0.002787 -0.001918  0.078677)
 56:   1612.88   0.000903    4.57  0.000175  (-0.010879 -0.007492 -0.000574)
 57:   1667.08   0.001547    7.82  0.000290  (-0.013993 -0.009652 -0.000740)
 58:   3126.21   0.002863   14.47  0.000286  (-0.000003 -0.000022  0.016906)
 59:   3127.47   0.014427   72.91  0.001440  (-0.031210 -0.021532 -0.001347)
 60:   3146.18   0.012280   62.06  0.001218  ( 0.001084  0.000765 -0.034875)
 61:   3153.72   0.011557   58.40  0.001144  ( 0.003079  0.002116 -0.033609)
 62:   3154.33   0.011546   58.35  0.001142  (-0.027628 -0.019039 -0.004056)
 63:   3167.81   0.011783   59.55  0.001161  (-0.028013 -0.019335 -0.001488)
 64:   3176.03   0.031234  157.84  0.003069  ( 0.001943  0.001351 -0.055347)
 65:   3177.47   0.002111   10.67  0.000207  (-0.011860 -0.008165  0.000200)

--------------------------
THERMOCHEMISTRY AT 298.15K
--------------------------

Temperature         ...   298.15 K
Pressure            ...     1.00 atm
Total Mass          ...   180.21 AMU
Quasi RRHO          ...     True
Cut-Off Frequency   ...     1.00 cm^-1

Throughout the following assumptions are being made:
  (1) The electronic state is orbitally nondegenerate
      but the spin degeneracy is treated
  (2) There are no thermally accessible electronically excited states
  (3) Hindered rotations indicated by low frequency modes are not
      treated as such but are treated as vibrations and this may
      cause some error
  (4) All equations used are the standard statistical mechanics
      equations for an ideal gas
  (5) All vibrations are strictly harmonic

freq.      83.89  E(vib)   ...       0.48
freq.     105.38  E(vib)   ...       0.45
freq.     219.38  E(vib)   ...       0.33
freq.     239.75  E(vib)   ...       0.31
freq.     256.99  E(vib)   ...       0.30
freq.     381.98  E(vib)   ...       0.21
freq.     411.08  E(vib)   ...       0.19
freq.     440.49  E(vib)   ...       0.17
freq.     444.52  E(vib)   ...       0.17
freq.     515.06  E(vib)   ...       0.13
freq.     522.38  E(vib)   ...       0.13
freq.     551.56  E(vib)   ...       0.12
freq.     552.33  E(vib)   ...       0.12
freq.     603.00  E(vib)   ...       0.10
freq.     616.90  E(vib)   ...       0.09
freq.     705.88  E(vib)   ...       0.07
freq.     711.35  E(vib)   ...       0.07
freq.     713.90  E(vib)   ...       0.07
freq.     742.74  E(vib)   ...       0.06
freq.     759.50  E(vib)   ...       0.06
freq.     796.06  E(vib)   ...       0.05
freq.     813.56  E(vib)   ...       0.05
freq.     836.43  E(vib)   ...       0.04
freq.     840.59  E(vib)   ...       0.04
freq.     862.87  E(vib)   ...       0.04
freq.     891.49  E(vib)   ...       0.03
freq.     897.62  E(vib)   ...       0.03
freq.     949.98  E(vib)   ...       0.03
freq.     950.80  E(vib)   ...       0.03
freq.    1029.06  E(vib)   ...       0.02
freq.    1068.00  E(vib)   ...       0.02
freq.    1078.91  E(vib)   ...       0.02
freq.    1098.72  E(vib)   ...       0.02
freq.    1115.45  E(vib)   ...       0.01
freq.    1131.88  E(vib)   ...       0.01
freq.    1194.75  E(vib)   ...       0.01
freq.    1209.65  E(vib)   ...       0.01
freq.    1242.23  E(vib)   ...       0.01
freq.    1268.31  E(vib)   ...       0.01
freq.    1304.16  E(vib)   ...       0.01
freq.    1336.83  E(vib)   ...       0.01
freq.    1422.02  E(vib)   ...       0.00
freq.    1423.94  E(vib)   ...       0.00
freq.    1437.39  E(vib)   ...       0.00
freq.    1438.59  E(vib)   ...       0.00
freq.    1454.54  E(vib)   ...       0.00
freq.    1535.65  E(vib)   ...       0.00
freq.    1537.97  E(vib)   ...       0.00
freq.    1561.76  E(vib)   ...       0.00
freq.    1581.00  E(vib)   ...       0.00
freq.    1612.88  E(vib)   ...       0.00
freq.    1667.08  E(vib)   ...       0.00
freq.    3126.21  E(vib)   ...       0.00
freq.    3127.47  E(vib)   ...       0.00
freq.    3146.18  E(vib)   ...       0.00
freq.    3153.72  E(vib)   ...       0.00
freq.    3154.33  E(vib)   ...       0.00
freq.    3167.81  E(vib)   ...       0.00
freq.    3176.03  E(vib)   ...       0.00
freq.    3177.47  E(vib)   ...       0.00

------------
INNER ENERGY
------------

The inner energy is: U= E(el) + E(ZPE) + E(vib) + E(rot) + E(trans)
    E(el)   - is the total energy from the electronic structure calculation
              = E(kin-el) + E(nuc-el) + E(el-el) + E(nuc-nuc)
    E(ZPE)  - the the zero temperature vibrational energy from the frequency calculation
    E(vib)  - the the finite temperature correction to E(ZPE) due to population
              of excited vibrational states
    E(rot)  - is the rotational thermal energy
    E(trans)- is the translational thermal energy

Summary of contributions to the inner energy U:
Electronic energy                ...   -570.55243037 Eh
Zero point energy                ...      0.16721169 Eh     104.93 kcal/mol
Thermal vibrational correction   ...      0.00663116 Eh       4.16 kcal/mol
Thermal rotational correction    ...      0.00141627 Eh       0.89 kcal/mol
Thermal translational correction ...      0.00141627 Eh       0.89 kcal/mol
-----------------------------------------------------------------------
Total thermal energy                   -570.37575498 Eh

Summary of corrections to the electronic energy:
(perhaps to be used in another calculation)
Total thermal correction                  0.00946370 Eh       5.94 kcal/mol
Non-thermal (ZPE) correction              0.16721169 Eh     104.93 kcal/mol
-----------------------------------------------------------------------
Total correction                          0.17667539 Eh     110.87 kcal/mol

--------
ENTHALPY
--------

The enthalpy is H = U + kB*T
                kB is Boltzmann's constant
Total thermal energy              ...   -570.37575498 Eh
Thermal Enthalpy correction       ...      0.00094421 Eh       0.59 kcal/mol
-----------------------------------------------------------------------
Total Enthalpy                    ...   -570.37481077 Eh

Note: Only C1 symmetry has been detected, increase convergence thresholds
      if your molecule has a higher symmetry. Symmetry factor of 1.0 is
      used for the rotational entropy correction.

Note: Rotational entropy computed according to Herzberg
Infrared and Raman Spectra, Chapter V,1, Van Nostrand Reinhold, 1945
Point Group:  C1, Symmetry Number:   1
Rotational constants in cm-1:     0.053930     0.019113     0.014112

Vibrational entropy computed according to the QRRHO of S. Grimme
Chem.Eur.J. 2012 18 9955 using a reference frequency of 100.0 cm-1

-------
ENTROPY
-------

The entropy contributions are T*S = T*(S(el)+S(vib)+S(rot)+S(trans))
     S(el)   - electronic entropy
     S(vib)  - vibrational entropy
     S(rot)  - rotational entropy
     S(trans)- translational entropy
The entropies will be listed as multiplied by the temperature to get
units of energy

Electronic entropy                ...      0.00065446 Eh      0.41 kcal/mol
Vibrational entropy               ...      0.01053946 Eh      6.61 kcal/mol
Rotational entropy                ...      0.01476904 Eh      9.27 kcal/mol
Translational entropy             ...      0.01970536 Eh     12.37 kcal/mol
-----------------------------------------------------------------------
Final entropy term                ...      0.04566832 Eh     28.66 kcal/mol

In case the symmetry of your molecule has not been determined correctly
or in case you have a reason to use a different symmetry number we print
out the resulting rotational entropy values for sn=1,12:

                             ****ORCA TERMINATED NORMALLY****
TOTAL RUN TIME: 0 days 0 hours 28 minutes 32 seconds 887 msec
