                         Program Version 6.0.0  -   RELEASE  -
|  1> !B3LYP freq aug-cc-pVTZ d3 TightSCF SlowConv RIJCOSX defgrid2
|  2>
|  3> %pal
|  4> nprocs 12
|  5>
|  6> end
|  7>
|  8> %scf
|  9> MaxIter 1500
| 10> end
| 11>
| 12> %maxcore 5000
| 13>
| 14> !CPCM
| 15> %cpcm smd true
| 16> SMDsolvent "MeCN"
| 17> surfacetype gepol_ses
| 18> rsolv 2.19
| 19> end
| 20>
| 21> * xyz 0 1
| 22> C           0.90035465191286     -1.41516467771634     -0.00036580395087
| 23> C           2.11558884192117     -0.74121047186989      0.00001268935570
| 24> C           2.17142569053237      0.66070365600397     -0.00010036665022
| 25> C           1.01697240058077      1.42920791869305     -0.00046332122656
| 26> C          -0.21712697728890      0.77264634026920     -0.00070254678501
| 27> C          -0.23801301371576     -0.62926472338504     -0.00076898516012
| 28> O          -1.52954067356825     -1.07971715396842     -0.00057453720056
| 29> C          -2.32402044733735      0.04099872249939     -0.00008954375315
| 30> C          -1.59888359139854      1.17872108163110     -0.00026151249450
| 31> H          -1.99046705438500      2.18174899999245      0.00096920151183
| 32> H          -3.38404955869549     -0.14413298909061      0.00116343127668
| 33> H           1.07028598544838      2.50940304147758     -0.00045099380859
| 34> H           3.13679246271518      1.14839861603475      0.00058429883179
| 35> H           3.03587127710605     -1.30894327237406      0.00115443072993
| 36> H           0.84386010617252     -2.49441878819714     -0.00002164067639
| 37> *
| 38>
| 39>                          ****END OF INPUT****

CARTESIAN COORDINATES (ANGSTROEM)
---------------------------------
  C      0.900355   -1.415165   -0.000366
  C      2.115589   -0.741210    0.000013
  C      2.171426    0.660704   -0.000100
  C      1.016972    1.429208   -0.000463
  C     -0.217127    0.772646   -0.000703
  C     -0.238013   -0.629265   -0.000769
  O     -1.529541   -1.079717   -0.000575
  C     -2.324020    0.040999   -0.000090
  C     -1.598884    1.178721   -0.000262
  H     -1.990467    2.181749    0.000969
  H     -3.384050   -0.144133    0.001163
  H      1.070286    2.509403   -0.000451
  H      3.136792    1.148399    0.000584
  H      3.035871   -1.308943    0.001154
  H      0.843860   -2.494419   -0.000022

 Total Charge           Charge          ....    0
 Multiplicity           Mult            ....    1
 Number of Electrons    NEL             ....   62
 Basis Dimension        Dim             ....  552

ORBITAL ENERGIES
----------------

  NO   OCC          E(Eh)            E(eV)
   0   2.0000     -19.194135      -522.2990
   1   2.0000     -10.229898      -278.3697
   2   2.0000     -10.228826      -278.3405
   3   2.0000     -10.183421      -277.1050
   4   2.0000     -10.179118      -276.9879
   5   2.0000     -10.177332      -276.9393
   6   2.0000     -10.175489      -276.8891
   7   2.0000     -10.173864      -276.8449
   8   2.0000     -10.171813      -276.7891
   9   2.0000      -1.110492       -30.2180
  10   2.0000      -0.859824       -23.3970
  11   2.0000      -0.801061       -21.7980
  12   2.0000      -0.750323       -20.4173
  13   2.0000      -0.730285       -19.8721
  14   2.0000      -0.633030       -17.2256
  15   2.0000      -0.601146       -16.3580
  16   2.0000      -0.584819       -15.9137
  17   2.0000      -0.520847       -14.1730
  18   2.0000      -0.493196       -13.4206
  19   2.0000      -0.478970       -13.0334
  20   2.0000      -0.461658       -12.5624
  21   2.0000      -0.439587       -11.9618
  22   2.0000      -0.425333       -11.5739
  23   2.0000      -0.405911       -11.0454
  24   2.0000      -0.389346       -10.5946
  25   2.0000      -0.365195        -9.9375
  26   2.0000      -0.358772        -9.7627
  27   2.0000      -0.340559        -9.2671
  28   2.0000      -0.300453        -8.1757
  29   2.0000      -0.245800        -6.6886
  30   2.0000      -0.228078        -6.2063
  31   0.0000      -0.029524        -0.8034
  32   0.0000      -0.001328        -0.0361
  33   0.0000      -0.000497        -0.0135
  34   0.0000       0.010036         0.2731
  35   0.0000       0.014300         0.3891

MULLIKEN ATOMIC CHARGES
-----------------------
   0 C :   -1.089748
   1 C :   -0.159548
   2 C :   -0.531025
   3 C :   -0.622726
   4 C :    1.078016
   5 C :    0.368101
   6 O :   -0.568269
   7 C :   -0.489631
   8 C :   -0.661977
   9 H :    0.398071
  10 H :    0.647692
  11 H :    0.053791
  12 H :    0.626834
  13 H :    0.387684
  14 H :    0.562736
Sum of atomic charges:   -0.0000000

LOEWDIN ATOMIC CHARGES
----------------------
   0 C :    0.221644
   1 C :    0.180980
   2 C :    0.182174
   3 C :    0.218536
   4 C :   -0.165089
   5 C :   -0.398378
   6 O :    0.614534
   7 C :   -0.007989
   8 C :    0.221541
   9 H :   -0.175385
  10 H :   -0.181706
  11 H :   -0.171695
  12 H :   -0.184606
  13 H :   -0.182708
  14 H :   -0.171852

  Mayer bond orders larger than 0.100000
B(  0-C ,  1-C ) :   1.2958 B(  0-C ,  2-C ) :   0.4140 B(  0-C ,  4-C ) :   0.1427
B(  0-C ,  5-C ) :   1.1759 B(  0-C ,  6-O ) :   0.1334 B(  0-C , 14-H ) :   0.2252
B(  1-C ,  2-C ) :   1.0788 B(  1-C ,  3-C ) :  -0.4170 B(  1-C ,  5-C ) :  -0.6597
B(  1-C ,  7-C ) :   0.1028 B(  1-C ,  8-C ) :   0.1178 B(  1-C , 12-H ) :   0.1498
B(  1-C , 13-H ) :   0.7628 B(  1-C , 14-H ) :   0.1456 B(  2-C ,  3-C ) :   1.0379
B(  2-C ,  5-C ) :   0.1711 B(  2-C ,  8-C ) :   0.1891 B(  2-C , 12-H ) :   0.3197
B(  2-C , 13-H ) :  -0.1401 B(  3-C ,  4-C ) :   0.8092 B(  3-C ,  5-C ) :  -0.7583
B(  3-C ,  8-C ) :   0.1388 B(  3-C ,  9-H ) :   0.1669 B(  3-C , 11-H ) :   1.4562
B(  3-C , 12-H ) :  -0.1392 B(  3-C , 14-H ) :   0.1121 B(  4-C ,  5-C ) :   1.2257
B(  4-C ,  7-C ) :  -0.3153 B(  4-C ,  8-C ) :   0.4954 B(  4-C , 11-H ) :  -0.1680
B(  4-C , 13-H ) :  -0.1181 B(  5-C ,  6-O ) :   0.5063 B(  5-C ,  8-C ) :   0.2437
B(  5-C , 11-H ) :   0.1921 B(  5-C , 13-H ) :   0.1424 B(  6-O ,  7-C ) :   1.2104
B(  7-C ,  8-C ) :   1.2983 B(  7-C , 10-H ) :   0.4741 B(  8-C ,  9-H ) :   0.8296

Dispersion correction           -0.027356078
FINAL SINGLE POINT ENERGY      -383.622215937172

DIPOLE MOMENT
-------------

Method             : SCF
Type of density    : Electron Density
Multiplicity       :   1
Irrep              :   0
Energy             :  -383.5948598595603016 Eh
Relativity type    :
Basis              : AO
                                X                 Y                 Z
Electronic contribution:     -2.669469809      -1.371953272      -0.002630852
Nuclear contribution   :      2.512504003       1.749237998       0.005027500
                        -----------------------------------------
Total Dipole Moment    :     -0.156965807       0.377284726       0.002396648
                        -----------------------------------------
Magnitude (a.u.)       :      0.408641374
Magnitude (Debye)      :      1.038683827

VIBRATIONAL FREQUENCIES
-----------------------

Scaling factor for frequencies =  1.000000000  (already applied!)

     0:       0.00 cm**-1
     1:       0.00 cm**-1
     2:       0.00 cm**-1
     3:       0.00 cm**-1
     4:       0.00 cm**-1
     5:       0.00 cm**-1
     6:     214.89 cm**-1
     7:     252.15 cm**-1
     8:     405.38 cm**-1
     9:     430.65 cm**-1
    10:     546.03 cm**-1
    11:     585.75 cm**-1
    12:     599.11 cm**-1
    13:     619.21 cm**-1
    14:     747.38 cm**-1
    15:     760.74 cm**-1
    16:     776.72 cm**-1
    17:     791.70 cm**-1
    18:     870.25 cm**-1
    19:     874.22 cm**-1
    20:     889.95 cm**-1
    21:     910.61 cm**-1
    22:     958.35 cm**-1
    23:    1000.92 cm**-1
    24:    1024.98 cm**-1
    25:    1045.24 cm**-1
    26:    1116.98 cm**-1
    27:    1137.16 cm**-1
    28:    1160.21 cm**-1
    29:    1187.99 cm**-1
    30:    1267.23 cm**-1
    31:    1287.61 cm**-1
    32:    1355.68 cm**-1
    33:    1382.96 cm**-1
    34:    1474.25 cm**-1
    35:    1500.13 cm**-1
    36:    1568.83 cm**-1
    37:    1621.84 cm**-1
    38:    1648.79 cm**-1
    39:    3170.16 cm**-1
    40:    3180.41 cm**-1
    41:    3189.33 cm**-1
    42:    3198.61 cm**-1
    43:    3242.07 cm**-1
    44:    3268.75 cm**-1

IR SPECTRUM
-----------

 Mode   freq       eps      Int      T**2         TX        TY        TZ
       cm**-1   L/(mol*cm) km/mol    a.u.
----------------------------------------------------------------------------
  6:    214.89   0.002408   12.17  0.003497  (-0.000103 -0.000039  0.059133)
  7:    252.15   0.000076    0.38  0.000094  ( 0.000010 -0.000075  0.009709)
  8:    405.38   0.002334   11.79  0.001796  ( 0.021694  0.036410  0.000028)
  9:    430.65   0.003324   16.80  0.002409  ( 0.000114 -0.000023 -0.049078)
 10:    546.03   0.000252    1.27  0.000144  ( 0.010594  0.005640  0.000084)
 11:    585.75   0.000071    0.36  0.000038  ( 0.000159  0.000012 -0.006166)
 12:    599.11   0.000000    0.00  0.000000  ( 0.000154  0.000139 -0.000007)
 13:    619.21   0.000598    3.02  0.000301  ( 0.016955 -0.003720 -0.000037)
 14:    747.38   0.001587    8.02  0.000663  ( 0.000079  0.000075  0.025741)
 15:    760.74   0.045009  227.46  0.018463  ( 0.000342 -0.000064 -0.135879)
 16:    776.72   0.002747   13.88  0.001104  ( 0.030534 -0.013041  0.001047)
 17:    791.70   0.002796   14.13  0.001102  (-0.000031  0.000028  0.033199)
 18:    870.25   0.003766   19.03  0.001351  ( 0.021617  0.029719 -0.000256)
 19:    874.22   0.000075    0.38  0.000027  (-0.000231 -0.000451 -0.005166)
 20:    889.95   0.000371    1.88  0.000130  ( 0.000195  0.000216  0.011407)
 21:    910.61   0.001189    6.01  0.000408  (-0.011084  0.016874 -0.000012)
 22:    958.35   0.001049    5.30  0.000342  ( 0.000150 -0.000140 -0.018481)
 23:   1000.92   0.000004    0.02  0.000001  ( 0.000025  0.000223 -0.001147)
 24:   1024.98   0.003693   18.66  0.001124  (-0.032842  0.006758 -0.000166)
 25:   1045.24   0.008544   43.18  0.002551  (-0.001230 -0.050492  0.000002)
 26:   1116.98   0.006444   32.56  0.001800  (-0.014684 -0.039807  0.000071)
 27:   1137.16   0.006607   33.39  0.001813  (-0.017387  0.038870 -0.000066)
 28:   1160.21   0.000760    3.84  0.000204  (-0.008499  0.011496 -0.000017)
 29:   1187.99   0.008728   44.11  0.002293  ( 0.044176 -0.018474 -0.000036)
 30:   1267.23   0.016267   82.21  0.004006  (-0.063291  0.000505 -0.000009)
 31:   1287.61   0.000029    0.14  0.000007  ( 0.002426  0.001031  0.000035)
 32:   1355.68   0.001825    9.22  0.000420  (-0.014219 -0.014758  0.000008)
 33:   1382.96   0.000470    2.37  0.000106  ( 0.000902 -0.010258  0.000003)
 34:   1474.25   0.013399   67.71  0.002836  (-0.047517 -0.024047  0.000009)
 35:   1500.13   0.001514    7.65  0.000315  ( 0.011880 -0.013187  0.000014)
 36:   1568.83   0.006216   31.41  0.001236  ( 0.000252 -0.035163  0.000068)
 37:   1621.84   0.000058    0.29  0.000011  (-0.001930  0.002730  0.000018)
 38:   1648.79   0.000054    0.27  0.000010  (-0.003188 -0.000280 -0.000005)
 39:   3170.16   0.000441    2.23  0.000043  (-0.006169 -0.002318 -0.000005)
 40:   3180.41   0.002758   13.94  0.000271  (-0.010300  0.012827  0.000062)
 41:   3189.33   0.005326   26.91  0.000521  ( 0.015399  0.016852 -0.000024)
 42:   3198.61   0.001650    8.34  0.000161  (-0.009815  0.008042  0.000046)
 43:   3242.07   0.000587    2.97  0.000057  ( 0.007490  0.000651  0.000056)
 44:   3268.75   0.000031    0.16  0.000003  (-0.001316 -0.001101  0.000084)

--------------------------
THERMOCHEMISTRY AT 298.15K
--------------------------

Temperature         ...   298.15 K
Pressure            ...     1.00 atm
Total Mass          ...   118.13 AMU
Quasi RRHO          ...     True
Cut-Off Frequency   ...     1.00 cm^-1

Throughout the following assumptions are being made:
  (1) The electronic state is orbitally nondegenerate
  (2) There are no thermally accessible electronically excited states
  (3) Hindered rotations indicated by low frequency modes are not
      treated as such but are treated as vibrations and this may
      cause some error
  (4) All equations used are the standard statistical mechanics
      equations for an ideal gas
  (5) All vibrations are strictly harmonic

freq.     214.89  E(vib)   ...       0.34
freq.     252.15  E(vib)   ...       0.30
freq.     405.38  E(vib)   ...       0.19
freq.     430.65  E(vib)   ...       0.18
freq.     546.03  E(vib)   ...       0.12
freq.     585.75  E(vib)   ...       0.11
freq.     599.11  E(vib)   ...       0.10
freq.     619.21  E(vib)   ...       0.09
freq.     747.38  E(vib)   ...       0.06
freq.     760.74  E(vib)   ...       0.06
freq.     776.72  E(vib)   ...       0.05
freq.     791.70  E(vib)   ...       0.05
freq.     870.25  E(vib)   ...       0.04
freq.     874.22  E(vib)   ...       0.04
freq.     889.95  E(vib)   ...       0.04
freq.     910.61  E(vib)   ...       0.03
freq.     958.35  E(vib)   ...       0.03
freq.    1000.92  E(vib)   ...       0.02
freq.    1024.98  E(vib)   ...       0.02
freq.    1045.24  E(vib)   ...       0.02
freq.    1116.98  E(vib)   ...       0.01
freq.    1137.16  E(vib)   ...       0.01
freq.    1160.21  E(vib)   ...       0.01
freq.    1187.99  E(vib)   ...       0.01
freq.    1267.23  E(vib)   ...       0.01
freq.    1287.61  E(vib)   ...       0.01
freq.    1355.68  E(vib)   ...       0.01
freq.    1382.96  E(vib)   ...       0.01
freq.    1474.25  E(vib)   ...       0.00
freq.    1500.13  E(vib)   ...       0.00
freq.    1568.83  E(vib)   ...       0.00
freq.    1621.84  E(vib)   ...       0.00
freq.    1648.79  E(vib)   ...       0.00
freq.    3170.16  E(vib)   ...       0.00
freq.    3180.41  E(vib)   ...       0.00
freq.    3189.33  E(vib)   ...       0.00
freq.    3198.61  E(vib)   ...       0.00
freq.    3242.07  E(vib)   ...       0.00
freq.    3268.75  E(vib)   ...       0.00

------------
INNER ENERGY
------------

The inner energy is: U= E(el) + E(ZPE) + E(vib) + E(rot) + E(trans)
    E(el)   - is the total energy from the electronic structure calculation
              = E(kin-el) + E(nuc-el) + E(el-el) + E(nuc-nuc)
    E(ZPE)  - the the zero temperature vibrational energy from the frequency calculation
    E(vib)  - the the finite temperature correction to E(ZPE) due to population
              of excited vibrational states
    E(rot)  - is the rotational thermal energy
    E(trans)- is the translational thermal energy

Summary of contributions to the inner energy U:
Electronic energy                ...   -383.62221594 Eh
Zero point energy                ...      0.11678620 Eh      73.28 kcal/mol
Thermal vibrational correction   ...      0.00314373 Eh       1.97 kcal/mol
Thermal rotational correction    ...      0.00141627 Eh       0.89 kcal/mol
Thermal translational correction ...      0.00141627 Eh       0.89 kcal/mol
-----------------------------------------------------------------------
Total thermal energy                   -383.49945347 Eh

Summary of corrections to the electronic energy:
(perhaps to be used in another calculation)
Total thermal correction                  0.00597627 Eh       3.75 kcal/mol
Non-thermal (ZPE) correction              0.11678620 Eh      73.28 kcal/mol
-----------------------------------------------------------------------
Total correction                          0.12276247 Eh      77.03 kcal/mol

--------
ENTHALPY
--------

The enthalpy is H = U + kB*T
                kB is Boltzmann's constant
Total thermal energy              ...   -383.49945347 Eh
Thermal Enthalpy correction       ...      0.00094421 Eh       0.59 kcal/mol
-----------------------------------------------------------------------
Total Enthalpy                    ...   -383.49850926 Eh

Note: Only C1 symmetry has been detected, increase convergence thresholds
      if your molecule has a higher symmetry. Symmetry factor of 1.0 is
      used for the rotational entropy correction.

Note: Rotational entropy computed according to Herzberg
Infrared and Raman Spectra, Chapter V,1, Van Nostrand Reinhold, 1945
Point Group:  C1, Symmetry Number:   1
Rotational constants in cm-1:     0.131487     0.055558     0.039056

Vibrational entropy computed according to the QRRHO of S. Grimme
Chem.Eur.J. 2012 18 9955 using a reference frequency of 100.0 cm-1

-------
ENTROPY
-------

The entropy contributions are T*S = T*(S(el)+S(vib)+S(rot)+S(trans))
     S(el)   - electronic entropy
     S(vib)  - vibrational entropy
     S(rot)  - rotational entropy
     S(trans)- translational entropy
The entropies will be listed as multiplied by the temperature to get
units of energy

Electronic entropy                ...      0.00000000 Eh      0.00 kcal/mol
Vibrational entropy               ...      0.00459772 Eh      2.89 kcal/mol
Rotational entropy                ...      0.01336399 Eh      8.39 kcal/mol
Translational entropy             ...      0.01910727 Eh     11.99 kcal/mol
-----------------------------------------------------------------------
Final entropy term                ...      0.03706898 Eh     23.26 kcal/mol

In case the symmetry of your molecule has not been determined correctly
or in case you have a reason to use a different symmetry number we print
out the resulting rotational entropy values for sn=1,12:

 non-linear molecules -----------------------------------
|  sn= 1 | S(rot)=       0.01336399 Eh      8.39 kcal/mol|
|  sn= 2 | S(rot)=       0.01270953 Eh      7.98 kcal/mol|
|  sn= 3 | S(rot)=       0.01232670 Eh      7.74 kcal/mol|
|  sn= 4 | S(rot)=       0.01205507 Eh      7.56 kcal/mol|
|  sn= 5 | S(rot)=       0.01184439 Eh      7.43 kcal/mol|
|  sn= 6 | S(rot)=       0.01167224 Eh      7.32 kcal/mol|
|  sn= 7 | S(rot)=       0.01152669 Eh      7.23 kcal/mol|
|  sn= 8 | S(rot)=       0.01140062 Eh      7.15 kcal/mol|
|  sn= 9 | S(rot)=       0.01128941 Eh      7.08 kcal/mol|
|  sn=10 | S(rot)=       0.01118993 Eh      7.02 kcal/mol|
|  sn=11 | S(rot)=       0.01109994 Eh      6.97 kcal/mol|
|  sn=12 | S(rot)=       0.01101778 Eh      6.91 kcal/mol|
 linear molecules ---------------------------------------
|  Dinfh | S(rot)=       0.00838757 Eh      5.26 kcal/mol|
|  Cinfv | S(rot)=       0.00904202 Eh      5.67 kcal/mol|
 --------------------------------------------------------

-------------------
GIBBS FREE ENERGY
-------------------

                             ****ORCA TERMINATED NORMALLY****
TOTAL RUN TIME: 0 days 0 hours 23 minutes 20 seconds 149 msec
