                         Program Version 6.0.0  -   RELEASE  -
|  1> !PBE0 aug-cc-pVTZ d3 TightSCF SlowConv RIJCOSX defgrid2
|  2>
|  3> %pal
|  4> nprocs 4
|  5> end
|  6>
|  7> %scf
|  8> MaxIter 1500
|  9> end
| 10>
| 11> %maxcore 3000
| 12>
| 13> !CPCM
| 14> %cpcm smd true
| 15> SMDsolvent "MeCN"
| 16> surfacetype gepol_ses
| 17> rsolv 2.19
| 18> end
| 19>
| 20> * xyz 0 1
| 21> C           1.57085042838004     -1.17474438788844     -0.33321365208336
| 22> C           2.96192041551293     -1.15651629940685     -0.31860147015010
| 23> C           3.64782695539498      0.00855864334947      0.02599003748590
| 24> C           2.92361947907694      1.15458909719340      0.34785674698480
| 25> C           1.53060388669529      1.13435322432905      0.32993520415109
| 26> C           0.82328467622844     -0.03397612396155      0.00340161993556
| 27> C          -0.65741272614693     -0.04733327290659      0.00534536563332
| 28> C          -1.35282390658214     -1.16758358658154      0.27962064543062
| 29> C          -2.84853700806778     -1.25828591796901      0.30847424531628
| 30> C          -3.51990150406660      0.11087068594057      0.31565142940002
| 31> C          -2.83381225328130      1.04341808051259     -0.67327419385531
| 32> C          -1.37142433850592      1.25026584913834     -0.29589644947955
| 33> H          -0.83991530281643      1.78116962585690     -1.10618334228773
| 34> H          -1.30989672858064      1.91765444185113      0.58676465237026
| 35> H          -3.35148405171204      2.01729252554914     -0.71973408682922
| 36> H          -2.89053837289839      0.60490265207129     -1.68762863260766
| 37> H          -4.59471066896096      0.01138665951998      0.08467603040594
| 38> H          -3.45292200027469      0.54772553729573      1.33001780873961
| 39> H          -3.19002868806132     -1.84280149491509     -0.57088642583127
| 40> H          -3.16602339134086     -1.84941487747488      1.18737448619474
| 41> H          -0.80474635256816     -2.08768769328037      0.51396987653596
| 42> H           0.98362946668811      2.04390039060663      0.59144870231404
| 43> H           3.44740931149543      2.07717728450666      0.61616083395012
| 44> H           4.74164950120465      0.02477698912015      0.03349122220482
| 45> H           3.51725863806072     -2.05891161890825     -0.59221005705267
| 46> H           1.04979053512663     -2.08648421354846     -0.63790469687620
| 47> *
| 48>
| 49>                          ****END OF INPUT****

CARTESIAN COORDINATES (ANGSTROEM)
---------------------------------
  C      1.570850   -1.174744   -0.333214
  C      2.961920   -1.156516   -0.318601
  C      3.647827    0.008559    0.025990
  C      2.923619    1.154589    0.347857
  C      1.530604    1.134353    0.329935
  C      0.823285   -0.033976    0.003402
  C     -0.657413   -0.047333    0.005345
  C     -1.352824   -1.167584    0.279621
  C     -2.848537   -1.258286    0.308474
  C     -3.519902    0.110871    0.315651
  C     -2.833812    1.043418   -0.673274
  C     -1.371424    1.250266   -0.295896
  H     -0.839915    1.781170   -1.106183
  H     -1.309897    1.917654    0.586765
  H     -3.351484    2.017293   -0.719734
  H     -2.890538    0.604903   -1.687629
  H     -4.594711    0.011387    0.084676
  H     -3.452922    0.547726    1.330018
  H     -3.190029   -1.842801   -0.570886
  H     -3.166023   -1.849415    1.187374
  H     -0.804746   -2.087688    0.513970
  H      0.983629    2.043900    0.591449
  H      3.447409    2.077177    0.616161
  H      4.741650    0.024777    0.033491
  H      3.517259   -2.058912   -0.592210
  H      1.049791   -2.086484   -0.637905

 Total Charge           Charge          ....    0
 Multiplicity           Mult            ....    1
 Number of Electrons    NEL             ....   86
 Basis Dimension        Dim             ....  874

ORBITAL ENERGIES
----------------

  NO   OCC          E(Eh)            E(eV)
   0   2.0000     -10.240643      -278.6621
   1   2.0000     -10.230785      -278.3938
   2   2.0000     -10.229498      -278.3588
   3   2.0000     -10.229381      -278.3556
   4   2.0000     -10.227996      -278.3179
   5   2.0000     -10.227887      -278.3150
   6   2.0000     -10.227684      -278.3094
   7   2.0000     -10.220111      -278.1034
   8   2.0000     -10.218404      -278.0569
   9   2.0000     -10.218255      -278.0529
  10   2.0000     -10.213144      -277.9138
  11   2.0000     -10.212463      -277.8953
  12   2.0000      -0.889187       -24.1960
  13   2.0000      -0.856174       -23.2977
  14   2.0000      -0.794874       -21.6296
  15   2.0000      -0.769637       -20.9429
  16   2.0000      -0.757557       -20.6142
  17   2.0000      -0.736855       -20.0508
  18   2.0000      -0.644177       -17.5289
  19   2.0000      -0.634590       -17.2681
  20   2.0000      -0.607165       -16.5218
  21   2.0000      -0.593610       -16.1530
  22   2.0000      -0.538126       -14.6432
  23   2.0000      -0.518699       -14.1145
  24   2.0000      -0.487301       -13.2601
  25   2.0000      -0.468138       -12.7387
  26   2.0000      -0.462646       -12.5892
  27   2.0000      -0.443032       -12.0555
  28   2.0000      -0.433198       -11.7879
  29   2.0000      -0.427498       -11.6328
  30   2.0000      -0.420442       -11.4408
  31   2.0000      -0.405349       -11.0301
  32   2.0000      -0.394273       -10.7287
  33   2.0000      -0.384381       -10.4596
  34   2.0000      -0.377723       -10.2784
  35   2.0000      -0.357736        -9.7345
  36   2.0000      -0.349220        -9.5028
  37   2.0000      -0.329283        -8.9602
  38   2.0000      -0.320479        -8.7207
  39   2.0000      -0.311786        -8.4841
  40   2.0000      -0.288958        -7.8629
  41   2.0000      -0.268292        -7.3006
  42   2.0000      -0.230253        -6.2655
  43   0.0000      -0.029042        -0.7903
  44   0.0000      -0.010412        -0.2833
  45   0.0000       0.001006         0.0274
  46   0.0000       0.010341         0.2814
  47   0.0000       0.015086         0.4105

MULLIKEN ATOMIC CHARGES
-----------------------
   0 C :   -1.001178
   1 C :   -0.943570
   2 C :   -0.253937
   3 C :   -1.014310
   4 C :   -0.911904
   5 C :    1.717662
   6 C :    1.458203
   7 C :   -1.129662
   8 C :   -0.227406
   9 C :   -0.355319
  10 C :   -0.555969
  11 C :   -0.288847
  12 H :    0.253585
  13 H :    0.228751
  14 H :    0.151167
  15 H :    0.195315
  16 H :    0.195611
  17 H :    0.204291
  18 H :    0.196588
  19 H :    0.213519
  20 H :    0.068395
  21 H :    0.065234
  22 H :    0.548713
  23 H :    0.582660
  24 H :    0.601499
  25 H :    0.000910
Sum of atomic charges:   -0.0000000

LOEWDIN ATOMIC CHARGES
----------------------
   0 C :    0.200078
   1 C :    0.185489
   2 C :    0.177080
   3 C :    0.186178
   4 C :    0.202489
   5 C :   -0.126205
   6 C :   -0.084726
   7 C :    0.251116
   8 C :    0.262327
   9 C :    0.265895
  10 C :    0.271858
  11 C :    0.258444
  12 H :   -0.129150
  13 H :   -0.126588
  14 H :   -0.126011
  15 H :   -0.123560
  16 H :   -0.127943
  17 H :   -0.126082
  18 H :   -0.128543
  19 H :   -0.134945
  20 H :   -0.170713
  21 H :   -0.175325
  22 H :   -0.167859
  23 H :   -0.171008
  24 H :   -0.168079
  25 H :   -0.174216

  Mayer bond orders larger than 0.100000
B(  0-C ,  1-C ) :   1.3940 B(  0-C ,  2-C ) :  -0.1915 B(  0-C ,  3-C ) :   0.1398
B(  0-C ,  4-C ) :  -0.7264 B(  0-C ,  5-C ) :   0.3452 B(  0-C ,  6-C ) :   0.2798
B(  0-C , 21-H ) :   0.1066 B(  0-C , 24-H ) :  -0.1044 B(  0-C , 25-H ) :   1.6291
B(  1-C ,  2-C ) :   1.3230 B(  1-C ,  3-C ) :   0.2960 B(  1-C ,  4-C ) :   0.1268
B(  1-C ,  6-C ) :  -0.1317 B(  1-C , 21-H ) :  -0.1471 B(  1-C , 24-H ) :   0.3194
B(  2-C ,  3-C ) :   1.3512 B(  2-C ,  4-C ) :  -0.1799 B(  2-C ,  5-C ) :  -0.2132
B(  2-C ,  6-C ) :   0.3021 B(  2-C , 23-H ) :   0.4764 B(  2-C , 24-H ) :   0.1024
B(  3-C ,  4-C ) :   1.2649 B(  3-C ,  5-C ) :  -0.1393 B(  3-C , 22-H ) :   0.3879
B(  4-C ,  5-C ) :   0.2480 B(  4-C ,  6-C ) :   0.1984 B(  4-C , 21-H ) :   1.5521
B(  4-C , 22-H ) :  -0.1171 B(  5-C ,  6-C ) :  -0.1064 B(  5-C ,  7-C ) :   0.3133
B(  5-C , 22-H ) :   0.1884 B(  5-C , 24-H ) :   0.1388 B(  5-C , 25-H ) :  -0.1152
B(  6-C ,  7-C ) :   0.5535 B(  6-C , 11-C ) :   0.7821 B(  6-C , 20-H ) :  -0.2029
B(  6-C , 21-H ) :  -0.3190 B(  6-C , 25-H ) :  -0.2346 B(  7-C ,  8-C ) :   0.8011
B(  7-C , 11-C ) :  -0.1317 B(  7-C , 19-H ) :  -0.1006 B(  7-C , 20-H ) :   1.3612
B(  8-C ,  9-C ) :   1.0065 B(  8-C , 18-H ) :   0.9765 B(  8-C , 19-H ) :   0.9499
B(  9-C , 10-C ) :   1.0139 B(  9-C , 16-H ) :   0.9404 B(  9-C , 17-H ) :   0.9536
B( 10-C , 11-C ) :   0.9981 B( 10-C , 14-H ) :   0.9776 B( 10-C , 15-H ) :   0.9699
B( 11-C , 12-H ) :   0.9019 B( 11-C , 13-H ) :   0.9632 B( 21-H , 25-H ) :   0.2407

Dispersion correction           -0.025805290
FINAL SINGLE POINT ENERGY      -465.333913251531

DIPOLE MOMENT
-------------

Method             : SCF
Type of density    : Electron Density
Multiplicity       :   1
Irrep              :   0
Energy             :  -465.3081079615687941 Eh
Relativity type    :
Basis              : AO
                                X                 Y                 Z
Electronic contribution:      8.889276426      -1.032764147       0.289325970
Nuclear contribution   :     -9.297439936       1.076513750      -0.312023061
                        -----------------------------------------
Total Dipole Moment    :     -0.408163510       0.043749603      -0.022697091
                        -----------------------------------------
Magnitude (a.u.)       :      0.411128492
Magnitude (Debye)      :      1.045005579

Rotational constants in cm-1:             0.085540             0.017249             0.015002
Rotational constants in MHz :          2564.428727           517.115238           449.743228

                             ****ORCA TERMINATED NORMALLY****
TOTAL RUN TIME: 0 days 0 hours 11 minutes 27 seconds 104 msec
