                         Program Version 6.0.0  -   RELEASE  -
|  1> !r2SCANh aug-cc-pVTZ d3 TightSCF SlowConv RIJCOSX defgrid2
|  2>
|  3> %pal
|  4> nprocs 4
|  5> end
|  6>
|  7> %scf
|  8> MaxIter 1500
|  9> end
| 10>
| 11> %maxcore 3000
| 12>
| 13> !CPCM
| 14> %cpcm smd true
| 15> SMDsolvent "MeCN"
| 16> surfacetype gepol_ses
| 17> rsolv 2.19
| 18> end
| 19>
| 20> * xyz 0 1
| 21>   C           0.41599319251032     -1.69346177862022     -0.02279161454558
| 22>   C          -0.98199729558990     -1.81472676429341     -0.05134821794403
| 23>   C          -1.70677603729443     -0.64308652071241     -0.08326300415314
| 24>   C          -1.07495769550450      0.60196976211576     -0.08130065571313
| 25>   C           0.29269190626036      0.73274812090553     -0.04930153158760
| 26>   C           1.06792223663687     -0.45226147551338     -0.02238323387356
| 27>   C           2.53306012033092     -0.42784097336228      0.00411549390745
| 28>   C           3.33599029031163      0.64787454860086     -0.01298712184471
| 29>   C           4.82698252758222      0.59436334411775      0.01761658566321
| 30>   H           5.19519744878890     -0.44486528089433      0.05467264909477
| 31>   H           5.26493429112435      1.08145794661971     -0.87426846583011
| 32>   H           5.23044002906813      1.13215001785477      0.89657522514024
| 33>   H           2.89219341939334      1.65177321714680     -0.05310300701833
| 34>   H           3.00616156242134     -1.41849503169999      0.04140787797653
| 35>   H           0.75060774881743      1.72311804458948     -0.04152460092806
| 36>   O          -2.02238582974935      1.57759788099539     -0.08083816246866
| 37>   C          -3.25372937520391      0.92161898008569     -0.29920279195714
| 38>   H          -3.58643890672075      1.09093447235186     -1.34427577812255
| 39>   H          -4.00651814330382      1.30024105404657      0.41140327759572
| 40>   O          -3.05288326673628     -0.46068315840969     -0.08496008668725
| 41>   H          -1.47569728947849     -2.78849336669007     -0.04656446685497
| 42>   H           1.02272506633562     -2.60351753923440     -0.00236886984910
| 43> *
| 44>
| 45>                          ****END OF INPUT****

CARTESIAN COORDINATES (ANGSTROEM)
---------------------------------
  C      0.415993   -1.693462   -0.022792
  C     -0.981997   -1.814727   -0.051348
  C     -1.706776   -0.643087   -0.083263
  C     -1.074958    0.601970   -0.081301
  C      0.292692    0.732748   -0.049302
  C      1.067922   -0.452261   -0.022383
  C      2.533060   -0.427841    0.004115
  C      3.335990    0.647875   -0.012987
  C      4.826983    0.594363    0.017617
  H      5.195197   -0.444865    0.054673
  H      5.264934    1.081458   -0.874268
  H      5.230440    1.132150    0.896575
  H      2.892193    1.651773   -0.053103
  H      3.006162   -1.418495    0.041408
  H      0.750608    1.723118   -0.041525
  O     -2.022386    1.577598   -0.080838
  C     -3.253729    0.921619   -0.299203
  H     -3.586439    1.090934   -1.344276
  H     -4.006518    1.300241    0.411403
  O     -3.052883   -0.460683   -0.084960
  H     -1.475697   -2.788493   -0.046564
  H      1.022725   -2.603518   -0.002369

 Total Charge           Charge          ....    0
 Multiplicity           Mult            ....    1
 Number of Electrons    NEL             ....   86
 Basis Dimension        Dim             ....  782

ORBITAL ENERGIES
----------------

  NO   OCC          E(Eh)            E(eV)
   0   2.0000     -19.167666      -521.5787
   1   2.0000     -19.167033      -521.5615
   2   2.0000     -10.267905      -279.4039
   3   2.0000     -10.222754      -278.1753
   4   2.0000     -10.221462      -278.1401
   5   2.0000     -10.173463      -276.8340
   6   2.0000     -10.166041      -276.6320
   7   2.0000     -10.164134      -276.5802
   8   2.0000     -10.160786      -276.4891
   9   2.0000     -10.158051      -276.4146
  10   2.0000     -10.155317      -276.3402
  11   2.0000     -10.146829      -276.1093
  12   2.0000      -1.145073       -31.1590
  13   2.0000      -1.050895       -28.5963
  14   2.0000      -0.867701       -23.6114
  15   2.0000      -0.801655       -21.8142
  16   2.0000      -0.759368       -20.6635
  17   2.0000      -0.752926       -20.4881
  18   2.0000      -0.692250       -18.8371
  19   2.0000      -0.657660       -17.8958
  20   2.0000      -0.623288       -16.9605
  21   2.0000      -0.612439       -16.6653
  22   2.0000      -0.549158       -14.9433
  23   2.0000      -0.518553       -14.1105
  24   2.0000      -0.516038       -14.0421
  25   2.0000      -0.508526       -13.8377
  26   2.0000      -0.481837       -13.1115
  27   2.0000      -0.436925       -11.8893
  28   2.0000      -0.433504       -11.7962
  29   2.0000      -0.422954       -11.5092
  30   2.0000      -0.398258       -10.8371
  31   2.0000      -0.391229       -10.6459
  32   2.0000      -0.386773       -10.5246
  33   2.0000      -0.385996       -10.5035
  34   2.0000      -0.383855       -10.4452
  35   2.0000      -0.364335        -9.9140
  36   2.0000      -0.352292        -9.5864
  37   2.0000      -0.335369        -9.1259
  38   2.0000      -0.328711        -8.9447
  39   2.0000      -0.327582        -8.9140
  40   2.0000      -0.268216        -7.2985
  41   2.0000      -0.235622        -6.4116
  42   2.0000      -0.194765        -5.2998
  43   0.0000      -0.046059        -1.2533
  44   0.0000      -0.018186        -0.4949
  45   0.0000       0.009347         0.2543
  46   0.0000       0.020628         0.5613
  47   0.0000       0.023461         0.6384

MULLIKEN ATOMIC CHARGES
-----------------------
   0 C :   -1.115424
   1 C :   -0.668123
   2 C :    0.842444
   3 C :    1.002555
   4 C :   -0.702626
   5 C :    1.724302
   6 C :   -0.259601
   7 C :   -0.049093
   8 C :   -0.902068
   9 H :    0.252542
  10 H :    0.166208
  11 H :    0.174448
  12 H :    0.081241
  13 H :   -0.081736
  14 H :   -0.037193
  15 O :   -0.694871
  16 C :   -0.128360
  17 H :    0.249097
  18 H :    0.279284
  19 O :   -0.722087
  20 H :    0.525019
  21 H :    0.064045
Sum of atomic charges:    0.0000000

LOEWDIN ATOMIC CHARGES
----------------------
   0 C :    0.185455
   1 C :    0.225150
   2 C :   -0.406601
   3 C :   -0.399744
   4 C :    0.234339
   5 C :   -0.166254
   6 C :    0.189271
   7 C :    0.193847
   8 C :    0.547845
   9 H :   -0.174686
  10 H :   -0.165143
  11 H :   -0.165086
  12 H :   -0.186047
  13 H :   -0.185498
  14 H :   -0.177157
  15 O :    0.615608
  16 C :   -0.154966
  17 H :   -0.138598
  18 H :   -0.145110
  19 O :    0.613533
  20 H :   -0.165954
  21 H :   -0.174205

  Mayer bond orders larger than 0.100000
B(  0-C ,  1-C ) :   1.0975 B(  0-C ,  2-C ) :  -0.2090 B(  0-C ,  3-C ) :  -0.1874
B(  0-C ,  4-C ) :  -0.1485 B(  0-C ,  5-C ) :   0.1575 B(  0-C ,  7-C ) :   0.3124
B(  0-C , 21-H ) :   1.3891 B(  1-C ,  2-C ) :   0.5863 B(  1-C ,  4-C ) :  -0.1939
B(  1-C ,  5-C ) :   0.1838 B(  1-C ,  6-C ) :  -0.1093 B(  1-C , 20-H ) :   0.4078
B(  1-C , 21-H ) :  -0.1504 B(  2-C ,  3-C ) :   1.1625 B(  2-C ,  6-C ) :   0.1537
B(  2-C , 19-O ) :   0.2722 B(  3-C ,  4-C ) :   0.3228 B(  3-C ,  5-C ) :   0.5139
B(  3-C , 14-H ) :  -0.2139 B(  3-C , 15-O ) :   0.1786 B(  4-C ,  5-C ) :   0.1182
B(  4-C ,  6-C ) :   0.2036 B(  4-C ,  7-C ) :  -0.1325 B(  4-C , 12-H ) :  -0.1841
B(  4-C , 14-H ) :   1.4309 B(  4-C , 15-O ) :   0.1785 B(  5-C ,  6-C ) :  -0.1276
B(  5-C ,  7-C ) :  -0.1596 B(  5-C ,  8-C ) :   0.1065 B(  5-C , 12-H ) :  -0.2075
B(  5-C , 13-H ) :  -0.1453 B(  5-C , 14-H ) :  -0.3017 B(  5-C , 21-H ) :  -0.1992
B(  6-C ,  7-C ) :   0.8922 B(  6-C , 13-H ) :   1.4047 B(  7-C ,  8-C ) :   0.4136
B(  7-C , 10-H ) :  -0.1095 B(  7-C , 11-H ) :  -0.1125 B(  7-C , 12-H ) :   1.4746
B(  7-C , 13-H ) :  -0.1535 B(  8-C ,  9-H ) :   0.9468 B(  8-C , 10-H ) :   1.0853
B(  8-C , 11-H ) :   1.0760 B(  8-C , 12-H ) :  -0.1780 B( 15-O , 16-C ) :   0.8934
B( 15-O , 19-O ) :   0.1031 B( 16-C , 17-H ) :   0.9181 B( 16-C , 18-H ) :   0.9194
B( 16-C , 19-O ) :   0.8952

Dispersion correction           -0.007176797
FINAL SINGLE POINT ENERGY      -537.387746760610

DIPOLE MOMENT
-------------

Method             : SCF
Type of density    : Electron Density
Multiplicity       :   1
Irrep              :   0
Energy             :  -537.3805699636072859 Eh
Relativity type    :
Basis              : AO
                                X                 Y                 Z
Electronic contribution:    -13.589681562      -0.453006349       0.110365249
Nuclear contribution   :     13.408506820       0.685068586      -0.272537228
                        -----------------------------------------
Total Dipole Moment    :     -0.181174742       0.232062237      -0.162171979
                        -----------------------------------------
Magnitude (a.u.)       :      0.336120394
Magnitude (Debye)      :      0.854350146

Rotational constants in cm-1:             0.089233             0.016100             0.013721
Rotational constants in MHz :          2675.143581           482.663889           411.333800

                             ****ORCA TERMINATED NORMALLY****
TOTAL RUN TIME: 0 days 0 hours 8 minutes 34 seconds 579 msec
