                         Program Version 6.0.0  -   RELEASE  -
|  1> !PBE0 def2-SV(p) Opt Freq d3 TightSCF SlowConv RIJCOSX defgrid2
|  2>
|  3> %pal
|  4> nprocs 4
|  5> end
|  6>
|  7> %scf
|  8> MaxIter 1500
|  9> end
| 10>
| 11> %maxcore 3000
| 12>
| 13>
| 14>
| 15> * xyz 1 2
| 16> C     1.3588435    0.0026076   -0.0000096
| 17> C     0.7503531    1.2753004   -0.0000096
| 18> C    -0.6112539    1.3780750   -0.0000007
| 19> C    -1.4305948    0.2167393    0.0000092
| 20> C    -0.8138455   -1.0569819    0.0000094
| 21> C     0.5516069   -1.1551018    0.0000003
| 22> H     1.0250427   -2.1247385    0.0000005
| 23> H    -1.4103788   -1.9549640    0.0000165
| 24> O    -2.7258932    0.4335684    0.0000173
| 25> C    -3.6610469   -0.6290384    0.0000276
| 26> H    -4.6406541   -0.1549749    0.0000326
| 27> H    -3.5515749   -1.2483093   -0.8936058
| 28> H    -3.5515628   -1.2483028    0.8936641
| 29> H    -1.1018533    2.3384903   -0.0000009
| 30> H     1.3554217    2.1687819   -0.0000175
| 31> S     3.0728504   -0.2129301   -0.0000194
| 32> H     3.4096354    1.0843592   -0.0000273
| 33> *
| 34>
| 35>                          ****END OF INPUT****
 Total Charge           Charge          ....    1
 Multiplicity           Mult            ....    2
 Number of Electrons    NEL             ....   73
Dispersion correction           -0.016028117
FINAL SINGLE POINT ENERGY      -743.766300347765
Dispersion correction             ... done (  0.1 sec)
Dispersion correction           -0.016012728
FINAL SINGLE POINT ENERGY      -743.767953184428
Dispersion correction             ... done (  0.1 sec)
Dispersion correction           -0.016009460
FINAL SINGLE POINT ENERGY      -743.768073481550
Dispersion correction             ... done (  0.1 sec)
Dispersion correction           -0.016008423
FINAL SINGLE POINT ENERGY      -743.768095835792
Dispersion correction             ... done (  0.1 sec)
Dispersion correction           -0.016008185
FINAL SINGLE POINT ENERGY      -743.768098621867
Dispersion correction             ... done (  0.1 sec)
                    ***********************HURRAY********************

CARTESIAN COORDINATES (ANGSTROEM)
---------------------------------
  C      1.363372    0.009258    0.000423
  C      0.748226    1.292969    0.000383
  C     -0.615296    1.396262    0.000231
  C     -1.428354    0.222895    0.000093
  C     -0.819757   -1.062283    0.000098
  C      0.548328   -1.160731    0.000234
  H      1.019656   -2.148174    0.000238
  H     -1.427177   -1.968983    0.000004
  O     -2.714268    0.429827   -0.000030
  C     -3.657439   -0.639044   -0.000165
  H     -4.644910   -0.160491   -0.000257
  H     -3.537525   -1.252765   -0.908212
  H     -3.537717   -1.252817    0.907876
  H     -1.116643    2.367200    0.000197
  H      1.361869    2.198000    0.000461
  S      3.056185   -0.232743    0.000493
  H      3.426546    1.074201   -0.001981

 Multiplicity           Mult            ....    2
 Number of Electrons    NEL             ....   73
 Basis Dimension        Dim             ....  146

ORBITAL ENERGIES
----------------
                 SPIN UP ORBITALS
  NO   OCC          E(Eh)            E(eV)
   0   1.0000     -89.226258     -2427.9699
   1   1.0000     -19.453040      -529.3441
   2   1.0000     -10.510122      -285.9950
   3   1.0000     -10.481229      -285.2087
   4   1.0000     -10.441221      -284.1201
   5   1.0000     -10.439802      -284.0815
   6   1.0000     -10.436106      -283.9809
   7   1.0000     -10.430214      -283.8206
   8   1.0000     -10.428112      -283.7634
   9   1.0000      -8.228575      -223.9109
  10   1.0000      -6.169158      -167.8713
  11   1.0000      -6.165976      -167.7847
  12   1.0000      -6.164965      -167.7572
  13   1.0000      -1.304560       -35.4989
  14   1.0000      -1.087247       -29.5855
  15   1.0000      -1.016598       -27.6630
  16   1.0000      -0.968628       -26.3577
  17   1.0000      -0.940609       -25.5953
  18   1.0000      -0.880720       -23.9656
  19   1.0000      -0.824255       -22.4291
  20   1.0000      -0.789493       -21.4832
  21   1.0000      -0.738574       -20.0976
  22   1.0000      -0.709747       -19.3132
  23   1.0000      -0.681869       -18.5546
  24   1.0000      -0.679156       -18.4808
  25   1.0000      -0.645082       -17.5536
  26   1.0000      -0.632326       -17.2065
  27   1.0000      -0.619018       -16.8443
  28   1.0000      -0.598492       -16.2858
  29   1.0000      -0.597278       -16.2528
  30   1.0000      -0.562958       -15.3189
  31   1.0000      -0.555103       -15.1051
  32   1.0000      -0.549996       -14.9662
  33   1.0000      -0.521176       -14.1819
  34   1.0000      -0.491470       -13.3736
  35   1.0000      -0.467811       -12.7298
  36   1.0000      -0.411605       -11.2003
  37   0.0000      -0.201111        -5.4725
  38   0.0000      -0.193574        -5.2674
  39   0.0000      -0.151209        -4.1146
  40   0.0000      -0.091981        -2.5029
  41   0.0000      -0.059588        -1.6215

                 SPIN DOWN ORBITALS
  NO   OCC          E(Eh)            E(eV)
   0   1.0000     -89.224200     -2427.9139
   1   1.0000     -19.447928      -529.2050
   2   1.0000     -10.507305      -285.9183
   3   1.0000     -10.477565      -285.1090
   4   1.0000     -10.440244      -284.0935
   5   1.0000     -10.440013      -284.0872
   6   1.0000     -10.436111      -283.9810
   7   1.0000     -10.429745      -283.8078
   8   1.0000     -10.426993      -283.7329
   9   1.0000      -8.226515      -223.8549
  10   1.0000      -6.167932      -167.8380
  11   1.0000      -6.163838      -167.7266
  12   1.0000      -6.158918      -167.5927
  13   1.0000      -1.295255       -35.2457
  14   1.0000      -1.079880       -29.3850
  15   1.0000      -1.007933       -27.4272
  16   1.0000      -0.966383       -26.2966
  17   1.0000      -0.935404       -25.4536
  18   1.0000      -0.872082       -23.7306
  19   1.0000      -0.819943       -22.3118
  20   1.0000      -0.785213       -21.3667
  21   1.0000      -0.735663       -20.0184
  22   1.0000      -0.707648       -19.2561
  23   1.0000      -0.678359       -18.4591
  24   1.0000      -0.661093       -17.9893
  25   1.0000      -0.642827       -17.4922
  26   1.0000      -0.631201       -17.1758
  27   1.0000      -0.616552       -16.7772
  28   1.0000      -0.595290       -16.1987
  29   1.0000      -0.581509       -15.8237
  30   1.0000      -0.561052       -15.2670
  31   1.0000      -0.544535       -14.8176
  32   1.0000      -0.534940       -14.5565
  33   1.0000      -0.518007       -14.0957
  34   1.0000      -0.463689       -12.6176
  35   1.0000      -0.457046       -12.4368
  36   0.0000      -0.329132        -8.9561
  37   0.0000      -0.182807        -4.9744
  38   0.0000      -0.171791        -4.6747
  39   0.0000      -0.148228        -4.0335
  40   0.0000      -0.087302        -2.3756

MULLIKEN ATOMIC CHARGES AND SPIN POPULATIONS
--------------------------------------------
   0 C :   -0.068777    0.206415
   1 C :   -0.072792   -0.015003
   2 C :   -0.087356    0.067918
   3 C :    0.270622    0.183769
   4 C :   -0.172318    0.024640
   5 C :   -0.040955    0.055583
   6 H :    0.163875   -0.004040
   7 H :    0.155874   -0.002681
   8 O :   -0.234924    0.150983
   9 C :   -0.198177   -0.012833
  10 H :    0.206803   -0.000011
  11 H :    0.183251    0.010955
  12 H :    0.183252    0.010955
  13 H :    0.166465   -0.004571
  14 H :    0.150475   -0.000880
  15 S :    0.157477    0.340832
  16 H :    0.237205   -0.012032
Sum of atomic charges         :    1.0000000

LOEWDIN ATOMIC CHARGES AND SPIN POPULATIONS
-------------------------------------------
   0 C :   -0.150640    0.179192
   1 C :   -0.100903    0.010706
   2 C :   -0.083883    0.068456
   3 C :    0.101050    0.155054
   4 C :   -0.128469    0.039071
   5 C :   -0.076826    0.063398
   6 H :    0.164682   -0.002211
   7 H :    0.165671   -0.001486
   8 O :    0.001924    0.155707
   9 C :   -0.190355   -0.005201
  10 H :    0.158014   -0.000036
  11 H :    0.142737    0.007914
  12 H :    0.142738    0.007914
  13 H :    0.174184   -0.002462
  14 H :    0.160056   -0.000639
  15 S :    0.386497    0.331953
  16 H :    0.133521   -0.007332

  Mayer bond orders larger than 0.100000
B(  0-C ,  1-C ) :   1.2226 B(  0-C ,  5-C ) :   1.2142 B(  0-C , 15-S ) :   1.2958
B(  1-C ,  2-C ) :   1.5649 B(  1-C , 14-H ) :   0.9469 B(  2-C ,  3-C ) :   1.2184
B(  2-C , 13-H ) :   0.9485 B(  3-C ,  4-C ) :   1.1858 B(  3-C ,  8-O ) :   1.3095
B(  4-C ,  5-C ) :   1.5688 B(  4-C ,  7-H ) :   0.9495 B(  5-C ,  6-H ) :   0.9438
B(  8-O ,  9-C ) :   0.8700 B(  9-C , 10-H ) :   0.9425 B(  9-C , 11-H ) :   0.9341
B(  9-C , 12-H ) :   0.9341 B( 15-S , 16-H ) :   0.8843

Dispersion correction           -0.016008096
FINAL SINGLE POINT ENERGY      -743.768098906696

DIPOLE MOMENT
-------------

Method             : SCF
Type of density    : Electron Density
Multiplicity       :   2
Irrep              :   0
Energy             :  -743.7520908106223487 Eh
Relativity type    :
Basis              : AO
                                X                 Y                 Z
Electronic contribution:      7.947228738       0.925600450       0.002420738
Nuclear contribution   :     -8.043505047      -1.005233306      -0.003147719
                        -----------------------------------------
Total Dipole Moment    :     -0.096276309      -0.079632856      -0.000726981
                        -----------------------------------------
Magnitude (a.u.)       :      0.124944179
Magnitude (Debye)      :      0.317582865

VIBRATIONAL FREQUENCIES
-----------------------

Scaling factor for frequencies =  1.000000000  (already applied!)

     0:       0.00 cm**-1
     1:       0.00 cm**-1
     2:       0.00 cm**-1
     3:       0.00 cm**-1
     4:       0.00 cm**-1
     5:       0.00 cm**-1
     6:      79.76 cm**-1
     7:     162.52 cm**-1
     8:     191.01 cm**-1
     9:     200.44 cm**-1
    10:     302.52 cm**-1
    11:     306.79 cm**-1
    12:     354.39 cm**-1
    13:     366.78 cm**-1
    14:     418.33 cm**-1
    15:     510.14 cm**-1
    16:     521.87 cm**-1
    17:     615.36 cm**-1
    18:     668.41 cm**-1
    19:     736.83 cm**-1
    20:     808.37 cm**-1
    21:     827.12 cm**-1
    22:     863.80 cm**-1
    23:     955.99 cm**-1
    24:     997.50 cm**-1
    25:    1002.23 cm**-1
    26:    1002.29 cm**-1
    27:    1058.20 cm**-1
    28:    1148.65 cm**-1
    29:    1163.38 cm**-1
    30:    1164.91 cm**-1
    31:    1205.22 cm**-1
    32:    1211.33 cm**-1
    33:    1318.15 cm**-1
    34:    1380.41 cm**-1
    35:    1402.64 cm**-1
    36:    1462.14 cm**-1
    37:    1480.39 cm**-1
    38:    1483.96 cm**-1
    39:    1537.07 cm**-1
    40:    1551.98 cm**-1
    41:    1572.82 cm**-1
    42:    1705.75 cm**-1
    43:    2671.92 cm**-1
    44:    3061.08 cm**-1
    45:    3165.77 cm**-1
    46:    3216.67 cm**-1
    47:    3218.68 cm**-1
    48:    3221.42 cm**-1
    49:    3241.43 cm**-1
    50:    3248.13 cm**-1

IR SPECTRUM
-----------

 Mode   freq       eps      Int      T**2         TX        TY        TZ
       cm**-1   L/(mol*cm) km/mol    a.u.
----------------------------------------------------------------------------
  6:     79.76   0.000213    1.07  0.000832  ( 0.000029 -0.000007  0.028842)
  7:    162.52   0.000913    4.61  0.001753  ( 0.000007 -0.000016 -0.041864)
  8:    191.01   0.000002    0.01  0.000003  ( 0.000024 -0.000002 -0.001841)
  9:    200.44   0.001134    5.73  0.001765  (-0.041706  0.005104 -0.000010)
 10:    302.52   0.000192    0.97  0.000199  ( 0.012852 -0.005779  0.000058)
 11:    306.79   0.000700    3.54  0.000712  ( 0.000052 -0.000013 -0.026681)
 12:    354.39   0.003228   16.31  0.002843  ( 0.000197  0.000102  0.053315)
 13:    366.78   0.000074    0.38  0.000063  ( 0.004420  0.006602 -0.000160)
 14:    418.33   0.001668    8.43  0.001245  (-0.000173 -0.000027 -0.035277)
 15:    510.14   0.001866    9.43  0.001142  ( 0.033605 -0.003518  0.000002)
 16:    521.87   0.002876   14.53  0.001720  (-0.000019 -0.000004 -0.041469)
 17:    615.36   0.000073    0.37  0.000037  (-0.003158 -0.005209  0.000012)
 18:    668.41   0.005975   30.20  0.002790  (-0.051060  0.013517  0.000017)
 19:    736.83   0.000003    0.01  0.000001  (-0.000010  0.000002  0.001108)
 20:    808.37   0.000005    0.02  0.000002  (-0.000018 -0.000001  0.001353)
 21:    827.12   0.000902    4.56  0.000340  ( 0.016567  0.008118  0.000004)
 22:    863.80   0.012303   62.18  0.004445  ( 0.000008  0.000008 -0.066669)
 23:    955.99   0.005739   29.00  0.001873  (-0.034775 -0.025769  0.000017)
 24:    997.50   0.000024    0.12  0.000008  (-0.000009 -0.000007  0.002764)
 25:   1002.23   0.000048    0.24  0.000015  (-0.001336  0.000416 -0.003606)
 26:   1002.29   0.001763    8.91  0.000549  ( 0.022437 -0.006750 -0.000212)
 27:   1058.20   0.013847   69.98  0.004083  (-0.053104 -0.035545 -0.000008)
 28:   1148.65   0.001606    8.12  0.000436  (-0.002193 -0.020774 -0.000005)
 29:   1163.38   0.000091    0.46  0.000024  (-0.000009  0.000005 -0.004946)
 30:   1164.91   0.002108   10.65  0.000565  (-0.023006  0.005963  0.000001)
 31:   1205.22   0.001622    8.20  0.000420  ( 0.020205 -0.003419  0.000002)
 32:   1211.33   0.005555   28.07  0.001431  (-0.037238 -0.006667 -0.000003)
 33:   1318.15   0.001085    5.49  0.000257  (-0.002515 -0.015831  0.000007)
 34:   1380.41   0.000019    0.10  0.000004  (-0.001849  0.000921 -0.000011)
 35:   1402.64   0.027844  140.71  0.006195  (-0.078207 -0.008857 -0.000001)
 36:   1462.14   0.018819   95.11  0.004017  ( 0.061082 -0.016899  0.000004)
 37:   1480.39   0.000009    0.05  0.000002  ( 0.001279  0.000538 -0.000003)
 38:   1483.96   0.004452   22.50  0.000936  (-0.000003  0.000002 -0.030598)
 39:   1537.07   0.005109   25.82  0.001037  (-0.028136 -0.015671 -0.000000)
 40:   1551.98   0.001663    8.40  0.000334  (-0.010109  0.015238 -0.000002)
 41:   1572.82   0.086037  434.80  0.017071  ( 0.130642 -0.001816  0.000012)
 42:   1705.75   0.021713  109.73  0.003972  ( 0.062995  0.002011  0.000005)
 43:   2671.92   0.004761   24.06  0.000556  ( 0.020208  0.012151 -0.000037)
 44:   3061.08   0.001450    7.33  0.000148  (-0.009914 -0.007042 -0.000001)
 45:   3165.77   0.000285    1.44  0.000028  ( 0.000000  0.000000 -0.005297)
 46:   3216.67   0.000681    3.44  0.000066  ( 0.001945 -0.007894  0.000000)
 47:   3218.68   0.000153    0.77  0.000015  (-0.002784 -0.002660 -0.000000)
 48:   3221.42   0.000203    1.02  0.000020  (-0.003905 -0.002091 -0.000002)
 49:   3241.43   0.001932    9.77  0.000186  (-0.002757  0.013358  0.000001)
 50:   3248.13   0.001160    5.86  0.000111  ( 0.000333  0.010553 -0.000000)

--------------------------
THERMOCHEMISTRY AT 298.15K
--------------------------

Temperature         ...   298.15 K
Pressure            ...     1.00 atm
Total Mass          ...   140.20 AMU
Quasi RRHO          ...     True
Cut-Off Frequency   ...     1.00 cm^-1

Throughout the following assumptions are being made:
  (1) The electronic state is orbitally nondegenerate
      but the spin degeneracy is treated
  (2) There are no thermally accessible electronically excited states
  (3) Hindered rotations indicated by low frequency modes are not
      treated as such but are treated as vibrations and this may
      cause some error
  (4) All equations used are the standard statistical mechanics
      equations for an ideal gas
  (5) All vibrations are strictly harmonic

freq.      79.76  E(vib)   ...       0.49
freq.     162.52  E(vib)   ...       0.39
freq.     191.01  E(vib)   ...       0.36
freq.     200.44  E(vib)   ...       0.35
freq.     302.52  E(vib)   ...       0.26
freq.     306.79  E(vib)   ...       0.26
freq.     354.39  E(vib)   ...       0.22
freq.     366.78  E(vib)   ...       0.22
freq.     418.33  E(vib)   ...       0.18
freq.     510.14  E(vib)   ...       0.14
freq.     521.87  E(vib)   ...       0.13
freq.     615.36  E(vib)   ...       0.10
freq.     668.41  E(vib)   ...       0.08
freq.     736.83  E(vib)   ...       0.06
freq.     808.37  E(vib)   ...       0.05
freq.     827.12  E(vib)   ...       0.04
freq.     863.80  E(vib)   ...       0.04
freq.     955.99  E(vib)   ...       0.03
freq.     997.50  E(vib)   ...       0.02
freq.    1002.23  E(vib)   ...       0.02
freq.    1002.29  E(vib)   ...       0.02
freq.    1058.20  E(vib)   ...       0.02
freq.    1148.65  E(vib)   ...       0.01
freq.    1163.38  E(vib)   ...       0.01
freq.    1164.91  E(vib)   ...       0.01
freq.    1205.22  E(vib)   ...       0.01
freq.    1211.33  E(vib)   ...       0.01
freq.    1318.15  E(vib)   ...       0.01
freq.    1380.41  E(vib)   ...       0.01
freq.    1402.64  E(vib)   ...       0.00
freq.    1462.14  E(vib)   ...       0.00
freq.    1480.39  E(vib)   ...       0.00
freq.    1483.96  E(vib)   ...       0.00
freq.    1537.07  E(vib)   ...       0.00
freq.    1551.98  E(vib)   ...       0.00
freq.    1572.82  E(vib)   ...       0.00
freq.    1705.75  E(vib)   ...       0.00
freq.    2671.92  E(vib)   ...       0.00
freq.    3061.08  E(vib)   ...       0.00
freq.    3165.77  E(vib)   ...       0.00
freq.    3216.67  E(vib)   ...       0.00
freq.    3218.68  E(vib)   ...       0.00
freq.    3221.42  E(vib)   ...       0.00
freq.    3241.43  E(vib)   ...       0.00
freq.    3248.13  E(vib)   ...       0.00

------------
INNER ENERGY
------------

The inner energy is: U= E(el) + E(ZPE) + E(vib) + E(rot) + E(trans)
    E(el)   - is the total energy from the electronic structure calculation
              = E(kin-el) + E(nuc-el) + E(el-el) + E(nuc-nuc)
    E(ZPE)  - the the zero temperature vibrational energy from the frequency calculation
    E(vib)  - the the finite temperature correction to E(ZPE) due to population
              of excited vibrational states
    E(rot)  - is the rotational thermal energy
    E(trans)- is the translational thermal energy

Summary of contributions to the inner energy U:
Electronic energy                ...   -743.76809891 Eh
Zero point energy                ...      0.13392103 Eh      84.04 kcal/mol
Thermal vibrational correction   ...      0.00569288 Eh       3.57 kcal/mol
Thermal rotational correction    ...      0.00141627 Eh       0.89 kcal/mol
Thermal translational correction ...      0.00141627 Eh       0.89 kcal/mol
-----------------------------------------------------------------------
Total thermal energy                   -743.62565246 Eh

Summary of corrections to the electronic energy:
(perhaps to be used in another calculation)
Total thermal correction                  0.00852542 Eh       5.35 kcal/mol
Non-thermal (ZPE) correction              0.13392103 Eh      84.04 kcal/mol
-----------------------------------------------------------------------
Total correction                          0.14244645 Eh      89.39 kcal/mol

--------
ENTHALPY
--------

The enthalpy is H = U + kB*T
                kB is Boltzmann's constant
Total thermal energy              ...   -743.62565246 Eh
Thermal Enthalpy correction       ...      0.00094421 Eh       0.59 kcal/mol
-----------------------------------------------------------------------
Total Enthalpy                    ...   -743.62470825 Eh

Note: Only C1 symmetry has been detected, increase convergence thresholds
      if your molecule has a higher symmetry. Symmetry factor of 1.0 is
      used for the rotational entropy correction.

Note: Rotational entropy computed according to Herzberg
Infrared and Raman Spectra, Chapter V,1, Van Nostrand Reinhold, 1945
Point Group:  C1, Symmetry Number:   1
Rotational constants in cm-1:     0.155356     0.023594     0.020567

Vibrational entropy computed according to the QRRHO of S. Grimme
Chem.Eur.J. 2012 18 9955 using a reference frequency of 100.0 cm-1

-------
ENTROPY
-------

The entropy contributions are T*S = T*(S(el)+S(vib)+S(rot)+S(trans))
     S(el)   - electronic entropy
     S(vib)  - vibrational entropy
     S(rot)  - rotational entropy
     S(trans)- translational entropy
The entropies will be listed as multiplied by the temperature to get
units of energy

Electronic entropy                ...      0.00065446 Eh      0.41 kcal/mol
Vibrational entropy               ...      0.00938577 Eh      5.89 kcal/mol
Rotational entropy                ...      0.01399230 Eh      8.78 kcal/mol
Translational entropy             ...      0.01934980 Eh     12.14 kcal/mol
-----------------------------------------------------------------------
Final entropy term                ...      0.04338233 Eh     27.22 kcal/mol

In case the symmetry of your molecule has not been determined correctly
or in case you have a reason to use a different symmetry number we print
out the resulting rotational entropy values for sn=1,12:

 non-linear molecules -----------------------------------
|  sn= 1 | S(rot)=       0.01399230 Eh      8.78 kcal/mol|
|  sn= 2 | S(rot)=       0.01333785 Eh      8.37 kcal/mol|
|  sn= 3 | S(rot)=       0.01295501 Eh      8.13 kcal/mol|
|  sn= 4 | S(rot)=       0.01268339 Eh      7.96 kcal/mol|
|  sn= 5 | S(rot)=       0.01247270 Eh      7.83 kcal/mol|
|  sn= 6 | S(rot)=       0.01230056 Eh      7.72 kcal/mol|
|  sn= 7 | S(rot)=       0.01215501 Eh      7.63 kcal/mol|
|  sn= 8 | S(rot)=       0.01202893 Eh      7.55 kcal/mol|
|  sn= 9 | S(rot)=       0.01191772 Eh      7.48 kcal/mol|
|  sn=10 | S(rot)=       0.01181825 Eh      7.42 kcal/mol|
|  sn=11 | S(rot)=       0.01172826 Eh      7.36 kcal/mol|
|  sn=12 | S(rot)=       0.01164610 Eh      7.31 kcal/mol|
 linear molecules ---------------------------------------
|  Dinfh | S(rot)=       0.00899309 Eh      5.64 kcal/mol|

                             ****ORCA TERMINATED NORMALLY****
TOTAL RUN TIME: 0 days 0 hours 9 minutes 3 seconds 931 msec
