                         Program Version 6.0.0  -   RELEASE  -
|  1> !PBE0 opt def2-SV(p) d3 TightSCF SlowConv RIJCOSX defgrid2
|  2>
|  3> %pal
|  4> nprocs 8
|  5> end
|  6>
|  7> %scf
|  8> MaxIter 1500
|  9> end
| 10>
| 11> %maxcore 3500
| 12>
| 13> !CPCM
| 14> %cpcm smd true
| 15> SMDsolvent "MeCN"
| 16> surfacetype gepol_ses
| 17> rsolv 2.19
| 18> end
| 19>
| 20> * xyz 0 1
| 21> C           0.69340039581910     -1.21642473703122     -0.00210106158208
| 22> C          -0.69454855654644     -1.22021347444475     -0.00107333204799
| 23> C          -1.36154262322334      0.00187791219067      0.00026242389151
| 24> C          -0.68604253118331      1.21670210566519      0.00055618520570
| 25> C           0.70509440805818      1.20392227540601     -0.00053641990430
| 26> C           1.40455093160228     -0.00927557523456     -0.00186311158295
| 27> C           2.90624055769532     -0.08463588452950     -0.00286199019476
| 28> O           3.45693707307488     -1.16143789750676     -0.00328851772908
| 29> C           3.69101592073766      1.20331719293128     -0.00349620755262
| 30> H           3.45502261169039      1.81064521986950      0.88792921534318
| 31> H           4.76399312425029      0.96314274578425     -0.00608195367514
| 32> H           3.45097324706094      1.81300927441323     -0.89217068832087
| 33> H           1.24208602358160      2.15534045576678     -0.00026184416090
| 34> H          -1.25661571978578      2.14643950150070      0.00165091333299
| 35> N          -2.83358313105393      0.00969549364775      0.00154754521515
| 36> O          -3.38285340798047      1.08799719381857      0.00256173004398
| 37> O          -3.39352955523644     -1.06261620732784      0.00148372469125
| 38> H          -1.27233938255821     -2.14567385267397     -0.00122499566180
| 39> H           1.26268251399728     -2.14919824224534     -0.00306631531128
| 40> *
| 41>
| 42>                          ****END OF INPUT****
 Total Charge           Charge          ....    0
 Multiplicity           Mult            ....    1
 Number of Electrons    NEL             ....   86
Dispersion correction           -0.018321295
FINAL SINGLE POINT ENERGY      -588.326905515096
Dispersion correction             ... done (  0.1 sec)
Dispersion correction           -0.018330198
FINAL SINGLE POINT ENERGY      -588.327070575609
Dispersion correction             ... done (  0.1 sec)
Dispersion correction           -0.018336485
FINAL SINGLE POINT ENERGY      -588.327027338612
Dispersion correction             ... done (  0.1 sec)
FINAL SINGLE POINT ENERGY      -588.327050029186
FINAL SINGLE POINT ENERGY      -588.327107430883
FINAL SINGLE POINT ENERGY      -588.327106012715
Dispersion correction             ... done (  0.1 sec)
Dispersion correction           -0.018334090
FINAL SINGLE POINT ENERGY      -588.327118564827
Dispersion correction             ... done (  0.1 sec)
Dispersion correction           -0.018332886
FINAL SINGLE POINT ENERGY      -588.327118804230
Dispersion correction             ... done (  0.1 sec)
                    ***********************HURRAY********************

CARTESIAN COORDINATES (ANGSTROEM)
---------------------------------
  C      0.692771   -1.219962   -0.002392
  C     -0.694800   -1.222168   -0.001518
  C     -1.358412    0.002814   -0.000345
  C     -0.680221    1.217230    0.000269
  C      0.710695    1.202211   -0.000575
  C      1.406185   -0.013657   -0.001970
  C      2.907900   -0.082725   -0.002792
  O      3.460712   -1.163072   -0.002566
  C      3.682086    1.203513   -0.003495
  H      3.437621    1.809148    0.886895
  H      4.758770    0.977352   -0.005706
  H      3.434274    1.810899   -0.891682
  H      1.246722    2.153568    0.000004
  H     -1.237038    2.155019    0.002014
  N     -2.824457    0.012580    0.001510
  O     -3.382215    1.088767    0.002663
  O     -3.395428   -1.056694    0.002339
  H     -1.264142   -2.152571   -0.001247
  H      1.249919   -2.159638   -0.003441

 Multiplicity           Mult            ....    1
 Number of Electrons    NEL             ....   86
 Basis Dimension        Dim             ....  182

ORBITAL ENERGIES
----------------

  NO   OCC          E(Eh)            E(eV)
   0   2.0000     -19.247158      -523.7418
   1   2.0000     -19.246856      -523.7336
   2   2.0000     -19.207814      -522.6712
   3   2.0000     -14.634756      -398.2319
   4   2.0000     -10.330424      -281.1051
   5   2.0000     -10.302159      -280.3360
   6   2.0000     -10.264947      -279.3234
   7   2.0000     -10.263310      -279.2789
   8   2.0000     -10.262601      -279.2596
   9   2.0000     -10.260727      -279.2086
  10   2.0000     -10.257037      -279.1082
  11   2.0000     -10.224257      -278.2162
  12   2.0000      -1.273140       -34.6439
  13   2.0000      -1.092256       -29.7218
  14   2.0000      -1.069149       -29.0930
  15   2.0000      -0.915469       -24.9112
  16   2.0000      -0.838085       -22.8054
  17   2.0000      -0.790729       -21.5168
  18   2.0000      -0.765893       -20.8410
  19   2.0000      -0.721938       -19.6449
  20   2.0000      -0.646596       -17.5948
  21   2.0000      -0.623526       -16.9670
  22   2.0000      -0.586833       -15.9685
  23   2.0000      -0.572730       -15.5848
  24   2.0000      -0.571716       -15.5572
  25   2.0000      -0.540590       -14.7102
  26   2.0000      -0.507756       -13.8168
  27   2.0000      -0.497670       -13.5423
  28   2.0000      -0.474607       -12.9147
  29   2.0000      -0.462520       -12.5858
  30   2.0000      -0.458902       -12.4874
  31   2.0000      -0.444249       -12.0886
  32   2.0000      -0.432143       -11.7592
  33   2.0000      -0.408943       -11.1279
  34   2.0000      -0.394243       -10.7279
  35   2.0000      -0.377439       -10.2706
  36   2.0000      -0.376944       -10.2572
  37   2.0000      -0.337043        -9.1714
  38   2.0000      -0.335080        -9.1180
  39   2.0000      -0.318429        -8.6649
  40   2.0000      -0.296735        -8.0746
  41   2.0000      -0.291447        -7.9307
  42   2.0000      -0.275451        -7.4954
  43   0.0000      -0.099164        -2.6984
  44   0.0000      -0.036929        -1.0049
  45   0.0000      -0.025108        -0.6832
  46   0.0000       0.044240         1.2038
  47   0.0000       0.079896         2.1741

MULLIKEN ATOMIC CHARGES
-----------------------
   0 C :   -0.141568
   1 C :   -0.130383
   2 C :    0.221306
   3 C :   -0.130502
   4 C :   -0.145200
   5 C :    0.036135
   6 C :    0.098935
   7 O :   -0.241234
   8 C :   -0.350104
   9 H :    0.181373
  10 H :    0.152564
  11 H :    0.181324
  12 H :    0.147406
  13 H :    0.140781
  14 N :    0.233016
  15 O :   -0.264049
  16 O :   -0.264406
  17 H :    0.141257
  18 H :    0.133348
Sum of atomic charges:   -0.0000000

LOEWDIN ATOMIC CHARGES
----------------------
   0 C :   -0.085761
   1 C :   -0.105005
   2 C :   -0.029323
   3 C :   -0.103315
   4 C :   -0.095114
   5 C :   -0.065574
   6 C :    0.083281
   7 O :   -0.172514
   8 C :   -0.369790
   9 H :    0.160142
  10 H :    0.143490
  11 H :    0.160051
  12 H :    0.157445
  13 H :    0.161304
  14 N :    0.280104
  15 O :   -0.216322
  16 O :   -0.216056
  17 H :    0.160710
  18 H :    0.152247

  Mayer bond orders larger than 0.100000
B(  0-C ,  1-C ) :   1.3562 B(  0-C ,  5-C ) :   1.3561 B(  0-C , 18-H ) :   0.9567
B(  1-C ,  2-C ) :   1.3518 B(  1-C , 17-H ) :   0.9544 B(  2-C ,  3-C ) :   1.3666
B(  2-C , 14-N ) :   0.8455 B(  3-C ,  4-C ) :   1.3618 B(  3-C , 13-H ) :   0.9517
B(  4-C ,  5-C ) :   1.3588 B(  4-C , 12-H ) :   0.9460 B(  5-C ,  6-C ) :   0.9178
B(  6-C ,  7-O ) :   2.1184 B(  6-C ,  8-C ) :   1.1283 B(  8-C ,  9-H ) :   0.9099
B(  8-C , 10-H ) :   0.9316 B(  8-C , 11-H ) :   0.9100 B( 14-N , 15-O ) :   1.5540
B( 14-N , 16-O ) :   1.5523 B( 15-O , 16-O ) :   0.2661

Dispersion correction           -0.018332769
FINAL SINGLE POINT ENERGY      -588.327119280005

DIPOLE MOMENT
-------------

Method             : SCF
Type of density    : Electron Density
Multiplicity       :   1
Irrep              :   0
Energy             :  -588.3087865112328245 Eh
Relativity type    :
Basis              : AO
                                X                 Y                 Z
Electronic contribution:     -9.536316921      -3.079237892       0.005967100
Nuclear contribution   :     10.876519556       4.302294031      -0.008012644
                        -----------------------------------------
Total Dipole Moment    :      1.340202635       1.223056139      -0.002045544
                        -----------------------------------------
Magnitude (a.u.)       :      1.814390698
Magnitude (Debye)      :      4.611814648

Rotational constants in cm-1:             0.096430             0.015921             0.013700
Rotational constants in MHz :          2890.905461           477.292980           410.719468

                             ****ORCA TERMINATED NORMALLY****
TOTAL RUN TIME: 0 days 0 hours 10 minutes 48 seconds 764 msec
