                         Program Version 6.0.0  -   RELEASE  -
|  1> !r2SCAN freq aug-cc-pVTZ d3 TightSCF SlowConv RIJCOSX defgrid2
|  2>
|  3> %pal
|  4> nprocs 12
|  5> end
|  6>
|  7> %scf
|  8> MaxIter 1500
|  9> end
| 10>
| 11> %maxcore 5000
| 12>
| 13> !CPCM
| 14> %cpcm smd true
| 15> SMDsolvent "MeCN"
| 16> surfacetype gepol_ses
| 17> rsolv 2.19
| 18> end
| 19>
| 20> * xyz 0 1
| 21> C           2.39799904774097     -0.84170475013996      0.66406186184395
| 22> C           1.27130253107814     -0.39260604914774     -0.03534333457165
| 23> C           1.38288684509620      0.77897078387100     -0.79507492654858
| 24> C           2.58785637187567      1.46565656385727     -0.87059517869341
| 25> C           3.70206262570835      1.00446509840193     -0.17559128812917
| 26> C           3.60115478910062     -0.15051916781221      0.59414887047724
| 27> H           4.45913094691557     -0.50890785498132      1.15109179288271
| 28> H           4.63936521203849      1.54579130160377     -0.22693072274349
| 29> H           2.65686826982401      2.36366188403640     -1.47348014698033
| 30> H           0.52193686267628      1.14468073127389     -1.34241840189250
| 31> C          -0.00000891725154     -1.15255927902960      0.00013134891559
| 32> C           0.00003883193952     -2.49486069605219      0.00007775196521
| 33> H          -0.92264564046574     -3.05824706412729      0.06617450497562
| 34> H           0.92276553225265     -3.05817249407437     -0.06609371056772
| 35> C          -1.27136215764240     -0.39267921887755      0.03555096372824
| 36> C          -2.39793214639787     -0.84165577106647     -0.66412172785698
| 37> C          -3.60104711114163     -0.15036935348116     -0.59446331435686
| 38> C          -3.70204116483577      1.00460436363500      0.17527368647783
| 39> C          -2.58798593716891      1.46563725530105      0.87060932343335
| 40> C          -1.38310665933081      0.77880314275481      0.79536382775196
| 41> H          -0.52234149854255      1.14427651909681      1.34314395752249
| 42> H          -2.65705336033089      2.36360671528818      1.47354062699638
| 43> H          -4.63929835356913      1.54603177658647      0.22637667217744
| 44> H          -4.45892150504286     -0.50867216442773     -1.15161894760940
| 45> H          -2.32087101818649     -1.72897490068561     -1.28160622725007
| 46> H           2.32101750366014     -1.72905137180337      1.28151623805214
| 47> *
| 48>
| 49>                          ****END OF INPUT****

CARTESIAN COORDINATES (ANGSTROEM)
---------------------------------
  C      2.397999   -0.841705    0.664062
  C      1.271303   -0.392606   -0.035343
  C      1.382887    0.778971   -0.795075
  C      2.587856    1.465657   -0.870595
  C      3.702063    1.004465   -0.175591
  C      3.601155   -0.150519    0.594149
  H      4.459131   -0.508908    1.151092
  H      4.639365    1.545791   -0.226931
  H      2.656868    2.363662   -1.473480
  H      0.521937    1.144681   -1.342418
  C     -0.000009   -1.152559    0.000131
  C      0.000039   -2.494861    0.000078
  H     -0.922646   -3.058247    0.066175
  H      0.922766   -3.058172   -0.066094
  C     -1.271362   -0.392679    0.035551
  C     -2.397932   -0.841656   -0.664122
  C     -3.601047   -0.150369   -0.594463
  C     -3.702041    1.004604    0.175274
  C     -2.587986    1.465637    0.870609
  C     -1.383107    0.778803    0.795364
  H     -0.522341    1.144277    1.343144
  H     -2.657053    2.363607    1.473541
  H     -4.639298    1.546032    0.226377
  H     -4.458922   -0.508672   -1.151619
  H     -2.320871   -1.728975   -1.281606
  H      2.321018   -1.729051    1.281516

 Total Charge           Charge          ....    0
 Multiplicity           Mult            ....    1
 Number of Electrons    NEL             ....   96
 Basis Dimension        Dim             ....  920

ORBITAL ENERGIES
----------------

  NO   OCC          E(Eh)            E(eV)
   0   2.0000     -10.056364      -273.6476
   1   2.0000     -10.052755      -273.5494
   2   2.0000     -10.052754      -273.5493
   3   2.0000     -10.039784      -273.1964
   4   2.0000     -10.039758      -273.1957
   5   2.0000     -10.039514      -273.1891
   6   2.0000     -10.039512      -273.1890
   7   2.0000     -10.039199      -273.1805
   8   2.0000     -10.039195      -273.1804
   9   2.0000     -10.039011      -273.1754
  10   2.0000     -10.039010      -273.1753
  11   2.0000     -10.038524      -273.1621
  12   2.0000     -10.038519      -273.1620
  13   2.0000     -10.028013      -272.8761
  14   2.0000      -0.839501       -22.8440
  15   2.0000      -0.823150       -22.3991
  16   2.0000      -0.773955       -21.0604
  17   2.0000      -0.717924       -19.5357
  18   2.0000      -0.717544       -19.5254
  19   2.0000      -0.712119       -19.3777
  20   2.0000      -0.686499       -18.6806
  21   2.0000      -0.601091       -16.3565
  22   2.0000      -0.577905       -15.7256
  23   2.0000      -0.569715       -15.5027
  24   2.0000      -0.566559       -15.4169
  25   2.0000      -0.520073       -14.1519
  26   2.0000      -0.492226       -13.3942
  27   2.0000      -0.468785       -12.7563
  28   2.0000      -0.435607       -11.8535
  29   2.0000      -0.429768       -11.6946
  30   2.0000      -0.419325       -11.4104
  31   2.0000      -0.409984       -11.1562
  32   2.0000      -0.406949       -11.0736
  33   2.0000      -0.387782       -10.5521
  34   2.0000      -0.387231       -10.5371
  35   2.0000      -0.383731       -10.4419
  36   2.0000      -0.352903        -9.6030
  37   2.0000      -0.348735        -9.4895
  38   2.0000      -0.347187        -9.4474
  39   2.0000      -0.323901        -8.8138
  40   2.0000      -0.313262        -8.5243
  41   2.0000      -0.305497        -8.3130
  42   2.0000      -0.300756        -8.1840
  43   2.0000      -0.280860        -7.6426
  44   2.0000      -0.245152        -6.6709
  45   2.0000      -0.241424        -6.5695
  46   2.0000      -0.238880        -6.5003
  47   2.0000      -0.209455        -5.6996
  48   0.0000      -0.069455        -1.8900
  49   0.0000      -0.045804        -1.2464
  50   0.0000      -0.041313        -1.1242
  51   0.0000      -0.029854        -0.8124
  52   0.0000       0.004864         0.1324

MULLIKEN ATOMIC CHARGES
-----------------------
   0 C :   -1.222982
   1 C :    2.500770
   2 C :   -0.772514
   3 C :   -0.865606
   4 C :   -0.123993
   5 C :   -0.781478
   6 H :    0.482927
   7 H :    0.496129
   8 H :    0.466364
   9 H :   -0.032429
  10 C :    0.902810
  11 C :   -1.303349
  12 H :    0.195881
  13 H :    0.195964
  14 C :    2.500405
  15 C :   -1.222987
  16 C :   -0.781350
  17 C :   -0.123931
  18 C :   -0.865198
  19 C :   -0.771012
  20 H :   -0.035197
  21 H :    0.466671
  22 H :    0.495908
  23 H :    0.482994
  24 H :   -0.142428
  25 H :   -0.142370
Sum of atomic charges:    0.0000000

LOEWDIN ATOMIC CHARGES
----------------------
   0 C :    0.211059
   1 C :   -0.143734
   2 C :    0.208457
   3 C :    0.204450
   4 C :    0.195092
   5 C :    0.202433
   6 H :   -0.177032
   7 H :   -0.178973
   8 H :   -0.176424
   9 H :   -0.169802
  10 C :   -0.143442
  11 C :    0.558543
  12 H :   -0.205477
  13 H :   -0.205479
  14 C :   -0.143723
  15 C :    0.211088
  16 C :    0.202456
  17 C :    0.195129
  18 C :    0.204491
  19 C :    0.208382
  20 H :   -0.169907
  21 H :   -0.176409
  22 H :   -0.178971
  23 H :   -0.177032
  24 H :   -0.177586
  25 H :   -0.177590

  Mayer bond orders larger than 0.100000
B(  0-C ,  1-C ) :  -0.2017 B(  0-C ,  2-C ) :  -0.7984 B(  0-C ,  4-C ) :  -0.1514
B(  0-C ,  5-C ) :   1.3177 B(  0-C ,  6-H ) :  -0.1573 B(  0-C ,  9-H ) :   0.1145
B(  0-C , 10-C ) :   0.3311 B(  0-C , 25-H ) :   1.8485 B(  1-C ,  2-C ) :   0.2540
B(  1-C ,  4-C ) :  -0.1444 B(  1-C ,  8-H ) :   0.1001 B(  1-C ,  9-H ) :  -0.1094
B(  1-C , 10-C ) :  -0.3148 B(  1-C , 11-C ) :  -0.3579 B(  1-C , 14-C ) :  -0.1871
B(  1-C , 25-H ) :  -0.1941 B(  2-C ,  3-C ) :   1.2504 B(  2-C ,  4-C ) :  -0.1200
B(  2-C ,  9-H ) :   1.5589 B(  2-C , 10-C ) :   0.2776 B(  2-C , 11-C ) :   0.1467
B(  2-C , 19-C ) :   0.1399 B(  3-C ,  4-C ) :   1.1901 B(  3-C ,  5-C ) :   0.2816
B(  3-C ,  8-H ) :   0.5007 B(  3-C , 25-H ) :  -0.1546 B(  4-C ,  5-C ) :   1.0594
B(  4-C ,  7-H ) :   0.5606 B(  4-C ,  9-H ) :  -0.1020 B(  4-C , 10-C ) :   0.1997
B(  5-C ,  6-H ) :   0.5152 B(  5-C ,  9-H ) :  -0.1274 B(  9-H , 25-H ) :   0.2148
B( 10-C , 11-C ) :   0.6753 B( 10-C , 14-C ) :  -0.3154 B( 10-C , 15-C ) :   0.3308
B( 10-C , 17-C ) :   0.2000 B( 10-C , 19-C ) :   0.2783 B( 10-C , 24-H ) :  -0.2252
B( 10-C , 25-H ) :  -0.2250 B( 11-C , 12-H ) :   1.0213 B( 11-C , 13-H ) :   1.0213
B( 11-C , 14-C ) :  -0.3575 B( 11-C , 19-C ) :   0.1467 B( 14-C , 15-C ) :  -0.2017
B( 14-C , 17-C ) :  -0.1443 B( 14-C , 19-C ) :   0.2559 B( 14-C , 20-H ) :  -0.1102
B( 14-C , 21-H ) :   0.1004 B( 14-C , 24-H ) :  -0.1940 B( 15-C , 16-C ) :   1.3178
B( 15-C , 17-C ) :  -0.1513 B( 15-C , 19-C ) :  -0.7985 B( 15-C , 20-H ) :   0.1152
B( 15-C , 23-H ) :  -0.1573 B( 15-C , 24-H ) :   1.8484 B( 16-C , 17-C ) :   1.0593
B( 16-C , 18-C ) :   0.2815 B( 16-C , 20-H ) :  -0.1274 B( 16-C , 23-H ) :   0.5151
B( 17-C , 18-C ) :   1.1901 B( 17-C , 19-C ) :  -0.1202 B( 17-C , 20-H ) :  -0.1021
B( 17-C , 22-H ) :   0.5609 B( 18-C , 19-C ) :   1.2517 B( 18-C , 21-H ) :   0.5003
B( 18-C , 24-H ) :  -0.1545 B( 19-C , 20-H ) :   1.5595 B( 20-H , 24-H ) :   0.2149

Dispersion correction           -0.010368136
FINAL SINGLE POINT ENERGY      -540.595734201137

DIPOLE MOMENT
-------------

Method             : SCF
Type of density    : Electron Density
Multiplicity       :   1
Irrep              :   0
Energy             :  -540.5853660653563111 Eh
Relativity type    :
Basis              : AO
                                X                 Y                 Z
Electronic contribution:     -0.000920214       0.634885794      -0.000580867
Nuclear contribution   :      0.000096145      -0.484487898      -0.000287289
                        -----------------------------------------
Total Dipole Moment    :     -0.000824069       0.150397896      -0.000868156
                        -----------------------------------------
Magnitude (a.u.)       :      0.150402659
Magnitude (Debye)      :      0.382293177

VIBRATIONAL FREQUENCIES
-----------------------

Scaling factor for frequencies =  1.000000000  (already applied!)

     0:       0.00 cm**-1
     1:       0.00 cm**-1
     2:       0.00 cm**-1
     3:       0.00 cm**-1
     4:       0.00 cm**-1
     5:       0.00 cm**-1
     6:      36.39 cm**-1
     7:      57.99 cm**-1
     8:      77.45 cm**-1
     9:     133.21 cm**-1
    10:     216.50 cm**-1
    11:     234.74 cm**-1
    12:     297.20 cm**-1
    13:     342.46 cm**-1
    14:     410.66 cm**-1
    15:     415.24 cm**-1
    16:     444.20 cm**-1
    17:     453.28 cm**-1
    18:     576.23 cm**-1
    19:     599.12 cm**-1
    20:     623.44 cm**-1
    21:     629.14 cm**-1
    22:     652.35 cm**-1
    23:     703.70 cm**-1
    24:     712.88 cm**-1
    25:     716.96 cm**-1
    26:     735.56 cm**-1
    27:     791.98 cm**-1
    28:     800.94 cm**-1
    29:     843.69 cm**-1
    30:     858.28 cm**-1
    31:     859.07 cm**-1
    32:     908.07 cm**-1
    33:     937.92 cm**-1
    34:     938.15 cm**-1
    35:     992.13 cm**-1
    36:     992.36 cm**-1
    37:    1009.61 cm**-1
    38:    1009.70 cm**-1
    39:    1016.00 cm**-1
    40:    1016.43 cm**-1
    41:    1044.49 cm**-1
    42:    1046.92 cm**-1
    43:    1081.85 cm**-1
    44:    1099.44 cm**-1
    45:    1105.43 cm**-1
    46:    1162.47 cm**-1
    47:    1162.60 cm**-1
    48:    1171.44 cm**-1
    49:    1187.69 cm**-1
    50:    1189.45 cm**-1
    51:    1308.05 cm**-1
    52:    1332.09 cm**-1
    53:    1346.56 cm**-1
    54:    1361.14 cm**-1
    55:    1363.25 cm**-1
    56:    1423.39 cm**-1
    57:    1465.73 cm**-1
    58:    1467.75 cm**-1
    59:    1513.51 cm**-1
    60:    1516.26 cm**-1
    61:    1604.04 cm**-1
    62:    1606.34 cm**-1
    63:    1628.82 cm**-1
    64:    1630.97 cm**-1
    65:    1644.96 cm**-1
    66:    3136.21 cm**-1
    67:    3158.99 cm**-1
    68:    3159.14 cm**-1
    69:    3164.23 cm**-1
    70:    3164.72 cm**-1
    71:    3172.43 cm**-1
    72:    3172.68 cm**-1
    73:    3178.45 cm**-1
    74:    3178.68 cm**-1
    75:    3187.41 cm**-1
    76:    3187.60 cm**-1
    77:    3226.24 cm**-1

IR SPECTRUM
-----------

 Mode   freq       eps      Int      T**2         TX        TY        TZ
       cm**-1   L/(mol*cm) km/mol    a.u.
----------------------------------------------------------------------------
  6:     36.39   0.000032    0.16  0.000276  (-0.009757  0.000043  0.013446)
  7:     57.99   0.000011    0.06  0.000060  ( 0.000085 -0.007755 -0.000084)
  8:     77.45   0.000098    0.50  0.000396  ( 0.000028  0.019899 -0.000001)
  9:    133.21   0.000721    3.64  0.001688  (-0.004559  0.000037 -0.040834)
 10:    216.50   0.000016    0.08  0.000022  (-0.000039  0.004742 -0.000013)
 11:    234.74   0.000192    0.97  0.000255  (-0.008109 -0.000048 -0.013751)
 12:    297.20   0.000045    0.23  0.000048  (-0.000014  0.006894 -0.000011)
 13:    342.46   0.000464    2.35  0.000423  (-0.020314  0.000009 -0.003238)
 14:    410.66   0.000020    0.10  0.000015  (-0.003813  0.000061 -0.000621)
 15:    415.24   0.000086    0.44  0.000065  (-0.000065 -0.008045  0.000031)
 16:    444.20   0.000467    2.36  0.000328  (-0.000018 -0.018112  0.000014)
 17:    453.28   0.002432   12.29  0.001674  ( 0.008872  0.000004 -0.039946)
 18:    576.23   0.002981   15.06  0.001614  (-0.000023  0.040180 -0.000001)
 19:    599.12   0.006489   32.79  0.003380  ( 0.052331  0.000109 -0.025326)
 20:    623.44   0.000737    3.72  0.000369  (-0.015906  0.000017  0.010755)
 21:    629.14   0.000014    0.07  0.000007  (-0.000025  0.002639 -0.000035)
 22:    652.35   0.004009   20.26  0.001918  ( 0.027824  0.000027 -0.033814)
 23:    703.70   0.001908    9.64  0.000846  (-0.000044 -0.029085  0.000081)
 24:    712.88   0.025324  127.98  0.011086  (-0.040124 -0.000737  0.097341)
 25:    716.96   0.010203   51.56  0.004441  (-0.000439  0.066630  0.001074)
 26:    735.56   0.000060    0.31  0.000026  ( 0.000016 -0.005064  0.000014)
 27:    791.98   0.016266   82.20  0.006409  ( 0.000158 -0.000084  0.080058)
 28:    800.94   0.008587   43.40  0.003346  ( 0.000035  0.057842  0.000113)
 29:    843.69   0.000187    0.94  0.000069  ( 0.003581  0.000005 -0.007498)
 30:    858.28   0.000119    0.60  0.000043  ( 0.000568 -0.006543 -0.000207)
 31:    859.07   0.000060    0.30  0.000022  (-0.004253 -0.000839  0.001730)
 32:    908.07   0.017601   88.95  0.006049  ( 0.021765  0.000041  0.074665)
 33:    937.92   0.000852    4.31  0.000283  ( 0.003086  0.013093 -0.010125)
 34:    938.15   0.000861    4.35  0.000286  (-0.003067  0.013059  0.010322)
 35:    992.13   0.000108    0.55  0.000034  (-0.005304  0.002312 -0.000759)
 36:    992.36   0.000096    0.48  0.000030  (-0.002420 -0.004911 -0.000280)
 37:   1009.61   0.000078    0.39  0.000024  (-0.002613  0.000467  0.004123)
 38:   1009.70   0.000016    0.08  0.000005  (-0.000975 -0.001255  0.001519)
 39:   1016.00   0.000024    0.12  0.000007  ( 0.001669  0.000077  0.002143)
 40:   1016.43   0.000003    0.02  0.000001  (-0.000106  0.000977 -0.000119)
 41:   1044.49   0.006203   31.35  0.001853  ( 0.043048  0.000093 -0.000458)
 42:   1046.92   0.001347    6.81  0.000402  (-0.000110  0.020038  0.000023)
 43:   1081.85   0.002236   11.30  0.000645  (-0.018172 -0.000014 -0.017744)
 44:   1099.44   0.002380   12.03  0.000676  (-0.000007  0.025993  0.000016)
 45:   1105.43   0.001817    9.18  0.000513  (-0.003804 -0.000025 -0.022323)
 46:   1162.47   0.000006    0.03  0.000002  (-0.000465 -0.000021  0.001181)
 47:   1162.60   0.000005    0.03  0.000001  (-0.000004  0.001167  0.000030)
 48:   1171.44   0.000022    0.11  0.000006  ( 0.000009  0.002394  0.000006)
 49:   1187.69   0.000121    0.61  0.000032  (-0.005592  0.000001  0.000699)
 50:   1189.45   0.000000    0.00  0.000000  (-0.000021  0.000291 -0.000017)
 51:   1308.05   0.002801   14.15  0.000668  ( 0.025334 -0.000029 -0.005138)
 52:   1332.09   0.000001    0.00  0.000000  ( 0.000003 -0.000386 -0.000013)
 53:   1346.56   0.005041   25.47  0.001168  ( 0.033995  0.000001 -0.003545)
 54:   1361.14   0.000707    3.57  0.000162  ( 0.011758  0.000019 -0.004879)
 55:   1363.25   0.000119    0.60  0.000027  (-0.000061  0.005212  0.000038)
 56:   1423.39   0.001172    5.92  0.000257  (-0.000016 -0.016032 -0.000007)
 57:   1465.73   0.002956   14.94  0.000629  ( 0.020452 -0.000057  0.014528)
 58:   1467.75   0.000959    4.84  0.000204  ( 0.000081  0.014276  0.000051)
 59:   1513.51   0.002615   13.21  0.000539  (-0.000054 -0.023218  0.000011)
 60:   1516.26   0.004113   20.79  0.000847  ( 0.028993 -0.000087 -0.002435)
 61:   1604.04   0.002265   11.45  0.000441  (-0.000013 -0.020990  0.000045)
 62:   1606.34   0.000524    2.65  0.000102  ( 0.000741 -0.000181 -0.010059)
 63:   1628.82   0.000899    4.55  0.000172  ( 0.013127 -0.000019  0.000007)
 64:   1630.97   0.000004    0.02  0.000001  ( 0.000133  0.000840 -0.000001)
 65:   1644.96   0.009006   45.51  0.001708  ( 0.000003 -0.041334  0.000013)
 66:   3136.21   0.001052    5.32  0.000105  ( 0.000019  0.010233 -0.000006)
 67:   3158.99   0.001266    6.40  0.000125  ( 0.011178  0.000051 -0.000311)
 68:   3159.14   0.000269    1.36  0.000027  ( 0.000109 -0.005156  0.000008)
 69:   3164.23   0.000004    0.02  0.000000  (-0.000037 -0.000033  0.000607)
 70:   3164.72   0.000141    0.71  0.000014  (-0.000016  0.003726 -0.000003)
 71:   3172.43   0.006266   31.67  0.000616  ( 0.024798  0.000187 -0.001197)
 72:   3172.68   0.001234    6.24  0.000121  ( 0.000494 -0.011007 -0.000032)
 73:   3178.45   0.011546   58.35  0.001134  (-0.018416  0.000699 -0.028178)
 74:   3178.68   0.008961   45.29  0.000880  (-0.000494 -0.029649 -0.000672)
 75:   3187.41   0.006229   31.48  0.000610  (-0.024653 -0.000494  0.001337)
 76:   3187.60   0.002328   11.76  0.000228  (-0.000841  0.015072  0.000061)
 77:   3226.24   0.002460   12.43  0.000238  (-0.015261  0.000005  0.002241)

--------------------------
THERMOCHEMISTRY AT 298.15K
--------------------------

Temperature         ...   298.15 K
Pressure            ...     1.00 atm
Total Mass          ...   180.25 AMU
Quasi RRHO          ...     True
Cut-Off Frequency   ...     1.00 cm^-1

Throughout the following assumptions are being made:
  (1) The electronic state is orbitally nondegenerate
  (2) There are no thermally accessible electronically excited states
  (3) Hindered rotations indicated by low frequency modes are not
      treated as such but are treated as vibrations and this may
      cause some error
  (4) All equations used are the standard statistical mechanics
      equations for an ideal gas
  (5) All vibrations are strictly harmonic

freq.      36.39  E(vib)   ...       0.54
freq.      57.99  E(vib)   ...       0.51
freq.      77.45  E(vib)   ...       0.49
freq.     133.21  E(vib)   ...       0.42
freq.     216.50  E(vib)   ...       0.34
freq.     234.74  E(vib)   ...       0.32
freq.     297.20  E(vib)   ...       0.27
freq.     342.46  E(vib)   ...       0.23
freq.     410.66  E(vib)   ...       0.19
freq.     415.24  E(vib)   ...       0.19
freq.     444.20  E(vib)   ...       0.17
freq.     453.28  E(vib)   ...       0.16
freq.     576.23  E(vib)   ...       0.11
freq.     599.12  E(vib)   ...       0.10
freq.     623.44  E(vib)   ...       0.09
freq.     629.14  E(vib)   ...       0.09
freq.     652.35  E(vib)   ...       0.08
freq.     703.70  E(vib)   ...       0.07
freq.     712.88  E(vib)   ...       0.07
freq.     716.96  E(vib)   ...       0.07
freq.     735.56  E(vib)   ...       0.06
freq.     791.98  E(vib)   ...       0.05
freq.     800.94  E(vib)   ...       0.05
freq.     843.69  E(vib)   ...       0.04
freq.     858.28  E(vib)   ...       0.04
freq.     859.07  E(vib)   ...       0.04
freq.     908.07  E(vib)   ...       0.03
freq.     937.92  E(vib)   ...       0.03
freq.     938.15  E(vib)   ...       0.03
freq.     992.13  E(vib)   ...       0.02
freq.     992.36  E(vib)   ...       0.02
freq.    1009.61  E(vib)   ...       0.02
freq.    1009.70  E(vib)   ...       0.02
freq.    1016.00  E(vib)   ...       0.02
freq.    1016.43  E(vib)   ...       0.02
freq.    1044.49  E(vib)   ...       0.02
freq.    1046.92  E(vib)   ...       0.02
freq.    1081.85  E(vib)   ...       0.02
freq.    1099.44  E(vib)   ...       0.02
freq.    1105.43  E(vib)   ...       0.02
freq.    1162.47  E(vib)   ...       0.01
freq.    1162.60  E(vib)   ...       0.01
freq.    1171.44  E(vib)   ...       0.01
freq.    1187.69  E(vib)   ...       0.01
freq.    1189.45  E(vib)   ...       0.01
freq.    1308.05  E(vib)   ...       0.01
freq.    1332.09  E(vib)   ...       0.01
freq.    1346.56  E(vib)   ...       0.01
freq.    1361.14  E(vib)   ...       0.01
freq.    1363.25  E(vib)   ...       0.01
freq.    1423.39  E(vib)   ...       0.00
freq.    1465.73  E(vib)   ...       0.00
freq.    1467.75  E(vib)   ...       0.00
freq.    1513.51  E(vib)   ...       0.00
freq.    1516.26  E(vib)   ...       0.00
freq.    1604.04  E(vib)   ...       0.00
freq.    1606.34  E(vib)   ...       0.00
freq.    1628.82  E(vib)   ...       0.00
freq.    1630.97  E(vib)   ...       0.00
freq.    1644.96  E(vib)   ...       0.00
freq.    3136.21  E(vib)   ...       0.00
freq.    3158.99  E(vib)   ...       0.00
freq.    3159.14  E(vib)   ...       0.00
freq.    3164.23  E(vib)   ...       0.00
freq.    3164.72  E(vib)   ...       0.00
freq.    3172.43  E(vib)   ...       0.00
freq.    3172.68  E(vib)   ...       0.00
freq.    3178.45  E(vib)   ...       0.00
freq.    3178.68  E(vib)   ...       0.00
freq.    3187.41  E(vib)   ...       0.00
freq.    3187.60  E(vib)   ...       0.00
freq.    3226.24  E(vib)   ...       0.00

------------
INNER ENERGY
------------

The inner energy is: U= E(el) + E(ZPE) + E(vib) + E(rot) + E(trans)
    E(el)   - is the total energy from the electronic structure calculation
              = E(kin-el) + E(nuc-el) + E(el-el) + E(nuc-nuc)
    E(ZPE)  - the the zero temperature vibrational energy from the frequency calculation
    E(vib)  - the the finite temperature correction to E(ZPE) due to population
              of excited vibrational states
    E(rot)  - is the rotational thermal energy
    E(trans)- is the translational thermal energy

Summary of contributions to the inner energy U:
Electronic energy                ...   -540.59573420 Eh
Zero point energy                ...      0.21322380 Eh     133.80 kcal/mol
Thermal vibrational correction   ...      0.00831189 Eh       5.22 kcal/mol
Thermal rotational correction    ...      0.00141627 Eh       0.89 kcal/mol
Thermal translational correction ...      0.00141627 Eh       0.89 kcal/mol
-----------------------------------------------------------------------
Total thermal energy                   -540.37136597 Eh

Summary of corrections to the electronic energy:
(perhaps to be used in another calculation)
Total thermal correction                  0.01114443 Eh       6.99 kcal/mol
Non-thermal (ZPE) correction              0.21322380 Eh     133.80 kcal/mol
-----------------------------------------------------------------------
Total correction                          0.22436823 Eh     140.79 kcal/mol

--------
ENTHALPY
--------

The enthalpy is H = U + kB*T
                kB is Boltzmann's constant
Total thermal energy              ...   -540.37136597 Eh
Thermal Enthalpy correction       ...      0.00094421 Eh       0.59 kcal/mol
-----------------------------------------------------------------------
Total Enthalpy                    ...   -540.37042176 Eh

Note: Only C1 symmetry has been detected, increase convergence thresholds
      if your molecule has a higher symmetry. Symmetry factor of 1.0 is
      used for the rotational entropy correction.

Note: Rotational entropy computed according to Herzberg
Infrared and Raman Spectra, Chapter V,1, Van Nostrand Reinhold, 1945
Point Group:  C1, Symmetry Number:   1
Rotational constants in cm-1:     0.053709     0.014016     0.012199

Vibrational entropy computed according to the QRRHO of S. Grimme
Chem.Eur.J. 2012 18 9955 using a reference frequency of 100.0 cm-1

-------
ENTROPY
-------

The entropy contributions are T*S = T*(S(el)+S(vib)+S(rot)+S(trans))
     S(el)   - electronic entropy
     S(vib)  - vibrational entropy
     S(rot)  - rotational entropy
     S(trans)- translational entropy
The entropies will be listed as multiplied by the temperature to get
units of energy

                             ****ORCA TERMINATED NORMALLY****
TOTAL RUN TIME: 0 days 0 hours 58 minutes 49 seconds 647 msec
