                         Program Version 6.0.0  -   RELEASE  -
|  1> !r2SCAN aug-cc-pVTZ d3 TightSCF SlowConv RIJCOSX defgrid2
|  2>
|  3> %pal
|  4> nprocs 4
|  5> end
|  6>
|  7> %scf
|  8> MaxIter 1500
|  9> end
| 10>
| 11> %maxcore 3000
| 12>
| 13> !CPCM
| 14> %cpcm smd true
| 15> SMDsolvent "MeCN"
| 16> surfacetype gepol_ses
| 17> rsolv 2.19
| 18> end
| 19>
| 20> * xyz 0 1
| 21> C          -0.70040560978015      1.38862025457992      0.01444069210645
| 22> C          -1.91245524702018      0.69567306005554      0.01462586157947
| 23> C          -1.91249387248428     -0.69558156366748     -0.01462751179559
| 24> C          -0.70048149668899     -1.38859471559027     -0.01444474347923
| 25> C           0.51701567119323     -0.70749863359451      0.00344351300980
| 26> N           1.75688785576029     -1.35032496518044     -0.01869709041630
| 27> H           2.43013802514878     -0.92879340551386      0.62128772624243
| 28> H           1.70402046370050     -2.35551735549936      0.11662272713410
| 29> C           0.51705531626238      0.70745871640913     -0.00345498008622
| 30> N           1.75696057869555      1.35021757408851      0.01868096018628
| 31> H           2.43019999443086      0.92862198390732     -0.62127304374208
| 32> H           1.70415275870095      2.35540776572739     -0.11667373624575
| 33> H          -0.69435322474112     -2.48383255240663     -0.01483473135793
| 34> H          -2.85473613557899     -1.25061144525607     -0.02611079663032
| 35> H          -2.85466720705613      1.25075497082180      0.02610952373100
| 36> H          -0.69421807054270      2.48385751111900      0.01483302976389
| 37> *
| 38>
| 39>                          ****END OF INPUT****

CARTESIAN COORDINATES (ANGSTROEM)
---------------------------------
  C     -0.700406    1.388620    0.014441
  C     -1.912455    0.695673    0.014626
  C     -1.912494   -0.695582   -0.014628
  C     -0.700481   -1.388595   -0.014445
  C      0.517016   -0.707499    0.003444
  N      1.756888   -1.350325   -0.018697
  H      2.430138   -0.928793    0.621288
  H      1.704020   -2.355517    0.116623
  C      0.517055    0.707459   -0.003455
  N      1.756961    1.350218    0.018681
  H      2.430200    0.928622   -0.621273
  H      1.704153    2.355408   -0.116674
  H     -0.694353   -2.483833   -0.014835
  H     -2.854736   -1.250611   -0.026111
  H     -2.854667    1.250755    0.026110
  H     -0.694218    2.483858    0.014833

 Total Charge           Charge          ....    0
 Multiplicity           Mult            ....    1
 Number of Electrons    NEL             ....   58
 Basis Dimension        Dim             ....  552

ORBITAL ENERGIES
----------------

  NO   OCC          E(Eh)            E(eV)
   0   2.0000     -14.163059      -385.3964
   1   2.0000     -14.163045      -385.3961
   2   2.0000     -10.069589      -274.0075
   3   2.0000     -10.069221      -273.9974
   4   2.0000     -10.029842      -272.9259
   5   2.0000     -10.029828      -272.9255
   6   2.0000     -10.027975      -272.8751
   7   2.0000     -10.027521      -272.8627
   8   2.0000      -0.899471       -24.4758
   9   2.0000      -0.852509       -23.1979
  10   2.0000      -0.792830       -21.5740
  11   2.0000      -0.696809       -18.9611
  12   2.0000      -0.680308       -18.5121
  13   2.0000      -0.579761       -15.7761
  14   2.0000      -0.556843       -15.1525
  15   2.0000      -0.488151       -13.2833
  16   2.0000      -0.480870       -13.0851
  17   2.0000      -0.453886       -12.3509
  18   2.0000      -0.437953       -11.9173
  19   2.0000      -0.404551       -11.0084
  20   2.0000      -0.385621       -10.4933
  21   2.0000      -0.383204       -10.4275
  22   2.0000      -0.365850        -9.9553
  23   2.0000      -0.323733        -8.8092
  24   2.0000      -0.307854        -8.3771
  25   2.0000      -0.288762        -7.8576
  26   2.0000      -0.282700        -7.6926
  27   2.0000      -0.210692        -5.7332
  28   2.0000      -0.175718        -4.7815
  29   0.0000      -0.025182        -0.6852
  30   0.0000      -0.011172        -0.3040
  31   0.0000       0.003171         0.0863
  32   0.0000       0.018148         0.4938
  33   0.0000       0.022580         0.6144

MULLIKEN ATOMIC CHARGES
-----------------------
   0 C :   -0.962360
   1 C :   -0.510922
   2 C :   -0.510712
   3 C :   -0.961237
   4 C :    1.148430
   5 N :   -0.584144
   6 H :    0.065518
   7 H :   -0.007864
   8 C :    1.147132
   9 N :   -0.584284
  10 H :    0.065318
  11 H :   -0.008045
  12 H :    0.385120
  13 H :    0.465924
  14 H :    0.466009
  15 H :    0.386116
Sum of atomic charges:    0.0000000

LOEWDIN ATOMIC CHARGES
----------------------
   0 C :    0.190876
   1 C :    0.149219
   2 C :    0.149222
   3 C :    0.190882
   4 C :   -0.250252
   5 N :    0.853594
   6 H :   -0.300302
   7 H :   -0.286607
   8 C :   -0.250264
   9 N :    0.853569
  10 H :   -0.300341
  11 H :   -0.286600
  12 H :   -0.171933
  13 H :   -0.184563
  14 H :   -0.184564
  15 H :   -0.171936

  Mayer bond orders larger than 0.100000
B(  0-C ,  1-C ) :   1.2855 B(  0-C ,  3-C ) :  -0.1070 B(  0-C ,  8-C ) :   0.6848
B(  0-C ,  9-N ) :  -0.1007 B(  0-C , 15-H ) :   0.5006 B(  1-C ,  2-C ) :   1.1465
B(  1-C ,  8-C ) :  -0.2069 B(  1-C , 14-H ) :   0.5856 B(  2-C ,  3-C ) :   1.2845
B(  2-C ,  4-C ) :  -0.2071 B(  2-C , 13-H ) :   0.5859 B(  3-C ,  4-C ) :   0.6835
B(  3-C ,  5-N ) :  -0.1001 B(  3-C , 12-H ) :   0.5021 B(  4-C ,  5-N ) :   0.1510
B(  4-C ,  6-H ) :  -0.1029 B(  4-C ,  8-C ) :   0.6825 B(  4-C ,  9-N ) :   0.1456
B(  4-C , 12-H ) :   0.1573 B(  5-N ,  6-H ) :   1.0811 B(  5-N ,  7-H ) :   1.1115
B(  5-N ,  8-C ) :   0.1467 B(  8-C ,  9-N ) :   0.1515 B(  8-C , 10-H ) :  -0.1028
B(  8-C , 15-H ) :   0.1574 B(  9-N , 10-H ) :   1.0808 B(  9-N , 11-H ) :   1.1122

Dispersion correction           -0.004693439
FINAL SINGLE POINT ENERGY      -342.918925072829

DIPOLE MOMENT
-------------

Method             : SCF
Type of density    : Electron Density
Multiplicity       :   1
Irrep              :   0
Energy             :  -342.9142316341803394 Eh
Relativity type    :
Basis              : AO
                                X                 Y                 Z
Electronic contribution:     -0.168118032      -0.000078709      -0.000055532
Nuclear contribution   :      1.113968872      -0.000058108      -0.000004171
                        -----------------------------------------
Total Dipole Moment    :      0.945850840      -0.000136817      -0.000059703
                        -----------------------------------------
Magnitude (a.u.)       :      0.945850852
Magnitude (Debye)      :      2.404161803

Rotational constants in cm-1:             0.112095             0.073765             0.044684
Rotational constants in MHz :          3360.536612          2211.428639          1339.595991

                             ****ORCA TERMINATED NORMALLY****
TOTAL RUN TIME: 0 days 0 hours 2 minutes 33 seconds 692 msec
