                         Program Version 6.0.0  -   RELEASE  -
|  1> !TPSSh aug-cc-pVTZ d3 TightSCF SlowConv RIJCOSX defgrid2
|  2>
|  3> %pal
|  4> nprocs 4
|  5> end
|  6>
|  7> %scf
|  8> MaxIter 1500
|  9> end
| 10>
| 11> %maxcore 3000
| 12>
| 13> !CPCM
| 14> %cpcm smd true
| 15> SMDsolvent "MeCN"
| 16> surfacetype gepol_ses
| 17> rsolv 2.19
| 18> end
| 19>
| 20> * xyz 0 1
| 21> C          -2.35855566249028     -1.18298734946581      0.44746508492782
| 22> C          -3.63998601494038     -0.64494677752617      0.40531310745406
| 23> C          -3.85303233632332      0.64184728390947     -0.08922899701963
| 24> C          -2.76160264019232      1.37149847988341     -0.55944574759612
| 25> C          -1.47660109339583      0.83661893600173     -0.53774129143291
| 26> C          -1.25440681594945     -0.45059005524099     -0.02098393310126
| 27> N          -0.00000421351286     -1.04691099052655     -0.00000634656969
| 28> C           1.25440223898594     -0.45059921009457      0.02097107702327
| 29> C           1.47660100518815      0.83661344736755      0.53772022597142
| 30> C           2.76160709047823      1.37148092391060      0.55943972704073
| 31> C           3.85303807972459      0.64181530245744      0.08924769050056
| 32> C           3.63998848210222     -0.64498151368667     -0.40528711196994
| 33> C           2.35855298180034     -1.18301040091692     -0.44745622777963
| 34> H           2.19908895406864     -2.18668027905193     -0.85522438065874
| 35> H           4.48199840421952     -1.23797876876707     -0.77528111411611
| 36> H           4.85916686280388      1.06886680223861      0.11285453118115
| 37> H           2.91087680856629      2.37556477081901      0.96852154939093
| 38> H           0.64246040679070      1.40934002015136      0.94801182020360
| 39> H          -0.00000725820461     -2.05910419744794     -0.00000990999799
| 40> H          -0.64246082169541      1.40933334107559     -0.94805093043179
| 41> H          -2.91086965745103      2.37558015369041     -0.96853357662371
| 42> H          -4.85915726714274      1.06890811498503     -0.11281791601209
| 43> H          -4.48199557743319     -1.23793238163885      0.77532568830103
| 44> H          -2.19909265599709     -2.18665445212673      0.85523908131503
| 45> *
| 46>
| 47>                          ****END OF INPUT****

CARTESIAN COORDINATES (ANGSTROEM)
---------------------------------
  C     -2.358556   -1.182987    0.447465
  C     -3.639986   -0.644947    0.405313
  C     -3.853032    0.641847   -0.089229
  C     -2.761603    1.371498   -0.559446
  C     -1.476601    0.836619   -0.537741
  C     -1.254407   -0.450590   -0.020984
  N     -0.000004   -1.046911   -0.000006
  C      1.254402   -0.450599    0.020971
  C      1.476601    0.836613    0.537720
  C      2.761607    1.371481    0.559440
  C      3.853038    0.641815    0.089248
  C      3.639988   -0.644982   -0.405287
  C      2.358553   -1.183010   -0.447456
  H      2.199089   -2.186680   -0.855224
  H      4.481998   -1.237979   -0.775281
  H      4.859167    1.068867    0.112855
  H      2.910877    2.375565    0.968522
  H      0.642460    1.409340    0.948012
  H     -0.000007   -2.059104   -0.000010
  H     -0.642461    1.409333   -0.948051
  H     -2.910870    2.375580   -0.968534
  H     -4.859157    1.068908   -0.112818
  H     -4.481996   -1.237932    0.775326
  H     -2.199093   -2.186654    0.855239

 Total Charge           Charge          ....    0
 Multiplicity           Mult            ....    1
 Number of Electrons    NEL             ....   90
 Basis Dimension        Dim             ....  851

ORBITAL ENERGIES
----------------

  NO   OCC          E(Eh)            E(eV)
   0   2.0000     -14.274159      -388.4196
   1   2.0000     -10.160156      -276.4719
   2   2.0000     -10.160153      -276.4718
   3   2.0000     -10.116521      -275.2845
   4   2.0000     -10.116519      -275.2845
   5   2.0000     -10.116479      -275.2834
   6   2.0000     -10.116479      -275.2834
   7   2.0000     -10.113274      -275.1962
   8   2.0000     -10.113268      -275.1960
   9   2.0000     -10.112932      -275.1869
  10   2.0000     -10.112928      -275.1868
  11   2.0000     -10.108464      -275.0653
  12   2.0000     -10.108461      -275.0652
  13   2.0000      -0.932783       -25.3823
  14   2.0000      -0.836472       -22.7616
  15   2.0000      -0.816787       -22.2259
  16   2.0000      -0.738049       -20.0833
  17   2.0000      -0.728731       -19.8298
  18   2.0000      -0.722986       -19.6734
  19   2.0000      -0.694034       -18.8856
  20   2.0000      -0.603559       -16.4237
  21   2.0000      -0.602889       -16.4055
  22   2.0000      -0.578894       -15.7525
  23   2.0000      -0.561139       -15.2694
  24   2.0000      -0.513765       -13.9803
  25   2.0000      -0.505335       -13.7509
  26   2.0000      -0.476654       -12.9704
  27   2.0000      -0.456993       -12.4354
  28   2.0000      -0.431707       -11.7473
  29   2.0000      -0.426386       -11.6026
  30   2.0000      -0.411996       -11.2110
  31   2.0000      -0.406547       -11.0627
  32   2.0000      -0.399609       -10.8739
  33   2.0000      -0.398112       -10.8332
  34   2.0000      -0.379297       -10.3212
  35   2.0000      -0.357111        -9.7175
  36   2.0000      -0.346998        -9.4423
  37   2.0000      -0.335065        -9.1176
  38   2.0000      -0.325033        -8.8446
  39   2.0000      -0.322226        -8.7682
  40   2.0000      -0.306636        -8.3440
  41   2.0000      -0.248524        -6.7627
  42   2.0000      -0.247388        -6.7318
  43   2.0000      -0.245384        -6.6772
  44   2.0000      -0.185045        -5.0353
  45   0.0000      -0.031606        -0.8600
  46   0.0000      -0.026716        -0.7270
  47   0.0000      -0.022743        -0.6189
  48   0.0000      -0.004638        -0.1262
  49   0.0000       0.004258         0.1159

MULLIKEN ATOMIC CHARGES
-----------------------
   0 C :   -0.721186
   1 C :   -0.306691
   2 C :   -0.343826
   3 C :   -0.717932
   4 C :   -0.429778
   5 C :    0.906028
   6 N :   -0.505325
   7 C :    0.901564
   8 C :   -0.429121
   9 C :   -0.720481
  10 C :   -0.347063
  11 C :   -0.308182
  12 C :   -0.714975
  13 H :    0.303392
  14 H :    0.349790
  15 H :    0.421398
  16 H :    0.312367
  17 H :    0.548628
  18 H :   -0.129943
  19 H :    0.548224
  20 H :    0.310836
  21 H :    0.422074
  22 H :    0.345072
  23 H :    0.305130
Sum of atomic charges:   -0.0000000

LOEWDIN ATOMIC CHARGES
----------------------
   0 C :    0.213748
   1 C :    0.172972
   2 C :    0.171699
   3 C :    0.178426
   4 C :    0.203573
   5 C :   -0.221839
   6 N :    0.564028
   7 C :   -0.221855
   8 C :    0.203579
   9 C :    0.178420
  10 C :    0.171703
  11 C :    0.172973
  12 C :    0.213738
  13 H :   -0.164054
  14 H :   -0.172179
  15 H :   -0.180560
  16 H :   -0.171359
  17 H :   -0.182375
  18 H :   -0.260085
  19 H :   -0.182394
  20 H :   -0.171359
  21 H :   -0.180564
  22 H :   -0.172182
  23 H :   -0.164055

  Mayer bond orders larger than 0.100000
B(  0-C ,  1-C ) :   1.4300 B(  0-C ,  2-C ) :   0.1503 B(  0-C ,  4-C ) :   0.1155
B(  0-C ,  5-C ) :   0.6205 B(  0-C , 23-H ) :   0.5698 B(  1-C ,  2-C ) :   1.3260
B(  1-C ,  5-C ) :  -0.2363 B(  1-C , 22-H ) :   0.7033 B(  2-C ,  3-C ) :   1.4445
B(  2-C ,  4-C ) :   0.1761 B(  2-C , 21-H ) :   0.5118 B(  3-C ,  4-C ) :   1.5267
B(  3-C ,  5-C ) :  -0.2994 B(  3-C , 20-H ) :   0.7649 B(  4-C ,  5-C ) :   0.8315
B(  4-C ,  6-N ) :  -0.1981 B(  4-C ,  7-C ) :   0.1411 B(  4-C , 17-H ) :  -0.1313
B(  4-C , 19-H ) :   0.3669 B(  5-C ,  6-N ) :   0.6525 B(  5-C ,  8-C ) :   0.1494
B(  5-C , 17-H ) :  -0.1137 B(  5-C , 18-H ) :  -0.1289 B(  5-C , 23-H ) :   0.1239
B(  6-N ,  7-C ) :   0.6533 B(  6-N ,  8-C ) :  -0.1966 B(  6-N , 18-H ) :   1.4050
B(  7-C ,  8-C ) :   0.8353 B(  7-C ,  9-C ) :  -0.2976 B(  7-C , 11-C ) :  -0.2324
B(  7-C , 12-C ) :   0.6221 B(  7-C , 13-H ) :   0.1234 B(  7-C , 18-H ) :  -0.1297
B(  7-C , 19-H ) :  -0.1161 B(  8-C ,  9-C ) :   1.5253 B(  8-C , 10-C ) :   0.1747
B(  8-C , 12-C ) :   0.1137 B(  8-C , 17-H ) :   0.3672 B(  8-C , 19-H ) :  -0.1294
B(  9-C , 10-C ) :   1.4504 B(  9-C , 16-H ) :   0.7633 B( 10-C , 11-C ) :   1.3248
B( 10-C , 12-C ) :   0.1464 B( 10-C , 15-H ) :   0.5128 B( 11-C , 12-C ) :   1.4245
B( 11-C , 14-H ) :   0.6970 B( 12-C , 13-H ) :   0.5751

Dispersion correction           -0.033175971
FINAL SINGLE POINT ENERGY      -518.919081795143

DIPOLE MOMENT
-------------

Method             : SCF
Type of density    : Electron Density
Multiplicity       :   1
Irrep              :   0
Energy             :  -518.8859058245183178 Eh
Relativity type    :
Basis              : AO
                                X                 Y                 Z
Electronic contribution:     -0.000011480      -1.333120285       0.000589082
Nuclear contribution   :      0.000006870       0.752166841       0.000025965
                        -----------------------------------------
Total Dipole Moment    :     -0.000004610      -0.580953443       0.000615047
                        -----------------------------------------
Magnitude (a.u.)       :      0.580953769
Magnitude (Debye)      :      1.476667128

Rotational constants in cm-1:             0.084180             0.013733             0.012322
Rotational constants in MHz :          2523.650354           411.709672           369.402071

                             ****ORCA TERMINATED NORMALLY****
TOTAL RUN TIME: 0 days 0 hours 8 minutes 33 seconds 364 msec
