                         Program Version 6.0.0  -   RELEASE  -
|  1> !r2SCAN aug-cc-pVTZ d3 TightSCF SlowConv RIJCOSX defgrid2
|  2>
|  3> %pal
|  4> nprocs 4
|  5> end
|  6>
|  7> %scf
|  8> MaxIter 1500
|  9> end
| 10>
| 11> %maxcore 3000
| 12>
| 13> !CPCM
| 14> %cpcm smd true
| 15> SMDsolvent "MeCN"
| 16> surfacetype gepol_ses
| 17> rsolv 2.19
| 18> end
| 19>
| 20> * xyz 1 1
| 21> S          -0.00010944424839      1.35688622383581     -0.00045588940143
| 22> C          -1.36031372365063      0.28664543166242     -0.00546340006884
| 23> C          -2.62476671337193      0.84705677005335     -0.00971453464717
| 24> C          -3.78353785154568      0.02886102280580     -0.01423429397565
| 25> C          -3.60107018284620     -1.39624179093014     -0.01297231605589
| 26> C          -2.35199681392559     -1.94146658195771     -0.00876136479511
| 27> H          -2.20685076914384     -3.02424367637830     -0.00793305758699
| 28> C          -1.17128315978886     -1.13818915246922     -0.00497020504615
| 29> N          -0.00001727096531     -1.76076243632930     -0.00102819010967
| 30> C           1.17121135470124     -1.13812134734186      0.00317013049378
| 31> C           2.35197256200709     -1.94133049036071      0.00663254829317
| 32> C           3.60101296929016     -1.39603417388084      0.01111542619478
| 33> C           3.78339829568492      0.02907907789014      0.01307239629264
| 34> C           2.62457944996628      0.84720769458296      0.00871634184597
| 35> C           1.36015864778127      0.28672353397519      0.00420556171077
| 36> H           2.71641587399496      1.93353835850929      0.00870793171486
| 37> N           5.01788004531514      0.56609746843354      0.01833544940540
| 38> C           5.18814133491822      2.00584377316990      0.01634403450098
| 39> H           4.74542942133653      2.46193420678108     -0.88734870267485
| 40> H           4.72786575445769      2.46596005134639      0.90894953027437
| 41> H           6.25942535209398      2.24475285672826      0.02662709311567
| 42> C           6.19613286716415     -0.28271908536379      0.01876057872020
| 43> H           7.09315770451857      0.34984666853403      0.03069035539786
| 44> H           6.22593666634906     -0.93099154946415      0.91190332484387
| 45> H           6.23822191663831     -0.91632293624570     -0.88458991452958
| 46> H           4.46615171425756     -2.05841324252657      0.01286181646995
| 47> H           2.20688865714732     -3.02411577980646      0.00525686441104
| 48> H          -4.46616949026249     -2.05867393830664     -0.01518022916305
| 49> N          -5.01805188093167      0.56580837981430     -0.01910492853996
| 50> C          -6.19625511800718     -0.28307615883811     -0.01957513903852
| 51> H          -6.23708281763836     -0.91821943273873      0.88272679402223
| 52> H          -6.22732906825129     -0.92976319747341     -0.91384668889601
| 53> H          -7.09331253060909      0.34948868396873     -0.02891629923048
| 54> C          -5.18838315405153      2.00554867169595     -0.01756056694950
| 55> H          -4.74545392382641      2.46196127570139      0.88586029063703
| 56> H          -4.72835954265605      2.46538730377880     -0.91044348638837
| 57> H          -6.25968060226678      2.24440376590571     -0.02761767922995
| 58> H          -2.71666652963520      1.93338075123861     -0.00930728201738
| 59> *
| 60>
| 61>                          ****END OF INPUT****

CARTESIAN COORDINATES (ANGSTROEM)
---------------------------------
  S     -0.000109    1.356886   -0.000456
  C     -1.360314    0.286645   -0.005463
  C     -2.624767    0.847057   -0.009715
  C     -3.783538    0.028861   -0.014234
  C     -3.601070   -1.396242   -0.012972
  C     -2.351997   -1.941467   -0.008761
  H     -2.206851   -3.024244   -0.007933
  C     -1.171283   -1.138189   -0.004970
  N     -0.000017   -1.760762   -0.001028
  C      1.171211   -1.138121    0.003170
  C      2.351973   -1.941330    0.006633
  C      3.601013   -1.396034    0.011115
  C      3.783398    0.029079    0.013072
  C      2.624579    0.847208    0.008716
  C      1.360159    0.286724    0.004206
  H      2.716416    1.933538    0.008708
  N      5.017880    0.566097    0.018335
  C      5.188141    2.005844    0.016344
  H      4.745429    2.461934   -0.887349
  H      4.727866    2.465960    0.908950
  H      6.259425    2.244753    0.026627
  C      6.196133   -0.282719    0.018761
  H      7.093158    0.349847    0.030690
  H      6.225937   -0.930992    0.911903
  H      6.238222   -0.916323   -0.884590
  H      4.466152   -2.058413    0.012862
  H      2.206889   -3.024116    0.005257
  H     -4.466169   -2.058674   -0.015180
  N     -5.018052    0.565808   -0.019105
  C     -6.196255   -0.283076   -0.019575
  H     -6.237083   -0.918219    0.882727
  H     -6.227329   -0.929763   -0.913847
  H     -7.093313    0.349489   -0.028916
  C     -5.188383    2.005549   -0.017561
  H     -4.745454    2.461961    0.885860
  H     -4.728360    2.465387   -0.910443
  H     -6.259681    2.244404   -0.027618
  H     -2.716667    1.933381   -0.009307

 Total Charge           Charge          ....    1
 Multiplicity           Mult            ....    1
 Number of Electrons    NEL             ....  150
 Basis Dimension        Dim             .... 1338

ORBITAL ENERGIES
----------------

  NO   OCC          E(Eh)            E(eV)
   0   2.0000     -88.619331     -2411.4546
   1   2.0000     -14.228616      -387.1803
   2   2.0000     -14.228611      -387.1802
   3   2.0000     -14.194106      -386.2412
   4   2.0000     -10.114701      -275.2350
   5   2.0000     -10.114672      -275.2342
   6   2.0000     -10.111559      -275.1495
   7   2.0000     -10.111519      -275.1484
   8   2.0000     -10.102935      -274.9148
   9   2.0000     -10.102927      -274.9146
  10   2.0000     -10.070700      -274.0377
  11   2.0000     -10.070690      -274.0374
  12   2.0000     -10.070663      -274.0367
  13   2.0000     -10.070631      -274.0358
  14   2.0000     -10.063564      -273.8435
  15   2.0000     -10.063548      -273.8431
  16   2.0000     -10.062204      -273.8065
  17   2.0000     -10.062124      -273.8043
  18   2.0000     -10.060577      -273.7622
  19   2.0000     -10.060567      -273.7619
  20   2.0000      -7.913096      -215.3263
  21   2.0000      -5.858924      -159.4294
  22   2.0000      -5.855019      -159.3232
  23   2.0000      -5.852389      -159.2516
  24   2.0000      -0.953237       -25.9389
  25   2.0000      -0.952067       -25.9071
  26   2.0000      -0.942759       -25.6538
  27   2.0000      -0.845288       -23.0014
  28   2.0000      -0.841864       -22.9083
  29   2.0000      -0.797408       -21.6986
  30   2.0000      -0.754400       -20.5283
  31   2.0000      -0.746139       -20.3035
  32   2.0000      -0.725527       -19.7426
  33   2.0000      -0.703382       -19.1400
  34   2.0000      -0.702066       -19.1042
  35   2.0000      -0.676925       -18.4201
  36   2.0000      -0.664144       -18.0723
  37   2.0000      -0.622018       -16.9260
  38   2.0000      -0.598591       -16.2885
  39   2.0000      -0.595327       -16.1997
  40   2.0000      -0.575129       -15.6501
  41   2.0000      -0.536526       -14.5996
  42   2.0000      -0.532206       -14.4821
  43   2.0000      -0.499576       -13.5941
  44   2.0000      -0.494741       -13.4626
  45   2.0000      -0.491810       -13.3828
  46   2.0000      -0.467821       -12.7301
  47   2.0000      -0.451727       -12.2921
  48   2.0000      -0.450725       -12.2649
  49   2.0000      -0.441388       -12.0108
  50   2.0000      -0.427581       -11.6351
  51   2.0000      -0.424693       -11.5565
  52   2.0000      -0.422534       -11.4977
  53   2.0000      -0.417882       -11.3711
  54   2.0000      -0.407579       -11.0908
  55   2.0000      -0.403924       -10.9913
  56   2.0000      -0.380588       -10.3563
  57   2.0000      -0.379852       -10.3363
  58   2.0000      -0.379833       -10.3358
  59   2.0000      -0.379781       -10.3344
  60   2.0000      -0.371347       -10.1049
  61   2.0000      -0.370018       -10.0687
  62   2.0000      -0.369149       -10.0450
  63   2.0000      -0.352781        -9.5997
  64   2.0000      -0.347308        -9.4507
  65   2.0000      -0.343085        -9.3358
  66   2.0000      -0.334050        -9.0900
  67   2.0000      -0.328436        -8.9372
  68   2.0000      -0.324748        -8.8368
  69   2.0000      -0.293499        -7.9865
  70   2.0000      -0.272974        -7.4280
  71   2.0000      -0.254694        -6.9306
  72   2.0000      -0.251408        -6.8412
  73   2.0000      -0.216345        -5.8870
  74   2.0000      -0.198550        -5.4028
  75   0.0000      -0.141960        -3.8629
  76   0.0000      -0.067942        -1.8488
  77   0.0000      -0.056893        -1.5481
  78   0.0000      -0.044996        -1.2244
  79   0.0000      -0.017222        -0.4686

MULLIKEN ATOMIC CHARGES
-----------------------
   0 S :    0.078548
   1 C :    0.948442
   2 C :   -0.996392
   3 C :    1.429694
   4 C :    0.026806
   5 C :   -0.915379
   6 H :    0.270170
   7 C :    0.677692
   8 N :   -0.943037
   9 C :    0.675239
  10 C :   -0.914950
  11 C :    0.026642
  12 C :    1.426821
  13 C :   -0.997713
  14 C :    0.952045
  15 H :   -0.118558
  16 N :   -0.302601
  17 C :   -0.882107
  18 H :    0.243858
  19 H :    0.243180
  20 H :    0.290039
  21 C :   -0.859883
  22 H :    0.295886
  23 H :    0.221281
  24 H :    0.223572
  25 H :    0.138177
  26 H :    0.270235
  27 H :    0.138160
  28 N :   -0.302216
  29 C :   -0.860084
  30 H :    0.223154
  31 H :    0.221670
  32 H :    0.295852
  33 C :   -0.881925
  34 H :    0.243940
  35 H :    0.242964
  36 H :    0.290004
  37 H :   -0.119225
Sum of atomic charges:    1.0000000

LOEWDIN ATOMIC CHARGES
----------------------
   0 S :    1.416984
   1 C :   -0.458105
   2 C :    0.164695
   3 C :   -0.193517
   4 C :    0.257463
   5 C :    0.229455
   6 H :   -0.157634
   7 C :   -0.347223
   8 N :    0.396058
   9 C :   -0.347351
  10 C :    0.229440
  11 C :    0.257476
  12 C :   -0.193531
  13 C :    0.164459
  14 C :   -0.458411
  15 H :   -0.201072
  16 N :    0.265403
  17 C :    0.526274
  18 H :   -0.131348
  19 H :   -0.132288
  20 H :   -0.154765
  21 C :    0.527573
  22 H :   -0.155789
  23 H :   -0.133343
  24 H :   -0.132094
  25 H :   -0.179978
  26 H :   -0.157618
  27 H :   -0.179980
  28 N :    0.265426
  29 C :    0.527566
  30 H :   -0.132214
  31 H :   -0.133199
  32 H :   -0.155817
  33 C :    0.526299
  34 H :   -0.131380
  35 H :   -0.132270
  36 H :   -0.154739
  37 H :   -0.200903

  Mayer bond orders larger than 0.100000
B(  0-S ,  1-C ) :   0.1087 B(  0-S ,  2-C ) :   0.1815 B(  0-S ,  7-C ) :   0.3403
B(  0-S ,  8-N ) :  -0.2002 B(  0-S ,  9-C ) :   0.3407 B(  0-S , 13-C ) :   0.1807
B(  0-S , 14-C ) :   0.1080 B(  1-C ,  4-C ) :  -0.3615 B(  1-C ,  5-C ) :   0.1022
B(  1-C ,  7-C ) :   0.4490 B(  1-C , 12-C ) :   0.1457 B(  1-C , 13-C ) :   0.1887
B(  1-C , 14-C ) :  -0.4107 B(  1-C , 28-N ) :   0.3270 B(  1-C , 33-C ) :   0.1746
B(  2-C ,  5-C ) :  -0.2890 B(  2-C ,  7-C ) :   0.4045 B(  2-C ,  9-C ) :  -0.1566
B(  2-C , 12-C ) :   0.1161 B(  2-C , 14-C ) :   0.1886 B(  2-C , 27-H ) :   0.1013
B(  2-C , 28-N ) :  -0.5076 B(  2-C , 29-C ) :   0.2032 B(  2-C , 33-C ) :  -0.2974
B(  2-C , 37-H ) :   1.3293 B(  3-C ,  4-C ) :   0.3384 B(  3-C ,  5-C ) :  -0.3025
B(  3-C ,  6-H ) :   0.1027 B(  3-C ,  7-C ) :   0.1002 B(  3-C ,  9-C ) :  -0.1382
B(  3-C , 13-C ) :   0.1161 B(  3-C , 14-C ) :   0.1456 B(  3-C , 27-H ) :  -0.1821
B(  3-C , 28-N ) :  -0.2064 B(  3-C , 29-C ) :  -0.2159 B(  3-C , 33-C ) :  -0.2179
B(  3-C , 37-H ) :  -0.1842 B(  4-C ,  5-C ) :   0.9151 B(  4-C ,  7-C ) :   0.4920
B(  4-C ,  8-N ) :   0.1118 B(  4-C , 27-H ) :   0.9626 B(  4-C , 28-N ) :  -0.5991
B(  4-C , 29-C ) :  -0.2266 B(  5-C ,  6-H ) :   0.7551 B(  5-C ,  7-C ) :  -0.6175
B(  5-C ,  8-N ) :   0.3714 B(  5-C ,  9-C ) :   0.4104 B(  5-C , 28-N ) :   0.1148
B(  6-H ,  8-N ) :   0.2838 B(  6-H ,  9-C ) :  -0.1478 B(  7-C ,  9-C ) :   0.6853
B(  7-C , 10-C ) :   0.4103 B(  7-C , 12-C ) :  -0.1381 B(  7-C , 13-C ) :  -0.1559
B(  7-C , 26-H ) :  -0.1479 B(  7-C , 28-N ) :  -0.2160 B(  7-C , 37-H ) :  -0.1186
B(  8-N , 10-C ) :   0.3716 B(  8-N , 11-C ) :   0.1118 B(  8-N , 26-H ) :   0.2837
B(  9-C , 10-C ) :  -0.6171 B(  9-C , 11-C ) :   0.4922 B(  9-C , 12-C ) :   0.1010
B(  9-C , 13-C ) :   0.4044 B(  9-C , 14-C ) :   0.4500 B(  9-C , 15-H ) :  -0.1183
B(  9-C , 16-N ) :  -0.2160 B( 10-C , 11-C ) :   0.9153 B( 10-C , 12-C ) :  -0.3026
B( 10-C , 13-C ) :  -0.2891 B( 10-C , 14-C ) :   0.1021 B( 10-C , 16-N ) :   0.1148
B( 10-C , 26-H ) :   0.7550 B( 11-C , 12-C ) :   0.3381 B( 11-C , 14-C ) :  -0.3620
B( 11-C , 16-N ) :  -0.5992 B( 11-C , 21-C ) :  -0.2266 B( 11-C , 25-H ) :   0.9627
B( 12-C , 15-H ) :  -0.1817 B( 12-C , 16-N ) :  -0.2064 B( 12-C , 17-C ) :  -0.2175
B( 12-C , 21-C ) :  -0.2160 B( 12-C , 25-H ) :  -0.1817 B( 12-C , 26-H ) :   0.1027
B( 13-C , 15-H ) :   1.3307 B( 13-C , 16-N ) :  -0.5075 B( 13-C , 17-C ) :  -0.2975
B( 13-C , 21-C ) :   0.2033 B( 13-C , 25-H ) :   0.1012 B( 14-C , 16-N ) :   0.3272
B( 14-C , 17-C ) :   0.1746 B( 15-H , 17-C ) :  -0.1718 B( 16-N , 17-C ) :   1.3022
B( 16-N , 21-C ) :   1.3646 B( 17-C , 18-H ) :   0.9582 B( 17-C , 19-H ) :   0.9595
B( 17-C , 20-H ) :   0.8715 B( 21-C , 22-H ) :   0.8216 B( 21-C , 23-H ) :   1.0009
B( 21-C , 24-H ) :   0.9970 B( 21-C , 25-H ) :  -0.2405 B( 27-H , 29-C ) :  -0.2406
B( 28-N , 29-C ) :   1.3646 B( 28-N , 33-C ) :   1.3021 B( 29-C , 30-H ) :   0.9976
B( 29-C , 31-H ) :   1.0005 B( 29-C , 32-H ) :   0.8216 B( 33-C , 34-H ) :   0.9580
B( 33-C , 35-H ) :   0.9595 B( 33-C , 36-H ) :   0.8717 B( 33-C , 37-H ) :  -0.1718

Dispersion correction           -0.016133267
FINAL SINGLE POINT ENERGY     -1182.688992388604

DIPOLE MOMENT
-------------

Method             : SCF
Type of density    : Electron Density
Multiplicity       :   1
Irrep              :   0
Energy             : -1182.6728591216026416 Eh
Relativity type    :
Basis              : AO
                                X                 Y                 Z
Electronic contribution:     -0.003346320      -3.209089173       0.000122433
Nuclear contribution   :     -0.000160838       4.600849614       0.000182721
                        -----------------------------------------
Total Dipole Moment    :     -0.003507158       1.391760441       0.000305154
                        -----------------------------------------
Magnitude (a.u.)       :      1.391764894
Magnitude (Debye)      :      3.537585223

Rotational constants in cm-1:             0.035338             0.004431             0.003949
Rotational constants in MHz :          1059.419573           132.841416           118.400139

                             ****ORCA TERMINATED NORMALLY****
TOTAL RUN TIME: 0 days 0 hours 8 minutes 24 seconds 740 msec
