                         Program Version 6.0.0  -   RELEASE  -
|  1> !TPSSh aug-cc-pVTZ d3 TightSCF SlowConv RIJCOSX defgrid2
|  2>
|  3> %pal
|  4> nprocs 4
|  5> end
|  6>
|  7> %scf
|  8> MaxIter 1500
|  9> end
| 10>
| 11> %maxcore 3000
| 12>
| 13> !CPCM
| 14> %cpcm smd true
| 15> SMDsolvent "MeCN"
| 16> surfacetype gepol_ses
| 17> rsolv 2.19
| 18> end
| 19>
| 20> * xyz 1 2
| 21> C           1.51758494546740     -1.23435025814247     -0.00000948537283
| 22> C           2.20770781647749      0.00001697777377     -0.00002575082433
| 23> C           1.51757870176219      1.23438133176831     -0.00002376652717
| 24> C           0.14399615849667      1.24528780380919     -0.00000994709932
| 25> C          -0.57050335234681      0.00000980865076      0.00000339046104
| 26> C           0.14400107382655     -1.24526565590726      0.00000274901341
| 27> H          -0.41918051446955     -2.18175157250380      0.00001235664707
| 28> C          -1.95875076928202      0.00001227638427      0.00003168049002
| 29> C          -3.18886914512795      0.00003850956088      0.00015576875982
| 30> H          -4.27093083747358      0.00004174929515      0.00024791741498
| 31> H          -0.41918961682318      2.18177237850725     -0.00001398172647
| 32> H           2.07968932476853      2.17184704992506     -0.00003742036749
| 33> H           3.30249892053071      0.00001489531919     -0.00004324082103
| 34> H           2.07970099419353     -2.17181369444030     -0.00001477004770
| 35> *
| 36>
| 37>                          ****END OF INPUT****

CARTESIAN COORDINATES (ANGSTROEM)
---------------------------------
  C      1.517585   -1.234350   -0.000009
  C      2.207708    0.000017   -0.000026
  C      1.517579    1.234381   -0.000024
  C      0.143996    1.245288   -0.000010
  C     -0.570503    0.000010    0.000003
  C      0.144001   -1.245266    0.000003
  H     -0.419181   -2.181752    0.000012
  C     -1.958751    0.000012    0.000032
  C     -3.188869    0.000039    0.000156
  H     -4.270931    0.000042    0.000248
  H     -0.419190    2.181772   -0.000014
  H      2.079689    2.171847   -0.000037
  H      3.302499    0.000015   -0.000043
  H      2.079701   -2.171814   -0.000015

 Total Charge           Charge          ....    1
 Multiplicity           Mult            ....    2
 Number of Electrons    NEL             ....   53
 Basis Dimension        Dim             ....  506

ORBITAL ENERGIES
----------------
                 SPIN UP ORBITALS
  NO   OCC          E(Eh)            E(eV)
   0   1.0000     -10.215273      -277.9717
   1   1.0000     -10.193736      -277.3857
   2   1.0000     -10.188397      -277.2404
   3   1.0000     -10.182767      -277.0872
   4   1.0000     -10.175897      -276.9002
   5   1.0000     -10.175895      -276.9002
   6   1.0000     -10.161701      -276.5140
   7   1.0000     -10.161701      -276.5139
   8   1.0000      -0.894704       -24.3461
   9   1.0000      -0.822426       -22.3794
  10   1.0000      -0.777049       -21.1446
  11   1.0000      -0.765823       -20.8391
  12   1.0000      -0.660457       -17.9719
  13   1.0000      -0.630304       -17.1514
  14   1.0000      -0.572053       -15.5664
  15   1.0000      -0.536479       -14.5983
  16   1.0000      -0.501007       -13.6331
  17   1.0000      -0.485053       -13.1990
  18   1.0000      -0.451054       -12.2738
  19   1.0000      -0.445815       -12.1312
  20   1.0000      -0.423475       -11.5233
  21   1.0000      -0.381468       -10.3803
  22   1.0000      -0.371624       -10.1124
  23   1.0000      -0.360051        -9.7975
  24   1.0000      -0.318389        -8.6638
  25   1.0000      -0.293996        -8.0000
  26   1.0000      -0.287637        -7.8270
  27   0.0000      -0.113698        -3.0939
  28   0.0000      -0.062682        -1.7057
  29   0.0000      -0.025746        -0.7006
  30   0.0000      -0.008016        -0.2181
  31   0.0000       0.007310         0.1989

                 SPIN DOWN ORBITALS
  NO   OCC          E(Eh)            E(eV)
   0   1.0000     -10.211442      -277.8675
   1   1.0000     -10.186838      -277.1980
   2   1.0000     -10.183454      -277.1059
   3   1.0000     -10.183449      -277.1057
   4   1.0000     -10.174737      -276.8687
   5   1.0000     -10.174735      -276.8686
   6   1.0000     -10.162183      -276.5271
   7   1.0000     -10.162182      -276.5270
   8   1.0000      -0.888041       -24.1648
   9   1.0000      -0.814048       -22.1514
  10   1.0000      -0.775736       -21.1089
  11   1.0000      -0.750081       -20.4107
  12   1.0000      -0.653707       -17.7883
  13   1.0000      -0.627136       -17.0652
  14   1.0000      -0.568775       -15.4772
  15   1.0000      -0.533199       -14.5091
  16   1.0000      -0.498685       -13.5699
  17   1.0000      -0.482896       -13.1403
  18   1.0000      -0.448263       -12.1979
  19   1.0000      -0.445641       -12.1265
  20   1.0000      -0.403126       -10.9696
  21   1.0000      -0.380530       -10.3547
  22   1.0000      -0.370049       -10.0695
  23   1.0000      -0.332276        -9.0417
  24   1.0000      -0.313139        -8.5210
  25   1.0000      -0.289749        -7.8845
  26   0.0000      -0.227410        -6.1881
  27   0.0000      -0.084674        -2.3041
  28   0.0000      -0.053819        -1.4645
  29   0.0000      -0.021755        -0.5920
  30   0.0000      -0.007041        -0.1916

MULLIKEN ATOMIC CHARGES AND SPIN POPULATIONS
--------------------------------------------
   0 C :   -0.385286   -0.038789
   1 C :    0.105893    0.313977
   2 C :   -0.385033   -0.038797
   3 C :   -0.839063    0.058047
   4 C :    1.096464    0.293706
   5 C :   -0.839170    0.058038
   6 H :   -0.265427   -0.004356
   7 C :    1.476472   -0.072692
   8 C :   -0.273694    0.442410
   9 H :    0.182906   -0.007984
  10 H :   -0.265269   -0.004361
  11 H :    0.488402   -0.000634
  12 H :    0.414263    0.002068
  13 H :    0.488541   -0.000631
Sum of atomic charges         :    1.0000000

LOEWDIN ATOMIC CHARGES AND SPIN POPULATIONS
-------------------------------------------
   0 C :    0.273989    0.047560
   1 C :    0.296435    0.163235
   2 C :    0.273990    0.047559
   3 C :    0.269986    0.066734
   4 C :   -0.139873    0.139994
   5 C :    0.269988    0.066733
   6 H :   -0.134884    0.007416
   7 C :    0.092213    0.111440
   8 C :    0.557815    0.256594
   9 H :   -0.211785    0.052053
  10 H :   -0.134883    0.007416
  11 H :   -0.142427   -0.000660
  12 H :   -0.128138    0.034587
  13 H :   -0.142426   -0.000660

  Mayer bond orders larger than 0.100000
B(  0-C ,  1-C ) :   1.2104 B(  0-C ,  3-C ) :   0.1276 B(  0-C ,  4-C ) :   0.3051
B(  0-C ,  5-C ) :   1.6827 B(  0-C ,  8-C ) :  -0.1337 B(  0-C , 13-H ) :   0.5551
B(  1-C ,  2-C ) :   1.2103 B(  1-C ,  3-C ) :  -0.1356 B(  1-C ,  4-C ) :  -0.3988
B(  1-C ,  5-C ) :  -0.1355 B(  1-C ,  7-C ) :   0.4232 B(  1-C ,  8-C ) :   0.1668
B(  1-C , 11-H ) :   0.1196 B(  1-C , 12-H ) :   0.6063 B(  1-C , 13-H ) :   0.1197
B(  2-C ,  3-C ) :   1.6827 B(  2-C ,  4-C ) :   0.3059 B(  2-C ,  5-C ) :   0.1280
B(  2-C ,  8-C ) :  -0.1342 B(  2-C , 11-H ) :   0.5551 B(  3-C ,  4-C ) :   0.6540
B(  3-C ,  5-C ) :  -0.2871 B(  3-C ,  6-H ) :   0.1939 B(  3-C ,  7-C ) :   0.1532
B(  3-C ,  8-C ) :  -0.1091 B(  3-C , 10-H ) :   1.7063 B(  3-C , 11-H ) :  -0.1689
B(  4-C ,  5-C ) :   0.6531 B(  4-C ,  6-H ) :   0.3314 B(  4-C ,  7-C ) :   0.1218
B(  4-C ,  8-C ) :   0.6826 B(  4-C ,  9-H ) :   0.1102 B(  4-C , 10-H ) :   0.3311
B(  5-C ,  6-H ) :   1.7068 B(  5-C ,  7-C ) :   0.1534 B(  5-C ,  8-C ) :  -0.1084
B(  5-C , 10-H ) :   0.1941 B(  5-C , 13-H ) :  -0.1689 B(  6-H ,  7-C ) :  -0.4400
B(  6-H ,  8-C ) :  -0.3307 B(  6-H , 10-H ) :   0.3646 B(  6-H , 13-H ) :  -0.1187
B(  7-C ,  8-C ) :   1.8473 B(  7-C ,  9-H ) :  -0.3362 B(  7-C , 10-H ) :  -0.4394
B(  8-C ,  9-H ) :   1.3141 B(  8-C , 10-H ) :  -0.3303 B(  8-C , 11-H ) :   0.1790
B(  8-C , 13-H ) :   0.1788 B( 10-H , 11-H ) :  -0.1186

Dispersion correction           -0.016494214
FINAL SINGLE POINT ENERGY      -308.317988862690

DIPOLE MOMENT
-------------

Method             : SCF
Type of density    : Electron Density
Multiplicity       :   2
Irrep              :   0
Energy             :  -308.3014946487685961 Eh
Relativity type    :
Basis              : AO
                                X                 Y                 Z
Electronic contribution:     -2.467250958      -0.000003476      -0.000302989
Nuclear contribution   :      2.200402781       0.000011219       0.000050647
                        -----------------------------------------
Total Dipole Moment    :     -0.266848177       0.000007743      -0.000252342
                        -----------------------------------------
Magnitude (a.u.)       :      0.266848297
Magnitude (Debye)      :      0.678274467

Rotational constants in cm-1:             0.181347             0.051878             0.040338
Rotational constants in MHz :          5436.638218          1555.263096          1209.313806

                             ****ORCA TERMINATED NORMALLY****
TOTAL RUN TIME: 0 days 0 hours 5 minutes 6 seconds 261 msec
