                         Program Version 6.0.0  -   RELEASE  -
|  1> !TPSSh aug-cc-pVTZ d3 TightSCF SlowConv RIJCOSX defgrid2
|  2>
|  3> %pal
|  4> nprocs 4
|  5> end
|  6>
|  7> %scf
|  8> MaxIter 1500
|  9> end
| 10>
| 11> %maxcore 3000
| 12>
| 13> !CPCM
| 14> %cpcm smd true
| 15> SMDsolvent "MeCN"
| 16> surfacetype gepol_ses
| 17> rsolv 2.19
| 18> end
| 19>
| 20> * xyz 0 1
| 21> C          -0.89224376281729     -0.45495718467486     -0.01145470130558
| 22> C          -2.16594085102826      0.11833701228886      0.04668156393021
| 23> C          -2.30980722961896      1.50552350730743      0.05266514185606
| 24> C          -1.18730292615774      2.32642588045932     -0.00578599682476
| 25> C           0.07848662017989      1.74980637635100     -0.06895843233769
| 26> C           0.26274712675783      0.36232202146058     -0.06567493940899
| 27> C           1.58397696911678     -0.26992063342449     -0.12469546497205
| 28> C           2.76363236463117      0.32107143728729      0.12304590513021
| 29> C           4.08799267811931     -0.36052851109315      0.03291116341555
| 30> H           3.98056842183658     -1.41840521263657     -0.26057190910370
| 31> H           4.74505082715594      0.13479691399593     -0.70730718173092
| 32> H           4.62530006868567     -0.32442135861975      0.99958986880157
| 33> H           2.78503020251791      1.37712737104795      0.42569396767337
| 34> H           1.57849606749139     -1.33419620856152     -0.38398649131753
| 35> H           0.95757732762518      2.39636581691597     -0.14038478463746
| 36> H          -1.29519718094620      3.41448711016187     -0.01311105785373
| 37> H          -3.31277371923385      1.94023584815831      0.09753461625361
| 38> H          -3.05632729029775     -0.51114095186127      0.09086976233295
| 39> O          -0.67674575407500     -1.78893966045310     -0.01378813421896
| 40> C          -1.76950811946695     -2.65856738104043      0.02444914878564
| 41> H          -2.43311749477465     -2.52415123007072     -0.85159816615208
| 42> H          -2.36466392584911     -2.52857531091088      0.94882566481095
| 43> H          -1.35670891985190     -3.67848395208777      0.00674595687332
| 44> *
| 45>
| 46>                          ****END OF INPUT****

CARTESIAN COORDINATES (ANGSTROEM)
---------------------------------
  C     -0.892244   -0.454957   -0.011455
  C     -2.165941    0.118337    0.046682
  C     -2.309807    1.505524    0.052665
  C     -1.187303    2.326426   -0.005786
  C      0.078487    1.749806   -0.068958
  C      0.262747    0.362322   -0.065675
  C      1.583977   -0.269921   -0.124695
  C      2.763632    0.321071    0.123046
  C      4.087993   -0.360529    0.032911
  H      3.980568   -1.418405   -0.260572
  H      4.745051    0.134797   -0.707307
  H      4.625300   -0.324421    0.999590
  H      2.785030    1.377127    0.425694
  H      1.578496   -1.334196   -0.383986
  H      0.957577    2.396366   -0.140385
  H     -1.295197    3.414487   -0.013111
  H     -3.312774    1.940236    0.097535
  H     -3.056327   -0.511141    0.090870
  O     -0.676746   -1.788940   -0.013788
  C     -1.769508   -2.658567    0.024449
  H     -2.433117   -2.524151   -0.851598
  H     -2.364664   -2.528575    0.948826
  H     -1.356709   -3.678484    0.006746

 Total Charge           Charge          ....    0
 Multiplicity           Mult            ....    1
 Number of Electrons    NEL             ....   80
 Basis Dimension        Dim             ....  782

ORBITAL ENERGIES
----------------

  NO   OCC          E(Eh)            E(eV)
   0   2.0000     -19.085778      -519.3504
   1   2.0000     -10.174841      -276.8715
   2   2.0000     -10.157900      -276.4105
   3   2.0000     -10.122842      -275.4565
   4   2.0000     -10.116195      -275.2757
   5   2.0000     -10.115355      -275.2528
   6   2.0000     -10.114687      -275.2346
   7   2.0000     -10.113187      -275.1938
   8   2.0000     -10.109730      -275.0997
   9   2.0000     -10.109281      -275.0875
  10   2.0000     -10.106193      -275.0035
  11   2.0000      -1.052957       -28.6524
  12   2.0000      -0.836286       -22.7565
  13   2.0000      -0.778204       -21.1760
  14   2.0000      -0.736769       -20.0485
  15   2.0000      -0.725353       -19.7378
  16   2.0000      -0.676324       -18.4037
  17   2.0000      -0.653721       -17.7887
  18   2.0000      -0.593056       -16.1379
  19   2.0000      -0.566858       -15.4250
  20   2.0000      -0.528791       -14.3891
  21   2.0000      -0.510913       -13.9026
  22   2.0000      -0.470318       -12.7980
  23   2.0000      -0.459531       -12.5045
  24   2.0000      -0.448921       -12.2158
  25   2.0000      -0.427361       -11.6291
  26   2.0000      -0.416268       -11.3272
  27   2.0000      -0.400943       -10.9102
  28   2.0000      -0.390339       -10.6217
  29   2.0000      -0.385077       -10.4785
  30   2.0000      -0.367242        -9.9932
  31   2.0000      -0.363434        -9.8895
  32   2.0000      -0.345724        -9.4076
  33   2.0000      -0.339643        -9.2421
  34   2.0000      -0.321661        -8.7529
  35   2.0000      -0.307286        -8.3617
  36   2.0000      -0.300685        -8.1820
  37   2.0000      -0.281650        -7.6641
  38   2.0000      -0.228209        -6.2099
  39   2.0000      -0.200941        -5.4679
  40   0.0000      -0.048701        -1.3252
  41   0.0000      -0.010308        -0.2805
  42   0.0000      -0.003594        -0.0978
  43   0.0000       0.005815         0.1582
  44   0.0000       0.007734         0.2104

MULLIKEN ATOMIC CHARGES
-----------------------
   0 C :    0.546420
   1 C :   -0.561299
   2 C :   -0.163220
   3 C :   -0.644142
   4 C :   -0.481380
   5 C :    1.029852
   6 C :    0.253670
   7 C :   -0.463971
   8 C :   -0.324556
   9 H :    0.127901
  10 H :    0.130574
  11 H :    0.112410
  12 H :    0.109675
  13 H :    0.060902
  14 H :   -0.143233
  15 H :    0.519544
  16 H :    0.283857
  17 H :    0.388116
  18 O :   -0.874025
  19 C :   -0.378432
  20 H :    0.244762
  21 H :    0.253702
  22 H :   -0.027125
Sum of atomic charges:    0.0000000

LOEWDIN ATOMIC CHARGES
----------------------
   0 C :   -0.378114
   1 C :    0.198623
   2 C :    0.178525
   3 C :    0.181630
   4 C :    0.188547
   5 C :   -0.137533
   6 C :    0.193541
   7 C :    0.197926
   8 C :    0.547284
   9 H :   -0.174439
  10 H :   -0.164991
  11 H :   -0.165306
  12 H :   -0.181370
  13 H :   -0.207505
  14 H :   -0.180783
  15 H :   -0.177144
  16 H :   -0.171488
  17 H :   -0.193619
  18 O :    0.607984
  19 C :    0.324097
  20 H :   -0.159344
  21 H :   -0.159906
  22 H :   -0.166615

  Mayer bond orders larger than 0.100000
B(  0-C ,  1-C ) :   1.4537 B(  0-C ,  2-C ) :  -0.3351 B(  0-C ,  3-C ) :   0.2707
B(  0-C ,  4-C ) :  -0.8922 B(  0-C ,  5-C ) :   0.7098 B(  0-C ,  7-C ) :   0.1608
B(  0-C , 16-H ) :   0.2407 B(  0-C , 17-H ) :  -0.1605 B(  0-C , 18-O ) :   0.2650
B(  0-C , 19-C ) :   0.1225 B(  1-C ,  2-C ) :   1.0994 B(  1-C ,  3-C ) :   0.1963
B(  1-C , 17-H ) :   0.3180 B(  1-C , 18-O ) :  -0.1167 B(  2-C ,  3-C ) :   1.3312
B(  2-C ,  4-C ) :  -0.2306 B(  2-C ,  5-C ) :  -0.1511 B(  2-C ,  6-C ) :   0.1445
B(  2-C , 15-H ) :   0.1603 B(  2-C , 16-H ) :   0.7636 B(  2-C , 17-H ) :   0.1991
B(  3-C ,  4-C ) :   1.3128 B(  3-C ,  5-C ) :   0.1140 B(  3-C , 15-H ) :   0.2838
B(  3-C , 17-H ) :  -0.1331 B(  4-C ,  5-C ) :   0.9924 B(  4-C ,  6-C ) :   0.2136
B(  4-C , 14-H ) :   1.5511 B(  4-C , 17-H ) :   0.1008 B(  5-C ,  6-C ) :   0.1665
B(  5-C , 12-H ) :  -0.1150 B(  5-C , 16-H ) :  -0.1387 B(  5-C , 17-H ) :   0.2664
B(  5-C , 18-O ) :   0.1309 B(  6-C ,  7-C ) :   0.9543 B(  6-C , 13-H ) :   1.0343
B(  7-C ,  8-C ) :   1.0495 B(  7-C , 12-H ) :   1.1197 B(  8-C ,  9-H ) :   0.9550
B(  8-C , 10-H ) :   0.9724 B(  8-C , 11-H ) :   0.9795 B( 16-H , 18-O ) :  -0.1024
B( 18-O , 19-C ) :   1.1795 B( 19-C , 20-H ) :   0.8905 B( 19-C , 21-H ) :   0.8782
B( 19-C , 22-H ) :   1.1294

Dispersion correction           -0.027002359
FINAL SINGLE POINT ENERGY      -463.720825783304

DIPOLE MOMENT
-------------

Method             : SCF
Type of density    : Electron Density
Multiplicity       :   1
Irrep              :   0
Energy             :  -463.6938234239321446 Eh
Relativity type    :
Basis              : AO
                                X                 Y                 Z
Electronic contribution:     -4.936137651       2.461482383      -0.160264605
Nuclear contribution   :      4.581656227      -2.893948868       0.196564691
                        -----------------------------------------
Total Dipole Moment    :     -0.354481425      -0.432466485       0.036300086
                        -----------------------------------------
Magnitude (a.u.)       :      0.560358847
Magnitude (Debye)      :      1.424318997

Rotational constants in cm-1:             0.050912             0.026902             0.017755
Rotational constants in MHz :          1526.296449           806.510912           532.292368

                             ****ORCA TERMINATED NORMALLY****
TOTAL RUN TIME: 0 days 0 hours 8 minutes 38 seconds 229 msec
