                         Program Version 6.0.0  -   RELEASE  -
|  1> !PBE0 opt aug-cc-pVTZ d3 TightSCF SlowConv RIJCOSX defgrid2
|  2>
|  3> %pal
|  4> nprocs 8
|  5> end
|  6>
|  7> %scf
|  8> MaxIter 1500
|  9> end
| 10>
| 11> %maxcore 3500
| 12>
| 13> !CPCM
| 14> %cpcm smd true
| 15> SMDsolvent "MeCN"
| 16> surfacetype gepol_ses
| 17> rsolv 2.19
| 18> end
| 19>
| 20> * xyz 1 2
| 21> C          -0.69806914174773     -1.08130758385803      0.00000478073461
| 22> C          -1.29995911913199      0.21220975823502      0.00000712364871
| 23> C          -0.48713495449795      1.39007645246692     -0.00001560397811
| 24> C           0.87407248196079      1.28097563070640     -0.00003015609287
| 25> C           1.48961473063931     -0.00988444370075     -0.00003464832734
| 26> C           0.66713129411178     -1.18242862965134     -0.00001675195059
| 27> H           1.14787115207094     -2.16374838611022     -0.00001833432844
| 28> C           2.87923367476782     -0.13303827989769     -0.00003947759998
| 29> C           4.09817372516796     -0.24492334399421     -0.00000244744274
| 30> H           5.17420938419188     -0.34031758843355     -0.00000256865577
| 31> H           1.50568477881681      2.17231925078041     -0.00004562485067
| 32> H          -0.99220253079888      2.35905562684180     -0.00001378344560
| 33> O          -2.58101948918323      0.42008257874155      0.00003691245038
| 34> C          -3.53711041258472     -0.64087278516494      0.00007811011347
| 35> H          -4.51842922650600     -0.15013878054896      0.00011237958636
| 36> H          -3.42139067434806     -1.25399713854605     -0.90847216906212
| 37> H          -3.42131652654994     -1.25398175148381      0.90862972609483
| 38> H          -1.31361454637877     -1.98259848638256      0.00002453310588
| 39> *
| 40>
| 41>                          ****END OF INPUT****
 Total Charge           Charge          ....    1
 Multiplicity           Mult            ....    2
 Number of Electrons    NEL             ....   69
Dispersion correction           -0.015942827
FINAL SINGLE POINT ENERGY      -422.377323009419
Dispersion correction             ... done (  0.1 sec)
Dispersion correction           -0.016049141
FINAL SINGLE POINT ENERGY      -422.378939612136
Dispersion correction             ... done (  0.1 sec)
Dispersion correction           -0.016065839
FINAL SINGLE POINT ENERGY      -422.378987829098
Dispersion correction             ... done (  0.1 sec)
Dispersion correction           -0.016067861
FINAL SINGLE POINT ENERGY      -422.378998071291
Dispersion correction             ... done (  0.0 sec)
Dispersion correction           -0.016066918
FINAL SINGLE POINT ENERGY      -422.378996690243
Dispersion correction             ... done (  0.1 sec)
                    ***********************HURRAY********************

CARTESIAN COORDINATES (ANGSTROEM)
---------------------------------
  C     -0.708732   -1.063855   -0.002369
  C     -1.292302    0.229103   -0.000395
  C     -0.481826    1.399334   -0.000875
  C      0.868824    1.280619   -0.001119
  C      1.464954   -0.009231   -0.001219
  C      0.645532   -1.172473   -0.002533
  H      1.117190   -2.145455   -0.003261
  C      2.850146   -0.140309    0.000592
  C      4.055167   -0.257253    0.002311
  H      5.119510   -0.357432    0.003402
  H      1.502956    2.156008   -0.001371
  H     -0.971015    2.364174   -0.000035
  O     -2.573694    0.441987    0.002061
  C     -3.499334   -0.659037    0.001830
  H     -4.483628   -0.202650   -0.000441
  H     -3.357582   -1.260415   -0.894940
  H     -3.360844   -1.258387    0.900620
  H     -1.329577   -1.947245   -0.002058

 Multiplicity           Mult            ....    2
 Number of Electrons    NEL             ....   69
 Basis Dimension        Dim             ....  644

ORBITAL ENERGIES
----------------
                 SPIN UP ORBITALS
  NO   OCC          E(Eh)            E(eV)
   0   1.0000     -19.320090      -525.7264
   1   1.0000     -10.364124      -282.0221
   2   1.0000     -10.318854      -280.7903
   3   1.0000     -10.290743      -280.0254
   4   1.0000     -10.283220      -279.8207
   5   1.0000     -10.278859      -279.7020
   6   1.0000     -10.278141      -279.6824
   7   1.0000     -10.276600      -279.6405
   8   1.0000     -10.276514      -279.6382
   9   1.0000     -10.272286      -279.5231
  10   1.0000      -1.180335       -32.1186
  11   1.0000      -0.943821       -25.6827
  12   1.0000      -0.862283       -23.4639
  13   1.0000      -0.831122       -22.6160
  14   1.0000      -0.807797       -21.9813
  15   1.0000      -0.764628       -20.8066
  16   1.0000      -0.686942       -18.6926
  17   1.0000      -0.667362       -18.1598
  18   1.0000      -0.608451       -16.5568
  19   1.0000      -0.587860       -15.9965
  20   1.0000      -0.557331       -15.1657
  21   1.0000      -0.551500       -15.0071
  22   1.0000      -0.540834       -14.7168
  23   1.0000      -0.494931       -13.4677
  24   1.0000      -0.483432       -13.1549
  25   1.0000      -0.468572       -12.7505
  26   1.0000      -0.452241       -12.3061
  27   1.0000      -0.449737       -12.2380
  28   1.0000      -0.417141       -11.3510
  29   1.0000      -0.412063       -11.2128
  30   1.0000      -0.381438       -10.3794
  31   1.0000      -0.355843        -9.6830
  32   1.0000      -0.333971        -9.0878
  33   1.0000      -0.321631        -8.7520
  34   1.0000      -0.281777        -7.6676
  35   0.0000      -0.079107        -2.1526
  36   0.0000      -0.047760        -1.2996
  37   0.0000      -0.002291        -0.0623
  38   0.0000       0.006480         0.1763
  39   0.0000       0.008950         0.2435

                 SPIN DOWN ORBITALS
  NO   OCC          E(Eh)            E(eV)
   0   1.0000     -19.314609      -525.5772
   1   1.0000     -10.361795      -281.9588
   2   1.0000     -10.313560      -280.6462
   3   1.0000     -10.290923      -280.0303
   4   1.0000     -10.283595      -279.8308
   5   1.0000     -10.279060      -279.7075
   6   1.0000     -10.275161      -279.6013
   7   1.0000     -10.275120      -279.6002
   8   1.0000     -10.274805      -279.5917
   9   1.0000     -10.272384      -279.5258
  10   1.0000      -1.170079       -31.8395
  11   1.0000      -0.936455       -25.4822
  12   1.0000      -0.853820       -23.2336
  13   1.0000      -0.828988       -22.5579
  14   1.0000      -0.800363       -21.7790
  15   1.0000      -0.756556       -20.5869
  16   1.0000      -0.682265       -18.5654
  17   1.0000      -0.663323       -18.0499
  18   1.0000      -0.605623       -16.4798
  19   1.0000      -0.584017       -15.8919
  20   1.0000      -0.555067       -15.1041
  21   1.0000      -0.547556       -14.8998
  22   1.0000      -0.520588       -14.1659
  23   1.0000      -0.492536       -13.4026
  24   1.0000      -0.482380       -13.1262
  25   1.0000      -0.466499       -12.6941
  26   1.0000      -0.448592       -12.2068
  27   1.0000      -0.435214       -11.8428
  28   1.0000      -0.415610       -11.3093
  29   1.0000      -0.392572       -10.6824
  30   1.0000      -0.378394       -10.2966
  31   1.0000      -0.330676        -8.9981
  32   1.0000      -0.327965        -8.9244
  33   1.0000      -0.316666        -8.6169
  34   0.0000      -0.194413        -5.2902
  35   0.0000      -0.053233        -1.4485
  36   0.0000      -0.035724        -0.9721
  37   0.0000      -0.001674        -0.0455
  38   0.0000       0.007181         0.1954

MULLIKEN ATOMIC CHARGES AND SPIN POPULATIONS
--------------------------------------------
   0 C :   -0.310880    0.071286
   1 C :    1.206362    0.158282
   2 C :   -0.759883    0.090447
   3 C :   -1.084073   -0.071182
   4 C :    1.315744    0.365750
   5 C :   -1.199272   -0.031130
   6 H :   -0.072852   -0.003973
   7 C :    1.293932   -0.111463
   8 C :   -0.801289    0.349681
   9 H :    0.366334   -0.009962
  10 H :   -0.039164   -0.001385
  11 H :    0.716609    0.003413
  12 O :   -0.581190    0.177404
  13 C :   -0.710418   -0.013177
  14 H :    0.273816    0.001183
  15 H :    0.343948    0.007592
  16 H :    0.343550    0.007814
  17 H :    0.698726    0.009421
Sum of atomic charges         :    1.0000000

LOEWDIN ATOMIC CHARGES AND SPIN POPULATIONS
-------------------------------------------
   0 C :    0.286159    0.072416
   1 C :   -0.333865    0.131564
   2 C :    0.280680    0.077643
   3 C :    0.257705    0.031121
   4 C :   -0.154529    0.145757
   5 C :    0.267947    0.046604
   6 H :   -0.137190   -0.000572
   7 C :    0.053095    0.068918
   8 C :    0.506368    0.186420
   9 H :   -0.237542    0.044523
  10 H :   -0.140392   -0.004546
  11 H :   -0.143615    0.011695
  12 O :    0.670343    0.154325
  13 C :    0.446668    0.016001
  14 H :   -0.158702   -0.000401
  15 H :   -0.150584    0.004083
  16 H :   -0.149966    0.004105
  17 H :   -0.162579    0.010343

  Mayer bond orders larger than 0.100000
B(  0-C ,  1-C ) :   0.9709 B(  0-C ,  2-C ) :   0.1329 B(  0-C ,  4-C ) :   0.5794
B(  0-C ,  5-C ) :   1.3176 B(  0-C ,  6-H ) :  -0.1094 B(  0-C ,  7-C ) :  -0.2224
B(  0-C , 17-H ) :   0.1059 B(  1-C ,  2-C ) :   0.7825 B(  1-C ,  3-C ) :  -0.4869
B(  1-C ,  4-C ) :  -0.1937 B(  1-C ,  5-C ) :  -0.4698 B(  1-C ,  7-C ) :   0.3153
B(  1-C , 10-H ) :  -0.1042 B(  1-C , 11-H ) :   0.1858 B(  1-C , 12-O ) :   0.5798
B(  1-C , 17-H ) :   0.1663 B(  2-C ,  3-C ) :   1.5608 B(  2-C ,  4-C ) :   0.4542
B(  2-C ,  7-C ) :  -0.1107 B(  2-C , 12-O ) :   0.2952 B(  3-C ,  4-C ) :   0.3781
B(  3-C ,  5-C ) :  -0.4348 B(  3-C ,  6-H ) :   0.2025 B(  3-C ,  7-C ) :   0.3252
B(  3-C , 10-H ) :   1.6681 B(  4-C ,  5-C ) :   0.4360 B(  4-C ,  7-C ) :   0.2251
B(  4-C ,  8-C ) :   0.6573 B(  4-C , 10-H ) :   0.1403 B(  4-C , 12-O ) :   0.1098
B(  5-C ,  6-H ) :   1.7960 B(  5-C ,  7-C ) :   0.2286 B(  5-C ,  8-C ) :  -0.1302
B(  5-C , 10-H ) :   0.1777 B(  6-H ,  7-C ) :  -0.2721 B(  6-H ,  8-C ) :  -0.2890
B(  6-H , 10-H ) :   0.4251 B(  7-C ,  8-C ) :   1.5759 B(  7-C ,  9-H ) :  -0.2818
B(  7-C , 10-H ) :  -0.3411 B(  8-C ,  9-H ) :   1.1811 B(  8-C , 10-H ) :  -0.2855
B(  8-C , 17-H ) :   0.1498 B( 12-O , 13-C ) :   0.9587 B( 13-C , 14-H ) :   0.9617
B( 13-C , 15-H ) :   0.8490 B( 13-C , 16-H ) :   0.8495

Dispersion correction           -0.016066444
FINAL SINGLE POINT ENERGY      -422.378997391884

DIPOLE MOMENT
-------------

Method             : SCF
Type of density    : Electron Density
Multiplicity       :   2
Irrep              :   0
Energy             :  -422.3629309475084028 Eh
Relativity type    :
Basis              : AO
                                X                 Y                 Z
Electronic contribution:      5.103180221       1.793558508      -0.002260523
Nuclear contribution   :     -5.438302807      -2.462578616       0.002422233
                        -----------------------------------------
Total Dipole Moment    :     -0.335122586      -0.669020108       0.000161710
                        -----------------------------------------
Magnitude (a.u.)       :      0.748261371
Magnitude (Debye)      :      1.901929256

Rotational constants in cm-1:             0.157414             0.024284             0.021124
Rotational constants in MHz :          4719.157465           728.001888           633.274924

                             ****ORCA TERMINATED NORMALLY****
TOTAL RUN TIME: 0 days 0 hours 31 minutes 37 seconds 498 msec
