                         Program Version 6.0.0  -   RELEASE  -
|  1> !TPSSh opt aug-cc-pVTZ d3 TightSCF SlowConv RIJCOSX defgrid2
|  2>
|  3> %pal
|  4> nprocs 8
|  5> end
|  6>
|  7> %scf
|  8> MaxIter 1500
|  9> end
| 10>
| 11> %maxcore 3500
| 12>
| 13> !CPCM
| 14> %cpcm smd true
| 15> SMDsolvent "MeCN"
| 16> surfacetype gepol_ses
| 17> rsolv 2.19
| 18> end
| 19>
| 20> * xyz 1 2
| 21> C           0.96002552011709     -1.32253975774944      0.00002107203161
| 22> C           2.30946577689281     -1.05292578484351     -0.00001183018851
| 23> C           2.75162476164071      0.28756052755572     -0.00002650301661
| 24> C           1.83902538005307      1.36187223575537     -0.00000118304244
| 25> C           0.48711647576379      1.10797066538425      0.00002893131122
| 26> C           0.02041417697925     -0.24724272024865      0.00003631726405
| 27> C          -1.36049677571781     -0.55035510408661      0.00004151636512
| 28> N          -2.24435922885682      0.43165315940707      0.00003462017491
| 29> O          -3.46568256477989     -0.02410885729296      0.00002059528734
| 30> H          -4.06414072403569      0.75247060999126      0.00003013023410
| 31> H          -1.71241527206750     -1.59215357045924      0.00004127844656
| 32> H          -0.24324441524782      1.92013568517355      0.00004228420146
| 33> H           2.20910910746605      2.39016696582870     -0.00001172730682
| 34> H           3.82614866589464      0.49606739820897     -0.00005739041351
| 35> H           3.03863533465800     -1.86708723654366     -0.00002808352063
| 36> H           0.59646668124012     -2.35410821608081      0.00003057217215
| 37> *
| 38>
| 39>                          ****END OF INPUT****
 Total Charge           Charge          ....    1
 Multiplicity           Mult            ....    2
 Number of Electrons    NEL             ....   63
Dispersion correction           -0.018527216
FINAL SINGLE POINT ENERGY      -400.852005577157
Dispersion correction             ... done (  0.1 sec)
Dispersion correction           -0.018572663
FINAL SINGLE POINT ENERGY      -400.853368635416
Dispersion correction             ... done (  0.1 sec)
Dispersion correction           -0.018584672
FINAL SINGLE POINT ENERGY      -400.853595575767
Dispersion correction             ... done (  0.1 sec)
Dispersion correction           -0.018580529
FINAL SINGLE POINT ENERGY      -400.853635476709
Dispersion correction             ... done (  0.1 sec)
Dispersion correction           -0.018578297
FINAL SINGLE POINT ENERGY      -400.853640584789
Dispersion correction             ... done (  0.1 sec)
                    ***********************HURRAY********************

CARTESIAN COORDINATES (ANGSTROEM)
---------------------------------
  C      0.954371   -1.315825    0.001654
  C      2.300110   -1.051773   -0.001937
  C      2.745719    0.283569   -0.002346
  C      1.839601    1.359586    0.000787
  C      0.491847    1.113725    0.003477
  C      0.024608   -0.237657    0.003654
  C     -1.351289   -0.548739    0.003414
  N     -2.230284    0.437825   -0.000511
  O     -3.479012   -0.051656   -0.005894
  H     -4.060045    0.737662   -0.006696
  H     -1.686669   -1.582213    0.004589
  H     -0.225252    1.922288    0.005937
  H      2.212482    2.374513    0.000507
  H      3.809228    0.485783   -0.005089
  H      3.020453   -1.858041   -0.004276
  H      0.581825   -2.331673    0.002921

 Multiplicity           Mult            ....    2
 Number of Electrons    NEL             ....   63
 Basis Dimension        Dim             ....  575

ORBITAL ENERGIES
----------------
                 SPIN UP ORBITALS
  NO   OCC          E(Eh)            E(eV)
   0   1.0000     -19.181679      -521.9600
   1   1.0000     -14.379331      -391.2815
   2   1.0000     -10.209375      -277.8112
   3   1.0000     -10.191192      -277.3164
   4   1.0000     -10.176771      -276.9240
   5   1.0000     -10.166950      -276.6568
   6   1.0000     -10.165612      -276.6204
   7   1.0000     -10.153903      -276.3018
   8   1.0000     -10.151625      -276.2398
   9   1.0000      -1.156212       -31.4621
  10   1.0000      -0.915481       -24.9115
  11   1.0000      -0.872961       -23.7545
  12   1.0000      -0.783637       -21.3239
  13   1.0000      -0.772439       -21.0191
  14   1.0000      -0.675405       -18.3787
  15   1.0000      -0.632079       -17.1998
  16   1.0000      -0.597225       -16.2513
  17   1.0000      -0.567207       -15.4345
  18   1.0000      -0.538305       -14.6480
  19   1.0000      -0.505081       -13.7440
  20   1.0000      -0.486726       -13.2445
  21   1.0000      -0.480068       -13.0633
  22   1.0000      -0.457803       -12.4574
  23   1.0000      -0.442655       -12.0453
  24   1.0000      -0.436046       -11.8654
  25   1.0000      -0.411004       -11.1840
  26   1.0000      -0.373925       -10.1750
  27   1.0000      -0.362969        -9.8769
  28   1.0000      -0.341414        -9.2904
  29   1.0000      -0.325011        -8.8440
  30   1.0000      -0.289471        -7.8769
  31   1.0000      -0.275133        -7.4868
  32   0.0000      -0.125899        -3.4259
  33   0.0000      -0.057175        -1.5558
  34   0.0000      -0.024908        -0.6778
  35   0.0000      -0.009623        -0.2618
  36   0.0000      -0.002023        -0.0550

                 SPIN DOWN ORBITALS
  NO   OCC          E(Eh)            E(eV)
   0   1.0000     -19.175227      -521.7845
   1   1.0000     -14.372075      -391.0841
   2   1.0000     -10.209774      -277.8221
   3   1.0000     -10.188391      -277.2402
   4   1.0000     -10.172620      -276.8111
   5   1.0000     -10.165284      -276.6114
   6   1.0000     -10.164633      -276.5937
   7   1.0000     -10.154247      -276.3111
   8   1.0000     -10.152447      -276.2621
   9   1.0000      -1.144008       -31.1300
  10   1.0000      -0.906198       -24.6589
  11   1.0000      -0.865072       -23.5398
  12   1.0000      -0.775968       -21.1152
  13   1.0000      -0.769412       -20.9368
  14   1.0000      -0.670813       -18.2537
  15   1.0000      -0.629516       -17.1300
  16   1.0000      -0.593428       -16.1480
  17   1.0000      -0.562621       -15.3097
  18   1.0000      -0.535969       -14.5845
  19   1.0000      -0.501780       -13.6541
  20   1.0000      -0.477995       -13.0069
  21   1.0000      -0.455405       -12.3922
  22   1.0000      -0.451803       -12.2942
  23   1.0000      -0.442218       -12.0334
  24   1.0000      -0.433900       -11.8070
  25   1.0000      -0.393029       -10.6949
  26   1.0000      -0.373190       -10.1550
  27   1.0000      -0.361223        -9.8294
  28   1.0000      -0.319037        -8.6814
  29   1.0000      -0.316934        -8.6242
  30   1.0000      -0.285202        -7.7607
  31   0.0000      -0.218295        -5.9401
  32   0.0000      -0.099594        -2.7101
  33   0.0000      -0.049224        -1.3394
  34   0.0000      -0.008632        -0.2349
  35   0.0000      -0.007728        -0.2103

MULLIKEN ATOMIC CHARGES AND SPIN POPULATIONS
--------------------------------------------
   0 C :   -0.567433    0.040773
   1 C :   -0.386884   -0.021497
   2 C :   -0.055105    0.262129
   3 C :   -0.562122   -0.065429
   4 C :   -0.499895    0.091539
   5 C :    1.260468    0.209579
   6 C :    0.516534   -0.016981
   7 N :   -0.466653    0.300078
   8 O :   -0.196602    0.200828
   9 H :    0.217429   -0.003221
  10 H :    0.329500    0.000385
  11 H :    0.079024    0.000913
  12 H :    0.468312   -0.002178
  13 H :    0.422414    0.005659
  14 H :    0.488621   -0.000465
  15 H :   -0.047612   -0.002112
Sum of atomic charges         :    1.0000000

LOEWDIN ATOMIC CHARGES AND SPIN POPULATIONS
-------------------------------------------
   0 C :    0.273563    0.055710
   1 C :    0.275913    0.042212
   2 C :    0.291237    0.133605
   3 C :    0.271662    0.032826
   4 C :    0.266061    0.070270
   5 C :   -0.101732    0.113465
   6 C :    0.088737    0.060582
   7 N :    0.221630    0.238522
   8 O :    0.750826    0.199708
   9 H :   -0.419124    0.014710
  10 H :   -0.149883   -0.003967
  11 H :   -0.171574    0.009046
  12 H :   -0.155293   -0.003277
  13 H :   -0.141723    0.029784
  14 H :   -0.153726    0.000004
  15 H :   -0.146574    0.006800

  Mayer bond orders larger than 0.100000
B(  0-C ,  1-C ) :   1.5182 B(  0-C ,  4-C ) :  -0.2276 B(  0-C ,  5-C ) :   0.4571
B(  0-C , 14-H ) :  -0.1177 B(  0-C , 15-H ) :   1.4297 B(  1-C ,  2-C ) :   1.3245
B(  1-C , 14-H ) :   0.5179 B(  2-C ,  3-C ) :   1.2491 B(  2-C ,  5-C ) :  -0.1583
B(  2-C ,  6-C ) :   0.1402 B(  2-C , 12-H ) :   0.1114 B(  2-C , 13-H ) :   0.5892
B(  3-C ,  4-C ) :   1.5476 B(  3-C , 12-H ) :   0.5384 B(  4-C ,  5-C ) :   0.6084
B(  4-C ,  6-C ) :   0.1400 B(  4-C , 11-H ) :   1.0768 B(  5-C ,  6-C ) :   0.5715
B(  5-C , 12-H ) :   0.1118 B(  5-C , 14-H ) :   0.1146 B(  6-C ,  7-N ) :   0.5082
B(  6-C , 10-H ) :   0.6760 B(  6-C , 15-H ) :  -0.1385 B(  7-N ,  8-O ) :   0.7592
B(  8-O ,  9-H ) :   0.9609 B( 11-H , 15-H ) :   0.1003

Dispersion correction           -0.018577838
FINAL SINGLE POINT ENERGY      -400.853642586144

DIPOLE MOMENT
-------------

Method             : SCF
Type of density    : Electron Density
Multiplicity       :   2
Irrep              :   0
Energy             :  -400.8350647479546751 Eh
Relativity type    :
Basis              : AO
                                X                 Y                 Z
Electronic contribution:     -3.290603719       0.143597603       0.002459451
Nuclear contribution   :      3.312608889      -0.249848327      -0.002118813
                        -----------------------------------------
Total Dipole Moment    :      0.022005170      -0.106250724       0.000340639
                        -----------------------------------------
Magnitude (a.u.)       :      0.108506036
Magnitude (Debye)      :      0.275800425

Rotational constants in cm-1:             0.167158             0.031076             0.026204
Rotational constants in MHz :          5011.255849           931.623194           785.582211

                             ****ORCA TERMINATED NORMALLY****
TOTAL RUN TIME: 0 days 0 hours 25 minutes 10 seconds 332 msec
