                         Program Version 6.0.0  -   RELEASE  -
|  1> !TPSSh aug-cc-pVTZ d3 TightSCF SlowConv RIJCOSX defgrid2
|  2>
|  3> %pal
|  4> nprocs 4
|  5> end
|  6>
|  7> %scf
|  8> MaxIter 1500
|  9> end
| 10>
| 11> %maxcore 3000
| 12>
| 13> !CPCM
| 14> %cpcm smd true
| 15> SMDsolvent "MeCN"
| 16> surfacetype gepol_ses
| 17> rsolv 2.19
| 18> end
| 19>
| 20> * xyz 0 1
| 21> C          -0.22997754219743     -1.20609091856311     -0.00046087004095
| 22> C           1.16128384069195     -1.20031253591911      0.00041394587123
| 23> C           1.87254503831811     -0.00003037040882      0.00072012391754
| 24> C           1.16131377140118      1.20026930808148      0.00041360790641
| 25> C          -0.22994707632405      1.20608173416170     -0.00046177829750
| 26> C          -0.95218511536342      0.00000427823419     -0.00003761551285
| 27> N          -2.33340895991450      0.00002157595282      0.04653779431621
| 28> H          -2.79855452143895      0.84821355690402     -0.25483389378867
| 29> H          -2.79857532928795     -0.84816111010491     -0.25482834496791
| 30> H          -0.77344381556999      2.15676174884881      0.00298430668171
| 31> H           1.69817818740019      2.15419904894576     -0.00079679497611
| 32> H           2.96571339060225     -0.00004426352233      0.00028554339021
| 33> H           1.69812535441562     -2.15425546581862     -0.00079688995407
| 34> H          -0.77349762273302     -2.15675758679187      0.00298456545474
| 35> *
| 36>
| 37>                          ****END OF INPUT****

CARTESIAN COORDINATES (ANGSTROEM)
---------------------------------
  C     -0.229978   -1.206091   -0.000461
  C      1.161284   -1.200313    0.000414
  C      1.872545   -0.000030    0.000720
  C      1.161314    1.200269    0.000414
  C     -0.229947    1.206082   -0.000462
  C     -0.952185    0.000004   -0.000038
  N     -2.333409    0.000022    0.046538
  H     -2.798555    0.848214   -0.254834
  H     -2.798575   -0.848161   -0.254828
  H     -0.773444    2.156762    0.002984
  H      1.698178    2.154199   -0.000797
  H      2.965713   -0.000044    0.000286
  H      1.698125   -2.154255   -0.000797
  H     -0.773498   -2.156758    0.002985

 Total Charge           Charge          ....    0
 Multiplicity           Mult            ....    1
 Number of Electrons    NEL             ....   50
 Basis Dimension        Dim             ....  483

ORBITAL ENERGIES
----------------

  NO   OCC          E(Eh)            E(eV)
   0   2.0000     -14.250435      -387.7741
   1   2.0000     -10.153675      -276.2956
   2   2.0000     -10.113623      -275.2057
   3   2.0000     -10.113609      -275.2053
   4   2.0000     -10.107611      -275.0421
   5   2.0000     -10.107607      -275.0420
   6   2.0000     -10.103457      -274.9290
   7   2.0000      -0.895099       -24.3569
   8   2.0000      -0.813952       -22.1488
   9   2.0000      -0.721736       -19.6394
  10   2.0000      -0.702315       -19.1110
  11   2.0000      -0.588554       -16.0154
  12   2.0000      -0.575204       -15.6521
  13   2.0000      -0.501675       -13.6513
  14   2.0000      -0.483304       -13.1514
  15   2.0000      -0.455199       -12.3866
  16   2.0000      -0.409233       -11.1358
  17   2.0000      -0.403169       -10.9708
  18   2.0000      -0.393859       -10.7175
  19   2.0000      -0.371311       -10.1039
  20   2.0000      -0.336190        -9.1482
  21   2.0000      -0.317332        -8.6350
  22   2.0000      -0.299729        -8.1560
  23   2.0000      -0.243496        -6.6259
  24   2.0000      -0.195340        -5.3155
  25   0.0000      -0.021964        -0.5977
  26   0.0000      -0.007331        -0.1995
  27   0.0000      -0.003354        -0.0913
  28   0.0000       0.009357         0.2546
  29   0.0000       0.014280         0.3886

MULLIKEN ATOMIC CHARGES
-----------------------
   0 C :   -0.677613
   1 C :   -0.232769
   2 C :   -0.467281
   3 C :   -0.232780
   4 C :   -0.677502
   5 C :    1.070041
   6 N :   -0.580420
   7 H :    0.018864
   8 H :    0.018999
   9 H :    0.380828
  10 H :    0.290114
  11 H :    0.418228
  12 H :    0.290165
  13 H :    0.381127
Sum of atomic charges:   -0.0000000

LOEWDIN ATOMIC CHARGES
----------------------
   0 C :    0.197353
   1 C :    0.158032
   2 C :    0.159249
   3 C :    0.158032
   4 C :    0.197352
   5 C :   -0.272582
   6 N :    0.851704
   7 H :   -0.284449
   8 H :   -0.284449
   9 H :   -0.171492
  10 H :   -0.175727
  11 H :   -0.185804
  12 H :   -0.175728
  13 H :   -0.171492

  Mayer bond orders larger than 0.100000
B(  0-C ,  1-C ) :   1.3946 B(  0-C ,  2-C ) :   0.2444 B(  0-C ,  4-C ) :   0.4075
B(  0-C ,  5-C ) :   0.9072 B(  0-C , 13-H ) :   0.4040 B(  1-C ,  2-C ) :   1.3189
B(  1-C ,  3-C ) :  -0.1113 B(  1-C ,  5-C ) :  -0.2476 B(  1-C , 12-H ) :   0.8067
B(  1-C , 13-H ) :   0.1048 B(  2-C ,  3-C ) :   1.3196 B(  2-C ,  4-C ) :   0.2447
B(  2-C , 11-H ) :   0.5221 B(  3-C ,  4-C ) :   1.3945 B(  3-C ,  5-C ) :  -0.2477
B(  3-C ,  9-H ) :   0.1047 B(  3-C , 10-H ) :   0.8063 B(  4-C ,  5-C ) :   0.9070
B(  4-C ,  9-H ) :   0.4040 B(  5-C ,  6-N ) :   0.3747 B(  5-C ,  9-H ) :   0.1487
B(  5-C , 13-H ) :   0.1489 B(  6-N ,  7-H ) :   1.0949 B(  6-N ,  8-H ) :   1.0947

Dispersion correction           -0.015270146
FINAL SINGLE POINT ENERGY      -287.755950497212

DIPOLE MOMENT
-------------

Method             : SCF
Type of density    : Electron Density
Multiplicity       :   1
Irrep              :   0
Energy             :  -287.7406803510250484 Eh
Relativity type    :
Basis              : AO
                                X                 Y                 Z
Electronic contribution:     -0.121581150       0.000003177       0.042444801
Nuclear contribution   :     -0.743352745       0.000007126      -0.484101489
                        -----------------------------------------
Total Dipole Moment    :     -0.864933895       0.000010303      -0.441656688
                        -----------------------------------------
Magnitude (a.u.)       :      0.971170053
Magnitude (Debye)      :      2.468518099

Rotational constants in cm-1:             0.187523             0.086550             0.059285
Rotational constants in MHz :          5621.786837          2594.705838          1777.328239

                             ****ORCA TERMINATED NORMALLY****
TOTAL RUN TIME: 0 days 0 hours 3 minutes 30 seconds 453 msec
