                         Program Version 6.0.0  -   RELEASE  -
|  1> !PBE0 freq def2-SV(p) d3 TightSCF SlowConv RIJCOSX defgrid2
|  2>
|  3> %pal
|  4> nprocs 12
|  5> end
|  6>
|  7> %scf
|  8> MaxIter 1500
|  9> end
| 10>
| 11> %maxcore 5000
| 12>
| 13> !CPCM
| 14> %cpcm smd true
| 15> SMDsolvent "MeCN"
| 16> surfacetype gepol_ses
| 17> rsolv 2.19
| 18> end
| 19>
| 20> * xyz 1 2
| 21> C           0.86959187398476     -1.42690603400123     -0.00084286444389
| 22> C           2.10274604692155     -0.72691826550296      0.00067898158094
| 23> C           2.17715767477914      0.67914152923841     -0.00018202781481
| 24> C           1.02949688304484      1.45017953734302     -0.00128391088923
| 25> C          -0.22429984276877      0.77451096287471     -0.00156989775738
| 26> C          -0.24891335922138     -0.64528895015976     -0.00248808034776
| 27> O          -1.55152882399993     -1.07928329441515     -0.00284024228092
| 28> C          -2.31198724157095     -0.00461755956580     -0.00020231667982
| 29> C          -1.55888456592560      1.18383320136613      0.00041224596801
| 30> H          -1.96673677189330      2.19392069867628      0.00334580584820
| 31> H          -3.39135951330175     -0.16395352528590      0.00256044092833
| 32> H           1.06982393237516      2.54153379887266     -0.00194363097757
| 33> H           3.15826112279509      1.15898942565008      0.00061394948436
| 34> H           3.02837859066229     -1.30882250028668      0.00350716047308
| 35> H           0.82731549411887     -2.51735842480378      0.00030498690846
| 36> *
| 37>
| 38>                          ****END OF INPUT****

CARTESIAN COORDINATES (ANGSTROEM)
---------------------------------
  C      0.869592   -1.426906   -0.000843
  C      2.102746   -0.726918    0.000679
  C      2.177158    0.679142   -0.000182
  C      1.029497    1.450180   -0.001284
  C     -0.224300    0.774511   -0.001570
  C     -0.248913   -0.645289   -0.002488
  O     -1.551529   -1.079283   -0.002840
  C     -2.311987   -0.004618   -0.000202
  C     -1.558885    1.183833    0.000412
  H     -1.966737    2.193921    0.003346
  H     -3.391360   -0.163954    0.002560
  H      1.069824    2.541534   -0.001944
  H      3.158261    1.158989    0.000614
  H      3.028379   -1.308823    0.003507
  H      0.827315   -2.517358    0.000305

 Total Charge           Charge          ....    1
 Multiplicity           Mult            ....    2
 Number of Electrons    NEL             ....   61
 Basis Dimension        Dim             ....  138

ORBITAL ENERGIES
----------------
                 SPIN UP ORBITALS
  NO   OCC          E(Eh)            E(eV)
   0   1.0000     -19.344199      -526.3824
   1   1.0000     -10.372670      -282.2547
   2   1.0000     -10.347337      -281.5653
   3   1.0000     -10.303738      -280.3790
   4   1.0000     -10.301809      -280.3265
   5   1.0000     -10.299419      -280.2614
   6   1.0000     -10.294716      -280.1335
   7   1.0000     -10.289397      -279.9887
   8   1.0000     -10.270174      -279.4656
   9   1.0000      -1.212931       -33.0055
  10   1.0000      -0.933932       -25.4136
  11   1.0000      -0.879609       -23.9354
  12   1.0000      -0.825117       -22.4526
  13   1.0000      -0.797892       -21.7117
  14   1.0000      -0.706601       -19.2276
  15   1.0000      -0.668715       -18.1967
  16   1.0000      -0.650502       -17.7011
  17   1.0000      -0.586199       -15.9513
  18   1.0000      -0.562305       -15.3011
  19   1.0000      -0.549184       -14.9441
  20   1.0000      -0.536247       -14.5920
  21   1.0000      -0.497369       -13.5341
  22   1.0000      -0.488857       -13.3025
  23   1.0000      -0.474817       -12.9204
  24   1.0000      -0.449538       -12.2325
  25   1.0000      -0.426759       -11.6127
  26   1.0000      -0.418546       -11.3892
  27   1.0000      -0.400225       -10.8907
  28   1.0000      -0.371313       -10.1039
  29   1.0000      -0.310233        -8.4419
  30   1.0000      -0.292538        -7.9604
  31   0.0000      -0.085329        -2.3219
  32   0.0000      -0.033153        -0.9021
  33   0.0000      -0.003352        -0.0912
  34   0.0000       0.070060         1.9064
  35   0.0000       0.093789         2.5521

                 SPIN DOWN ORBITALS
  NO   OCC          E(Eh)            E(eV)
   0   1.0000     -19.343492      -526.3632
   1   1.0000     -10.366876      -282.0970
   2   1.0000     -10.345776      -281.5229
   3   1.0000     -10.301707      -280.3237
   4   1.0000     -10.300876      -280.3011
   5   1.0000     -10.294324      -280.1228
   6   1.0000     -10.290816      -280.0273
   7   1.0000     -10.289668      -279.9961
   8   1.0000     -10.272257      -279.5223
   9   1.0000      -1.209076       -32.9006
  10   1.0000      -0.928596       -25.2684
  11   1.0000      -0.870870       -23.6976
  12   1.0000      -0.821591       -22.3566
  13   1.0000      -0.784859       -21.3571
  14   1.0000      -0.702538       -19.1170
  15   1.0000      -0.662691       -18.0327
  16   1.0000      -0.645568       -17.5668
  17   1.0000      -0.583200       -15.8697
  18   1.0000      -0.558112       -15.1870
  19   1.0000      -0.533724       -14.5234
  20   1.0000      -0.532619       -14.4933
  21   1.0000      -0.495757       -13.4902
  22   1.0000      -0.485995       -13.2246
  23   1.0000      -0.472652       -12.8615
  24   1.0000      -0.446564       -12.1516
  25   1.0000      -0.416867       -11.3435
  26   1.0000      -0.409309       -11.1379
  27   1.0000      -0.398775       -10.8512
  28   1.0000      -0.341768        -9.3000
  29   1.0000      -0.304197        -8.2776
  30   0.0000      -0.202267        -5.5040
  31   0.0000      -0.051716        -1.4073
  32   0.0000      -0.020777        -0.5654
  33   0.0000       0.022573         0.6143
  34   0.0000       0.071410         1.9432

MULLIKEN ATOMIC CHARGES AND SPIN POPULATIONS
--------------------------------------------
   0 C :   -0.124511   -0.015231
   1 C :   -0.042736    0.351138
   2 C :   -0.093631   -0.166122
   3 C :   -0.043752    0.272316
   4 C :    0.063714   -0.014223
   5 C :    0.230460    0.077895
   6 O :   -0.191164    0.012939
   7 C :    0.193184    0.337087
   8 C :   -0.097106    0.196555
   9 H :    0.194491   -0.009579
  10 H :    0.223902   -0.018138
  11 H :    0.167880   -0.013226
  12 H :    0.164613    0.005938
  13 H :    0.183566   -0.017648
  14 H :    0.171089    0.000299
Sum of atomic charges         :    1.0000000

LOEWDIN ATOMIC CHARGES AND SPIN POPULATIONS
-------------------------------------------
   0 C :   -0.079732    0.002619
   1 C :   -0.004818    0.284553
   2 C :   -0.118620   -0.095237
   3 C :   -0.021644    0.218081
   4 C :   -0.025295    0.032505
   5 C :    0.071969    0.077214
   6 O :    0.041051    0.027037
   7 C :    0.115525    0.310965
   8 C :   -0.054021    0.170339
   9 H :    0.190227   -0.005453
  10 H :    0.188164   -0.010054
  11 H :    0.174615   -0.006853
  12 H :    0.166555    0.002840
  13 H :    0.173330   -0.008673
  14 H :    0.182694    0.000118

  Mayer bond orders larger than 0.100000
B(  0-C ,  1-C ) :   1.2340 B(  0-C ,  5-C ) :   1.4731 B(  0-C , 14-H ) :   0.9677
B(  1-C ,  2-C ) :   1.3160 B(  1-C , 13-H ) :   0.9457 B(  2-C ,  3-C ) :   1.4482
B(  2-C , 12-H ) :   0.9564 B(  3-C ,  4-C ) :   1.1711 B(  3-C , 11-H ) :   0.9635
B(  4-C ,  5-C ) :   1.1736 B(  4-C ,  8-C ) :   1.3543 B(  5-C ,  6-O ) :   1.0200
B(  6-O ,  7-C ) :   1.2419 B(  7-C ,  8-C ) :   1.2676 B(  7-C , 10-H ) :   0.9395
B(  8-C ,  9-H ) :   0.9636

Dispersion correction           -0.013694954
FINAL SINGLE POINT ENERGY      -382.747393904254

DIPOLE MOMENT
-------------

Method             : SCF
Type of density    : Electron Density
Multiplicity       :   2
Irrep              :   0
Energy             :  -382.7336989498466551 Eh
Relativity type    :
Basis              : AO
                                X                 Y                 Z
Electronic contribution:     -3.014793077      -1.171167260      -0.008501262
Nuclear contribution   :      2.535961847       1.767108459       0.012738353
                        -----------------------------------------
Total Dipole Moment    :     -0.478831230       0.595941198       0.004237090
                        -----------------------------------------
Magnitude (a.u.)       :      0.764488856
Magnitude (Debye)      :      1.943176246

VIBRATIONAL FREQUENCIES
-----------------------

Scaling factor for frequencies =  1.000000000  (already applied!)

     0:       0.00 cm**-1
     1:       0.00 cm**-1
     2:       0.00 cm**-1
     3:       0.00 cm**-1
     4:       0.00 cm**-1
     5:       0.00 cm**-1
     6:     185.57 cm**-1
     7:     232.22 cm**-1
     8:     396.06 cm**-1
     9:     407.77 cm**-1
    10:     505.12 cm**-1
    11:     521.00 cm**-1
    12:     547.43 cm**-1
    13:     615.89 cm**-1
    14:     730.34 cm**-1
    15:     773.52 cm**-1
    16:     782.31 cm**-1
    17:     813.14 cm**-1
    18:     871.22 cm**-1
    19:     886.94 cm**-1
    20:     891.23 cm**-1
    21:     924.63 cm**-1
    22:     981.34 cm**-1
    23:    1017.76 cm**-1
    24:    1020.36 cm**-1
    25:    1050.77 cm**-1
    26:    1113.83 cm**-1
    27:    1134.07 cm**-1
    28:    1164.86 cm**-1
    29:    1209.40 cm**-1
    30:    1280.53 cm**-1
    31:    1288.17 cm**-1
    32:    1406.99 cm**-1
    33:    1414.97 cm**-1
    34:    1471.09 cm**-1
    35:    1485.57 cm**-1
    36:    1527.20 cm**-1
    37:    1636.72 cm**-1
    38:    1707.60 cm**-1
    39:    3233.12 cm**-1
    40:    3241.34 cm**-1
    41:    3250.28 cm**-1
    42:    3255.75 cm**-1
    43:    3286.29 cm**-1
    44:    3299.14 cm**-1

IR SPECTRUM
-----------

 Mode   freq       eps      Int      T**2         TX        TY        TZ
       cm**-1   L/(mol*cm) km/mol    a.u.
----------------------------------------------------------------------------
  6:    185.57   0.003346   16.91  0.005626  (-0.000263 -0.000073  0.075009)
  7:    232.22   0.000027    0.14  0.000036  ( 0.000826  0.000179 -0.005960)
  8:    396.06   0.003043   15.38  0.002398  ( 0.000757  0.000049 -0.048959)
  9:    407.77   0.003755   18.97  0.002873  ( 0.044339  0.030122  0.000205)
 10:    505.12   0.001022    5.16  0.000631  (-0.000248  0.000468 -0.025117)
 11:    521.00   0.000726    3.67  0.000435  ( 0.014609  0.014887  0.000174)
 12:    547.43   0.000084    0.42  0.000048  (-0.000771  0.000024 -0.006876)
 13:    615.89   0.000906    4.58  0.000459  ( 0.020842 -0.004962 -0.000229)
 14:    730.34   0.008234   41.61  0.003518  (-0.000009 -0.000184  0.059314)
 15:    773.52   0.000928    4.69  0.000375  (-0.000339  0.000022 -0.019351)
 16:    782.31   0.000605    3.06  0.000241  ( 0.002807 -0.015279  0.000211)
 17:    813.14   0.015180   76.71  0.005826  (-0.000400  0.000212  0.076324)
 18:    871.22   0.004203   21.24  0.001505  ( 0.007238  0.038118 -0.000155)
 19:    886.94   0.000540    2.73  0.000190  ( 0.000158  0.000157 -0.013787)
 20:    891.23   0.006537   33.03  0.002289  ( 0.047030  0.008774  0.000209)
 21:    924.63   0.000265    1.34  0.000089  ( 0.000276  0.000263  0.009450)
 22:    981.34   0.000961    4.86  0.000306  ( 0.000230 -0.000065 -0.017483)
 23:   1017.76   0.001478    7.47  0.000453  ( 0.015828 -0.014233 -0.000083)
 24:   1020.36   0.000300    1.51  0.000092  (-0.000208  0.000552  0.009556)
 25:   1050.77   0.000748    3.78  0.000222  ( 0.010790  0.010280 -0.000020)
 26:   1113.83   0.002079   10.51  0.000582  (-0.018783 -0.015154  0.000085)
 27:   1134.07   0.005364   27.11  0.001476  ( 0.020874 -0.032252  0.000012)
 28:   1164.86   0.015856   80.13  0.004248  (-0.064225  0.011085  0.000003)
 29:   1209.40   0.024003  121.30  0.006193  ( 0.068588  0.038588  0.000035)
 30:   1280.53   0.013169   66.55  0.003209  ( 0.051402 -0.023812 -0.000106)
 31:   1288.17   0.015847   80.08  0.003839  ( 0.060503 -0.013352 -0.000000)
 32:   1406.99   0.009622   48.63  0.002134  ( 0.044542 -0.012255 -0.000085)
 33:   1414.97   0.023557  119.05  0.005195  ( 0.008131 -0.071618 -0.000003)
 34:   1471.09   0.000907    4.58  0.000192  (-0.013786 -0.001496  0.000115)
 35:   1485.57   0.081037  409.53  0.017023  ( 0.127889  0.025828  0.000068)
 36:   1527.20   0.025539  129.06  0.005219  (-0.055081  0.046741 -0.000018)
 37:   1636.72   0.000542    2.74  0.000103  ( 0.008901 -0.004906 -0.000007)
 38:   1707.60   0.032589  164.69  0.005956  (-0.067068  0.038177 -0.000071)
 39:   3233.12   0.000202    1.02  0.000019  ( 0.000609 -0.004369 -0.000030)
 40:   3241.34   0.000056    0.28  0.000005  (-0.001329  0.001897  0.000047)
 41:   3250.28   0.000469    2.37  0.000045  ( 0.001914 -0.006429  0.000001)
 42:   3255.75   0.000814    4.11  0.000078  (-0.001629 -0.008682  0.000057)
 43:   3286.29   0.004905   24.79  0.000466  ( 0.010753  0.018713  0.000014)
 44:   3299.14   0.002593   13.10  0.000245  (-0.014531  0.005837  0.000158)

--------------------------
THERMOCHEMISTRY AT 298.15K
--------------------------

Temperature         ...   298.15 K
Pressure            ...     1.00 atm
Total Mass          ...   118.13 AMU
Quasi RRHO          ...     True
Cut-Off Frequency   ...     1.00 cm^-1

Throughout the following assumptions are being made:
  (1) The electronic state is orbitally nondegenerate
      but the spin degeneracy is treated
  (2) There are no thermally accessible electronically excited states
  (3) Hindered rotations indicated by low frequency modes are not
      treated as such but are treated as vibrations and this may
      cause some error
  (4) All equations used are the standard statistical mechanics
      equations for an ideal gas
  (5) All vibrations are strictly harmonic

freq.     185.57  E(vib)   ...       0.37
freq.     232.22  E(vib)   ...       0.32
freq.     396.06  E(vib)   ...       0.20
freq.     407.77  E(vib)   ...       0.19
freq.     505.12  E(vib)   ...       0.14
freq.     521.00  E(vib)   ...       0.13
freq.     547.43  E(vib)   ...       0.12
freq.     615.89  E(vib)   ...       0.10
freq.     730.34  E(vib)   ...       0.06
freq.     773.52  E(vib)   ...       0.05
freq.     782.31  E(vib)   ...       0.05
freq.     813.14  E(vib)   ...       0.05
freq.     871.22  E(vib)   ...       0.04
freq.     886.94  E(vib)   ...       0.04
freq.     891.23  E(vib)   ...       0.04
freq.     924.63  E(vib)   ...       0.03
freq.     981.34  E(vib)   ...       0.02
freq.    1017.76  E(vib)   ...       0.02
freq.    1020.36  E(vib)   ...       0.02
freq.    1050.77  E(vib)   ...       0.02
freq.    1113.83  E(vib)   ...       0.01
freq.    1134.07  E(vib)   ...       0.01
freq.    1164.86  E(vib)   ...       0.01
freq.    1209.40  E(vib)   ...       0.01
freq.    1280.53  E(vib)   ...       0.01
freq.    1288.17  E(vib)   ...       0.01
freq.    1406.99  E(vib)   ...       0.00
freq.    1414.97  E(vib)   ...       0.00
freq.    1471.09  E(vib)   ...       0.00
freq.    1485.57  E(vib)   ...       0.00
freq.    1527.20  E(vib)   ...       0.00
freq.    1636.72  E(vib)   ...       0.00
freq.    1707.60  E(vib)   ...       0.00
freq.    3233.12  E(vib)   ...       0.00
freq.    3241.34  E(vib)   ...       0.00
freq.    3250.28  E(vib)   ...       0.00
freq.    3255.75  E(vib)   ...       0.00
freq.    3286.29  E(vib)   ...       0.00
freq.    3299.14  E(vib)   ...       0.00

------------
INNER ENERGY
------------

The inner energy is: U= E(el) + E(ZPE) + E(vib) + E(rot) + E(trans)
    E(el)   - is the total energy from the electronic structure calculation
              = E(kin-el) + E(nuc-el) + E(el-el) + E(nuc-nuc)
    E(ZPE)  - the the zero temperature vibrational energy from the frequency calculation
    E(vib)  - the the finite temperature correction to E(ZPE) due to population
              of excited vibrational states
    E(rot)  - is the rotational thermal energy
    E(trans)- is the translational thermal energy

Summary of contributions to the inner energy U:
Electronic energy                ...   -382.74739390 Eh
Zero point energy                ...      0.11746581 Eh      73.71 kcal/mol
Thermal vibrational correction   ...      0.00332791 Eh       2.09 kcal/mol
Thermal rotational correction    ...      0.00141627 Eh       0.89 kcal/mol
Thermal translational correction ...      0.00141627 Eh       0.89 kcal/mol
-----------------------------------------------------------------------
Total thermal energy                   -382.62376764 Eh

Summary of corrections to the electronic energy:
(perhaps to be used in another calculation)
Total thermal correction                  0.00616045 Eh       3.87 kcal/mol
Non-thermal (ZPE) correction              0.11746581 Eh      73.71 kcal/mol
-----------------------------------------------------------------------
Total correction                          0.12362626 Eh      77.58 kcal/mol

--------
ENTHALPY
--------

The enthalpy is H = U + kB*T
                kB is Boltzmann's constant
Total thermal energy              ...   -382.62376764 Eh
Thermal Enthalpy correction       ...      0.00094421 Eh       0.59 kcal/mol
-----------------------------------------------------------------------
Total Enthalpy                    ...   -382.62282344 Eh

Note: Only C1 symmetry has been detected, increase convergence thresholds
      if your molecule has a higher symmetry. Symmetry factor of 1.0 is
      used for the rotational entropy correction.

Note: Rotational entropy computed according to Herzberg
Infrared and Raman Spectra, Chapter V,1, Van Nostrand Reinhold, 1945
Point Group:  C1, Symmetry Number:   1
Rotational constants in cm-1:     0.129613     0.055854     0.039034

Vibrational entropy computed according to the QRRHO of S. Grimme
Chem.Eur.J. 2012 18 9955 using a reference frequency of 100.0 cm-1

-------
ENTROPY
-------

The entropy contributions are T*S = T*(S(el)+S(vib)+S(rot)+S(trans))
     S(el)   - electronic entropy
     S(vib)  - vibrational entropy
     S(rot)  - rotational entropy
     S(trans)- translational entropy
The entropies will be listed as multiplied by the temperature to get
units of energy

Electronic entropy                ...      0.00065446 Eh      0.41 kcal/mol
Vibrational entropy               ...      0.00497436 Eh      3.12 kcal/mol
Rotational entropy                ...      0.01336852 Eh      8.39 kcal/mol
Translational entropy             ...      0.01910727 Eh     11.99 kcal/mol
-----------------------------------------------------------------------
Final entropy term                ...      0.03810461 Eh     23.91 kcal/mol

In case the symmetry of your molecule has not been determined correctly
or in case you have a reason to use a different symmetry number we print
out the resulting rotational entropy values for sn=1,12:

 non-linear molecules -----------------------------------
|  sn= 1 | S(rot)=       0.01336852 Eh      8.39 kcal/mol|
|  sn= 2 | S(rot)=       0.01271406 Eh      7.98 kcal/mol|
|  sn= 3 | S(rot)=       0.01233123 Eh      7.74 kcal/mol|
|  sn= 4 | S(rot)=       0.01205960 Eh      7.57 kcal/mol|
|  sn= 5 | S(rot)=       0.01184892 Eh      7.44 kcal/mol|
|  sn= 6 | S(rot)=       0.01167677 Eh      7.33 kcal/mol|
|  sn= 7 | S(rot)=       0.01153123 Eh      7.24 kcal/mol|
|  sn= 8 | S(rot)=       0.01140515 Eh      7.16 kcal/mol|
|  sn= 9 | S(rot)=       0.01129394 Eh      7.09 kcal/mol|
|  sn=10 | S(rot)=       0.01119446 Eh      7.02 kcal/mol|
|  sn=11 | S(rot)=       0.01110447 Eh      6.97 kcal/mol|
|  sn=12 | S(rot)=       0.01102231 Eh      6.92 kcal/mol|
 linear molecules ---------------------------------------
|  Dinfh | S(rot)=       0.00838810 Eh      5.26 kcal/mol|
|  Cinfv | S(rot)=       0.00904255 Eh      5.67 kcal/mol|
 --------------------------------------------------------

-------------------
GIBBS FREE ENERGY

                             ****ORCA TERMINATED NORMALLY****
TOTAL RUN TIME: 0 days 0 hours 7 minutes 56 seconds 899 msec
