                         Program Version 6.0.0  -   RELEASE  -
|  1> !B3LYP aug-cc-pVTZ d3 TightSCF SlowConv RIJCOSX defgrid2
|  2>
|  3> %pal
|  4> nprocs 6
|  5> end
|  6>
|  7> %scf
|  8> MaxIter 1500
|  9> end
| 10>
| 11> %maxcore 3000
| 12>
| 13> !CPCM
| 14> %cpcm smd true
| 15> SMDsolvent "MeCN"
| 16> surfacetype gepol_ses
| 17> rsolv 2.19
| 18> end
| 19>
| 20> * xyz 0 1
| 21>   C          -3.63585826706225      2.04954257401693      0.47443381810844
| 22>   C          -4.87241983115698      1.42440470473132      0.35830383536464
| 23>   C          -2.46535713813143      1.38616628453744      0.08266169164053
| 24>   C          -2.55776657547918      0.09897886985960     -0.46306142975693
| 25>   C          -3.79978924952600     -0.51916986182258     -0.59803099874730
| 26>   C          -4.95599832971811      0.13746555345514     -0.17809343648610
| 27>   C          -1.17321606171113      2.13343259763450      0.18535792234855
| 28>   C           0.10741425373326      1.38186400208811      0.36860268391772
| 29>   C           1.28701662685068      1.98211173251186     -0.09199289471826
| 30>   C           2.51435831281490      1.35446088401070      0.08950879777202
| 31>   C           2.57960999330580      0.13076888041485      0.75971104026335
| 32>   C           1.41455681703054     -0.45984247248896      1.24776587112461
| 33>   C           0.18154991647772      0.15903136862244      1.04843910770257
| 34>   O          -1.16409607817297      3.34634804651925      0.11965758705371
| 35>   H          -3.86490029176021     -1.51883268544354     -1.03758855311185
| 36>   H          -5.92944194329363     -0.35260028721037     -0.27615452017651
| 37>   H          -3.54961418329670      3.06533225879298      0.86902811355696
| 38>   H          -5.77986414959084      1.94364611495317      0.68059448976304
| 39>   H          -1.65609565460764     -0.41312956350598     -0.80981363751728
| 40>   H          -0.72685535311036     -0.29990211983977      1.44815127666628
| 41>   H           3.54578493689968     -0.36081337126485      0.90876593254533
| 42>   H           1.46572642491924     -1.40813704309686      1.79081220626573
| 43>   H           1.21423966773037      2.95126688882692     -0.59239016424858
| 44>   H           3.42886668785525      1.82280543469765     -0.28640901233067
| 45> *
| 46>
| 47>                          ****END OF INPUT****

CARTESIAN COORDINATES (ANGSTROEM)
---------------------------------
  C     -3.635858    2.049543    0.474434
  C     -4.872420    1.424405    0.358304
  C     -2.465357    1.386166    0.082662
  C     -2.557767    0.098979   -0.463061
  C     -3.799789   -0.519170   -0.598031
  C     -4.955998    0.137466   -0.178093
  C     -1.173216    2.133433    0.185358
  C      0.107414    1.381864    0.368603
  C      1.287017    1.982112   -0.091993
  C      2.514358    1.354461    0.089509
  C      2.579610    0.130769    0.759711
  C      1.414557   -0.459842    1.247766
  C      0.181550    0.159031    1.048439
  O     -1.164096    3.346348    0.119658
  H     -3.864900   -1.518833   -1.037589
  H     -5.929442   -0.352600   -0.276155
  H     -3.549614    3.065332    0.869028
  H     -5.779864    1.943646    0.680594
  H     -1.656096   -0.413130   -0.809814
  H     -0.726855   -0.299902    1.448151
  H      3.545785   -0.360813    0.908766
  H      1.465726   -1.408137    1.790812
  H      1.214240    2.951267   -0.592390
  H      3.428867    1.822805   -0.286409

 Total Charge           Charge          ....    0
 Multiplicity           Mult            ....    1
 Number of Electrons    NEL             ....   96
 Basis Dimension        Dim             ....  874

ORBITAL ENERGIES
----------------

  NO   OCC          E(Eh)            E(eV)
   0   2.0000     -19.118955      -520.2532
   1   2.0000     -10.266493      -279.3655
   2   2.0000     -10.189712      -277.2762
   3   2.0000     -10.189693      -277.2756
   4   2.0000     -10.186286      -277.1829
   5   2.0000     -10.186246      -277.1819
   6   2.0000     -10.184153      -277.1249
   7   2.0000     -10.184126      -277.1242
   8   2.0000     -10.183439      -277.1055
   9   2.0000     -10.183426      -277.1051
  10   2.0000     -10.181097      -277.0417
  11   2.0000     -10.181070      -277.0410
  12   2.0000     -10.180854      -277.0351
  13   2.0000     -10.180828      -277.0344
  14   2.0000      -1.049846       -28.5678
  15   2.0000      -0.866383       -23.5755
  16   2.0000      -0.860550       -23.4167
  17   2.0000      -0.776946       -21.1418
  18   2.0000      -0.754507       -20.5312
  19   2.0000      -0.751367       -20.4457
  20   2.0000      -0.747606       -20.3434
  21   2.0000      -0.653846       -17.7920
  22   2.0000      -0.615520       -16.7492
  23   2.0000      -0.610585       -16.6149
  24   2.0000      -0.599759       -16.3203
  25   2.0000      -0.556775       -15.1506
  26   2.0000      -0.528189       -14.3727
  27   2.0000      -0.501826       -13.6554
  28   2.0000      -0.470862       -12.8128
  29   2.0000      -0.465517       -12.6674
  30   2.0000      -0.455343       -12.3905
  31   2.0000      -0.445176       -12.1138
  32   2.0000      -0.435098       -11.8396
  33   2.0000      -0.428553       -11.6615
  34   2.0000      -0.423832       -11.5330
  35   2.0000      -0.423713       -11.5298
  36   2.0000      -0.403331       -10.9752
  37   2.0000      -0.377717       -10.2782
  38   2.0000      -0.363758        -9.8984
  39   2.0000      -0.363600        -9.8941
  40   2.0000      -0.357468        -9.7272
  41   2.0000      -0.344385        -9.3712
  42   2.0000      -0.343025        -9.3342
  43   2.0000      -0.271067        -7.3761
  44   2.0000      -0.265257        -7.2180
  45   2.0000      -0.263379        -7.1669
  46   2.0000      -0.261732        -7.1221
  47   2.0000      -0.254988        -6.9386
  48   0.0000      -0.072737        -1.9793
  49   0.0000      -0.026607        -0.7240
  50   0.0000      -0.021209        -0.5771
  51   0.0000      -0.013292        -0.3617
  52   0.0000      -0.004325        -0.1177

MULLIKEN ATOMIC CHARGES
-----------------------
   0 C :   -1.245971
   1 C :   -0.455934
   2 C :    2.085591
   3 C :   -0.587645
   4 C :   -1.017976
   5 C :   -0.136827
   6 C :    0.605176
   7 C :    2.082999
   8 C :   -1.254290
   9 C :   -0.471284
  10 C :   -0.166959
  11 C :   -1.016498
  12 C :   -0.592849
  13 O :   -0.981272
  14 H :    0.455377
  15 H :    0.421408
  16 H :   -0.106269
  17 H :    0.572859
  18 H :    0.200279
  19 H :    0.192258
  20 H :    0.442196
  21 H :    0.464609
  22 H :   -0.117588
  23 H :    0.628609
Sum of atomic charges:    0.0000000

LOEWDIN ATOMIC CHARGES
----------------------
   0 C :    0.194137
   1 C :    0.201269
   2 C :   -0.139283
   3 C :    0.195510
   4 C :    0.206349
   5 C :    0.196041
   6 C :   -0.539970
   7 C :   -0.139264
   8 C :    0.194133
   9 C :    0.201270
  10 C :    0.195952
  11 C :    0.206338
  12 C :    0.195535
  13 O :    0.503149
  14 H :   -0.163788
  15 H :   -0.163275
  16 H :   -0.175949
  17 H :   -0.165403
  18 H :   -0.167180
  19 H :   -0.167031
  20 H :   -0.163287
  21 H :   -0.163770
  22 H :   -0.176116
  23 H :   -0.165365

  Mayer bond orders larger than 0.100000
B(  0-C ,  1-C ) :   1.1662 B(  0-C ,  2-C ) :  -0.1664 B(  0-C ,  3-C ) :  -0.5047
B(  0-C ,  4-C ) :   0.2105 B(  0-C ,  5-C ) :  -0.2236 B(  0-C ,  6-C ) :   0.3554
B(  0-C , 15-H ) :   0.1233 B(  0-C , 16-H ) :   1.5972 B(  0-C , 17-H ) :  -0.1905
B(  1-C ,  2-C ) :   0.1274 B(  1-C ,  4-C ) :   0.2028 B(  1-C ,  5-C ) :   1.1174
B(  1-C , 17-H ) :   0.4471 B(  1-C , 18-H ) :  -0.1297 B(  2-C ,  3-C ) :   0.5202
B(  2-C ,  4-C ) :  -0.1734 B(  2-C ,  6-C ) :   0.1686 B(  2-C ,  7-C ) :  -0.1104
B(  2-C , 16-H ) :  -0.2929 B(  2-C , 17-H ) :   0.1182 B(  2-C , 18-H ) :  -0.1043
B(  3-C ,  4-C ) :   1.2464 B(  3-C ,  5-C ) :  -0.1354 B(  3-C ,  6-C ) :   0.3507
B(  3-C , 18-H ) :   1.3033 B(  4-C ,  5-C ) :   1.2838 B(  4-C , 14-H ) :   0.5897
B(  5-C ,  6-C ) :   0.1563 B(  5-C , 15-H ) :   0.7020 B(  6-C ,  7-C ) :   0.1763
B(  6-C ,  8-C ) :   0.3335 B(  6-C , 10-C ) :   0.1459 B(  6-C , 12-C ) :   0.3410
B(  6-C , 13-O ) :   0.3617 B(  6-C , 16-H ) :  -0.1823 B(  6-C , 22-H ) :  -0.1895
B(  7-C ,  8-C ) :  -0.1599 B(  7-C ,  9-C ) :   0.1247 B(  7-C , 11-C ) :  -0.1600
B(  7-C , 12-C ) :   0.5314 B(  7-C , 19-H ) :  -0.1124 B(  7-C , 22-H ) :  -0.2961
B(  7-C , 23-H ) :   0.1266 B(  8-C ,  9-C ) :   1.1999 B(  8-C , 10-C ) :  -0.2234
B(  8-C , 11-C ) :   0.2082 B(  8-C , 12-C ) :  -0.5024 B(  8-C , 20-H ) :   0.1233
B(  8-C , 22-H ) :   1.6286 B(  8-C , 23-H ) :  -0.1893 B(  9-C , 10-C ) :   1.1455
B(  9-C , 11-C ) :   0.2211 B(  9-C , 19-H ) :  -0.1352 B(  9-C , 23-H ) :   0.3511
B( 10-C , 11-C ) :   1.3141 B( 10-C , 12-C ) :  -0.1311 B( 10-C , 20-H ) :   0.6667
B( 11-C , 12-C ) :   1.2373 B( 11-C , 21-H ) :   0.5644 B( 12-C , 19-H ) :   1.3111
B( 13-O , 16-H ) :   0.2911 B( 13-O , 22-H ) :   0.2918 B( 16-H , 18-H ) :   0.1468
B( 19-H , 22-H ) :   0.1590

Dispersion correction           -0.051052601
FINAL SINGLE POINT ENERGY      -576.552507801491

DIPOLE MOMENT
-------------

Method             : SCF
Type of density    : Electron Density
Multiplicity       :   1
Irrep              :   0
Energy             :  -576.5014552006355188 Eh
Relativity type    :
Basis              : AO
                                X                 Y                 Z
Electronic contribution:      0.023358227       3.127795981      -0.164469172
Nuclear contribution   :     -0.036869412      -4.873128971       0.257597129
                        -----------------------------------------
Total Dipole Moment    :     -0.013511185      -1.745332990       0.093127956
                        -----------------------------------------
Magnitude (a.u.)       :      1.747868019
Magnitude (Debye)      :      4.442727436

Rotational constants in cm-1:             0.057049             0.013730             0.011699
Rotational constants in MHz :          1710.297566           411.601828           350.719713

                             ****ORCA TERMINATED NORMALLY****
TOTAL RUN TIME: 0 days 0 hours 7 minutes 13 seconds 628 msec
