                         Program Version 6.0.0  -   RELEASE  -
|  1> !r2SCAN aug-cc-pVTZ d3 TightSCF SlowConv RIJCOSX defgrid2
|  2>
|  3> %pal
|  4> nprocs 4
|  5> end
|  6>
|  7> %scf
|  8> MaxIter 1500
|  9> end
| 10>
| 11> %maxcore 3000
| 12>
| 13> !CPCM
| 14> %cpcm smd true
| 15> SMDsolvent "MeCN"
| 16> surfacetype gepol_ses
| 17> rsolv 2.19
| 18> end
| 19>
| 20> * xyz 1 2
| 21> C          -1.94605217400678     -1.14602633273004     -0.31228004530400
| 22> C          -1.27946551773851      0.24408441077832     -0.20897492502665
| 23> N           0.01600699561608      0.06744351701809      0.39029195846881
| 24> H           0.06265782979012      0.05391117721033      1.41697390045102
| 25> C           1.25148854883622     -0.09172311464903     -0.32836866073256
| 26> C           1.90177624486915      1.30323669855352     -0.46614331567862
| 27> H           2.17456664951472      1.71255161234552      0.52069722483394
| 28> H           1.23681825466419      2.01161865664215     -0.98621902186020
| 29> H           2.82142391902319      1.18450836803534     -1.06306170139066
| 30> C           2.15574014749067     -1.09567716286551      0.37361772774099
| 31> H           1.67553906419562     -2.08461070530957      0.45496677186850
| 32> H           3.08166929363866     -1.21369164664504     -0.21208064192341
| 33> H           2.44114524539303     -0.74645819923523      1.38177992392114
| 34> H           0.97579493542327     -0.44455026880370     -1.33762113459450
| 35> C          -2.11057591663361      1.23704215369463      0.59223096402592
| 36> H          -1.61862942705056      2.22182755506889      0.65043188583308
| 37> H          -2.30656920422753      0.86778750595824      1.61446351535389
| 38> H          -3.08448029295519      1.37194719861582      0.09450678436786
| 39> H          -1.09645939641756      0.61566302218729     -1.23236453185842
| 40> H          -1.33402126313580     -1.84665456543689     -0.90298607858241
| 41> H          -2.12992557602449     -1.57272950513057      0.68767946741479
| 42> H          -2.91556146026488     -1.01417817530256     -0.82104716732853
| 43> *
| 44>
| 45>                          ****END OF INPUT****

CARTESIAN COORDINATES (ANGSTROEM)
---------------------------------
  C     -1.946052   -1.146026   -0.312280
  C     -1.279466    0.244084   -0.208975
  N      0.016007    0.067444    0.390292
  H      0.062658    0.053911    1.416974
  C      1.251489   -0.091723   -0.328369
  C      1.901776    1.303237   -0.466143
  H      2.174567    1.712552    0.520697
  H      1.236818    2.011619   -0.986219
  H      2.821424    1.184508   -1.063062
  C      2.155740   -1.095677    0.373618
  H      1.675539   -2.084611    0.454967
  H      3.081669   -1.213692   -0.212081
  H      2.441145   -0.746458    1.381780
  H      0.975795   -0.444550   -1.337621
  C     -2.110576    1.237042    0.592231
  H     -1.618629    2.221828    0.650432
  H     -2.306569    0.867788    1.614464
  H     -3.084480    1.371947    0.094507
  H     -1.096459    0.615663   -1.232365
  H     -1.334021   -1.846655   -0.902986
  H     -2.129926   -1.572730    0.687679
  H     -2.915561   -1.014178   -0.821047

 Total Charge           Charge          ....    1
 Multiplicity           Mult            ....    2
 Number of Electrons    NEL             ....   57
 Basis Dimension        Dim             ....  667

ORBITAL ENERGIES
----------------
                 SPIN UP ORBITALS
  NO   OCC          E(Eh)            E(eV)
   0   1.0000     -14.295294      -388.9947
   1   1.0000     -10.113870      -275.2124
   2   1.0000     -10.113733      -275.2087
   3   1.0000     -10.051770      -273.5226
   4   1.0000     -10.051702      -273.5207
   5   1.0000     -10.044267      -273.3184
   6   1.0000     -10.044096      -273.3138
   7   1.0000      -0.980721       -26.6868
   8   1.0000      -0.799231       -21.7482
   9   1.0000      -0.735376       -20.0106
  10   1.0000      -0.678375       -18.4595
  11   1.0000      -0.673353       -18.3229
  12   1.0000      -0.610087       -16.6013
  13   1.0000      -0.602159       -16.3856
  14   1.0000      -0.499378       -13.5888
  15   1.0000      -0.479530       -13.0487
  16   1.0000      -0.460285       -12.5250
  17   1.0000      -0.434770       -11.8307
  18   1.0000      -0.421068       -11.4578
  19   1.0000      -0.394919       -10.7463
  20   1.0000      -0.382270       -10.4021
  21   1.0000      -0.372588       -10.1386
  22   1.0000      -0.367058        -9.9881
  23   1.0000      -0.353608        -9.6222
  24   1.0000      -0.350316        -9.5326
  25   1.0000      -0.337696        -9.1892
  26   1.0000      -0.335457        -9.1283
  27   1.0000      -0.333010        -9.0617
  28   1.0000      -0.284663        -7.7461
  29   0.0000       0.005364         0.1460
  30   0.0000       0.017363         0.4725
  31   0.0000       0.022940         0.6242
  32   0.0000       0.023972         0.6523
  33   0.0000       0.040626         1.1055

                 SPIN DOWN ORBITALS
  NO   OCC          E(Eh)            E(eV)
   0   1.0000     -14.274161      -388.4197
   1   1.0000     -10.114132      -275.2195
   2   1.0000     -10.113995      -275.2158
   3   1.0000     -10.049784      -273.4685
   4   1.0000     -10.049724      -273.4669
   5   1.0000     -10.043734      -273.3039
   6   1.0000     -10.043576      -273.2996
   7   1.0000      -0.945367       -25.7248
   8   1.0000      -0.796727       -21.6800
   9   1.0000      -0.722965       -19.6729
  10   1.0000      -0.673111       -18.3163
  11   1.0000      -0.670311       -18.2401
  12   1.0000      -0.603294       -16.4165
  13   1.0000      -0.599324       -16.3084
  14   1.0000      -0.492661       -13.4060
  15   1.0000      -0.474050       -12.8996
  16   1.0000      -0.431654       -11.7459
  17   1.0000      -0.431356       -11.7378
  18   1.0000      -0.414823       -11.2879
  19   1.0000      -0.392339       -10.6761
  20   1.0000      -0.377135       -10.2624
  21   1.0000      -0.369503       -10.0547
  22   1.0000      -0.365184        -9.9371
  23   1.0000      -0.349024        -9.4974
  24   1.0000      -0.342813        -9.3284
  25   1.0000      -0.334890        -9.1128
  26   1.0000      -0.332896        -9.0586
  27   1.0000      -0.330306        -8.9881
  28   0.0000      -0.192306        -5.2329
  29   0.0000       0.006793         0.1849
  30   0.0000       0.018770         0.5107
  31   0.0000       0.023472         0.6387
  32   0.0000       0.025551         0.6953

MULLIKEN ATOMIC CHARGES AND SPIN POPULATIONS
--------------------------------------------
   0 C :   -0.888606    0.105270
   1 C :    0.906371   -0.093001
   2 N :   -0.096955    0.863559
   3 H :    0.191184   -0.021118
   4 C :    0.904008   -0.093520
   5 C :   -0.887667    0.105936
   6 H :    0.201326    0.006075
   7 H :    0.217200    0.002585
   8 H :    0.170910    0.017251
   9 C :   -0.984556    0.028628
  10 H :    0.195277    0.002198
  11 H :    0.176818    0.002882
  12 H :    0.215350   -0.000380
  13 H :    0.244916    0.007284
  14 C :   -0.986427    0.029126
  15 H :    0.193718    0.002224
  16 H :    0.213778   -0.000298
  17 H :    0.178085    0.003075
  18 H :    0.245560    0.006424
  19 H :    0.214161    0.002667
  20 H :    0.201936    0.005878
  21 H :    0.173612    0.017254
Sum of atomic charges         :    1.0000000

LOEWDIN ATOMIC CHARGES AND SPIN POPULATIONS
-------------------------------------------
   0 C :    0.639951    0.052334
   1 C :   -0.096806    0.095272
   2 N :    0.703144    0.529503
   3 H :   -0.154141    0.068041
   4 C :   -0.096942    0.095531
   5 C :    0.640047    0.052539
   6 H :   -0.139412    0.004806
   7 H :   -0.141974    0.004280
   8 H :   -0.137950    0.014511
   9 C :    0.628122    0.016100
  10 H :   -0.142254    0.001839
  11 H :   -0.141612    0.003930
  12 H :   -0.139491    0.000968
  13 H :   -0.102917    0.006905
  14 C :    0.628037    0.016390
  15 H :   -0.142373    0.001866
  16 H :   -0.139590    0.000987
  17 H :   -0.141474    0.004035
  18 H :   -0.102937    0.006657
  19 H :   -0.142066    0.004266
  20 H :   -0.139344    0.004772
  21 H :   -0.138020    0.014469

  Mayer bond orders larger than 0.100000
B(  0-C ,  1-C ) :   0.5750 B(  0-C ,  2-N ) :   0.1229 B(  0-C , 14-C ) :   0.1870
B(  0-C , 19-H ) :   0.9756 B(  0-C , 20-H ) :   0.9771 B(  0-C , 21-H ) :   1.0272
B(  1-C ,  2-N ) :   0.7891 B(  1-C , 14-C ) :   0.4959 B(  1-C , 18-H ) :   0.8853
B(  2-N ,  3-H ) :   0.8180 B(  2-N ,  4-C ) :   0.7874 B(  2-N ,  5-C ) :   0.1231
B(  4-C ,  5-C ) :   0.5789 B(  4-C ,  9-C ) :   0.4973 B(  4-C , 13-H ) :   0.8839
B(  5-C ,  6-H ) :   0.9776 B(  5-C ,  7-H ) :   0.9712 B(  5-C ,  8-H ) :   1.0310
B(  5-C ,  9-C ) :   0.1866 B(  9-C , 10-H ) :   1.0006 B(  9-C , 11-H ) :   1.0496
B(  9-C , 12-H ) :   0.9622 B( 14-C , 15-H ) :   1.0023 B( 14-C , 16-H ) :   0.9644
B( 14-C , 17-H ) :   1.0471

Dispersion correction           -0.005577731
FINAL SINGLE POINT ENERGY      -292.167570844460

DIPOLE MOMENT
-------------

Method             : SCF
Type of density    : Electron Density
Multiplicity       :   2
Irrep              :   0
Energy             :  -292.1619931129627048 Eh
Relativity type    :
Basis              : AO
                                X                 Y                 Z
Electronic contribution:      0.010754421      -0.011925165       0.201896210
Nuclear contribution   :      0.001368449       0.006688621       0.038653602
                        -----------------------------------------
Total Dipole Moment    :      0.012122869      -0.005236544       0.240549812
                        -----------------------------------------
Magnitude (a.u.)       :      0.240912012
Magnitude (Debye)      :      0.612349670

Rotational constants in cm-1:             0.132886             0.050590             0.041714
Rotational constants in MHz :          3983.810476          1516.635197          1250.539791

                             ****ORCA TERMINATED NORMALLY****
TOTAL RUN TIME: 0 days 0 hours 3 minutes 57 seconds 188 msec
