                         Program Version 6.0.0  -   RELEASE  -
|  1> !TPSSh aug-cc-pVTZ d3 TightSCF SlowConv RIJCOSX defgrid2
|  2>
|  3> %pal
|  4> nprocs 4
|  5> end
|  6>
|  7> %scf
|  8> MaxIter 1500
|  9> end
| 10>
| 11> %maxcore 3000
| 12>
| 13> !CPCM
| 14> %cpcm smd true
| 15> SMDsolvent "MeCN"
| 16> surfacetype gepol_ses
| 17> rsolv 2.19
| 18> end
| 19>
| 20> * xyz 0 1
| 21> C           0.69340039581910     -1.21642473703122     -0.00210106158208
| 22> C          -0.69454855654644     -1.22021347444475     -0.00107333204799
| 23> C          -1.36154262322334      0.00187791219067      0.00026242389151
| 24> C          -0.68604253118331      1.21670210566519      0.00055618520570
| 25> C           0.70509440805818      1.20392227540601     -0.00053641990430
| 26> C           1.40455093160228     -0.00927557523456     -0.00186311158295
| 27> C           2.90624055769532     -0.08463588452950     -0.00286199019476
| 28> O           3.45693707307488     -1.16143789750676     -0.00328851772908
| 29> C           3.69101592073766      1.20331719293128     -0.00349620755262
| 30> H           3.45502261169039      1.81064521986950      0.88792921534318
| 31> H           4.76399312425029      0.96314274578425     -0.00608195367514
| 32> H           3.45097324706094      1.81300927441323     -0.89217068832087
| 33> H           1.24208602358160      2.15534045576678     -0.00026184416090
| 34> H          -1.25661571978578      2.14643950150070      0.00165091333299
| 35> N          -2.83358313105393      0.00969549364775      0.00154754521515
| 36> O          -3.38285340798047      1.08799719381857      0.00256173004398
| 37> O          -3.39352955523644     -1.06261620732784      0.00148372469125
| 38> H          -1.27233938255821     -2.14567385267397     -0.00122499566180
| 39> H           1.26268251399728     -2.14919824224534     -0.00306631531128
| 40> *
| 41>
| 42>                          ****END OF INPUT****

CARTESIAN COORDINATES (ANGSTROEM)
---------------------------------
  C      0.693400   -1.216425   -0.002101
  C     -0.694549   -1.220213   -0.001073
  C     -1.361543    0.001878    0.000262
  C     -0.686043    1.216702    0.000556
  C      0.705094    1.203922   -0.000536
  C      1.404551   -0.009276   -0.001863
  C      2.906241   -0.084636   -0.002862
  O      3.456937   -1.161438   -0.003289
  C      3.691016    1.203317   -0.003496
  H      3.455023    1.810645    0.887929
  H      4.763993    0.963143   -0.006082
  H      3.450973    1.813009   -0.892171
  H      1.242086    2.155340   -0.000262
  H     -1.256616    2.146440    0.001651
  N     -2.833583    0.009695    0.001548
  O     -3.382853    1.087997    0.002562
  O     -3.393530   -1.062616    0.001484
  H     -1.272339   -2.145674   -0.001225
  H      1.262683   -2.149198   -0.003066

 Total Charge           Charge          ....    0
 Multiplicity           Mult            ....    1
 Number of Electrons    NEL             ....   86
 Basis Dimension        Dim             ....  713

ORBITAL ENERGIES
----------------

  NO   OCC          E(Eh)            E(eV)
   0   2.0000     -19.096730      -519.6485
   1   2.0000     -19.096564      -519.6439
   2   2.0000     -19.051519      -518.4182
   3   2.0000     -14.491500      -394.3338
   4   2.0000     -10.208574      -277.7894
   5   2.0000     -10.182368      -277.0763
   6   2.0000     -10.144653      -276.0501
   7   2.0000     -10.144407      -276.0433
   8   2.0000     -10.143851      -276.0282
   9   2.0000     -10.141916      -275.9756
  10   2.0000     -10.138134      -275.8727
  11   2.0000     -10.113522      -275.2029
  12   2.0000      -1.225188       -33.3391
  13   2.0000      -1.051660       -28.6171
  14   2.0000      -1.031965       -28.0812
  15   2.0000      -0.872054       -23.7298
  16   2.0000      -0.796452       -21.6726
  17   2.0000      -0.752856       -20.4863
  18   2.0000      -0.728184       -19.8149
  19   2.0000      -0.686011       -18.6673
  20   2.0000      -0.612330       -16.6624
  21   2.0000      -0.593746       -16.1567
  22   2.0000      -0.551546       -15.0083
  23   2.0000      -0.541064       -14.7231
  24   2.0000      -0.533597       -14.5199
  25   2.0000      -0.509523       -13.8648
  26   2.0000      -0.473134       -12.8746
  27   2.0000      -0.460564       -12.5326
  28   2.0000      -0.444387       -12.0924
  29   2.0000      -0.430068       -11.7027
  30   2.0000      -0.424539       -11.5523
  31   2.0000      -0.409425       -11.1410
  32   2.0000      -0.399633       -10.8746
  33   2.0000      -0.378288       -10.2937
  34   2.0000      -0.363478        -9.8907
  35   2.0000      -0.350770        -9.5449
  36   2.0000      -0.344746        -9.3810
  37   2.0000      -0.315651        -8.5893
  38   2.0000      -0.303627        -8.2621
  39   2.0000      -0.289594        -7.8803
  40   2.0000      -0.273868        -7.4523
  41   2.0000      -0.267431        -7.2772
  42   2.0000      -0.245745        -6.6871
  43   0.0000      -0.118322        -3.2197
  44   0.0000      -0.061786        -1.6813
  45   0.0000      -0.043031        -1.1709
  46   0.0000      -0.005347        -0.1455
  47   0.0000       0.008115         0.2208

MULLIKEN ATOMIC CHARGES
-----------------------
   0 C :   -0.610595
   1 C :   -0.199068
   2 C :    0.221823
   3 C :   -0.453482
   4 C :   -0.236871
   5 C :    0.727371
   6 C :    0.881712
   7 O :   -1.001525
   8 C :   -0.224479
   9 H :    0.196648
  10 H :   -0.027340
  11 H :    0.196474
  12 H :    0.161221
  13 H :    0.395132
  14 N :    0.986431
  15 O :   -0.765350
  16 O :   -0.765044
  17 H :    0.455040
  18 H :    0.061905
Sum of atomic charges:   -0.0000000

LOEWDIN ATOMIC CHARGES
----------------------
   0 C :    0.218378
   1 C :    0.223071
   2 C :   -0.225961
   3 C :    0.226247
   4 C :    0.233947
   5 C :   -0.110455
   6 C :   -0.533783
   7 O :    0.502037
   8 C :    0.573444
   9 H :   -0.155113
  10 H :   -0.174165
  11 H :   -0.155222
  12 H :   -0.166246
  13 H :   -0.183515
  14 N :   -0.751101
  15 O :    0.421373
  16 O :    0.421566
  17 H :   -0.184459
  18 H :   -0.180043

  Mayer bond orders larger than 0.100000
B(  0-C ,  1-C ) :   1.4500 B(  0-C ,  2-C ) :  -0.3322 B(  0-C ,  4-C ) :  -0.2101
B(  0-C ,  5-C ) :   0.7386 B(  0-C ,  6-C ) :   0.1503 B(  0-C , 16-O ) :  -0.1027
B(  0-C , 18-H ) :   0.9950 B(  1-C ,  2-C ) :   1.1527 B(  1-C ,  7-O ) :  -0.1010
B(  1-C , 16-O ) :  -0.1105 B(  1-C , 17-H ) :   0.4650 B(  2-C ,  3-C ) :   1.0308
B(  2-C ,  4-C ) :  -0.2489 B(  2-C , 13-H ) :   0.1209 B(  2-C , 14-N ) :   1.1044
B(  2-C , 15-O ) :   0.5398 B(  2-C , 16-O ) :   0.5429 B(  2-C , 17-H ) :   0.1225
B(  3-C ,  4-C ) :   1.2210 B(  3-C ,  5-C ) :   0.1166 B(  3-C , 13-H ) :   0.5294
B(  3-C , 14-N ) :  -0.1687 B(  4-C ,  5-C ) :   0.7908 B(  4-C , 12-H ) :   0.9989
B(  4-C , 15-O ) :  -0.1017 B(  5-C ,  6-C ) :   0.4881 B(  5-C ,  7-O ) :   0.3221
B(  6-C ,  7-O ) :   0.4706 B(  6-C ,  8-C ) :   1.0639 B(  7-O , 18-H ) :   0.1838
B(  8-C ,  9-H ) :   0.9335 B(  8-C , 10-H ) :   1.0273 B(  8-C , 11-H ) :   0.9339
B( 14-N , 15-O ) :   0.6157 B( 14-N , 16-O ) :   0.6160 B( 15-O , 16-O ) :   0.2158

Dispersion correction           -0.024448699
FINAL SINGLE POINT ENERGY      -589.679237385799

DIPOLE MOMENT
-------------

Method             : SCF
Type of density    : Electron Density
Multiplicity       :   1
Irrep              :   0
Energy             :  -589.6547886865926102 Eh
Relativity type    :
Basis              : AO
                                X                 Y                 Z
Electronic contribution:     -9.523184008      -3.000094864       0.006419030
Nuclear contribution   :     10.904698351       4.303144091      -0.007859468
                        -----------------------------------------
Total Dipole Moment    :      1.381514343       1.303049228      -0.001440438
                        -----------------------------------------
Magnitude (a.u.)       :      1.899084318
Magnitude (Debye)      :      4.827088720

Rotational constants in cm-1:             0.096505             0.015902             0.013688
Rotational constants in MHz :          2893.160990           476.718240           410.340998

                             ****ORCA TERMINATED NORMALLY****
TOTAL RUN TIME: 0 days 0 hours 7 minutes 33 seconds 601 msec
