                         Program Version 6.0.0  -   RELEASE  -
|  1> !B3LYP aug-cc-pVTZ d3 TightSCF SlowConv RIJCOSX defgrid2
|  2>
|  3> %pal
|  4> nprocs 4
|  5> end
|  6>
|  7> %scf
|  8> MaxIter 1500
|  9> end
| 10>
| 11> %maxcore 3000
| 12>
| 13> !CPCM
| 14> %cpcm smd true
| 15> SMDsolvent "MeCN"
| 16> surfacetype gepol_ses
| 17> rsolv 2.19
| 18> end
| 19>
| 20> * xyz 0 1
| 21> C           2.55730705781469     -0.80272836948539      0.48102366137177
| 22> N           1.33294167009809     -1.43182229011705      0.05765766630002
| 23> C           0.34101911025700     -0.70024719108755     -0.29708224356517
| 24> N           0.31874552010949      0.68032432716300     -0.31461541058671
| 25> C          -0.89176882402801      1.43497112867922     -0.56114377570643
| 26> C          -1.99046257064471      1.26916813990179      0.49140268799889
| 27> C          -2.82765905468197      0.00715294881938      0.31516347050989
| 28> C          -2.04586918259982     -1.30153194326604      0.35164544445367
| 29> C          -0.92828974970724     -1.41500601198787     -0.69150138780777
| 30> H          -1.29203198403960     -1.06672742425397     -1.67656916039338
| 31> H          -0.63133731154972     -2.46745300434559     -0.80196281377539
| 32> H          -1.60570603630129     -1.45752170010282      1.35429556519630
| 33> H          -2.75596289666527     -2.13329897794767      0.19602041294681
| 34> H          -3.61539692476010     -0.01845840431235      1.08977014149609
| 35> H          -3.35605019663435      0.07487469231763     -0.65651142659301
| 36> H          -1.52340584005630      1.28855731350301      1.49408745577621
| 37> H          -2.66130549588890      2.14642124767486      0.44000200996492
| 38> H          -1.30052595544982      1.19153726692681     -1.56065100823810
| 39> H          -0.59215925219953      2.49412223128000     -0.60923298902630
| 40> C           1.46914234333312      1.40286101249685      0.18937626674719
| 41> C           2.73710761812345      0.60793735504758     -0.06280329082443
| 42> H           3.60249952280460      1.11378780244457      0.39882866501775
| 43> H           2.92030114355612      0.56196935074214     -1.15150232607945
| 44> H           1.52000693344937      2.38033435200841     -0.32184635939607
| 45> H           1.36269728052713      1.61326327329284      1.27517926988309
| 46> H           2.58886170713689     -0.78409197751190      1.58995809372292
| 47> H           3.40579976799671     -1.44067914787991      0.17257018060666
| 48> *
| 49>
| 50>                          ****END OF INPUT****

CARTESIAN COORDINATES (ANGSTROEM)
---------------------------------
  C      2.557307   -0.802728    0.481024
  N      1.332942   -1.431822    0.057658
  C      0.341019   -0.700247   -0.297082
  N      0.318746    0.680324   -0.314615
  C     -0.891769    1.434971   -0.561144
  C     -1.990463    1.269168    0.491403
  C     -2.827659    0.007153    0.315163
  C     -2.045869   -1.301532    0.351645
  C     -0.928290   -1.415006   -0.691501
  H     -1.292032   -1.066727   -1.676569
  H     -0.631337   -2.467453   -0.801963
  H     -1.605706   -1.457522    1.354296
  H     -2.755963   -2.133299    0.196020
  H     -3.615397   -0.018458    1.089770
  H     -3.356050    0.074875   -0.656511
  H     -1.523406    1.288557    1.494087
  H     -2.661305    2.146421    0.440002
  H     -1.300526    1.191537   -1.560651
  H     -0.592159    2.494122   -0.609233
  C      1.469142    1.402861    0.189376
  C      2.737108    0.607937   -0.062803
  H      3.602500    1.113788    0.398829
  H      2.920301    0.561969   -1.151502
  H      1.520007    2.380334   -0.321846
  H      1.362697    1.613263    1.275179
  H      2.588862   -0.784092    1.589958
  H      3.405800   -1.440679    0.172570

 Total Charge           Charge          ....    0
 Multiplicity           Mult            ....    1
 Number of Electrons    NEL             ....   84
 Basis Dimension        Dim             ....  874

ORBITAL ENERGIES
----------------

  NO   OCC          E(Eh)            E(eV)
   0   2.0000     -14.327783      -389.8788
   1   2.0000     -14.271302      -388.3419
   2   2.0000     -10.228074      -278.3200
   3   2.0000     -10.194446      -277.4050
   4   2.0000     -10.194271      -277.4002
   5   2.0000     -10.179812      -277.0068
   6   2.0000     -10.163312      -276.5578
   7   2.0000     -10.162287      -276.5299
   8   2.0000     -10.160133      -276.4713
   9   2.0000     -10.160115      -276.4708
  10   2.0000     -10.158816      -276.4354
  11   2.0000      -0.965537       -26.2736
  12   2.0000      -0.877101       -23.8671
  13   2.0000      -0.806702       -21.9515
  14   2.0000      -0.770192       -20.9580
  15   2.0000      -0.746305       -20.3080
  16   2.0000      -0.679477       -18.4895
  17   2.0000      -0.657560       -17.8931
  18   2.0000      -0.641995       -17.4696
  19   2.0000      -0.584467       -15.9042
  20   2.0000      -0.560465       -15.2510
  21   2.0000      -0.506427       -13.7806
  22   2.0000      -0.501657       -13.6508
  23   2.0000      -0.477244       -12.9865
  24   2.0000      -0.459960       -12.5161
  25   2.0000      -0.438952       -11.9445
  26   2.0000      -0.429389       -11.6843
  27   2.0000      -0.423048       -11.5117
  28   2.0000      -0.410787       -11.1781
  29   2.0000      -0.407829       -11.0976
  30   2.0000      -0.387497       -10.5443
  31   2.0000      -0.383709       -10.4413
  32   2.0000      -0.368193       -10.0190
  33   2.0000      -0.354009        -9.6331
  34   2.0000      -0.350221        -9.5300
  35   2.0000      -0.326640        -8.8883
  36   2.0000      -0.319197        -8.6858
  37   2.0000      -0.317378        -8.6363
  38   2.0000      -0.309771        -8.4293
  39   2.0000      -0.287904        -7.8343
  40   2.0000      -0.239703        -6.5226
  41   2.0000      -0.206310        -5.6140
  42   0.0000      -0.003861        -0.1051
  43   0.0000       0.006560         0.1785
  44   0.0000       0.009466         0.2576
  45   0.0000       0.010102         0.2749
  46   0.0000       0.020521         0.5584

MULLIKEN ATOMIC CHARGES
-----------------------
   0 C :   -0.327788
   1 N :   -0.890410
   2 C :    0.241501
   3 N :    0.323850
   4 C :   -0.429270
   5 C :   -0.295467
   6 C :   -0.214819
   7 C :   -0.380181
   8 C :    0.031273
   9 H :    0.156565
  10 H :    0.087547
  11 H :    0.115686
  12 H :    0.134713
  13 H :    0.212802
  14 H :    0.085386
  15 H :    0.097856
  16 H :    0.140909
  17 H :    0.234348
  18 H :    0.177249
  19 C :   -0.334342
  20 C :   -0.274745
  21 H :    0.230552
  22 H :    0.074050
  23 H :    0.227934
  24 H :    0.191291
  25 H :    0.161657
  26 H :    0.221854
Sum of atomic charges:    0.0000000

LOEWDIN ATOMIC CHARGES
----------------------
   0 C :    0.068814
   1 N :    0.389503
   2 C :   -0.405544
   3 N :    0.299832
   4 C :    0.195600
   5 C :    0.295332
   6 C :    0.268667
   7 C :    0.280797
   8 C :    0.269113
   9 H :   -0.132138
  10 H :   -0.164913
  11 H :   -0.127229
  12 H :   -0.129862
  13 H :   -0.129927
  14 H :   -0.129649
  15 H :   -0.124358
  16 H :   -0.128181
  17 H :   -0.125363
  18 H :   -0.137299
  19 C :    0.181827
  20 C :    0.273164
  21 H :   -0.123872
  22 H :   -0.128040
  23 H :   -0.128853
  24 H :   -0.105788
  25 H :   -0.144404
  26 H :   -0.157229

  Mayer bond orders larger than 0.100000
B(  0-C ,  1-N ) :   0.9152 B(  0-C , 20-C ) :   0.9212 B(  0-C , 25-H ) :   0.9832
B(  0-C , 26-H ) :   0.9618 B(  1-N ,  2-C ) :   0.6243 B(  1-N ,  7-C ) :   0.1009
B(  2-C ,  3-N ) :   0.9507 B(  2-C ,  8-C ) :   0.5832 B(  3-N ,  4-C ) :   0.9141
B(  3-N , 19-C ) :   0.6407 B(  4-C ,  5-C ) :   0.9523 B(  4-C , 17-H ) :   0.9475
B(  4-C , 18-H ) :   0.9880 B(  5-C ,  6-C ) :   0.9280 B(  5-C , 15-H ) :   1.0544
B(  5-C , 16-H ) :   0.9748 B(  6-C ,  7-C ) :   0.8860 B(  6-C , 13-H ) :   0.9342
B(  6-C , 14-H ) :   1.0647 B(  7-C ,  8-C ) :   0.9837 B(  7-C , 11-H ) :   1.0205
B(  7-C , 12-H ) :   1.0184 B(  8-C ,  9-H ) :   1.0141 B(  8-C , 10-H ) :   0.9825
B( 19-C , 20-C ) :   0.9556 B( 19-C , 23-H ) :   0.9864 B( 19-C , 24-H ) :   0.9819
B( 20-C , 21-H ) :   0.8978 B( 20-C , 22-H ) :   1.0886

Dispersion correction           -0.049180281
FINAL SINGLE POINT ENERGY      -462.015843454201

DIPOLE MOMENT
-------------

Method             : SCF
Type of density    : Electron Density
Multiplicity       :   1
Irrep              :   0
Energy             :  -461.9666631733480813 Eh
Relativity type    :
Basis              : AO
                                X                 Y                 Z
Electronic contribution:      3.035688306      -1.607184488      -1.173210407
Nuclear contribution   :     -3.701053963       3.371558610       1.131300425
                        -----------------------------------------
Total Dipole Moment    :     -0.665365657       1.764374121      -0.041909982
                        -----------------------------------------
Magnitude (a.u.)       :      1.886129355
Magnitude (Debye)      :      4.794159823

Rotational constants in cm-1:             0.068815             0.029698             0.022944
Rotational constants in MHz :          2063.025702           890.322329           687.841442

                             ****ORCA TERMINATED NORMALLY****
TOTAL RUN TIME: 0 days 0 hours 8 minutes 24 seconds 562 msec
