                         Program Version 6.0.0  -   RELEASE  -
|  1> !r2SCANh aug-cc-pVTZ d3 TightSCF SlowConv RIJCOSX defgrid2
|  2>
|  3> %pal
|  4> nprocs 4
|  5> end
|  6>
|  7> %scf
|  8> MaxIter 1500
|  9> end
| 10>
| 11> %maxcore 3000
| 12>
| 13> !CPCM
| 14> %cpcm smd true
| 15> SMDsolvent "MeCN"
| 16> surfacetype gepol_ses
| 17> rsolv 2.19
| 18> end
| 19>
| 20> * xyz 1 2
| 21>   C          -0.51166320460813      1.22812669775511      0.04221064338961
| 22>   C          -1.88952625296000      1.21539539176763      0.05617367919047
| 23>   C          -2.59180844712688      0.00013116204188     -0.01880666295911
| 24>   C          -1.89049624956733     -1.21520671526456     -0.10134329816321
| 25>   C          -0.51256019966680     -1.22809524037907     -0.10227638476799
| 26>   C           0.21731408963535     -0.00001586789402     -0.03400404554273
| 27>   N           1.56995492990017     -0.00005133599829     -0.04140778831312
| 28>   C           2.34433477639579      1.21948603186316     -0.20492690765417
| 29>   H           3.31457999055289      0.96026373998418     -0.65302403936483
| 30>   H           1.83135324244622      1.92816869292227     -0.86818407839005
| 31>   H           2.52747752953805      1.69293789980228      0.77768636738438
| 32>   C           2.34605804905977     -1.21960114143284      0.11365277395931
| 33>   H           3.32105951761834     -0.96038019427341      0.55132163130194
| 34>   H           1.84024142677529     -1.92835608634421      0.78230594720200
| 35>   H           2.51862728476156     -1.69296466175821     -0.87090867989595
| 36>   H           0.01065172080766     -2.18040178328804     -0.19486548078037
| 37>   H          -2.43851884091908     -2.15821605280130     -0.17289394083341
| 38>   H          -3.68523926435270      0.00018625586019     -0.01289591193808
| 39>   H          -2.43664007610670      2.15846249523866      0.13367176321164
| 40>   H           0.01262657781651      2.18036711219859      0.12915381296366
| 41> *
| 42>
| 43>                          ****END OF INPUT****

CARTESIAN COORDINATES (ANGSTROEM)
---------------------------------
  C     -0.511663    1.228127    0.042211
  C     -1.889526    1.215395    0.056174
  C     -2.591808    0.000131   -0.018807
  C     -1.890496   -1.215207   -0.101343
  C     -0.512560   -1.228095   -0.102276
  C      0.217314   -0.000016   -0.034004
  N      1.569955   -0.000051   -0.041408
  C      2.344335    1.219486   -0.204927
  H      3.314580    0.960264   -0.653024
  H      1.831353    1.928169   -0.868184
  H      2.527478    1.692938    0.777686
  C      2.346058   -1.219601    0.113653
  H      3.321060   -0.960380    0.551322
  H      1.840241   -1.928356    0.782306
  H      2.518627   -1.692965   -0.870909
  H      0.010652   -2.180402   -0.194865
  H     -2.438519   -2.158216   -0.172894
  H     -3.685239    0.000186   -0.012896
  H     -2.436640    2.158462    0.133672
  H      0.012627    2.180367    0.129154

 Total Charge           Charge          ....    1
 Multiplicity           Mult            ....    2
 Number of Electrons    NEL             ....   65
 Basis Dimension        Dim             ....  667

ORBITAL ENERGIES
----------------
                 SPIN UP ORBITALS
  NO   OCC          E(Eh)            E(eV)
   0   1.0000     -14.432182      -392.7196
   1   1.0000     -10.249488      -278.9027
   2   1.0000     -10.206714      -277.7388
   3   1.0000     -10.206673      -277.7377
   4   1.0000     -10.199288      -277.5367
   5   1.0000     -10.199270      -277.5363
   6   1.0000     -10.198102      -277.5045
   7   1.0000     -10.185846      -277.1710
   8   1.0000     -10.185842      -277.1708
   9   1.0000      -1.028699       -27.9923
  10   1.0000      -0.883236       -24.0341
  11   1.0000      -0.785615       -21.3777
  12   1.0000      -0.785140       -21.3647
  13   1.0000      -0.746850       -20.3228
  14   1.0000      -0.698882       -19.0176
  15   1.0000      -0.625997       -17.0342
  16   1.0000      -0.601149       -16.3581
  17   1.0000      -0.555631       -15.1195
  18   1.0000      -0.512074       -13.9342
  19   1.0000      -0.509597       -13.8668
  20   1.0000      -0.500493       -13.6191
  21   1.0000      -0.458190       -12.4680
  22   1.0000      -0.446321       -12.1450
  23   1.0000      -0.440162       -11.9774
  24   1.0000      -0.416151       -11.3240
  25   1.0000      -0.410835       -11.1794
  26   1.0000      -0.402225       -10.9451
  27   1.0000      -0.387155       -10.5350
  28   1.0000      -0.374957       -10.2031
  29   1.0000      -0.351206        -9.5568
  30   1.0000      -0.333930        -9.0867
  31   1.0000      -0.287728        -7.8295
  32   1.0000      -0.252372        -6.8674
  33   0.0000      -0.050203        -1.3661
  34   0.0000      -0.046098        -1.2544
  35   0.0000       0.005535         0.1506
  36   0.0000       0.021566         0.5868
  37   0.0000       0.024045         0.6543

                 SPIN DOWN ORBITALS
  NO   OCC          E(Eh)            E(eV)
   0   1.0000     -14.417881      -392.3305
   1   1.0000     -10.251430      -278.9556
   2   1.0000     -10.207235      -277.7530
   3   1.0000     -10.207194      -277.7519
   4   1.0000     -10.194967      -277.4192
   5   1.0000     -10.194950      -277.4187
   6   1.0000     -10.192179      -277.3433
   7   1.0000     -10.188477      -277.2426
   8   1.0000     -10.188453      -277.2419
   9   1.0000      -1.008083       -27.4313
  10   1.0000      -0.876469       -23.8499
  11   1.0000      -0.781202       -21.2576
  12   1.0000      -0.780568       -21.2403
  13   1.0000      -0.746277       -20.3072
  14   1.0000      -0.688304       -18.7297
  15   1.0000      -0.623068       -16.9545
  16   1.0000      -0.595793       -16.2124
  17   1.0000      -0.551867       -15.0171
  18   1.0000      -0.505928       -13.7670
  19   1.0000      -0.495694       -13.4885
  20   1.0000      -0.482382       -13.1263
  21   1.0000      -0.457435       -12.4474
  22   1.0000      -0.442791       -12.0490
  23   1.0000      -0.439475       -11.9587
  24   1.0000      -0.411012       -11.1842
  25   1.0000      -0.408726       -11.1220
  26   1.0000      -0.390524       -10.6267
  27   1.0000      -0.384285       -10.4569
  28   1.0000      -0.373085       -10.1522
  29   1.0000      -0.349618        -9.5136
  30   1.0000      -0.307161        -8.3583
  31   1.0000      -0.278566        -7.5802
  32   0.0000      -0.171926        -4.6783
  33   0.0000      -0.039760        -1.0819
  34   0.0000      -0.024213        -0.6589
  35   0.0000       0.006932         0.1886
  36   0.0000       0.022849         0.6217

MULLIKEN ATOMIC CHARGES AND SPIN POPULATIONS
--------------------------------------------
   0 C :   -0.449248    0.275161
   1 C :   -0.676952   -0.187591
   2 C :   -0.460528    0.374290
   3 C :   -0.676649   -0.187634
   4 C :   -0.449806    0.275267
   5 C :    1.452862   -0.072772
   6 N :   -0.002227    0.489247
   7 C :   -0.765899   -0.033853
   8 H :    0.248234    0.009965
   9 H :    0.251434    0.004910
  10 H :    0.310790    0.040222
  11 C :   -0.766311   -0.033880
  12 H :    0.248158    0.009984
  13 H :    0.251258    0.004939
  14 H :    0.310735    0.040212
  15 H :    0.428836   -0.003814
  16 H :    0.389523   -0.006246
  17 H :    0.536357    0.011576
  18 H :    0.390347   -0.006226
  19 H :    0.429087   -0.003759
Sum of atomic charges         :    1.0000000

LOEWDIN ATOMIC CHARGES AND SPIN POPULATIONS
-------------------------------------------
   0 C :    0.267390    0.103931
   1 C :    0.238470    0.010208
   2 C :    0.245030    0.144432
   3 C :    0.238468    0.010216
   4 C :    0.267365    0.103938
   5 C :   -0.153834    0.075248
   6 N :    0.304520    0.324491
   7 C :    0.571822    0.053786
   8 H :   -0.131645    0.005430
   9 H :   -0.146666    0.006544
  10 H :   -0.102906    0.018186
  11 C :    0.571813    0.053788
  12 H :   -0.131621    0.005433
  13 H :   -0.146707    0.006540
  14 H :   -0.102921    0.018183
  15 H :   -0.166161    0.024109
  16 H :   -0.152953   -0.012993
  17 H :   -0.150392    0.037418
  18 H :   -0.152956   -0.012995
  19 H :   -0.166116    0.024106

  Mayer bond orders larger than 0.100000
B(  0-C ,  1-C ) :   1.1625 B(  0-C ,  2-C ) :   0.2938 B(  0-C ,  3-C ) :  -0.1675
B(  0-C ,  4-C ) :   0.2623 B(  0-C ,  5-C ) :   0.2780 B(  0-C ,  6-N ) :  -0.1979
B(  0-C , 19-H ) :   0.4873 B(  1-C ,  2-C ) :   1.0102 B(  1-C ,  4-C ) :  -0.1685
B(  1-C ,  5-C ) :  -0.3264 B(  1-C , 18-H ) :   0.7352 B(  2-C ,  3-C ) :   1.0096
B(  2-C ,  4-C ) :   0.2932 B(  2-C ,  5-C ) :  -0.2385 B(  2-C , 17-H ) :   0.4670
B(  3-C ,  4-C ) :   1.1626 B(  3-C ,  5-C ) :  -0.3285 B(  3-C , 16-H ) :   0.7365
B(  4-C ,  5-C ) :   0.2755 B(  4-C ,  6-N ) :  -0.1992 B(  4-C , 15-H ) :   0.4887
B(  5-C ,  6-N ) :   0.6792 B(  5-C ,  7-C ) :  -0.1736 B(  5-C , 11-C ) :  -0.1739
B(  6-N ,  7-C ) :   1.1160 B(  6-N , 11-C ) :   1.1165 B(  7-C ,  8-H ) :   0.9301
B(  7-C ,  9-H ) :   0.9676 B(  7-C , 10-H ) :   0.8662 B( 11-C , 12-H ) :   0.9299
B( 11-C , 13-H ) :   0.9679 B( 11-C , 14-H ) :   0.8666

Dispersion correction           -0.006331196
FINAL SINGLE POINT ENERGY      -365.947145996252

DIPOLE MOMENT
-------------

Method             : SCF
Type of density    : Electron Density
Multiplicity       :   2
Irrep              :   0
Energy             :  -365.9408148002903545 Eh
Relativity type    :
Basis              : AO
                                X                 Y                 Z
Electronic contribution:     -4.926414441       0.000488206       0.027012195
Nuclear contribution   :      6.490918904      -0.000107030      -0.035404468
                        -----------------------------------------
Total Dipole Moment    :      1.564504463       0.000381176      -0.008392273
                        -----------------------------------------
Magnitude (a.u.)       :      1.564527018
Magnitude (Debye)      :      3.976711645

Rotational constants in cm-1:             0.115459             0.040921             0.030704
Rotational constants in MHz :          3461.380126          1226.789981           920.471270

                             ****ORCA TERMINATED NORMALLY****
TOTAL RUN TIME: 0 days 0 hours 9 minutes 21 seconds 133 msec
