                         Program Version 6.0.0  -   RELEASE  -
|  1> !r2SCANh opt aug-cc-pVTZ d3 TightSCF SlowConv RIJCOSX defgrid2
|  2>
|  3> %pal
|  4> nprocs 8
|  5> end
|  6>
|  7> %scf
|  8> MaxIter 1500
|  9> end
| 10>
| 11> %maxcore 3500
| 12>
| 13> !CPCM
| 14> %cpcm smd true
| 15> SMDsolvent "MeCN"
| 16> surfacetype gepol_ses
| 17> rsolv 2.19
| 18> end
| 19>
| 20> * xyz 1 2
| 21> C           0.96002552011709     -1.32253975774944      0.00002107203161
| 22> C           2.30946577689281     -1.05292578484351     -0.00001183018851
| 23> C           2.75162476164071      0.28756052755572     -0.00002650301661
| 24> C           1.83902538005307      1.36187223575537     -0.00000118304244
| 25> C           0.48711647576379      1.10797066538425      0.00002893131122
| 26> C           0.02041417697925     -0.24724272024865      0.00003631726405
| 27> C          -1.36049677571781     -0.55035510408661      0.00004151636512
| 28> N          -2.24435922885682      0.43165315940707      0.00003462017491
| 29> O          -3.46568256477989     -0.02410885729296      0.00002059528734
| 30> H          -4.06414072403569      0.75247060999126      0.00003013023410
| 31> H          -1.71241527206750     -1.59215357045924      0.00004127844656
| 32> H          -0.24324441524782      1.92013568517355      0.00004228420146
| 33> H           2.20910910746605      2.39016696582870     -0.00001172730682
| 34> H           3.82614866589464      0.49606739820897     -0.00005739041351
| 35> H           3.03863533465800     -1.86708723654366     -0.00002808352063
| 36> H           0.59646668124012     -2.35410821608081      0.00003057217215
| 37> *
| 38>
| 39>                          ****END OF INPUT****
 Total Charge           Charge          ....    1
 Multiplicity           Mult            ....    2
 Number of Electrons    NEL             ....   63
Dispersion correction           -0.004892309
FINAL SINGLE POINT ENERGY      -400.570081626082
Dispersion correction             ... done (  0.1 sec)
Dispersion correction           -0.004907432
FINAL SINGLE POINT ENERGY      -400.571825386332
Dispersion correction             ... done (  0.1 sec)
Dispersion correction           -0.004909520
FINAL SINGLE POINT ENERGY      -400.571975552799
Dispersion correction             ... done (  0.1 sec)
Dispersion correction           -0.004909087
FINAL SINGLE POINT ENERGY      -400.571834470522
Dispersion correction             ... done (  0.1 sec)
Dispersion correction           -0.004908618
FINAL SINGLE POINT ENERGY      -400.572017303292
Dispersion correction             ... done (  0.1 sec)
                    ***********************HURRAY********************

CARTESIAN COORDINATES (ANGSTROEM)
---------------------------------
  C      0.951650   -1.311503    0.001844
  C      2.293272   -1.049216   -0.002206
  C      2.739105    0.282604   -0.002555
  C      1.835418    1.356291    0.000957
  C      0.491492    1.112251    0.003792
  C      0.024358   -0.235562    0.003992
  C     -1.347112   -0.546288    0.003774
  N     -2.225954    0.433855   -0.000917
  O     -3.464850   -0.051589   -0.006638
  H     -4.044594    0.732296   -0.007500
  H     -1.681109   -1.579117    0.005884
  H     -0.223313    1.920593    0.006479
  H      2.207812    2.369652    0.000780
  H      3.801081    0.483822   -0.005616
  H      3.011646   -1.855056   -0.004978
  H      0.578793   -2.325656    0.003099

 Multiplicity           Mult            ....    2
 Number of Electrons    NEL             ....   63
 Basis Dimension        Dim             ....  575

ORBITAL ENERGIES
----------------
                 SPIN UP ORBITALS
  NO   OCC          E(Eh)            E(eV)
   0   1.0000     -19.245373      -523.6932
   1   1.0000     -14.435397      -392.8071
   2   1.0000     -10.251024      -278.9446
   3   1.0000     -10.237142      -278.5668
   4   1.0000     -10.220986      -278.1272
   5   1.0000     -10.210539      -277.8429
   6   1.0000     -10.209108      -277.8040
   7   1.0000     -10.196879      -277.4712
   8   1.0000     -10.194387      -277.4034
   9   1.0000      -1.191429       -32.4204
  10   1.0000      -0.940398       -25.5895
  11   1.0000      -0.897555       -24.4237
  12   1.0000      -0.805932       -21.9305
  13   1.0000      -0.793602       -21.5950
  14   1.0000      -0.693074       -18.8595
  15   1.0000      -0.647540       -17.6205
  16   1.0000      -0.612739       -16.6735
  17   1.0000      -0.579855       -15.7787
  18   1.0000      -0.551498       -15.0070
  19   1.0000      -0.516726       -14.0608
  20   1.0000      -0.503109       -13.6903
  21   1.0000      -0.489200       -13.3118
  22   1.0000      -0.468317       -12.7435
  23   1.0000      -0.451002       -12.2724
  24   1.0000      -0.444026       -12.0826
  25   1.0000      -0.424020       -11.5382
  26   1.0000      -0.380067       -10.3421
  27   1.0000      -0.368216       -10.0197
  28   1.0000      -0.350795        -9.5456
  29   1.0000      -0.330996        -9.0069
  30   1.0000      -0.297022        -8.0824
  31   1.0000      -0.284631        -7.7452
  32   0.0000      -0.128333        -3.4921
  33   0.0000      -0.056963        -1.5500
  34   0.0000      -0.022190        -0.6038
  35   0.0000       0.005674         0.1544
  36   0.0000       0.013797         0.3754

                 SPIN DOWN ORBITALS
  NO   OCC          E(Eh)            E(eV)
   0   1.0000     -19.237810      -523.4874
   1   1.0000     -14.426689      -392.5702
   2   1.0000     -10.251952      -278.9698
   3   1.0000     -10.234034      -278.4822
   4   1.0000     -10.215771      -277.9853
   5   1.0000     -10.208361      -277.7836
   6   1.0000     -10.207786      -277.7680
   7   1.0000     -10.197672      -277.4928
   8   1.0000     -10.195746      -277.4403
   9   1.0000      -1.177794       -32.0494
  10   1.0000      -0.929433       -25.2912
  11   1.0000      -0.887440       -24.1485
  12   1.0000      -0.796042       -21.6614
  13   1.0000      -0.789403       -21.4807
  14   1.0000      -0.687052       -18.6956
  15   1.0000      -0.644888       -17.5483
  16   1.0000      -0.608075       -16.5466
  17   1.0000      -0.574492       -15.6327
  18   1.0000      -0.549233       -14.9454
  19   1.0000      -0.513027       -13.9602
  20   1.0000      -0.486656       -13.2426
  21   1.0000      -0.465862       -12.6768
  22   1.0000      -0.463670       -12.6171
  23   1.0000      -0.450826       -12.2676
  24   1.0000      -0.441896       -12.0246
  25   1.0000      -0.402455       -10.9514
  26   1.0000      -0.379430       -10.3248
  27   1.0000      -0.366359        -9.9691
  28   1.0000      -0.324213        -8.8223
  29   1.0000      -0.323103        -8.7921
  30   1.0000      -0.293144        -7.9769
  31   0.0000      -0.217716        -5.9243
  32   0.0000      -0.095350        -2.5946
  33   0.0000      -0.048084        -1.3084
  34   0.0000      -0.001244        -0.0338
  35   0.0000       0.006534         0.1778

MULLIKEN ATOMIC CHARGES AND SPIN POPULATIONS
--------------------------------------------
   0 C :   -0.771288    0.057110
   1 C :   -0.550516   -0.055732
   2 C :   -0.086870    0.283092
   3 C :   -0.738888   -0.107484
   4 C :   -0.603662    0.124434
   5 C :    1.832299    0.219951
   6 C :    0.158713   -0.079717
   7 N :   -0.399862    0.324980
   8 O :   -0.184760    0.218972
   9 H :    0.215267   -0.012802
  10 H :    0.465607   -0.005992
  11 H :    0.071474    0.012091
  12 H :    0.563137   -0.007952
  13 H :    0.458610    0.020621
  14 H :    0.549109   -0.002201
  15 H :    0.021628    0.010630
Sum of atomic charges         :    1.0000000

LOEWDIN ATOMIC CHARGES AND SPIN POPULATIONS
-------------------------------------------
   0 C :    0.273943    0.058997
   1 C :    0.276423    0.035915
   2 C :    0.291691    0.142943
   3 C :    0.271759    0.025997
   4 C :    0.266803    0.076241
   5 C :   -0.103610    0.113763
   6 C :    0.089813    0.047769
   7 N :    0.217700    0.246512
   8 O :    0.754685    0.202418
   9 H :   -0.423690    0.012185
  10 H :   -0.148633   -0.007206
  11 H :   -0.171028    0.011080
  12 H :   -0.155147   -0.006162
  13 H :   -0.141208    0.033799
  14 H :   -0.153381   -0.002536
  15 H :   -0.146119    0.008284

  Mayer bond orders larger than 0.100000
B(  0-C ,  1-C ) :   1.2765 B(  0-C ,  2-C ) :  -0.1115 B(  0-C ,  4-C ) :  -0.4512
B(  0-C , 11-H ) :   0.1312 B(  0-C , 14-H ) :  -0.1819 B(  0-C , 15-H ) :   1.6644
B(  1-C ,  2-C ) :   1.0874 B(  1-C ,  3-C ) :   0.1340 B(  1-C ,  6-C ) :   0.1131
B(  1-C , 11-H ) :  -0.1074 B(  1-C , 14-H ) :   0.4767 B(  1-C , 15-H ) :  -0.1228
B(  2-C ,  3-C ) :   1.0437 B(  2-C ,  4-C ) :  -0.1441 B(  2-C ,  5-C ) :  -0.2194
B(  2-C ,  6-C ) :   0.1569 B(  2-C , 13-H ) :   0.6548 B(  3-C ,  4-C ) :   1.2991
B(  3-C , 12-H ) :   0.4458 B(  3-C , 15-H ) :  -0.1003 B(  4-C ,  5-C ) :   0.2324
B(  4-C ,  6-C ) :   0.1676 B(  4-C , 11-H ) :   1.3002 B(  4-C , 15-H ) :   0.1421
B(  5-C ,  6-C ) :   0.3096 B(  5-C ,  8-O ) :   0.1165 B(  5-C , 11-H ) :  -0.1323
B(  5-C , 14-H ) :   0.1087 B(  5-C , 15-H ) :  -0.1733 B(  6-C ,  7-N ) :   0.7429
B(  6-C , 10-H ) :   0.5397 B(  6-C , 11-H ) :  -0.1218 B(  6-C , 12-H ) :   0.1180
B(  6-C , 15-H ) :  -0.1757 B(  7-N ,  8-O ) :   0.8527 B(  7-N , 10-H ) :  -0.1085
B(  7-N , 11-H ) :   0.1024 B(  8-O ,  9-H ) :   0.9860 B( 11-H , 15-H ) :   0.1612

Dispersion correction           -0.004908576
FINAL SINGLE POINT ENERGY      -400.572015873098

DIPOLE MOMENT
-------------

Method             : SCF
Type of density    : Electron Density
Multiplicity       :   2
Irrep              :   0
Energy             :  -400.5671072971831563 Eh
Relativity type    :
Basis              : AO
                                X                 Y                 Z
Electronic contribution:     -3.262013143       0.143378034       0.002115053
Nuclear contribution   :      3.306677536      -0.252199040      -0.001534799
                        -----------------------------------------
Total Dipole Moment    :      0.044664393      -0.108821006       0.000580254
                        -----------------------------------------
Magnitude (a.u.)       :      0.117631867
Magnitude (Debye)      :      0.298996443

Rotational constants in cm-1:             0.168050             0.031268             0.026363
Rotational constants in MHz :          5038.001384           937.379160           790.332942

                             ****ORCA TERMINATED NORMALLY****
TOTAL RUN TIME: 0 days 0 hours 27 minutes 14 seconds 380 msec
