                         Program Version 6.0.0  -   RELEASE  -
|  1> !B3LYP aug-cc-pVTZ d3 TightSCF SlowConv RIJCOSX defgrid2
|  2>
|  3> %pal
|  4> nprocs 4
|  5> end
|  6>
|  7> %scf
|  8> MaxIter 1500
|  9> end
| 10>
| 11> %maxcore 3000
| 12>
| 13> !CPCM
| 14> %cpcm smd true
| 15> SMDsolvent "MeCN"
| 16> surfacetype gepol_ses
| 17> rsolv 2.19
| 18> end
| 19>
| 20> * xyz 1 2
| 21> C           1.38821397253669     -0.85710928094571      0.60741622632202
| 22> C           2.66653568645174     -1.38554775804107      0.62328529651635
| 23> C           3.74096697508373     -0.66019599701418      0.08285810563013
| 24> C           3.54023898785237      0.62233127623213     -0.45460571699329
| 25> C           2.27463505486006      1.17691753163962     -0.46404721541233
| 26> C           1.19493732351435      0.42049377974261      0.03782457404784
| 27> O          -0.00001161826735      1.03053434324458     -0.00007618077340
| 28> C          -1.19494650110222      0.42046263969238     -0.03791233087995
| 29> C          -2.27466316694698      1.17692889833622      0.46385316504035
| 30> C          -3.54025869091077      0.62232307991007      0.45446120210222
| 31> C          -3.74095306617908     -0.66026678297616     -0.08285951221376
| 32> C          -2.66650374430337     -1.38566766681220     -0.62318898600472
| 33> C          -1.38818943489976     -0.85721178830951     -0.60735323061330
| 34> H          -0.55743963132106     -1.38478510741341     -1.08197323083020
| 35> H          -2.84302940822415     -2.36075586477487     -1.08456370453300
| 36> H          -4.74708768097790     -1.08795510804427     -0.10418715284565
| 37> H          -4.38474494788350      1.18417342168211      0.86161853827017
| 38> H          -2.07820409834794      2.17105532289927      0.87220985478457
| 39> H           2.07815534201669      2.17098917949467     -0.87253031915770
| 40> H           4.38471105702739      1.18414197451138     -0.86184555829131
| 41> H           4.74710919235526     -1.08786907382573      0.10421696325696
| 42> H           2.84307759651065     -2.36058562840449      1.08475174308550
| 43> H           0.55748160115515     -1.38464569082344      1.08211306949251
| 44> *
| 45>
| 46>                          ****END OF INPUT****

CARTESIAN COORDINATES (ANGSTROEM)
---------------------------------
  C      1.388214   -0.857109    0.607416
  C      2.666536   -1.385548    0.623285
  C      3.740967   -0.660196    0.082858
  C      3.540239    0.622331   -0.454606
  C      2.274635    1.176918   -0.464047
  C      1.194937    0.420494    0.037825
  O     -0.000012    1.030534   -0.000076
  C     -1.194947    0.420463   -0.037912
  C     -2.274663    1.176929    0.463853
  C     -3.540259    0.622323    0.454461
  C     -3.740953   -0.660267   -0.082860
  C     -2.666504   -1.385668   -0.623189
  C     -1.388189   -0.857212   -0.607353
  H     -0.557440   -1.384785   -1.081973
  H     -2.843029   -2.360756   -1.084564
  H     -4.747088   -1.087955   -0.104187
  H     -4.384745    1.184173    0.861619
  H     -2.078204    2.171055    0.872210
  H      2.078155    2.170989   -0.872530
  H      4.384711    1.184142   -0.861846
  H      4.747109   -1.087869    0.104217
  H      2.843078   -2.360586    1.084752
  H      0.557482   -1.384646    1.082113

 Total Charge           Charge          ....    1
 Multiplicity           Mult            ....    2
 Number of Electrons    NEL             ....   89
 Basis Dimension        Dim             ....  828

ORBITAL ENERGIES
----------------
                 SPIN UP ORBITALS
  NO   OCC          E(Eh)            E(eV)
   0   1.0000     -19.259489      -524.0773
   1   1.0000     -10.292954      -280.0855
   2   1.0000     -10.292934      -280.0850
   3   1.0000     -10.218516      -278.0599
   4   1.0000     -10.218421      -278.0574
   5   1.0000     -10.217316      -278.0273
   6   1.0000     -10.217303      -278.0270
   7   1.0000     -10.215136      -277.9680
   8   1.0000     -10.215127      -277.9678
   9   1.0000     -10.207709      -277.7659
  10   1.0000     -10.207670      -277.7648
  11   1.0000     -10.207383      -277.7570
  12   1.0000     -10.207370      -277.7567
  13   1.0000      -1.173458       -31.9314
  14   1.0000      -0.904488       -24.6124
  15   1.0000      -0.884297       -24.0629
  16   1.0000      -0.813995       -22.1499
  17   1.0000      -0.788149       -21.4466
  18   1.0000      -0.781348       -21.2615
  19   1.0000      -0.758382       -20.6366
  20   1.0000      -0.689131       -18.7522
  21   1.0000      -0.655911       -17.8482
  22   1.0000      -0.636023       -17.3071
  23   1.0000      -0.610884       -16.6230
  24   1.0000      -0.583387       -15.8748
  25   1.0000      -0.537923       -14.6376
  26   1.0000      -0.525846       -14.3090
  27   1.0000      -0.524468       -14.2715
  28   1.0000      -0.514705       -14.0058
  29   1.0000      -0.473602       -12.8874
  30   1.0000      -0.469412       -12.7734
  31   1.0000      -0.457275       -12.4431
  32   1.0000      -0.455630       -12.3983
  33   1.0000      -0.447714       -12.1829
  34   1.0000      -0.441058       -12.0018
  35   1.0000      -0.405496       -11.0341
  36   1.0000      -0.397274       -10.8104
  37   1.0000      -0.390133       -10.6161
  38   1.0000      -0.387221       -10.5368
  39   1.0000      -0.369732       -10.0609
  40   1.0000      -0.367815       -10.0087
  41   1.0000      -0.296888        -8.0787
  42   1.0000      -0.293293        -7.9809
  43   1.0000      -0.289606        -7.8806
  44   1.0000      -0.264231        -7.1901
  45   0.0000      -0.059246        -1.6122
  46   0.0000      -0.046545        -1.2666
  47   0.0000      -0.040463        -1.1011
  48   0.0000      -0.032425        -0.8823
  49   0.0000      -0.008011        -0.2180

                 SPIN DOWN ORBITALS
  NO   OCC          E(Eh)            E(eV)
   0   1.0000     -19.252439      -523.8855
   1   1.0000     -10.291984      -280.0591
   2   1.0000     -10.291963      -280.0586
   3   1.0000     -10.216905      -278.0161
   4   1.0000     -10.216811      -278.0136
   5   1.0000     -10.214237      -277.9435
   6   1.0000     -10.214224      -277.9432
   7   1.0000     -10.213686      -277.9285
   8   1.0000     -10.213678      -277.9283
   9   1.0000     -10.208394      -277.7845
  10   1.0000     -10.208355      -277.7835
  11   1.0000     -10.207988      -277.7735
  12   1.0000     -10.207975      -277.7731
  13   1.0000      -1.160929       -31.5905
  14   1.0000      -0.899853       -24.4862
  15   1.0000      -0.879741       -23.9390
  16   1.0000      -0.809397       -22.0248
  17   1.0000      -0.785850       -21.3841
  18   1.0000      -0.779201       -21.2031
  19   1.0000      -0.750070       -20.4104
  20   1.0000      -0.683946       -18.6111
  21   1.0000      -0.653694       -17.7879
  22   1.0000      -0.632401       -17.2085
  23   1.0000      -0.607748       -16.5377
  24   1.0000      -0.581097       -15.8125
  25   1.0000      -0.535312       -14.5666
  26   1.0000      -0.521652       -14.1949
  27   1.0000      -0.514332       -13.9957
  28   1.0000      -0.505204       -13.7473
  29   1.0000      -0.467906       -12.7324
  30   1.0000      -0.467777       -12.7289
  31   1.0000      -0.454472       -12.3668
  32   1.0000      -0.454205       -12.3595
  33   1.0000      -0.443807       -12.0766
  34   1.0000      -0.435151       -11.8410
  35   1.0000      -0.396117       -10.7789
  36   1.0000      -0.395545       -10.7633
  37   1.0000      -0.387357       -10.5405
  38   1.0000      -0.378056       -10.2874
  39   1.0000      -0.365000        -9.9321
  40   1.0000      -0.360851        -9.8193
  41   1.0000      -0.289752        -7.8845
  42   1.0000      -0.285311        -7.7637
  43   1.0000      -0.272564        -7.4168
  44   0.0000      -0.201921        -5.4946
  45   0.0000      -0.047664        -1.2970
  46   0.0000      -0.039888        -1.0854
  47   0.0000      -0.032593        -0.8869
  48   0.0000      -0.016253        -0.4423

MULLIKEN ATOMIC CHARGES AND SPIN POPULATIONS
--------------------------------------------
   0 C :   -0.393313    0.100024
   1 C :   -0.625019   -0.049606
   2 C :   -0.456333    0.211185
   3 C :   -0.372271   -0.040861
   4 C :   -1.041325    0.080190
   5 C :    1.436028    0.097456
   6 O :   -0.729143    0.225653
   7 C :    1.433374    0.097255
   8 C :   -1.032419    0.080170
   9 C :   -0.386676   -0.040883
  10 C :   -0.461110    0.211137
  11 C :   -0.616916   -0.049732
  12 C :   -0.392997    0.099861
  13 H :    0.522520   -0.006647
  14 H :    0.410987    0.003275
  15 H :    0.491160    0.001515
  16 H :    0.419305    0.000853
  17 H :    0.473686   -0.009619
  18 H :    0.474939   -0.009773
  19 H :    0.419631    0.000812
  20 H :    0.491926    0.001398
  21 H :    0.407703    0.003368
  22 H :    0.526261   -0.007030
Sum of atomic charges         :    1.0000000

LOEWDIN ATOMIC CHARGES AND SPIN POPULATIONS
-------------------------------------------
   0 C :    0.243157    0.064735
   1 C :    0.240956    0.026758
   2 C :    0.247807    0.103730
   3 C :    0.233740    0.027838
   4 C :    0.251965    0.058144
   5 C :   -0.321479    0.087091
   6 O :    0.683027    0.187347
   7 C :   -0.321460    0.087035
   8 C :    0.252001    0.058156
   9 C :    0.233738    0.027813
  10 C :    0.247817    0.103712
  11 C :    0.240981    0.026757
  12 C :    0.243028    0.064734
  13 H :   -0.151594    0.010602
  14 H :   -0.147636   -0.002737
  15 H :   -0.145357    0.023801
  16 H :   -0.149412   -0.002519
  17 H :   -0.143722    0.008931
  18 H :   -0.143731    0.008925
  19 H :   -0.149424   -0.002513
  20 H :   -0.145356    0.023805
  21 H :   -0.147663   -0.002738
  22 H :   -0.151380    0.010593

  Mayer bond orders larger than 0.100000
B(  0-C ,  1-C ) :   1.2541 B(  0-C ,  2-C ) :   0.1019 B(  0-C ,  4-C ) :   0.2085
B(  0-C ,  5-C ) :   0.7274 B(  0-C , 12-C ) :   0.1764 B(  0-C , 22-H ) :   0.5554
B(  1-C ,  2-C ) :   1.2364 B(  1-C ,  4-C ) :  -0.1077 B(  1-C ,  5-C ) :  -0.2914
B(  1-C , 21-H ) :   0.7612 B(  2-C ,  3-C ) :   1.1444 B(  2-C ,  4-C ) :   0.3325
B(  2-C , 20-H ) :   0.5931 B(  3-C ,  4-C ) :   1.4015 B(  3-C ,  5-C ) :  -0.3363
B(  3-C , 19-H ) :   0.7463 B(  4-C ,  5-C ) :   0.3131 B(  4-C ,  6-O ) :   0.2751
B(  4-C , 18-H ) :   0.4430 B(  5-C ,  6-O ) :   0.6378 B(  6-O ,  7-C ) :   0.6250
B(  6-O ,  8-C ) :   0.2836 B(  7-C ,  8-C ) :   0.3139 B(  7-C ,  9-C ) :  -0.3434
B(  7-C , 11-C ) :  -0.2862 B(  7-C , 12-C ) :   0.7316 B(  8-C ,  9-C ) :   1.3904
B(  8-C , 10-C ) :   0.3213 B(  8-C , 11-C ) :  -0.1110 B(  8-C , 12-C ) :   0.2058
B(  8-C , 17-H ) :   0.4428 B(  9-C , 10-C ) :   1.1481 B(  9-C , 16-H ) :   0.7443
B( 10-C , 11-C ) :   1.2264 B( 10-C , 12-C ) :   0.1037 B( 10-C , 15-H ) :   0.5957
B( 11-C , 12-C ) :   1.2418 B( 11-C , 14-H ) :   0.7561 B( 12-C , 13-H ) :   0.5573

Dispersion correction           -0.045834515
FINAL SINGLE POINT ENERGY      -538.221012520564

DIPOLE MOMENT
-------------

Method             : SCF
Type of density    : Electron Density
Multiplicity       :   2
Irrep              :   0
Energy             :  -538.1751780058561963 Eh
Relativity type    :
Basis              : AO
                                X                 Y                 Z
Electronic contribution:     -0.000731537       2.124708852       0.001703046
Nuclear contribution   :      0.000026820      -2.597809167       0.000076640
                        -----------------------------------------
Total Dipole Moment    :     -0.000704716      -0.473100315       0.001779686
                        -----------------------------------------
Magnitude (a.u.)       :      0.473104188
Magnitude (Debye)      :      1.202535278

Rotational constants in cm-1:             0.082583             0.014544             0.013062
Rotational constants in MHz :          2475.769648           436.018937           391.587616

                             ****ORCA TERMINATED NORMALLY****
TOTAL RUN TIME: 0 days 0 hours 10 minutes 10 seconds 366 msec
