                         Program Version 6.0.0  -   RELEASE  -
|  1> !r2SCAN aug-cc-pVTZ d3 TightSCF SlowConv RIJCOSX defgrid2
|  2>
|  3> %pal
|  4> nprocs 4
|  5> end
|  6>
|  7> %scf
|  8> MaxIter 1500
|  9> end
| 10>
| 11> %maxcore 3000
| 12>
| 13> !CPCM
| 14> %cpcm smd true
| 15> SMDsolvent "MeCN"
| 16> surfacetype gepol_ses
| 17> rsolv 2.19
| 18> end
| 19>
| 20> * xyz 1 2
| 21> C           1.71497106575748      1.06171932835084     -0.03514469304606
| 22> C           0.56719485465527      1.82392831640831     -0.00294767414977
| 23> C          -0.68893058329112      1.20760587034953      0.00674165425173
| 24> C          -0.80034038219193     -0.22800805453168     -0.01673661650706
| 25> C           0.34844024659380     -1.00330914690348     -0.04917310869374
| 26> C           1.61061604456188     -0.38138433792306     -0.05904556326935
| 27> N           2.73628401268176     -1.09580230581758     -0.09073600890504
| 28> H           2.71545111037900     -2.11343777495485     -0.10881829621903
| 29> H           3.64963295510932     -0.64805903858531     -0.09811724471076
| 30> H           0.25123309236129     -2.09096960143506     -0.06695996926436
| 31> O          -1.95374878515058     -0.85587592591482     -0.00850993427148
| 32> C          -3.19266872724087     -0.16172631263894      0.01967853662734
| 33> H          -3.96658303938529     -0.94029601988636      0.01614088330526
| 34> H          -3.30896028056596      0.47212649064151     -0.87574217138754
| 35> H          -3.28534792940125      0.44030899731552      0.93950878924919
| 36> H          -1.58838328810020      1.82581855641198      0.03268809937411
| 37> H           0.63303154865974      2.91458072514130      0.01531465253765
| 38> H           2.70276038456766      1.53066783397213     -0.04298803492109
| 39> *
| 40>
| 41>                          ****END OF INPUT****

CARTESIAN COORDINATES (ANGSTROEM)
---------------------------------
  C      1.714971    1.061719   -0.035145
  C      0.567195    1.823928   -0.002948
  C     -0.688931    1.207606    0.006742
  C     -0.800340   -0.228008   -0.016737
  C      0.348440   -1.003309   -0.049173
  C      1.610616   -0.381384   -0.059046
  N      2.736284   -1.095802   -0.090736
  H      2.715451   -2.113438   -0.108818
  H      3.649633   -0.648059   -0.098117
  H      0.251233   -2.090970   -0.066960
  O     -1.953749   -0.855876   -0.008510
  C     -3.192669   -0.161726    0.019679
  H     -3.966583   -0.940296    0.016141
  H     -3.308960    0.472126   -0.875742
  H     -3.285348    0.440309    0.939509
  H     -1.588383    1.825819    0.032688
  H      0.633032    2.914581    0.015315
  H      2.702760    1.530668   -0.042988

 Total Charge           Charge          ....    1
 Multiplicity           Mult            ....    2
 Number of Electrons    NEL             ....   65
 Basis Dimension        Dim             ....  621

ORBITAL ENERGIES
----------------
                 SPIN UP ORBITALS
  NO   OCC          E(Eh)            E(eV)
   0   1.0000     -19.024630      -517.6865
   1   1.0000     -14.243276      -387.5793
   2   1.0000     -10.143327      -276.0140
   3   1.0000     -10.139824      -275.9186
   4   1.0000     -10.093879      -274.6684
   5   1.0000     -10.093569      -274.6600
   6   1.0000     -10.090091      -274.5653
   7   1.0000     -10.073090      -274.1027
   8   1.0000     -10.063827      -273.8507
   9   1.0000      -1.077495       -29.3201
  10   1.0000      -0.953096       -25.9351
  11   1.0000      -0.845253       -23.0005
  12   1.0000      -0.762651       -20.7528
  13   1.0000      -0.737653       -20.0726
  14   1.0000      -0.692109       -18.8333
  15   1.0000      -0.620609       -16.8876
  16   1.0000      -0.600924       -16.3520
  17   1.0000      -0.538722       -14.6594
  18   1.0000      -0.532976       -14.5030
  19   1.0000      -0.490132       -13.3372
  20   1.0000      -0.479622       -13.0512
  21   1.0000      -0.462831       -12.5943
  22   1.0000      -0.460560       -12.5325
  23   1.0000      -0.424039       -11.5387
  24   1.0000      -0.413982       -11.2650
  25   1.0000      -0.400185       -10.8896
  26   1.0000      -0.376020       -10.2320
  27   1.0000      -0.362246        -9.8572
  28   1.0000      -0.358986        -9.7685
  29   1.0000      -0.320591        -8.7237
  30   1.0000      -0.316977        -8.6254
  31   1.0000      -0.245856        -6.6901
  32   1.0000      -0.242865        -6.6087
  33   0.0000      -0.060611        -1.6493
  34   0.0000      -0.057231        -1.5573
  35   0.0000       0.002999         0.0816
  36   0.0000       0.015403         0.4191
  37   0.0000       0.020457         0.5567

                 SPIN DOWN ORBITALS
  NO   OCC          E(Eh)            E(eV)
   0   1.0000     -19.023854      -517.6654
   1   1.0000     -14.235678      -387.3725
   2   1.0000     -10.144123      -276.0356
   3   1.0000     -10.139599      -275.9125
   4   1.0000     -10.093917      -274.6694
   5   1.0000     -10.085640      -274.4442
   6   1.0000     -10.083426      -274.3840
   7   1.0000     -10.076200      -274.1873
   8   1.0000     -10.062792      -273.8225
   9   1.0000      -1.076474       -29.2923
  10   1.0000      -0.942276       -25.6406
  11   1.0000      -0.836658       -22.7666
  12   1.0000      -0.760334       -20.6897
  13   1.0000      -0.723278       -19.6814
  14   1.0000      -0.686307       -18.6754
  15   1.0000      -0.617376       -16.7997
  16   1.0000      -0.597156       -16.2494
  17   1.0000      -0.537727       -14.6323
  18   1.0000      -0.529277       -14.4023
  19   1.0000      -0.485936       -13.2230
  20   1.0000      -0.476682       -12.9712
  21   1.0000      -0.459384       -12.5005
  22   1.0000      -0.457360       -12.4454
  23   1.0000      -0.423609       -11.5270
  24   1.0000      -0.398689       -10.8489
  25   1.0000      -0.394664       -10.7394
  26   1.0000      -0.373688       -10.1686
  27   1.0000      -0.360633        -9.8133
  28   1.0000      -0.346011        -9.4154
  29   1.0000      -0.315568        -8.5870
  30   1.0000      -0.304163        -8.2767
  31   1.0000      -0.234289        -6.3753
  32   0.0000      -0.191338        -5.2066
  33   0.0000      -0.051265        -1.3950
  34   0.0000      -0.031616        -0.8603
  35   0.0000       0.004321         0.1176
  36   0.0000       0.016912         0.4602

MULLIKEN ATOMIC CHARGES AND SPIN POPULATIONS
--------------------------------------------
   0 C :   -0.544959    0.401722
   1 C :   -0.390069   -0.251864
   2 C :   -0.352850    0.487641
   3 C :    1.136380   -0.085674
   4 C :   -0.945321    0.073933
   5 C :    1.048806    0.007379
   6 N :   -0.414511    0.324646
   7 H :    0.049143   -0.010682
   8 H :    0.056378   -0.007977
   9 H :    0.439895   -0.007177
  10 O :   -0.617491    0.025932
  11 C :   -0.613118    0.000580
  12 H :    0.227467   -0.001063
  13 H :    0.264462    0.000193
  14 H :    0.265258    0.000223
  15 H :    0.466461    0.040612
  16 H :    0.398170   -0.015308
  17 H :    0.525900    0.016884
Sum of atomic charges         :    1.0000000

LOEWDIN ATOMIC CHARGES AND SPIN POPULATIONS
-------------------------------------------
   0 C :    0.289155    0.184347
   1 C :    0.246768    0.036557
   2 C :    0.281687    0.219394
   3 C :   -0.371629    0.059007
   4 C :    0.262740    0.036944
   5 C :   -0.186654    0.107945
   6 N :    0.949687    0.201023
   7 H :   -0.202239    0.027725
   8 H :   -0.208578    0.025141
   9 H :   -0.150326    0.005722
  10 O :    0.620736    0.018282
  11 C :    0.390331    0.002787
  12 H :   -0.163650   -0.000165
  13 H :   -0.153686    0.000868
  14 H :   -0.153593    0.000861
  15 H :   -0.162573    0.050643
  16 H :   -0.149263   -0.015028
  17 H :   -0.138912    0.037946

  Mayer bond orders larger than 0.100000
B(  0-C ,  1-C ) :   1.2009 B(  0-C ,  2-C ) :   0.2494 B(  0-C ,  3-C ) :  -0.2245
B(  0-C ,  4-C ) :   0.4613 B(  0-C ,  5-C ) :   0.5110 B(  0-C ,  6-N ) :  -0.1911
B(  0-C , 17-H ) :   0.3415 B(  1-C ,  2-C ) :   0.8142 B(  1-C ,  3-C ) :  -0.2281
B(  1-C ,  4-C ) :  -0.2090 B(  1-C ,  5-C ) :  -0.1842 B(  1-C , 16-H ) :   0.6544
B(  2-C ,  3-C ) :   0.7473 B(  2-C ,  4-C ) :   0.4396 B(  2-C ,  5-C ) :  -0.2161
B(  2-C , 10-O ) :  -0.1115 B(  2-C , 11-C ) :  -0.1026 B(  2-C , 15-H ) :   0.4851
B(  3-C ,  4-C ) :   0.4962 B(  3-C ,  5-C ) :  -0.1285 B(  3-C ,  6-N ) :   0.1288
B(  3-C , 10-O ) :   0.3687 B(  4-C ,  5-C ) :   0.4151 B(  4-C ,  6-N ) :  -0.1863
B(  4-C ,  9-H ) :   0.3365 B(  4-C , 10-O ) :   0.2979 B(  5-C ,  6-N ) :   0.8267
B(  5-C ,  9-H ) :   0.1719 B(  6-N ,  7-H ) :   1.1330 B(  6-N ,  8-H ) :   1.1088
B( 10-O , 11-C ) :   0.9659 B( 11-C , 12-H ) :   0.9792 B( 11-C , 13-H ) :   0.9100
B( 11-C , 14-H ) :   0.9094 B( 11-C , 15-H ) :  -0.1102

Dispersion correction           -0.005166130
FINAL SINGLE POINT ENERGY      -401.884362780093

DIPOLE MOMENT
-------------

Method             : SCF
Type of density    : Electron Density
Multiplicity       :   2
Irrep              :   0
Energy             :  -401.8791966500974695 Eh
Relativity type    :
Basis              : AO
                                X                 Y                 Z
Electronic contribution:      3.856125594      -1.206567678      -0.076153246
Nuclear contribution   :     -2.044978462       1.271551477       0.044658972
                        -----------------------------------------
Total Dipole Moment    :      1.811147133       0.064983799      -0.031494273
                        -----------------------------------------
Magnitude (a.u.)       :      1.812586197
Magnitude (Debye)      :      4.607227969

Rotational constants in cm-1:             0.119593             0.037937             0.028965
Rotational constants in MHz :          3585.313936          1137.321017           868.358011

                             ****ORCA TERMINATED NORMALLY****
TOTAL RUN TIME: 0 days 0 hours 4 minutes 19 seconds 531 msec
