                         Program Version 6.0.0  -   RELEASE  -
|  1> !r2SCANh aug-cc-pVTZ d3 TightSCF SlowConv RIJCOSX defgrid2
|  2>
|  3> %pal
|  4> nprocs 4
|  5> end
|  6>
|  7> %scf
|  8> MaxIter 1500
|  9> end
| 10>
| 11> %maxcore 3000
| 12>
| 13> !CPCM
| 14> %cpcm smd true
| 15> SMDsolvent "MeCN"
| 16> surfacetype gepol_ses
| 17> rsolv 2.19
| 18> end
| 19>
| 20> * xyz 0 1
| 21> C           0.49470507986689     -1.28935631990851      0.00010874258042
| 22> C           1.40908641826733     -0.22147183581534      0.00012909194558
| 23> C           0.87652773876151      1.07792685723328      0.00000492945569
| 24> C          -0.49469394553322      1.28942538906843     -0.00011206028261
| 25> C          -1.40907528767924      0.22153956382169     -0.00008845068658
| 26> C          -0.87651553070888     -1.07785825260461     -0.00000990536767
| 27> H          -1.54545333719204     -1.94291362486448     -0.00009686185205
| 28> C          -2.84456825365451      0.51115677736565     -0.00016134460175
| 29> C          -3.85777664336290     -0.37016514253978      0.00069395658741
| 30> C          -5.30325422186199     -0.00132827117349      0.00054902064982
| 31> H          -5.82268564165386     -0.41483693779544     -0.88475753685959
| 32> H          -5.44363484922644      1.09278775657122     -0.00048184652449
| 33> H          -5.82242918676140     -0.41313393815800      0.88680059997485
| 34> H          -3.63558487599837     -1.44572430894995      0.00161496983067
| 35> H          -3.09792946711740      1.58024959925667     -0.00095926539794
| 36> H          -0.87860533471525      2.31485410603895     -0.00020323655719
| 37> H           1.54546492447861      1.94298328215137     -0.00000160713393
| 38> C           2.84457766493005     -0.51109546895278      0.00024640262469
| 39> C           3.85779145901576      0.37021961014473      0.00027505555542
| 40> C           5.30326751721893      0.00137504492038      0.00037195486634
| 41> H           5.82255778844256      0.41418506123902      0.88608667850665
| 42> H           5.82258564966444      0.41388438927124     -0.88546931241510
| 43> H           5.44364800850219     -1.09274127411065      0.00055173822611
| 44> H           3.63560517323574      1.44578042657169      0.00020897424361
| 45> H           3.09793184852103     -1.58018954757629      0.00031964622318
| 46> H           0.87861580456047     -2.31478514120501      0.00015816640849
| 47> *
| 48>
| 49>                          ****END OF INPUT****

CARTESIAN COORDINATES (ANGSTROEM)
---------------------------------
  C      0.494705   -1.289356    0.000109
  C      1.409086   -0.221472    0.000129
  C      0.876528    1.077927    0.000005
  C     -0.494694    1.289425   -0.000112
  C     -1.409075    0.221540   -0.000088
  C     -0.876516   -1.077858   -0.000010
  H     -1.545453   -1.942914   -0.000097
  C     -2.844568    0.511157   -0.000161
  C     -3.857777   -0.370165    0.000694
  C     -5.303254   -0.001328    0.000549
  H     -5.822686   -0.414837   -0.884758
  H     -5.443635    1.092788   -0.000482
  H     -5.822429   -0.413134    0.886801
  H     -3.635585   -1.445724    0.001615
  H     -3.097929    1.580250   -0.000959
  H     -0.878605    2.314854   -0.000203
  H      1.545465    1.942983   -0.000002
  C      2.844578   -0.511095    0.000246
  C      3.857791    0.370220    0.000275
  C      5.303268    0.001375    0.000372
  H      5.822558    0.414185    0.886087
  H      5.822586    0.413884   -0.885469
  H      5.443648   -1.092741    0.000552
  H      3.635605    1.445780    0.000209
  H      3.097932   -1.580190    0.000320
  H      0.878616   -2.314785    0.000158

 Total Charge           Charge          ....    0
 Multiplicity           Mult            ....    1
 Number of Electrons    NEL             ....   86
 Basis Dimension        Dim             ....  874

ORBITAL ENERGIES
----------------

  NO   OCC          E(Eh)            E(eV)
   0   2.0000     -10.171670      -276.7852
   1   2.0000     -10.171655      -276.7848
   2   2.0000     -10.161327      -276.5038
   3   2.0000     -10.161323      -276.5037
   4   2.0000     -10.160311      -276.4761
   5   2.0000     -10.160289      -276.4755
   6   2.0000     -10.159641      -276.4579
   7   2.0000     -10.159626      -276.4575
   8   2.0000     -10.155983      -276.3583
   9   2.0000     -10.155979      -276.3582
  10   2.0000     -10.147689      -276.1326
  11   2.0000     -10.147688      -276.1326
  12   2.0000      -0.866468       -23.5778
  13   2.0000      -0.812615       -22.1124
  14   2.0000      -0.786420       -21.3996
  15   2.0000      -0.750869       -20.4322
  16   2.0000      -0.744697       -20.2642
  17   2.0000      -0.694546       -18.8996
  18   2.0000      -0.656927       -17.8759
  19   2.0000      -0.613804       -16.7025
  20   2.0000      -0.588358       -16.0100
  21   2.0000      -0.549909       -14.9638
  22   2.0000      -0.535077       -14.5602
  23   2.0000      -0.498213       -13.5571
  24   2.0000      -0.464632       -12.6433
  25   2.0000      -0.454092       -12.3565
  26   2.0000      -0.429376       -11.6839
  27   2.0000      -0.407082       -11.0773
  28   2.0000      -0.404997       -11.0205
  29   2.0000      -0.399276       -10.8648
  30   2.0000      -0.397443       -10.8150
  31   2.0000      -0.393331       -10.7031
  32   2.0000      -0.383719       -10.4415
  33   2.0000      -0.377705       -10.2779
  34   2.0000      -0.358164        -9.7461
  35   2.0000      -0.345822        -9.4103
  36   2.0000      -0.331064        -9.0087
  37   2.0000      -0.329084        -8.9548
  38   2.0000      -0.315553        -8.5866
  39   2.0000      -0.313836        -8.5399
  40   2.0000      -0.255220        -6.9449
  41   2.0000      -0.255106        -6.9418
  42   2.0000      -0.202156        -5.5009
  43   0.0000      -0.064973        -1.7680
  44   0.0000      -0.024913        -0.6779
  45   0.0000      -0.000176        -0.0048
  46   0.0000       0.010669         0.2903
  47   0.0000       0.019171         0.5217

MULLIKEN ATOMIC CHARGES
-----------------------
   0 C :   -1.301139
   1 C :    2.287245
   2 C :   -0.703730
   3 C :   -1.301482
   4 C :    2.293975
   5 C :   -0.705777
   6 H :   -0.110694
   7 C :    0.162797
   8 C :   -0.193220
   9 C :   -0.912232
  10 H :    0.168208
  11 H :    0.263870
  12 H :    0.167203
  13 H :    0.221312
  14 H :   -0.041865
  15 H :   -0.011670
  16 H :   -0.111623
  17 C :    0.157967
  18 C :   -0.190128
  19 C :   -0.909351
  20 H :    0.166458
  21 H :    0.165911
  22 H :    0.263085
  23 H :    0.226615
  24 H :   -0.039026
  25 H :   -0.012708
Sum of atomic charges:    0.0000000

LOEWDIN ATOMIC CHARGES
----------------------
   0 C :    0.207267
   1 C :   -0.151435
   2 C :    0.211134
   3 C :    0.207266
   4 C :   -0.151429
   5 C :    0.211133
   6 H :   -0.179348
   7 C :    0.197508
   8 C :    0.198373
   9 C :    0.551460
  10 H :   -0.163945
  11 H :   -0.173916
  12 H :   -0.163911
  13 H :   -0.183155
  14 H :   -0.184049
  15 H :   -0.165986
  16 H :   -0.179345
  17 C :    0.197499
  18 C :    0.198372
  19 C :    0.551465
  20 H :   -0.163948
  21 H :   -0.163910
  22 H :   -0.173917
  23 H :   -0.183154
  24 H :   -0.184046
  25 H :   -0.165986

  Mayer bond orders larger than 0.100000
B(  0-C ,  1-C ) :  -0.3689 B(  0-C ,  2-C ) :  -0.6608 B(  0-C ,  3-C ) :   0.3752
B(  0-C ,  5-C ) :   0.9780 B(  0-C ,  8-C ) :  -0.1363 B(  0-C , 25-H ) :   1.6215
B(  1-C ,  2-C ) :   0.1360 B(  1-C ,  6-H ) :  -0.1300 B(  1-C ,  7-C ) :   0.3533
B(  1-C , 16-H ) :  -0.3752 B(  1-C , 17-C ) :   0.1722 B(  1-C , 18-C ) :  -0.1272
B(  1-C , 23-H ) :  -0.1090 B(  1-C , 25-H ) :  -0.3723 B(  2-C ,  3-C ) :   0.9768
B(  2-C ,  5-C ) :  -0.4232 B(  2-C ,  6-H ) :  -0.2292 B(  2-C ,  7-C ) :  -0.1998
B(  2-C ,  8-C ) :   0.1045 B(  2-C , 15-H ) :  -0.2188 B(  2-C , 16-H ) :   1.8104
B(  2-C , 17-C ) :   0.2645 B(  2-C , 18-C ) :   0.1249 B(  2-C , 25-H ) :   0.1108
B(  3-C ,  4-C ) :  -0.3648 B(  3-C ,  5-C ) :  -0.6582 B(  3-C , 15-H ) :   1.6266
B(  3-C , 18-C ) :  -0.1349 B(  4-C ,  5-C ) :   0.1323 B(  4-C ,  6-H ) :  -0.3755
B(  4-C ,  7-C ) :   0.1639 B(  4-C ,  8-C ) :  -0.1281 B(  4-C , 13-H ) :  -0.1125
B(  4-C , 15-H ) :  -0.3715 B(  4-C , 16-H ) :  -0.1344 B(  4-C , 17-C ) :   0.3506
B(  5-C ,  6-H ) :   1.8086 B(  5-C ,  7-C ) :   0.2665 B(  5-C ,  8-C ) :   0.1239
B(  5-C , 15-H ) :   0.1136 B(  5-C , 16-H ) :  -0.2318 B(  5-C , 17-C ) :  -0.1961
B(  5-C , 18-C ) :   0.1015 B(  5-C , 25-H ) :  -0.2182 B(  6-H ,  7-C ) :  -0.1021
B(  6-H , 15-H ) :   0.1625 B(  7-C ,  8-C ) :   0.8268 B(  7-C , 14-H ) :   1.2784
B(  8-C ,  9-C ) :   0.5478 B(  8-C , 13-H ) :   1.2684 B(  8-C , 14-H ) :  -0.1640
B(  9-C , 10-H ) :   1.0776 B(  9-C , 11-H ) :   0.9263 B(  9-C , 12-H ) :   1.0795
B(  9-C , 13-H ) :  -0.2222 B( 16-H , 17-C ) :  -0.1019 B( 16-H , 25-H ) :   0.1623
B( 17-C , 18-C ) :   0.8271 B( 17-C , 24-H ) :   1.2768 B( 18-C , 19-C ) :   0.5570
B( 18-C , 20-H ) :  -0.1002 B( 18-C , 23-H ) :   1.2562 B( 18-C , 24-H ) :  -0.1640
B( 19-C , 20-H ) :   1.0821 B( 19-C , 21-H ) :   1.0803 B( 19-C , 22-H ) :   0.9246
B( 19-C , 23-H ) :  -0.2266

Dispersion correction           -0.008486359
FINAL SINGLE POINT ENERGY      -465.564517413118

DIPOLE MOMENT
-------------

Method             : SCF
Type of density    : Electron Density
Multiplicity       :   1
Irrep              :   0
Energy             :  -465.5560310537341593 Eh
Relativity type    :
Basis              : AO
                                X                 Y                 Z
Electronic contribution:     -0.000041679       0.000040141      -0.001120971
Nuclear contribution   :      0.000002145      -0.000025147       0.001221223
                        -----------------------------------------
Total Dipole Moment    :     -0.000039534       0.000014994       0.000100251
                        -----------------------------------------
Magnitude (a.u.)       :      0.000108803
Magnitude (Debye)      :      0.000276555

Rotational constants in cm-1:             0.149823             0.010865             0.010169
Rotational constants in MHz :          4491.593991           325.738832           304.872217

                             ****ORCA TERMINATED NORMALLY****
TOTAL RUN TIME: 0 days 0 hours 11 minutes 24 seconds 75 msec
