                         Program Version 6.0.0  -   RELEASE  -
|  1> !r2SCANh freq aug-cc-pVTZ d3 TightSCF SlowConv RIJCOSX defgrid2
|  2>
|  3> %pal
|  4> nprocs 12
|  5> end
|  6>
|  7> %scf
|  8> MaxIter 1500
|  9> end
| 10>
| 11> %maxcore 5000
| 12>
| 13> !CPCM
| 14> %cpcm smd true
| 15> SMDsolvent "MeCN"
| 16> surfacetype gepol_ses
| 17> rsolv 2.19
| 18> end
| 19>
| 20> * xyz 0 1
| 21>   C           1.34915852264664     -0.64300621180902      0.80818493401328
| 22>   C           2.59485029966293     -1.25160741685833      0.85831746015967
| 23>   C           3.67079064962396     -0.72204491868906      0.15678072362348
| 24>   C           3.49516304075797      0.42944768047286     -0.59933073771954
| 25>   C           2.25331463631215      1.04522385343153     -0.66404605490708
| 26>   C           1.18741599206017      0.50206651501205      0.03843363476087
| 27>   O          -0.00001383458117      1.19367458439710      0.00029453724054
| 28>   C          -1.18740109143476      0.50210314935010     -0.03817262075775
| 29>   C          -2.25353736324760      1.04531271789115      0.66393611087714
| 30>   C          -3.49537471753594      0.42954621633070      0.59886197482302
| 31>   C          -3.67078813196376     -0.72202515894951     -0.15717626236545
| 32>   C          -2.59462066901919     -1.25171769646596     -0.85825930726846
| 33>   C          -1.34895145225183     -0.64310445064356     -0.80778099458062
| 34>   H          -0.51415742679117     -1.05093619111795     -1.36029428658851
| 35>   H          -2.72311753776290     -2.14338066960328     -1.45712864582668
| 36>   H          -4.63846280337099     -1.20210594600365     -0.20249370155078
| 37>   H          -4.32654812874149      0.85219901789851      1.14709057898523
| 38>   H          -2.10110635885699      1.94107627278992      1.24998950616485
| 39>   H           2.10071187023206      1.94096301016689     -1.25009600620761
| 40>   H           4.32617718691399      0.85204720681236     -1.14784845485140
| 41>   H           4.63847734870724     -1.20212948595953      0.20185927706450
| 42>   H           2.72356210385392     -2.14318015474008      1.45728252616533
| 43>   H           0.51450616478681     -1.05066612371322      1.36105550874597
| 44> *
| 45>
| 46>                          ****END OF INPUT****

CARTESIAN COORDINATES (ANGSTROEM)
---------------------------------
  C      1.349159   -0.643006    0.808185
  C      2.594850   -1.251607    0.858317
  C      3.670791   -0.722045    0.156781
  C      3.495163    0.429448   -0.599331
  C      2.253315    1.045224   -0.664046
  C      1.187416    0.502067    0.038434
  O     -0.000014    1.193675    0.000295
  C     -1.187401    0.502103   -0.038173
  C     -2.253537    1.045313    0.663936
  C     -3.495375    0.429546    0.598862
  C     -3.670788   -0.722025   -0.157176
  C     -2.594621   -1.251718   -0.858259
  C     -1.348951   -0.643104   -0.807781
  H     -0.514157   -1.050936   -1.360294
  H     -2.723118   -2.143381   -1.457129
  H     -4.638463   -1.202106   -0.202494
  H     -4.326548    0.852199    1.147091
  H     -2.101106    1.941076    1.249990
  H      2.100712    1.940963   -1.250096
  H      4.326177    0.852047   -1.147848
  H      4.638477   -1.202129    0.201859
  H      2.723562   -2.143180    1.457283
  H      0.514506   -1.050666    1.361056

 Total Charge           Charge          ....    0
 Multiplicity           Mult            ....    1
 Number of Electrons    NEL             ....   90
 Basis Dimension        Dim             ....  828

ORBITAL ENERGIES
----------------

  NO   OCC          E(Eh)            E(eV)
   0   2.0000     -19.164401      -521.4899
   1   2.0000     -10.224696      -278.2281
   2   2.0000     -10.224656      -278.2270
   3   2.0000     -10.162554      -276.5371
   4   2.0000     -10.162523      -276.5363
   5   2.0000     -10.162214      -276.5279
   6   2.0000     -10.162188      -276.5272
   7   2.0000     -10.160336      -276.4768
   8   2.0000     -10.160281      -276.4753
   9   2.0000     -10.158772      -276.4342
  10   2.0000     -10.158748      -276.4336
  11   2.0000     -10.155472      -276.3444
  12   2.0000     -10.155453      -276.3439
  13   2.0000      -1.093051       -29.7434
  14   2.0000      -0.870021       -23.6745
  15   2.0000      -0.855565       -23.2811
  16   2.0000      -0.769052       -20.9270
  17   2.0000      -0.755393       -20.5553
  18   2.0000      -0.751419       -20.4472
  19   2.0000      -0.727546       -19.7975
  20   2.0000      -0.635547       -17.2941
  21   2.0000      -0.616913       -16.7871
  22   2.0000      -0.605238       -16.4694
  23   2.0000      -0.578068       -15.7300
  24   2.0000      -0.543133       -14.7794
  25   2.0000      -0.504328       -13.7235
  26   2.0000      -0.480126       -13.0649
  27   2.0000      -0.472684       -12.8624
  28   2.0000      -0.464762       -12.6468
  29   2.0000      -0.436589       -11.8802
  30   2.0000      -0.432407       -11.7664
  31   2.0000      -0.416486       -11.3332
  32   2.0000      -0.415647       -11.3103
  33   2.0000      -0.400981       -10.9113
  34   2.0000      -0.393470       -10.7069
  35   2.0000      -0.366043        -9.9605
  36   2.0000      -0.355022        -9.6606
  37   2.0000      -0.349248        -9.5035
  38   2.0000      -0.348479        -9.4826
  39   2.0000      -0.328538        -8.9400
  40   2.0000      -0.322459        -8.7746
  41   2.0000      -0.262385        -7.1398
  42   2.0000      -0.255879        -6.9628
  43   2.0000      -0.253175        -6.8893
  44   2.0000      -0.221048        -6.0150
  45   0.0000      -0.035932        -0.9778
  46   0.0000      -0.027638        -0.7521
  47   0.0000      -0.020170        -0.5488
  48   0.0000      -0.009432        -0.2566
  49   0.0000       0.009208         0.2506

MULLIKEN ATOMIC CHARGES
-----------------------
   0 C :   -0.463183
   1 C :   -0.636649
   2 C :   -0.529391
   3 C :   -0.396626
   4 C :   -1.323667
   5 C :    1.491030
   6 O :   -0.834819
   7 C :    1.486688
   8 C :   -1.324361
   9 C :   -0.394414
  10 C :   -0.530337
  11 C :   -0.636574
  12 C :   -0.461374
  13 H :    0.554860
  14 H :    0.353536
  15 H :    0.484935
  16 H :    0.377950
  17 H :    0.505258
  18 H :    0.506771
  19 H :    0.373541
  20 H :    0.485481
  21 H :    0.353892
  22 H :    0.557455
Sum of atomic charges:   -0.0000000

LOEWDIN ATOMIC CHARGES
----------------------
   0 C :    0.201449
   1 C :    0.192343
   2 C :    0.187574
   3 C :    0.185643
   4 C :    0.206392
   5 C :   -0.401497
   6 O :    0.622296
   7 C :   -0.401554
   8 C :    0.206366
   9 C :    0.185638
  10 C :    0.187587
  11 C :    0.192354
  12 C :    0.201362
  13 H :   -0.172197
  14 H :   -0.175753
  15 H :   -0.183001
  16 H :   -0.177149
  17 H :   -0.174898
  18 H :   -0.174901
  19 H :   -0.177166
  20 H :   -0.183015
  21 H :   -0.175776
  22 H :   -0.172095

  Mayer bond orders larger than 0.100000
B(  0-C ,  1-C ) :   1.0779 B(  0-C ,  2-C ) :   0.1080 B(  0-C ,  3-C ) :  -0.1209
B(  0-C ,  4-C ) :   0.4214 B(  0-C ,  5-C ) :   0.8192 B(  0-C ,  7-C ) :  -0.1294
B(  0-C , 12-C ) :   0.3320 B(  0-C , 22-H ) :   0.3565 B(  1-C ,  2-C ) :   1.1914
B(  1-C ,  3-C ) :  -0.1009 B(  1-C ,  4-C ) :  -0.2089 B(  1-C ,  5-C ) :  -0.3134
B(  1-C , 21-H ) :   0.8561 B(  2-C ,  3-C ) :   1.1900 B(  2-C ,  4-C ) :   0.4927
B(  2-C ,  5-C ) :  -0.1607 B(  2-C , 20-H ) :   0.5920 B(  3-C ,  4-C ) :   1.2167
B(  3-C ,  5-C ) :  -0.3583 B(  3-C , 19-H ) :   0.8092 B(  4-C ,  6-O ) :   0.1621
B(  4-C , 18-H ) :   0.2776 B(  5-C ,  6-O ) :   0.5160 B(  5-C , 12-C ) :  -0.1305
B(  6-O ,  7-C ) :   0.5183 B(  6-O ,  8-C ) :   0.1610 B(  7-C ,  9-C ) :  -0.3562
B(  7-C , 10-C ) :  -0.1604 B(  7-C , 11-C ) :  -0.3126 B(  7-C , 12-C ) :   0.8207
B(  8-C ,  9-C ) :   1.2194 B(  8-C , 10-C ) :   0.4905 B(  8-C , 11-C ) :  -0.2101
B(  8-C , 12-C ) :   0.4189 B(  8-C , 17-H ) :   0.2804 B(  9-C , 10-C ) :   1.1893
B(  9-C , 12-C ) :  -0.1222 B(  9-C , 16-H ) :   0.8024 B( 10-C , 11-C ) :   1.1934
B( 10-C , 12-C ) :   0.1079 B( 10-C , 15-H ) :   0.5940 B( 11-C , 12-C ) :   1.0805
B( 11-C , 14-H ) :   0.8562 B( 12-C , 13-H ) :   0.3585

Dispersion correction           -0.008667322
FINAL SINGLE POINT ENERGY      -538.395428059597

DIPOLE MOMENT
-------------

Method             : SCF
Type of density    : Electron Density
Multiplicity       :   1
Irrep              :   0
Energy             :  -538.3867607371749955 Eh
Relativity type    :
Basis              : AO
                                X                 Y                 Z
Electronic contribution:     -0.000506117       2.490992972       0.000658589
Nuclear contribution   :      0.000036378      -3.017522520      -0.000604395
                        -----------------------------------------
Total Dipole Moment    :     -0.000469740      -0.526529548       0.000054194
                        -----------------------------------------
Magnitude (a.u.)       :      0.526529760
Magnitude (Debye)      :      1.338332291

VIBRATIONAL FREQUENCIES
-----------------------

Scaling factor for frequencies =  1.000000000  (already applied!)

     0:       0.00 cm**-1
     1:       0.00 cm**-1
     2:       0.00 cm**-1
     3:       0.00 cm**-1
     4:       0.00 cm**-1
     5:       0.00 cm**-1
     6:     -21.07 cm**-1 ***imaginary mode***
     7:      31.88 cm**-1
     8:      86.45 cm**-1
     9:     215.13 cm**-1
    10:     239.26 cm**-1
    11:     319.41 cm**-1
    12:     388.15 cm**-1
    13:     420.54 cm**-1
    14:     424.81 cm**-1
    15:     488.68 cm**-1
    16:     511.83 cm**-1
    17:     579.84 cm**-1
    18:     616.74 cm**-1
    19:     629.77 cm**-1
    20:     639.94 cm**-1
    21:     713.90 cm**-1
    22:     716.10 cm**-1
    23:     768.74 cm**-1
    24:     773.51 cm**-1
    25:     818.08 cm**-1
    26:     846.29 cm**-1
    27:     846.57 cm**-1
    28:     891.89 cm**-1
    29:     922.57 cm**-1
    30:     928.37 cm**-1
    31:     994.86 cm**-1
    32:     995.21 cm**-1
    33:    1014.32 cm**-1
    34:    1015.01 cm**-1
    35:    1024.78 cm**-1
    36:    1025.08 cm**-1
    37:    1049.17 cm**-1
    38:    1049.73 cm**-1
    39:    1099.15 cm**-1
    40:    1101.67 cm**-1
    41:    1166.48 cm**-1
    42:    1166.89 cm**-1
    43:    1178.49 cm**-1
    44:    1179.25 cm**-1
    45:    1228.56 cm**-1
    46:    1256.94 cm**-1
    47:    1327.62 cm**-1
    48:    1342.88 cm**-1
    49:    1372.10 cm**-1
    50:    1379.52 cm**-1
    51:    1485.93 cm**-1
    52:    1495.33 cm**-1
    53:    1517.92 cm**-1
    54:    1528.78 cm**-1
    55:    1637.10 cm**-1
    56:    1641.95 cm**-1
    57:    1648.76 cm**-1
    58:    1658.26 cm**-1
    59:    3188.43 cm**-1
    60:    3188.58 cm**-1
    61:    3195.82 cm**-1
    62:    3195.98 cm**-1
    63:    3206.05 cm**-1
    64:    3206.23 cm**-1
    65:    3211.83 cm**-1
    66:    3212.18 cm**-1
    67:    3216.97 cm**-1
    68:    3217.13 cm**-1

IR SPECTRUM
-----------

 Mode   freq       eps      Int      T**2         TX        TY        TZ
       cm**-1   L/(mol*cm) km/mol    a.u.
----------------------------------------------------------------------------
  7:     31.88   0.000025    0.13  0.000247  (-0.000231 -0.015712  0.000165)
  8:     86.45   0.000085    0.43  0.000306  ( 0.000033 -0.017503  0.000067)
  9:    215.13   0.000524    2.65  0.000761  ( 0.026978 -0.000028  0.005742)
 10:    239.26   0.000023    0.11  0.000030  (-0.000020 -0.005438  0.000094)
 11:    319.41   0.000166    0.84  0.000162  ( 0.000018  0.012718  0.000107)
 12:    388.15   0.001600    8.08  0.001286  (-0.034166 -0.000012  0.010897)
 13:    420.54   0.000195    0.99  0.000145  (-0.011558  0.000008 -0.003354)
 14:    424.81   0.000007    0.04  0.000005  ( 0.000081  0.002322 -0.000000)
 15:    488.68   0.004236   21.41  0.002705  ( 0.000067  0.052008  0.000128)
 16:    511.83   0.009464   47.83  0.005770  ( 0.049497  0.000018  0.057623)
 17:    579.84   0.000148    0.75  0.000080  ( 0.000810 -0.000008 -0.008880)
 18:    616.74   0.000168    0.85  0.000085  (-0.000003 -0.009230 -0.000097)
 19:    629.77   0.000301    1.52  0.000149  ( 0.007088  0.000005 -0.009954)
 20:    639.94   0.000555    2.81  0.000271  ( 0.000011 -0.016453  0.000027)
 21:    713.90   0.018236   92.16  0.007971  ( 0.036222  0.000160  0.081604)
 22:    716.10   0.009733   49.18  0.004241  (-0.000043  0.065125 -0.000069)
 23:    768.74   0.002783   14.06  0.001130  (-0.000016 -0.033610  0.000056)
 24:    773.51   0.029720  150.19  0.011990  (-0.008112 -0.000022 -0.109198)
 25:    818.08   0.007818   39.51  0.002982  ( 0.000022  0.054609  0.000053)
 26:    846.29   0.000157    0.79  0.000058  (-0.000461  0.007584 -0.000235)
 27:    846.57   0.000163    0.82  0.000060  ( 0.007164  0.000420  0.002917)
 28:    891.89   0.015057   76.09  0.005268  (-0.072583  0.000023  0.000157)
 29:    922.57   0.003110   15.72  0.001052  ( 0.013004 -0.000115  0.029712)
 30:    928.37   0.001906    9.63  0.000641  ( 0.000062  0.025308  0.000159)
 31:    994.86   0.000036    0.18  0.000011  (-0.002617 -0.000042  0.002100)
 32:    995.21   0.000012    0.06  0.000004  (-0.000027  0.001957 -0.000019)
 33:   1014.32   0.000124    0.63  0.000038  ( 0.004856  0.000026  0.003833)
 34:   1015.01   0.000021    0.11  0.000006  (-0.000021  0.002531 -0.000000)
 35:   1024.78   0.000044    0.22  0.000014  ( 0.003678  0.000019  0.000107)
 36:   1025.08   0.000070    0.36  0.000021  (-0.000029  0.004629 -0.000039)
 37:   1049.17   0.000629    3.18  0.000187  ( 0.000458 -0.013666 -0.000057)
 38:   1049.73   0.005735   28.98  0.001705  ( 0.041210  0.000157  0.002585)
 39:   1099.15   0.004742   23.96  0.001346  ( 0.013323  0.000275 -0.034187)
 40:   1101.67   0.004973   25.13  0.001409  (-0.000080  0.037529  0.000404)
 41:   1166.48   0.000104    0.52  0.000028  ( 0.001515 -0.000003 -0.005046)
 42:   1166.89   0.000171    0.86  0.000046  (-0.000028  0.006759  0.000023)
 43:   1178.49   0.001063    5.37  0.000281  (-0.000224  0.016774 -0.000136)
 44:   1179.25   0.009741   49.23  0.002578  (-0.050750 -0.000067  0.001498)
 45:   1228.56   0.002623   13.25  0.000666  (-0.000108  0.025810 -0.000018)
 46:   1256.94   0.186101  940.48  0.046204  (-0.214896 -0.000077 -0.004846)
 47:   1327.62   0.000345    1.74  0.000081  (-0.008637 -0.000017  0.002537)
 48:   1342.88   0.000337    1.70  0.000078  (-0.000005  0.008845 -0.000133)
 49:   1372.10   0.002954   14.93  0.000672  ( 0.025201 -0.000023 -0.006061)
 50:   1379.52   0.000020    0.10  0.000004  (-0.000043 -0.002108  0.000009)
 51:   1485.93   0.000568    2.87  0.000119  (-0.007836  0.000003 -0.007602)
 52:   1495.33   0.000398    2.01  0.000083  ( 0.000081 -0.009115 -0.000025)
 53:   1517.92   0.076711  387.67  0.015771  (-0.125462 -0.000091 -0.005468)
 54:   1528.78   0.005635   28.48  0.001150  (-0.000057  0.033917 -0.000019)
 55:   1637.10   0.030097  152.10  0.005737  ( 0.075002 -0.000016  0.010573)
 56:   1641.95   0.012249   61.90  0.002328  (-0.043604  0.000049  0.020656)
 57:   1648.76   0.006283   31.75  0.001189  (-0.000166 -0.034483 -0.000077)
 58:   1658.26   0.000042    0.21  0.000008  (-0.000001  0.002815  0.000040)
 59:   3188.43   0.000638    3.22  0.000062  ( 0.007575 -0.000663  0.002146)
 60:   3188.58   0.000178    0.90  0.000017  ( 0.001239  0.003971  0.000338)
 61:   3195.82   0.002095   10.59  0.000205  (-0.007144 -0.002144  0.012203)
 62:   3195.98   0.002161   10.92  0.000211  (-0.001051  0.014376  0.001800)
 63:   3206.05   0.007693   38.88  0.000749  ( 0.027020 -0.002531  0.003510)
 64:   3206.23   0.003187   16.11  0.000310  ( 0.004048  0.017133  0.000510)
 65:   3211.83   0.003539   17.88  0.000344  ( 0.010716  0.001428 -0.015066)
 66:   3212.18   0.002499   12.63  0.000243  ( 0.001077 -0.015486 -0.001358)
 67:   3216.97   0.002580   13.04  0.000250  (-0.015801  0.000322  0.000697)
 68:   3217.13   0.000145    0.73  0.000014  (-0.001471 -0.003450 -0.000070)

--------------------------
THERMOCHEMISTRY AT 298.15K
--------------------------

Temperature         ...   298.15 K
Pressure            ...     1.00 atm
Total Mass          ...   170.21 AMU
Quasi RRHO          ...     True
Cut-Off Frequency   ...     1.00 cm^-1

Throughout the following assumptions are being made:
  (1) The electronic state is orbitally nondegenerate
  (2) There are no thermally accessible electronically excited states
  (3) Hindered rotations indicated by low frequency modes are not
      treated as such but are treated as vibrations and this may
      cause some error
  (4) All equations used are the standard statistical mechanics
      equations for an ideal gas
  (5) All vibrations are strictly harmonic

freq.      31.88  E(vib)   ...       0.55
freq.      86.45  E(vib)   ...       0.48
freq.     215.13  E(vib)   ...       0.34
freq.     239.26  E(vib)   ...       0.31
freq.     319.41  E(vib)   ...       0.25
freq.     388.15  E(vib)   ...       0.20
freq.     420.54  E(vib)   ...       0.18
freq.     424.81  E(vib)   ...       0.18
freq.     488.68  E(vib)   ...       0.15
freq.     511.83  E(vib)   ...       0.14
freq.     579.84  E(vib)   ...       0.11
freq.     616.74  E(vib)   ...       0.09
freq.     629.77  E(vib)   ...       0.09
freq.     639.94  E(vib)   ...       0.09
freq.     713.90  E(vib)   ...       0.07
freq.     716.10  E(vib)   ...       0.07
freq.     768.74  E(vib)   ...       0.06
freq.     773.51  E(vib)   ...       0.05
freq.     818.08  E(vib)   ...       0.05
freq.     846.29  E(vib)   ...       0.04
freq.     846.57  E(vib)   ...       0.04
freq.     891.89  E(vib)   ...       0.03
freq.     922.57  E(vib)   ...       0.03
freq.     928.37  E(vib)   ...       0.03
freq.     994.86  E(vib)   ...       0.02
freq.     995.21  E(vib)   ...       0.02
freq.    1014.32  E(vib)   ...       0.02
freq.    1015.01  E(vib)   ...       0.02
freq.    1024.78  E(vib)   ...       0.02
freq.    1025.08  E(vib)   ...       0.02
freq.    1049.17  E(vib)   ...       0.02
freq.    1049.73  E(vib)   ...       0.02
freq.    1099.15  E(vib)   ...       0.02
freq.    1101.67  E(vib)   ...       0.02
freq.    1166.48  E(vib)   ...       0.01
freq.    1166.89  E(vib)   ...       0.01
freq.    1178.49  E(vib)   ...       0.01
freq.    1179.25  E(vib)   ...       0.01
freq.    1228.56  E(vib)   ...       0.01
freq.    1256.94  E(vib)   ...       0.01
freq.    1327.62  E(vib)   ...       0.01
freq.    1342.88  E(vib)   ...       0.01
freq.    1372.10  E(vib)   ...       0.01
freq.    1379.52  E(vib)   ...       0.01
freq.    1485.93  E(vib)   ...       0.00
freq.    1495.33  E(vib)   ...       0.00
freq.    1517.92  E(vib)   ...       0.00
freq.    1528.78  E(vib)   ...       0.00
freq.    1637.10  E(vib)   ...       0.00
freq.    1641.95  E(vib)   ...       0.00
freq.    1648.76  E(vib)   ...       0.00
freq.    1658.26  E(vib)   ...       0.00
freq.    3188.43  E(vib)   ...       0.00
freq.    3188.58  E(vib)   ...       0.00
freq.    3195.82  E(vib)   ...       0.00
freq.    3195.98  E(vib)   ...       0.00
freq.    3206.05  E(vib)   ...       0.00
freq.    3206.23  E(vib)   ...       0.00
freq.    3211.83  E(vib)   ...       0.00
freq.    3212.18  E(vib)   ...       0.00
freq.    3216.97  E(vib)   ...       0.00
freq.    3217.13  E(vib)   ...       0.00

------------
INNER ENERGY
------------

The inner energy is: U= E(el) + E(ZPE) + E(vib) + E(rot) + E(trans)
    E(el)   - is the total energy from the electronic structure calculation
              = E(kin-el) + E(nuc-el) + E(el-el) + E(nuc-nuc)
    E(ZPE)  - the the zero temperature vibrational energy from the frequency calculation
    E(vib)  - the the finite temperature correction to E(ZPE) due to population
              of excited vibrational states
    E(rot)  - is the rotational thermal energy
    E(trans)- is the translational thermal energy

Summary of contributions to the inner energy U:
Electronic energy                ...   -538.39542806 Eh
Zero point energy                ...      0.18553264 Eh     116.42 kcal/mol
Thermal vibrational correction   ...      0.00625912 Eh       3.93 kcal/mol
Thermal rotational correction    ...      0.00141627 Eh       0.89 kcal/mol
Thermal translational correction ...      0.00141627 Eh       0.89 kcal/mol
-----------------------------------------------------------------------
Total thermal energy                   -538.20080375 Eh

Summary of corrections to the electronic energy:
(perhaps to be used in another calculation)
Total thermal correction                  0.00909167 Eh       5.71 kcal/mol
Non-thermal (ZPE) correction              0.18553264 Eh     116.42 kcal/mol
-----------------------------------------------------------------------
Total correction                          0.19462431 Eh     122.13 kcal/mol

--------
ENTHALPY
--------

The enthalpy is H = U + kB*T
                kB is Boltzmann's constant
Total thermal energy              ...   -538.20080375 Eh
Thermal Enthalpy correction       ...      0.00094421 Eh       0.59 kcal/mol
-----------------------------------------------------------------------
Total Enthalpy                    ...   -538.19985954 Eh

Note: Only C1 symmetry has been detected, increase convergence thresholds
      if your molecule has a higher symmetry. Symmetry factor of 1.0 is
      used for the rotational entropy correction.

Note: Rotational entropy computed according to Herzberg
Infrared and Raman Spectra, Chapter V,1, Van Nostrand Reinhold, 1945
Point Group:  C1, Symmetry Number:   1
Rotational constants in cm-1:     0.080206     0.014645     0.013738

Vibrational entropy computed according to the QRRHO of S. Grimme
Chem.Eur.J. 2012 18 9955 using a reference frequency of 100.0 cm-1

-------
ENTROPY
-------

The entropy contributions are T*S = T*(S(el)+S(vib)+S(rot)+S(trans))
     S(el)   - electronic entropy
     S(vib)  - vibrational entropy
     S(rot)  - rotational entropy
     S(trans)- translational entropy
The entropies will be listed as multiplied by the temperature to get
units of energy

Electronic entropy                ...      0.00000000 Eh      0.00 kcal/mol
Vibrational entropy               ...      0.01017071 Eh      6.38 kcal/mol
Rotational entropy                ...      0.01472003 Eh      9.24 kcal/mol
Translational entropy             ...      0.01962451 Eh     12.31 kcal/mol
-----------------------------------------------------------------------
Final entropy term                ...      0.04451526 Eh     27.93 kcal/mol

In case the symmetry of your molecule has not been determined correctly
or in case you have a reason to use a different symmetry number we print
out the resulting rotational entropy values for sn=1,12:

                             ****ORCA TERMINATED NORMALLY****
TOTAL RUN TIME: 0 days 1 hours 16 minutes 6 seconds 155 msec
