                         Program Version 6.0.0  -   RELEASE  -
|  1> !r2SCANh aug-cc-pVTZ d3 TightSCF SlowConv RIJCOSX defgrid2
|  2>
|  3> %pal
|  4> nprocs 4
|  5> end
|  6>
|  7> %scf
|  8> MaxIter 1500
|  9> end
| 10>
| 11> %maxcore 3000
| 12>
| 13> !CPCM
| 14> %cpcm smd true
| 15> SMDsolvent "MeCN"
| 16> surfacetype gepol_ses
| 17> rsolv 2.19
| 18> end
| 19>
| 20> * xyz 1 2
| 21> C          -1.21410268013558      0.66079671488085      0.00044125101463
| 22> C          -0.00479873951211      1.42348649358076      0.00008291249140
| 23> C           1.19917788477091      0.76805500599948     -0.00093245598873
| 24> C           1.21410525376750     -0.66078759041144     -0.00041186823336
| 25> C           0.00483277696024     -1.42348058095615     -0.00006380880582
| 26> C          -1.19915583251644     -0.76807297563841      0.00095026344814
| 27> H          -2.14500237789104     -1.31691197560262      0.00198921433109
| 28> H           0.05803237074867     -2.51570929713129     -0.00010038106333
| 29> H           2.17564601802106     -1.18573947417440      0.00063492612648
| 30> H           2.14497947433067      1.31689182680587     -0.00197612697820
| 31> H          -0.05801300840356      2.51575704823161      0.00011149719674
| 32> H          -2.17570214014031      1.18578190441576     -0.00060722353904
| 33> *
| 34>
| 35>                          ****END OF INPUT****

CARTESIAN COORDINATES (ANGSTROEM)
---------------------------------
  C     -1.214103    0.660797    0.000441
  C     -0.004799    1.423486    0.000083
  C      1.199178    0.768055   -0.000932
  C      1.214105   -0.660788   -0.000412
  C      0.004833   -1.423481   -0.000064
  C     -1.199156   -0.768073    0.000950
  H     -2.145002   -1.316912    0.001989
  H      0.058032   -2.515709   -0.000100
  H      2.175646   -1.185739    0.000635
  H      2.144979    1.316892   -0.001976
  H     -0.058013    2.515757    0.000111
  H     -2.175702    1.185782   -0.000607

 Total Charge           Charge          ....    1
 Multiplicity           Mult            ....    2
 Number of Electrons    NEL             ....   41
 Basis Dimension        Dim             ....  414

ORBITAL ENERGIES
----------------
                 SPIN UP ORBITALS
  NO   OCC          E(Eh)            E(eV)
   0   1.0000     -10.253000      -278.9983
   1   1.0000     -10.252970      -278.9975
   2   1.0000     -10.217374      -278.0289
   3   1.0000     -10.217353      -278.0283
   4   1.0000     -10.216589      -278.0075
   5   1.0000     -10.216569      -278.0070
   6   1.0000      -0.913371       -24.8541
   7   1.0000      -0.804286       -21.8857
   8   1.0000      -0.799881       -21.7659
   9   1.0000      -0.653967       -17.7953
  10   1.0000      -0.643227       -17.5031
  11   1.0000      -0.554377       -15.0854
  12   1.0000      -0.492309       -13.3964
  13   1.0000      -0.491136       -13.3645
  14   1.0000      -0.456733       -12.4283
  15   1.0000      -0.450077       -12.2472
  16   1.0000      -0.427058       -11.6208
  17   1.0000      -0.379684       -10.3317
  18   1.0000      -0.374101       -10.1798
  19   1.0000      -0.327568        -8.9136
  20   1.0000      -0.304035        -8.2732
  21   0.0000      -0.104235        -2.8364
  22   0.0000      -0.066250        -1.8027
  23   0.0000       0.009115         0.2480
  24   0.0000       0.027760         0.7554
  25   0.0000       0.028315         0.7705

                 SPIN DOWN ORBITALS
  NO   OCC          E(Eh)            E(eV)
   0   1.0000     -10.244635      -278.7707
   1   1.0000     -10.244609      -278.7700
   2   1.0000     -10.217107      -278.0216
   3   1.0000     -10.217087      -278.0211
   4   1.0000     -10.216370      -278.0016
   5   1.0000     -10.216351      -278.0010
   6   1.0000      -0.900315       -24.4988
   7   1.0000      -0.798759       -21.7353
   8   1.0000      -0.777808       -21.1652
   9   1.0000      -0.640788       -17.4367
  10   1.0000      -0.637757       -17.3542
  11   1.0000      -0.553065       -15.0497
  12   1.0000      -0.487494       -13.2654
  13   1.0000      -0.486852       -13.2479
  14   1.0000      -0.457227       -12.4418
  15   1.0000      -0.445715       -12.1285
  16   1.0000      -0.390602       -10.6288
  17   1.0000      -0.378276       -10.2934
  18   1.0000      -0.371181       -10.1003
  19   1.0000      -0.300928        -8.1887
  20   0.0000      -0.234978        -6.3941
  21   0.0000      -0.052869        -1.4386
  22   0.0000      -0.048554        -1.3212
  23   0.0000       0.011787         0.3207
  24   0.0000       0.028818         0.7842

MULLIKEN ATOMIC CHARGES AND SPIN POPULATIONS
--------------------------------------------
   0 C :   -0.203352    0.430152
   1 C :   -0.299360    0.021833
   2 C :   -0.306762    0.015513
   3 C :   -0.202171    0.430063
   4 C :   -0.301067    0.021856
   5 C :   -0.306208    0.015548
   6 H :    0.428559   -0.002574
   7 H :    0.434823   -0.002637
   8 H :    0.446275    0.037724
   9 H :    0.428257   -0.002567
  10 H :    0.435180   -0.002646
  11 H :    0.445827    0.037735
Sum of atomic charges         :    1.0000000

LOEWDIN ATOMIC CHARGES AND SPIN POPULATIONS
-------------------------------------------
   0 C :    0.326121    0.261420
   1 C :    0.285230    0.088842
   2 C :    0.284720    0.086710
   3 C :    0.326131    0.261387
   4 C :    0.285237    0.088829
   5 C :    0.284714    0.086722
   6 H :   -0.138482    0.004406
   7 H :   -0.138184    0.005066
   8 H :   -0.119439    0.053574
   9 H :   -0.138516    0.004404
  10 H :   -0.138147    0.005069
  11 H :   -0.119385    0.053571

  Mayer bond orders larger than 0.100000
B(  0-C ,  1-C ) :   0.9752 B(  0-C ,  5-C ) :   0.9701 B(  0-C , 11-H ) :   0.6683
B(  1-C ,  2-C ) :   1.3197 B(  1-C , 10-H ) :   0.7125 B(  2-C ,  3-C ) :   0.9706
B(  2-C ,  9-H ) :   0.7260 B(  3-C ,  4-C ) :   0.9753 B(  3-C ,  8-H ) :   0.6678
B(  4-C ,  5-C ) :   1.3193 B(  4-C ,  7-H ) :   0.7131 B(  5-C ,  6-H ) :   0.7258

Dispersion correction           -0.003115981
FINAL SINGLE POINT ENERGY      -231.943200255515

DIPOLE MOMENT
-------------

Method             : SCF
Type of density    : Electron Density
Multiplicity       :   2
Irrep              :   0
Energy             :  -231.9400842744636293 Eh
Relativity type    :
Basis              : AO
                                X                 Y                 Z
Electronic contribution:      0.000060289      -0.000029871       0.000010095
Nuclear contribution   :     -0.000102416       0.000063154      -0.000012453
                        -----------------------------------------
Total Dipole Moment    :     -0.000042127       0.000033283      -0.000002358
                        -----------------------------------------
Magnitude (a.u.)       :      0.000053740
Magnitude (Debye)      :      0.000136597

Rotational constants in cm-1:             0.193350             0.179303             0.093031
Rotational constants in MHz :          5796.486713          5375.355688          2788.992179

                             ****ORCA TERMINATED NORMALLY****
TOTAL RUN TIME: 0 days 0 hours 2 minutes 44 seconds 11 msec
