                         Program Version 6.0.0  -   RELEASE  -
|  1> !r2SCAN aug-cc-pVTZ d3 TightSCF SlowConv RIJCOSX defgrid2
|  2>
|  3> %pal
|  4> nprocs 4
|  5> end
|  6>
|  7> %scf
|  8> MaxIter 1500
|  9> end
| 10>
| 11> %maxcore 3000
| 12>
| 13> !CPCM
| 14> %cpcm smd true
| 15> SMDsolvent "MeCN"
| 16> surfacetype gepol_ses
| 17> rsolv 2.19
| 18> end
| 19>
| 20> * xyz -1 2
| 21> C           1.11485619102810      1.23346524770146     -0.04246013453408
| 22> C          -0.25819562047262      1.22933924261312     -0.01684176169193
| 23> C          -0.98793269131212      0.01064750984396      0.05369590147558
| 24> C          -0.25058397748058     -1.19914135084411      0.08408385170358
| 25> C           1.12686728083616     -1.19737445120311      0.05863833511697
| 26> C           1.88049207762006      0.02114016337723     -0.00784905676085
| 27> C           3.31422748057564      0.08999258300288     -0.03795740062188
| 28> O           3.95234377580661      1.16292200275802     -0.09390298789975
| 29> C           4.09411941134499     -1.22295178548747      0.00021080612150
| 30> H           3.89267162008921     -1.80863657997959      0.91865553015964
| 31> H           3.85410305658271     -1.88234976738815     -0.85682984004010
| 32> H           5.16792059393726     -0.97680478465363     -0.03317483614463
| 33> H           1.65189479450597     -2.15740095025540      0.09479003543363
| 34> H          -0.78941773964287     -2.15112643070549      0.13915861506264
| 35> C          -2.45525752462587      0.00050473870139     -0.00850205506014
| 36> F          -2.97297788080586     -0.04926536736079     -1.27295539154986
| 37> F          -3.00617659842767     -1.06434755608644      0.61734313114911
| 38> F          -3.01722345304082      1.10181905294511      0.53770926863957
| 39> H          -0.80650005596301      2.17740366385070     -0.04085176525521
| 40> H           1.67725065944470      2.17036951917034     -0.08706394530380
| 41> *
| 42>
| 43>                          ****END OF INPUT****

CARTESIAN COORDINATES (ANGSTROEM)
---------------------------------
  C      1.114856    1.233465   -0.042460
  C     -0.258196    1.229339   -0.016842
  C     -0.987933    0.010648    0.053696
  C     -0.250584   -1.199141    0.084084
  C      1.126867   -1.197374    0.058638
  C      1.880492    0.021140   -0.007849
  C      3.314227    0.089993   -0.037957
  O      3.952344    1.162922   -0.093903
  C      4.094119   -1.222952    0.000211
  H      3.892672   -1.808637    0.918656
  H      3.854103   -1.882350   -0.856830
  H      5.167921   -0.976805   -0.033175
  H      1.651895   -2.157401    0.094790
  H     -0.789418   -2.151126    0.139159
  C     -2.455258    0.000505   -0.008502
  F     -2.972978   -0.049265   -1.272955
  F     -3.006177   -1.064348    0.617343
  F     -3.017223    1.101819    0.537709
  H     -0.806500    2.177404   -0.040852
  H      1.677251    2.170370   -0.087064

 Total Charge           Charge          ....   -1
 Multiplicity           Mult            ....    2
 Number of Electrons    NEL             ....   97
 Basis Dimension        Dim             ....  759

ORBITAL ENERGIES
----------------
                 SPIN UP ORBITALS
  NO   OCC          E(Eh)            E(eV)
   0   1.0000     -24.510783      -666.9723
   1   1.0000     -24.510650      -666.9687
   2   1.0000     -24.503143      -666.7644
   3   1.0000     -18.887341      -513.9507
   4   1.0000     -10.265404      -279.3358
   5   1.0000     -10.063103      -273.8310
   6   1.0000     -10.029704      -272.9221
   7   1.0000     -10.028869      -272.8994
   8   1.0000     -10.028647      -272.8934
   9   1.0000     -10.022363      -272.7224
  10   1.0000     -10.017481      -272.5895
  11   1.0000     -10.013666      -272.4857
  12   1.0000     -10.008718      -272.3511
  13   1.0000      -1.258490       -34.2452
  14   1.0000      -1.174708       -31.9654
  15   1.0000      -1.165545       -31.7161
  16   1.0000      -0.942802       -25.6549
  17   1.0000      -0.808833       -22.0095
  18   1.0000      -0.736006       -20.0278
  19   1.0000      -0.700838       -19.0708
  20   1.0000      -0.678319       -18.4580
  21   1.0000      -0.644949       -17.5500
  22   1.0000      -0.588164       -16.0048
  23   1.0000      -0.561854       -15.2888
  24   1.0000      -0.538961       -14.6659
  25   1.0000      -0.530357       -14.4317
  26   1.0000      -0.512279       -13.9398
  27   1.0000      -0.495058       -13.4712
  28   1.0000      -0.422329       -11.4922
  29   1.0000      -0.419480       -11.4146
  30   1.0000      -0.417358       -11.3569
  31   1.0000      -0.406064       -11.0496
  32   1.0000      -0.394960       -10.7474
  33   1.0000      -0.382092       -10.3973
  34   1.0000      -0.377225       -10.2648
  35   1.0000      -0.376575       -10.2471
  36   1.0000      -0.371226       -10.1016
  37   1.0000      -0.365753        -9.9526
  38   1.0000      -0.356656        -9.7051
  39   1.0000      -0.341531        -9.2935
  40   1.0000      -0.332394        -9.0449
  41   1.0000      -0.328285        -8.9331
  42   1.0000      -0.310299        -8.4437
  43   1.0000      -0.296454        -8.0669
  44   1.0000      -0.281437        -7.6583
  45   1.0000      -0.233015        -6.3407
  46   1.0000      -0.227050        -6.1784
  47   1.0000      -0.182149        -4.9565
  48   1.0000      -0.091921        -2.5013
  49   0.0000      -0.022856        -0.6219
  50   0.0000       0.004777         0.1300
  51   0.0000       0.008264         0.2249
  52   0.0000       0.019886         0.5411
  53   0.0000       0.023205         0.6314

                 SPIN DOWN ORBITALS
  NO   OCC          E(Eh)            E(eV)
   0   1.0000     -24.510519      -666.9651
   1   1.0000     -24.510397      -666.9618
   2   1.0000     -24.502305      -666.7416
   3   1.0000     -18.881502      -513.7918
   4   1.0000     -10.265275      -279.3323
   5   1.0000     -10.059494      -273.7327
   6   1.0000     -10.029501      -272.9166
   7   1.0000     -10.029105      -272.9058
   8   1.0000     -10.024753      -272.7874
   9   1.0000     -10.020585      -272.6740
  10   1.0000     -10.015532      -272.5365
  11   1.0000     -10.011220      -272.4191
  12   1.0000     -10.009023      -272.3594
  13   1.0000      -1.257735       -34.2247
  14   1.0000      -1.174299       -31.9543
  15   1.0000      -1.164213       -31.6798
  16   1.0000      -0.933538       -25.4029
  17   1.0000      -0.803894       -21.8751
  18   1.0000      -0.728137       -19.8136
  19   1.0000      -0.697440       -18.9783
  20   1.0000      -0.674207       -18.3461
  21   1.0000      -0.643651       -17.5146
  22   1.0000      -0.582303       -15.8453
  23   1.0000      -0.560934       -15.2638
  24   1.0000      -0.536484       -14.5985
  25   1.0000      -0.530039       -14.4231
  26   1.0000      -0.508446       -13.8355
  27   1.0000      -0.490909       -13.3583
  28   1.0000      -0.420986       -11.4556
  29   1.0000      -0.417848       -11.3702
  30   1.0000      -0.415471       -11.3056
  31   1.0000      -0.404533       -11.0079
  32   1.0000      -0.391832       -10.6623
  33   1.0000      -0.376573       -10.2471
  34   1.0000      -0.376073       -10.2335
  35   1.0000      -0.370532       -10.0827
  36   1.0000      -0.369950       -10.0668
  37   1.0000      -0.365036        -9.9331
  38   1.0000      -0.356008        -9.6875
  39   1.0000      -0.338250        -9.2042
  40   1.0000      -0.327835        -8.9209
  41   1.0000      -0.322051        -8.7634
  42   1.0000      -0.307790        -8.3754
  43   1.0000      -0.280278        -7.6268
  44   1.0000      -0.277516        -7.5516
  45   1.0000      -0.224110        -6.0983
  46   1.0000      -0.206207        -5.6112
  47   1.0000      -0.177527        -4.8307
  48   0.0000      -0.058898        -1.6027
  49   0.0000      -0.018705        -0.5090
  50   0.0000       0.007030         0.1913
  51   0.0000       0.020999         0.5714
  52   0.0000       0.025153         0.6844

MULLIKEN ATOMIC CHARGES AND SPIN POPULATIONS
--------------------------------------------
   0 C :   -1.250876    0.161005
   1 C :   -0.750154   -0.076903
   2 C :    0.754654    0.325633
   3 C :   -0.935772   -0.072096
   4 C :   -0.609858    0.162195
   5 C :    1.798947    0.142819
   6 C :    0.608325    0.192563
   7 O :   -1.076702    0.201700
   8 C :   -0.552999   -0.048816
   9 H :    0.207003    0.017954
  10 H :    0.202975    0.017203
  11 H :    0.142082   -0.005697
  12 H :   -0.142011   -0.007114
  13 H :    0.265010   -0.001703
  14 C :    1.236202   -0.012493
  15 F :   -0.385560    0.012288
  16 F :   -0.382835    0.003128
  17 F :   -0.383426    0.003309
  18 H :    0.305030   -0.002938
  19 H :   -0.050036   -0.012039
Sum of atomic charges         :   -1.0000000

LOEWDIN ATOMIC CHARGES AND SPIN POPULATIONS
-------------------------------------------
   0 C :    0.152296    0.078999
   1 C :    0.149940    0.040184
   2 C :   -0.225458    0.139870
   3 C :    0.151108    0.044320
   4 C :    0.165666    0.079104
   5 C :   -0.194605    0.133826
   6 C :   -0.656287    0.159198
   7 O :    0.366200    0.173735
   8 C :    0.511946    0.027395
   9 H :   -0.176087    0.006891
  10 H :   -0.176207    0.006861
  11 H :   -0.200669   -0.000678
  12 H :   -0.198700    0.014051
  13 H :   -0.190553    0.001264
  14 C :   -1.592921    0.048085
  15 F :    0.482432    0.018323
  16 F :    0.516225    0.006834
  17 F :    0.516641    0.007126
  18 H :   -0.191397    0.000102
  19 H :   -0.209568    0.014508

  Mayer bond orders larger than 0.100000
B(  0-C ,  1-C ) :   1.4842 B(  0-C ,  4-C ) :  -0.5722 B(  0-C ,  5-C ) :  -0.2480
B(  0-C ,  6-C ) :   0.3662 B(  0-C , 12-H ) :   0.1305 B(  0-C , 19-H ) :   1.3958
B(  1-C ,  2-C ) :   0.5034 B(  1-C ,  4-C ) :  -0.1577 B(  1-C , 18-H ) :   0.7756
B(  2-C ,  3-C ) :   0.4293 B(  2-C , 14-C ) :   1.0333 B(  2-C , 15-F ) :   0.1436
B(  2-C , 16-F ) :   0.1102 B(  2-C , 17-F ) :   0.1308 B(  3-C ,  4-C ) :   1.0837
B(  3-C ,  5-C ) :   0.1170 B(  3-C , 12-H ) :  -0.1138 B(  3-C , 13-H ) :   0.8338
B(  4-C ,  6-C ) :   0.2189 B(  4-C , 12-H ) :   1.6943 B(  5-C ,  6-C ) :   0.3935
B(  5-C ,  7-O ) :   0.3094 B(  5-C , 12-H ) :  -0.3384 B(  5-C , 19-H ) :  -0.1863
B(  6-C ,  7-O ) :   0.5903 B(  6-C ,  8-C ) :   0.9045 B(  6-C , 18-H ) :   0.1007
B(  7-O , 19-H ) :   0.1373 B(  8-C ,  9-H ) :   0.9838 B(  8-C , 10-H ) :   0.9857
B(  8-C , 11-H ) :   0.9548 B( 12-H , 19-H ) :   0.1194 B( 14-C , 15-F ) :   0.6717
B( 14-C , 16-F ) :   0.6855 B( 14-C , 17-F ) :   0.6799

Dispersion correction           -0.006443175
FINAL SINGLE POINT ENERGY      -721.982373040138

DIPOLE MOMENT
-------------

Method             : SCF
Type of density    : Electron Density
Multiplicity       :   2
Irrep              :   0
Energy             :  -721.9759298646613388 Eh
Relativity type    :
Basis              : AO
                                X                 Y                 Z
Electronic contribution:    -24.388325145       2.953864492      -0.168697350
Nuclear contribution   :     22.174393419      -4.340377650       0.286944378
                        -----------------------------------------
Total Dipole Moment    :     -2.213931727      -1.386513158       0.118247028
                        -----------------------------------------
Magnitude (a.u.)       :      2.614936861
Magnitude (Debye)      :      6.646641284

Rotational constants in cm-1:             0.074129             0.012365             0.011236
Rotational constants in MHz :          2222.330337           370.696975           336.858086

                             ****ORCA TERMINATED NORMALLY****
TOTAL RUN TIME: 0 days 0 hours 5 minutes 9 seconds 662 msec
