                         Program Version 6.0.0  -   RELEASE  -
|  1> !r2SCAN freq aug-cc-pVTZ d3 TightSCF SlowConv RIJCOSX defgrid2
|  2>
|  3> %pal
|  4> nprocs 12
|  5> end
|  6>
|  7> %scf
|  8> MaxIter 1500
|  9> end
| 10>
| 11> %maxcore 5000
| 12>
| 13> !CPCM
| 14> %cpcm smd true
| 15> SMDsolvent "MeCN"
| 16> surfacetype gepol_ses
| 17> rsolv 2.19
| 18> end
| 19>
| 20> * xyz 0 1
| 21> C          -1.15520576817722     -1.24282114521535     -0.00042093502804
| 22> C          -2.50764711576669     -0.94872253319885      0.00007600510219
| 23> C          -2.93209469268440      0.37833527498187      0.00032455854281
| 24> C          -2.00088555260279      1.41242812801413     -0.00032279006711
| 25> C          -0.64350304741829      1.12836440600325     -0.00078848010017
| 26> C          -0.21392785621078     -0.20172145215226     -0.00061859218853
| 27> C           1.19550129121474     -0.60308867883954     -0.00022355226584
| 28> O           1.63565767944443     -1.70885330050475     -0.00355150219222
| 29> Cl          2.39447036757714      0.78901406369638      0.00650774005683
| 30> H           0.07735277694195      1.93340405779548     -0.00161057663526
| 31> H          -2.33246735768450      2.44306644038725      0.00033511135966
| 32> H          -3.99128776368094      0.60562126858461      0.00120241155643
| 33> H          -3.23314152863682     -1.75254715922391      0.00029048464018
| 34> H          -0.81349863231581     -2.26954537032830     -0.00070518278093
| 35> *
| 36>
| 37>                          ****END OF INPUT****

CARTESIAN COORDINATES (ANGSTROEM)
---------------------------------
  C     -1.155206   -1.242821   -0.000421
  C     -2.507647   -0.948723    0.000076
  C     -2.932095    0.378335    0.000325
  C     -2.000886    1.412428   -0.000323
  C     -0.643503    1.128364   -0.000788
  C     -0.213928   -0.201721   -0.000619
  C      1.195501   -0.603089   -0.000224
  O      1.635658   -1.708853   -0.003552
  Cl     2.394470    0.789014    0.006508
  H      0.077353    1.933404   -0.001611
  H     -2.332467    2.443066    0.000335
  H     -3.991288    0.605621    0.001202
  H     -3.233142   -1.752547    0.000290
  H     -0.813499   -2.269545   -0.000705

 Total Charge           Charge          ....    0
 Multiplicity           Mult            ....    1
 Number of Electrons    NEL             ....   72
 Basis Dimension        Dim             ....  533

ORBITAL ENERGIES
----------------

  NO   OCC          E(Eh)            E(eV)
   0   2.0000    -101.221707     -2754.3827
   1   2.0000     -18.986666      -516.6535
   2   2.0000     -10.187530      -277.2168
   3   2.0000     -10.076108      -274.1848
   4   2.0000     -10.059766      -273.7402
   5   2.0000     -10.059616      -273.7361
   6   2.0000     -10.056444      -273.6498
   7   2.0000     -10.051332      -273.5107
   8   2.0000     -10.051166      -273.5061
   9   2.0000      -9.374756      -255.1001
  10   2.0000      -7.119122      -193.7212
  11   2.0000      -7.112051      -193.5287
  12   2.0000      -7.110792      -193.4945
  13   2.0000      -1.058999       -28.8168
  14   2.0000      -0.847017       -23.0485
  15   2.0000      -0.804832       -21.9006
  16   2.0000      -0.744556       -20.2604
  17   2.0000      -0.731302       -19.8997
  18   2.0000      -0.624493       -16.9933
  19   2.0000      -0.589139       -16.0313
  20   2.0000      -0.539176       -14.6717
  21   2.0000      -0.495593       -13.4858
  22   2.0000      -0.458058       -12.4644
  23   2.0000      -0.446455       -12.1487
  24   2.0000      -0.424131       -11.5412
  25   2.0000      -0.417322       -11.3559
  26   2.0000      -0.415163       -11.2972
  27   2.0000      -0.402651       -10.9567
  28   2.0000      -0.358396        -9.7525
  29   2.0000      -0.338518        -9.2115
  30   2.0000      -0.323898        -8.8137
  31   2.0000      -0.302493        -8.2313
  32   2.0000      -0.298770        -8.1300
  33   2.0000      -0.271005        -7.3744
  34   2.0000      -0.260454        -7.0873
  35   2.0000      -0.254875        -6.9355
  36   0.0000      -0.107479        -2.9246
  37   0.0000      -0.049234        -1.3397
  38   0.0000      -0.016882        -0.4594
  39   0.0000      -0.004168        -0.1134
  40   0.0000       0.008268         0.2250

MULLIKEN ATOMIC CHARGES
-----------------------
   0 C :   -0.828234
   1 C :   -0.428745
   2 C :   -0.246525
   3 C :   -0.645308
   4 C :   -0.767504
   5 C :    1.438316
   6 C :    0.643712
   7 O :   -0.716935
   8 Cl:   -0.310209
   9 H :    0.338167
  10 H :    0.468029
  11 H :    0.471194
  12 H :    0.423649
  13 H :    0.160393
Sum of atomic charges:   -0.0000000

LOEWDIN ATOMIC CHARGES
----------------------
   0 C :    0.198082
   1 C :    0.222982
   2 C :    0.221193
   3 C :    0.220113
   4 C :    0.165092
   5 C :   -0.249316
   6 C :   -1.088394
   7 O :    0.416249
   8 Cl:    0.823902
   9 H :   -0.242270
  10 H :   -0.169970
  11 H :   -0.166292
  12 H :   -0.169570
  13 H :   -0.181799

  Mayer bond orders larger than 0.100000
B(  0-C ,  1-C ) :   1.1409 B(  0-C ,  4-C ) :  -0.1067 B(  0-C ,  5-C ) :   0.3158
B(  0-C ,  6-C ) :   0.1419 B(  0-C , 13-H ) :   0.8819 B(  1-C ,  2-C ) :   1.1015
B(  1-C , 12-H ) :   0.6971 B(  2-C ,  3-C ) :   1.1613 B(  2-C ,  5-C ) :  -0.1734
B(  2-C , 11-H ) :   0.6248 B(  3-C ,  4-C ) :   1.1432 B(  3-C ,  5-C ) :  -0.1328
B(  3-C , 10-H ) :   0.6211 B(  4-C ,  5-C ) :   0.1923 B(  4-C ,  6-C ) :   0.1351
B(  4-C ,  9-H ) :   0.9736 B(  5-C ,  6-C ) :   0.6277 B(  5-C ,  7-O ) :   0.2450
B(  5-C ,  8-Cl) :   0.1796 B(  6-C ,  7-O ) :   1.0108 B(  6-C ,  8-Cl) :   0.7452
B(  7-O , 13-H ) :   0.1555 B(  8-Cl,  9-H ) :  -0.1517

Dispersion correction           -0.004742935
FINAL SINGLE POINT ENERGY      -805.131684638867

DIPOLE MOMENT
-------------

Method             : SCF
Type of density    : Electron Density
Multiplicity       :   1
Irrep              :   0
Energy             :  -805.1269417042760779 Eh
Relativity type    :
Basis              : AO
                                X                 Y                 Z
Electronic contribution:     10.688958851       0.748469547       0.012585564
Nuclear contribution   :    -12.882282735      -0.199749991      -0.012826796
                        -----------------------------------------
Total Dipole Moment    :     -2.193323884       0.548719556      -0.000241232
                        -----------------------------------------
Magnitude (a.u.)       :      2.260920802
Magnitude (Debye)      :      5.746803972

VIBRATIONAL FREQUENCIES
-----------------------

Scaling factor for frequencies =  1.000000000  (already applied!)

     0:       0.00 cm**-1
     1:       0.00 cm**-1
     2:       0.00 cm**-1
     3:       0.00 cm**-1
     4:       0.00 cm**-1
     5:       0.00 cm**-1
     6:      13.89 cm**-1
     7:     142.53 cm**-1
     8:     191.93 cm**-1
     9:     310.90 cm**-1
    10:     400.34 cm**-1
    11:     403.08 cm**-1
    12:     421.47 cm**-1
    13:     500.09 cm**-1
    14:     623.37 cm**-1
    15:     658.26 cm**-1
    16:     662.97 cm**-1
    17:     685.46 cm**-1
    18:     786.83 cm**-1
    19:     850.16 cm**-1
    20:     854.76 cm**-1
    21:     959.12 cm**-1
    22:     997.60 cm**-1
    23:    1016.21 cm**-1
    24:    1020.28 cm**-1
    25:    1044.79 cm**-1
    26:    1105.74 cm**-1
    27:    1166.82 cm**-1
    28:    1177.72 cm**-1
    29:    1215.87 cm**-1
    30:    1330.38 cm**-1
    31:    1376.56 cm**-1
    32:    1468.40 cm**-1
    33:    1506.18 cm**-1
    34:    1609.09 cm**-1
    35:    1624.16 cm**-1
    36:    1801.44 cm**-1
    37:    3174.58 cm**-1
    38:    3185.24 cm**-1
    39:    3192.98 cm**-1
    40:    3201.53 cm**-1
    41:    3213.12 cm**-1

IR SPECTRUM
-----------

 Mode   freq       eps      Int      T**2         TX        TY        TZ
       cm**-1   L/(mol*cm) km/mol    a.u.
----------------------------------------------------------------------------
  6:     13.89   0.000050    0.25  0.001126  ( 0.002013  0.001263  0.033477)
  7:    142.53   0.000054    0.27  0.000119  ( 0.000206  0.000553 -0.010893)
  8:    191.93   0.000268    1.35  0.000435  (-0.017574 -0.011251 -0.000016)
  9:    310.90   0.008845   44.70  0.008878  (-0.074496 -0.057694 -0.000183)
 10:    400.34   0.000001    0.00  0.000000  (-0.000215 -0.000652  0.000028)
 11:    403.08   0.006397   32.33  0.004953  (-0.043384 -0.055410 -0.000175)
 12:    421.47   0.000155    0.79  0.000115  (-0.000612 -0.000293  0.010706)
 13:    500.09   0.002674   13.51  0.001669  ( 0.028220  0.029531  0.000313)
 14:    623.37   0.001474    7.45  0.000738  ( 0.023565  0.013489  0.000669)
 15:    658.26   0.011639   58.82  0.005518  ( 0.002218  0.000836  0.074245)
 16:    662.97   0.050558  255.50  0.023798  (-0.138620 -0.067694  0.000571)
 17:    685.46   0.014210   71.81  0.006469  ( 0.000352  0.000312 -0.080431)
 18:    786.83   0.008542   43.17  0.003388  ( 0.000218 -0.000192 -0.058204)
 19:    850.16   0.000024    0.12  0.000009  (-0.000080  0.000249  0.002957)
 20:    854.76   0.073713  372.51  0.026912  (-0.143106 -0.080200 -0.000503)
 21:    959.12   0.000471    2.38  0.000153  ( 0.000137  0.000248 -0.012374)
 22:    997.60   0.000012    0.06  0.000004  (-0.000234  0.000617  0.001788)
 23:   1016.21   0.000867    4.38  0.000266  (-0.016288  0.001039  0.000053)
 24:   1020.28   0.000011    0.05  0.000003  (-0.000272 -0.000262 -0.001771)
 25:   1044.79   0.001338    6.76  0.000400  (-0.017224  0.010154  0.000109)
 26:   1105.74   0.002567   12.97  0.000725  ( 0.007066 -0.025973  0.000096)
 27:   1166.82   0.000138    0.69  0.000037  ( 0.001172  0.005950  0.000030)
 28:   1177.72   0.027062  136.76  0.007171  ( 0.084383  0.007088  0.000132)
 29:   1215.87   0.051288  259.19  0.013164  (-0.112353 -0.023244 -0.000188)
 30:   1330.38   0.001010    5.10  0.000237  ( 0.010731  0.011034 -0.000065)
 31:   1376.56   0.002997   15.15  0.000679  (-0.002374  0.025957 -0.000031)
 32:   1468.40   0.007701   38.92  0.001637  (-0.024433 -0.032244  0.000003)
 33:   1506.18   0.000081    0.41  0.000017  (-0.000863 -0.004017 -0.000029)
 34:   1609.09   0.004434   22.41  0.000860  (-0.026725  0.012070  0.000003)
 35:   1624.16   0.016154   81.64  0.003104  ( 0.051623 -0.020950 -0.000073)
 36:   1801.44   0.128849  651.15  0.022321  ( 0.063132 -0.135405 -0.000449)
 37:   3174.58   0.000228    1.15  0.000022  ( 0.004608 -0.001097 -0.000051)
 38:   3185.24   0.002072   10.47  0.000203  ( 0.004086  0.013648 -0.000079)
 39:   3192.98   0.002962   14.97  0.000289  (-0.013945  0.009747 -0.000116)
 40:   3201.53   0.002498   12.63  0.000244  ( 0.013478  0.007866 -0.000027)
 41:   3213.12   0.000423    2.14  0.000041  (-0.004113  0.004919  0.000079)

--------------------------
THERMOCHEMISTRY AT 298.15K
--------------------------

Temperature         ...   298.15 K
Pressure            ...     1.00 atm
Total Mass          ...   140.57 AMU
Quasi RRHO          ...     True
Cut-Off Frequency   ...     1.00 cm^-1

Throughout the following assumptions are being made:
  (1) The electronic state is orbitally nondegenerate
  (2) There are no thermally accessible electronically excited states
  (3) Hindered rotations indicated by low frequency modes are not
      treated as such but are treated as vibrations and this may
      cause some error
  (4) All equations used are the standard statistical mechanics
      equations for an ideal gas
  (5) All vibrations are strictly harmonic

freq.      13.89  E(vib)   ...       0.57
freq.     142.53  E(vib)   ...       0.41
freq.     191.93  E(vib)   ...       0.36
freq.     310.90  E(vib)   ...       0.26
freq.     400.34  E(vib)   ...       0.19
freq.     403.08  E(vib)   ...       0.19
freq.     421.47  E(vib)   ...       0.18
freq.     500.09  E(vib)   ...       0.14
freq.     623.37  E(vib)   ...       0.09
freq.     658.26  E(vib)   ...       0.08
freq.     662.97  E(vib)   ...       0.08
freq.     685.46  E(vib)   ...       0.07
freq.     786.83  E(vib)   ...       0.05
freq.     850.16  E(vib)   ...       0.04
freq.     854.76  E(vib)   ...       0.04
freq.     959.12  E(vib)   ...       0.03
freq.     997.60  E(vib)   ...       0.02
freq.    1016.21  E(vib)   ...       0.02
freq.    1020.28  E(vib)   ...       0.02
freq.    1044.79  E(vib)   ...       0.02
freq.    1105.74  E(vib)   ...       0.02
freq.    1166.82  E(vib)   ...       0.01
freq.    1177.72  E(vib)   ...       0.01
freq.    1215.87  E(vib)   ...       0.01
freq.    1330.38  E(vib)   ...       0.01
freq.    1376.56  E(vib)   ...       0.01
freq.    1468.40  E(vib)   ...       0.00
freq.    1506.18  E(vib)   ...       0.00
freq.    1609.09  E(vib)   ...       0.00
freq.    1624.16  E(vib)   ...       0.00
freq.    1801.44  E(vib)   ...       0.00
freq.    3174.58  E(vib)   ...       0.00
freq.    3185.24  E(vib)   ...       0.00
freq.    3192.98  E(vib)   ...       0.00
freq.    3201.53  E(vib)   ...       0.00
freq.    3213.12  E(vib)   ...       0.00

------------
INNER ENERGY
------------

The inner energy is: U= E(el) + E(ZPE) + E(vib) + E(rot) + E(trans)
    E(el)   - is the total energy from the electronic structure calculation
              = E(kin-el) + E(nuc-el) + E(el-el) + E(nuc-nuc)
    E(ZPE)  - the the zero temperature vibrational energy from the frequency calculation
    E(vib)  - the the finite temperature correction to E(ZPE) due to population
              of excited vibrational states
    E(rot)  - is the rotational thermal energy
    E(trans)- is the translational thermal energy

Summary of contributions to the inner energy U:
Electronic energy                ...   -805.13168464 Eh
Zero point energy                ...      0.09999752 Eh      62.75 kcal/mol
Thermal vibrational correction   ...      0.00470827 Eh       2.95 kcal/mol
Thermal rotational correction    ...      0.00141627 Eh       0.89 kcal/mol
Thermal translational correction ...      0.00141627 Eh       0.89 kcal/mol
-----------------------------------------------------------------------
Total thermal energy                   -805.02414631 Eh

Summary of corrections to the electronic energy:
(perhaps to be used in another calculation)
Total thermal correction                  0.00754081 Eh       4.73 kcal/mol
Non-thermal (ZPE) correction              0.09999752 Eh      62.75 kcal/mol
-----------------------------------------------------------------------
Total correction                          0.10753833 Eh      67.48 kcal/mol

--------
ENTHALPY
--------

The enthalpy is H = U + kB*T
                kB is Boltzmann's constant
Total thermal energy              ...   -805.02414631 Eh
Thermal Enthalpy correction       ...      0.00094421 Eh       0.59 kcal/mol
-----------------------------------------------------------------------
Total Enthalpy                    ...   -805.02320210 Eh

Note: Only C1 symmetry has been detected, increase convergence thresholds
      if your molecule has a higher symmetry. Symmetry factor of 1.0 is
      used for the rotational entropy correction.

Note: Rotational entropy computed according to Herzberg
Infrared and Raman Spectra, Chapter V,1, Van Nostrand Reinhold, 1945
Point Group:  C1, Symmetry Number:   1
Rotational constants in cm-1:     0.103808     0.030964     0.023850

Vibrational entropy computed according to the QRRHO of S. Grimme
Chem.Eur.J. 2012 18 9955 using a reference frequency of 100.0 cm-1

-------
ENTROPY
-------

The entropy contributions are T*S = T*(S(el)+S(vib)+S(rot)+S(trans))
     S(el)   - electronic entropy
     S(vib)  - vibrational entropy
     S(rot)  - rotational entropy
     S(trans)- translational entropy
The entropies will be listed as multiplied by the temperature to get
units of energy

Electronic entropy                ...      0.00000000 Eh      0.00 kcal/mol
Vibrational entropy               ...      0.00822374 Eh      5.16 kcal/mol
Rotational entropy                ...      0.01398441 Eh      8.78 kcal/mol
Translational entropy             ...      0.01935352 Eh     12.14 kcal/mol
-----------------------------------------------------------------------
Final entropy term                ...      0.04156166 Eh     26.08 kcal/mol

In case the symmetry of your molecule has not been determined correctly
or in case you have a reason to use a different symmetry number we print
out the resulting rotational entropy values for sn=1,12:

 non-linear molecules -----------------------------------
|  sn= 1 | S(rot)=       0.01398441 Eh      8.78 kcal/mol|
|  sn= 2 | S(rot)=       0.01332995 Eh      8.36 kcal/mol|
|  sn= 3 | S(rot)=       0.01294712 Eh      8.12 kcal/mol|
|  sn= 4 | S(rot)=       0.01267549 Eh      7.95 kcal/mol|
|  sn= 5 | S(rot)=       0.01246481 Eh      7.82 kcal/mol|
|  sn= 6 | S(rot)=       0.01229266 Eh      7.71 kcal/mol|
|  sn= 7 | S(rot)=       0.01214711 Eh      7.62 kcal/mol|
|  sn= 8 | S(rot)=       0.01202104 Eh      7.54 kcal/mol|
|  sn= 9 | S(rot)=       0.01190983 Eh      7.47 kcal/mol|
|  sn=10 | S(rot)=       0.01181035 Eh      7.41 kcal/mol|
|  sn=11 | S(rot)=       0.01172036 Eh      7.35 kcal/mol|
|  sn=12 | S(rot)=       0.01163820 Eh      7.30 kcal/mol|
 linear molecules ---------------------------------------
|  Dinfh | S(rot)=       0.00885325 Eh      5.56 kcal/mol|
|  Cinfv | S(rot)=       0.00950771 Eh      5.97 kcal/mol|
 --------------------------------------------------------

-------------------
GIBBS FREE ENERGY
-------------------

The Gibbs free energy is G = H - T*S

                             ****ORCA TERMINATED NORMALLY****
TOTAL RUN TIME: 0 days 0 hours 13 minutes 44 seconds 258 msec
