                         Program Version 6.0.0  -   RELEASE  -
|  1> !PBE0 aug-cc-pVTZ d3 TightSCF SlowConv RIJCOSX defgrid2
|  2>
|  3> %pal
|  4> nprocs 4
|  5> end
|  6>
|  7> %scf
|  8> MaxIter 1500
|  9> end
| 10>
| 11> %maxcore 3000
| 12>
| 13> !CPCM
| 14> %cpcm smd true
| 15> SMDsolvent "MeCN"
| 16> surfacetype gepol_ses
| 17> rsolv 2.19
| 18> end
| 19>
| 20> * xyz 0 1
| 21> C           0.43295274103395     -0.56555208137454     -0.12382569822175
| 22> C           1.51815041093286     -1.44256145132370      0.03465132264486
| 23> C           2.82291605458460     -0.98131423085206      0.16263470248186
| 24> C           3.07724805433695      0.38906543613859      0.10395417081958
| 25> C           2.01798434399991      1.27254312720111     -0.06183531891651
| 26> C           0.68778075786998      0.82920111453005     -0.15098740877372
| 27> C          -0.35699948321221      1.85751329332423     -0.25045884909377
| 28> C          -1.60080927987703      1.81370681826415      0.25464129384079
| 29> C          -2.59473145726124      2.92199907643296      0.15011601671836
| 30> H          -3.51573836514016      2.58612139620194     -0.36308088945608
| 31> H          -2.90680231015057      3.27360328807964      1.15160677275170
| 32> H          -2.18833105696491      3.78355768338862     -0.40632712366609
| 33> H          -1.92003588165608      0.92155321305987      0.80823791464133
| 34> H          -0.04094477526312      2.78794694041111     -0.74417993319491
| 35> H           2.21326017353196      2.34900579584862     -0.10386391754355
| 36> H           4.10071513363350      0.76784189558933      0.18022490580490
| 37> H           3.64525794250500     -1.69329903916305      0.28019138928457
| 38> H           1.32601592423891     -2.51911318521029      0.01809993008456
| 39> C          -0.91691070467914     -1.11038869710857     -0.32534444063154
| 40> C          -1.40376577306444     -2.22814293611418      0.23571081912874
| 41> C          -2.75893884419196     -2.79406285722768     -0.03123293907509
| 42> H          -3.32366890460505     -2.17343167413791     -0.74746352614549
| 43> H          -2.69094682094056     -3.81739069188698     -0.44702594213530
| 44> H          -3.35245768734527     -2.87433845188828      0.89900228994579
| 45> H          -0.77994682614443     -2.77248476472153      0.95866929401903
| 46> H          -1.56550936617145     -0.54211921746145     -1.00577693531227
| 47> *
| 48>
| 49>                          ****END OF INPUT****

CARTESIAN COORDINATES (ANGSTROEM)
---------------------------------
  C      0.432953   -0.565552   -0.123826
  C      1.518150   -1.442561    0.034651
  C      2.822916   -0.981314    0.162635
  C      3.077248    0.389065    0.103954
  C      2.017984    1.272543   -0.061835
  C      0.687781    0.829201   -0.150987
  C     -0.356999    1.857513   -0.250459
  C     -1.600809    1.813707    0.254641
  C     -2.594731    2.921999    0.150116
  H     -3.515738    2.586121   -0.363081
  H     -2.906802    3.273603    1.151607
  H     -2.188331    3.783558   -0.406327
  H     -1.920036    0.921553    0.808238
  H     -0.040945    2.787947   -0.744180
  H      2.213260    2.349006   -0.103864
  H      4.100715    0.767842    0.180225
  H      3.645258   -1.693299    0.280191
  H      1.326016   -2.519113    0.018100
  C     -0.916911   -1.110389   -0.325344
  C     -1.403766   -2.228143    0.235711
  C     -2.758939   -2.794063   -0.031233
  H     -3.323669   -2.173432   -0.747464
  H     -2.690947   -3.817391   -0.447026
  H     -3.352458   -2.874338    0.899002
  H     -0.779947   -2.772485    0.958669
  H     -1.565509   -0.542119   -1.005777

 Total Charge           Charge          ....    0
 Multiplicity           Mult            ....    1
 Number of Electrons    NEL             ....   86
 Basis Dimension        Dim             ....  874

ORBITAL ENERGIES
----------------

  NO   OCC          E(Eh)            E(eV)
   0   2.0000     -10.243483      -278.7393
   1   2.0000     -10.242843      -278.7219
   2   2.0000     -10.230899      -278.3969
   3   2.0000     -10.229281      -278.3529
   4   2.0000     -10.229024      -278.3459
   5   2.0000     -10.228518      -278.3321
   6   2.0000     -10.228195      -278.3233
   7   2.0000     -10.227799      -278.3125
   8   2.0000     -10.225624      -278.2534
   9   2.0000     -10.223548      -278.1969
  10   2.0000     -10.216085      -277.9938
  11   2.0000     -10.215174      -277.9690
  12   2.0000      -0.892466       -24.2852
  13   2.0000      -0.825283       -22.4571
  14   2.0000      -0.820897       -22.3377
  15   2.0000      -0.772850       -21.0303
  16   2.0000      -0.769416       -20.9369
  17   2.0000      -0.706810       -19.2333
  18   2.0000      -0.689634       -18.7659
  19   2.0000      -0.628868       -17.1124
  20   2.0000      -0.615371       -16.7451
  21   2.0000      -0.566861       -15.4251
  22   2.0000      -0.560063       -15.2401
  23   2.0000      -0.520425       -14.1615
  24   2.0000      -0.484293       -13.1783
  25   2.0000      -0.476446       -12.9647
  26   2.0000      -0.455263       -12.3883
  27   2.0000      -0.438882       -11.9426
  28   2.0000      -0.435948       -11.8627
  29   2.0000      -0.419507       -11.4154
  30   2.0000      -0.417704       -11.3663
  31   2.0000      -0.415726       -11.3125
  32   2.0000      -0.397720       -10.8225
  33   2.0000      -0.386980       -10.5303
  34   2.0000      -0.385281       -10.4840
  35   2.0000      -0.363722        -9.8974
  36   2.0000      -0.362032        -9.8514
  37   2.0000      -0.348803        -9.4914
  38   2.0000      -0.341360        -9.2889
  39   2.0000      -0.301527        -8.2050
  40   2.0000      -0.297040        -8.0829
  41   2.0000      -0.249036        -6.7766
  42   2.0000      -0.225876        -6.1464
  43   0.0000      -0.035656        -0.9703
  44   0.0000      -0.022210        -0.6044
  45   0.0000       0.002061         0.0561
  46   0.0000       0.010033         0.2730
  47   0.0000       0.011738         0.3194

MULLIKEN ATOMIC CHARGES
-----------------------
   0 C :    0.768852
   1 C :   -1.108011
   2 C :   -0.664695
   3 C :   -0.367644
   4 C :   -1.101136
   5 C :    1.074472
   6 C :   -0.266631
   7 C :   -0.404021
   8 C :   -0.811387
   9 H :    0.246534
  10 H :    0.223316
  11 H :    0.271196
  12 H :    0.333586
  13 H :    0.242483
  14 H :    0.220838
  15 H :    0.696010
  16 H :    0.587712
  17 H :    0.232176
  18 C :    0.068764
  19 C :   -0.733763
  20 C :   -0.783902
  21 H :    0.267089
  22 H :    0.239634
  23 H :    0.225816
  24 H :    0.304818
  25 H :    0.237895
Sum of atomic charges:   -0.0000000

LOEWDIN ATOMIC CHARGES
----------------------
   0 C :   -0.126879
   1 C :    0.195514
   2 C :    0.188641
   3 C :    0.185903
   4 C :    0.193398
   5 C :   -0.129748
   6 C :    0.197948
   7 C :    0.191651
   8 C :    0.551811
   9 H :   -0.160747
  10 H :   -0.161036
  11 H :   -0.170554
  12 H :   -0.180895
  13 H :   -0.172369
  14 H :   -0.163893
  15 H :   -0.168239
  16 H :   -0.167839
  17 H :   -0.172201
  18 C :    0.171423
  19 C :    0.196081
  20 C :    0.546977
  21 H :   -0.170369
  22 H :   -0.162688
  23 H :   -0.162874
  24 H :   -0.168223
  25 H :   -0.180791

  Mayer bond orders larger than 0.100000
B(  0-C ,  1-C ) :   0.8519 B(  0-C ,  3-C ) :  -0.2114 B(  0-C ,  5-C ) :   1.0293
B(  0-C ,  6-C ) :   0.1920 B(  0-C , 18-C ) :   0.1303 B(  0-C , 24-H ) :  -0.1027
B(  1-C ,  2-C ) :   1.2796 B(  1-C ,  5-C ) :  -0.1272 B(  1-C , 17-H ) :   1.0855
B(  1-C , 18-C ) :   0.2116 B(  1-C , 19-C ) :   0.1107 B(  2-C ,  3-C ) :   1.2792
B(  2-C , 16-H ) :   0.4315 B(  3-C ,  4-C ) :   1.1430 B(  3-C ,  5-C ) :   0.1496
B(  3-C , 15-H ) :   0.2485 B(  4-C ,  5-C ) :   0.6569 B(  4-C , 14-H ) :   1.0766
B(  5-C ,  6-C ) :   0.1881 B(  5-C , 12-H ) :  -0.1119 B(  5-C , 14-H ) :   0.1550
B(  6-C ,  7-C ) :   1.3038 B(  6-C , 12-H ) :   0.1004 B(  6-C , 13-H ) :   0.9384
B(  7-C ,  8-C ) :   0.9252 B(  7-C , 12-H ) :   0.9666 B(  8-C ,  9-H ) :   0.9480
B(  8-C , 10-H ) :   0.9751 B(  8-C , 11-H ) :   0.9090 B( 18-C , 19-C ) :   1.2596
B( 18-C , 20-C ) :  -0.1045 B( 18-C , 25-H ) :   0.9970 B( 19-C , 20-C ) :   0.9437
B( 19-C , 24-H ) :   0.9140 B( 20-C , 21-H ) :   0.9232 B( 20-C , 22-H ) :   0.9481
B( 20-C , 23-H ) :   0.9783

Dispersion correction           -0.024625331
FINAL SINGLE POINT ENERGY      -465.301883593165

DIPOLE MOMENT
-------------

Method             : SCF
Type of density    : Electron Density
Multiplicity       :   1
Irrep              :   0
Energy             :  -465.2772582622342838 Eh
Relativity type    :
Basis              : AO
                                X                 Y                 Z
Electronic contribution:      9.836561190      -0.107019604      -0.317361240
Nuclear contribution   :    -10.320917319       0.104061334       0.410695045
                        -----------------------------------------
Total Dipole Moment    :     -0.484356129      -0.002958270       0.093333805
                        -----------------------------------------
Magnitude (a.u.)       :      0.493275593
Magnitude (Debye)      :      1.253806916

Rotational constants in cm-1:             0.032124             0.026217             0.014718
Rotational constants in MHz :           963.065643           785.959094           441.247217

                             ****ORCA TERMINATED NORMALLY****
TOTAL RUN TIME: 0 days 0 hours 10 minutes 55 seconds 849 msec
