                         Program Version 6.0.0  -   RELEASE  -
|  1> !PBE0 freq def2-SV(p) d3 TightSCF SlowConv RIJCOSX defgrid2
|  2>
|  3> %pal
|  4> nprocs 12
|  5> end
|  6>
|  7> %scf
|  8> MaxIter 1500
|  9> end
| 10>
| 11> %maxcore 5000
| 12>
| 13> !CPCM
| 14> %cpcm smd true
| 15> SMDsolvent "MeCN"
| 16> surfacetype gepol_ses
| 17> rsolv 2.19
| 18> end
| 19>
| 20> * xyz 0 1
| 21> C           1.36234104928262     -0.66263202319305      0.80109198126247
| 22> C           2.61890247453712     -1.26462006138132      0.84915761383113
| 23> C           3.69896553729127     -0.71445281093499      0.15618618772780
| 24> C           3.51452392525702      0.45046166431647     -0.59044349954407
| 25> C           2.26106378838328      1.05739150412025     -0.65334325032657
| 26> C           1.18783356271033      0.49810206713115      0.04221276354227
| 27> O          -0.00001896264703      1.17054829503524      0.00003116501521
| 28> C          -1.18784377970160      0.49809877206420     -0.04222436555488
| 29> C          -2.26115357328060      1.05742068341727      0.65320686511656
| 30> C          -3.51460480289467      0.45047814745965      0.59020698668080
| 31> C          -3.69895561824171     -0.71451870158694     -0.15631463605985
| 32> C          -2.61880846965551     -1.26476610134196     -0.84908653289980
| 33> C          -1.36226365018254     -0.66274374885352     -0.80097809814552
| 34> H          -0.52092514434632     -1.09060113959107     -1.35260929441997
| 35> H          -2.75342354477143     -2.17341946996608     -1.44387454265754
| 36> H          -4.68199707799717     -1.19198900016218     -0.20025253371281
| 37> H          -4.35357213767089      0.89250991926705      1.13633226581440
| 38> H          -2.09892265132607      1.96781277600139      1.23620705973279
| 39> H           2.09877103147147      1.96774621144322     -1.23638848525346
| 40> H           4.35343451360395      0.89245142997071     -1.13669104879790
| 41> H           4.68201725468173     -1.19190711501688      0.20007862592155
| 42> H           2.75360012256241     -2.17318783809952      1.44406160006165
| 43> H           0.52108445293434     -1.09042766009906      1.35289287266575
| 44> *
| 45>
| 46>                          ****END OF INPUT****

CARTESIAN COORDINATES (ANGSTROEM)
---------------------------------
  C      1.362341   -0.662632    0.801092
  C      2.618902   -1.264620    0.849158
  C      3.698966   -0.714453    0.156186
  C      3.514524    0.450462   -0.590443
  C      2.261064    1.057392   -0.653343
  C      1.187834    0.498102    0.042213
  O     -0.000019    1.170548    0.000031
  C     -1.187844    0.498099   -0.042224
  C     -2.261154    1.057421    0.653207
  C     -3.514605    0.450478    0.590207
  C     -3.698956   -0.714519   -0.156315
  C     -2.618808   -1.264766   -0.849087
  C     -1.362264   -0.662744   -0.800978
  H     -0.520925   -1.090601   -1.352609
  H     -2.753424   -2.173419   -1.443875
  H     -4.681997   -1.191989   -0.200253
  H     -4.353572    0.892510    1.136332
  H     -2.098923    1.967813    1.236207
  H      2.098771    1.967746   -1.236388
  H      4.353435    0.892451   -1.136691
  H      4.682017   -1.191907    0.200079
  H      2.753600   -2.173188    1.444062
  H      0.521084   -1.090428    1.352893

 Total Charge           Charge          ....    0
 Multiplicity           Mult            ....    1
 Number of Electrons    NEL             ....   90
 Basis Dimension        Dim             ....  202

ORBITAL ENERGIES
----------------

  NO   OCC          E(Eh)            E(eV)
   0   2.0000     -19.259064      -524.0658
   1   2.0000     -10.304027      -280.3868
   2   2.0000     -10.303998      -280.3860
   3   2.0000     -10.240978      -278.6712
   4   2.0000     -10.240962      -278.6707
   5   2.0000     -10.240622      -278.6615
   6   2.0000     -10.240604      -278.6610
   7   2.0000     -10.238982      -278.6169
   8   2.0000     -10.238957      -278.6162
   9   2.0000     -10.236991      -278.5627
  10   2.0000     -10.236971      -278.5622
  11   2.0000     -10.234423      -278.4928
  12   2.0000     -10.234410      -278.4925
  13   2.0000      -1.112896       -30.2834
  14   2.0000      -0.887043       -24.1377
  15   2.0000      -0.871582       -23.7169
  16   2.0000      -0.788247       -21.4493
  17   2.0000      -0.770310       -20.9612
  18   2.0000      -0.766224       -20.8500
  19   2.0000      -0.742366       -20.2008
  20   2.0000      -0.659284       -17.9400
  21   2.0000      -0.636027       -17.3072
  22   2.0000      -0.623783       -16.9740
  23   2.0000      -0.595916       -16.2157
  24   2.0000      -0.567294       -15.4369
  25   2.0000      -0.525237       -14.2924
  26   2.0000      -0.502284       -13.6678
  27   2.0000      -0.498588       -13.5673
  28   2.0000      -0.491576       -13.3765
  29   2.0000      -0.457359       -12.4454
  30   2.0000      -0.454798       -12.3757
  31   2.0000      -0.439838       -11.9686
  32   2.0000      -0.439191       -11.9510
  33   2.0000      -0.424488       -11.5509
  34   2.0000      -0.419347       -11.4110
  35   2.0000      -0.386749       -10.5240
  36   2.0000      -0.380166       -10.3449
  37   2.0000      -0.374738       -10.1971
  38   2.0000      -0.371521       -10.1096
  39   2.0000      -0.352400        -9.5893
  40   2.0000      -0.346456        -9.4276
  41   2.0000      -0.278234        -7.5711
  42   2.0000      -0.272008        -7.4017
  43   2.0000      -0.269664        -7.3379
  44   2.0000      -0.237309        -6.4575
  45   0.0000      -0.016858        -0.4587
  46   0.0000      -0.010710        -0.2914
  47   0.0000      -0.002545        -0.0693
  48   0.0000       0.008969         0.2441
  49   0.0000       0.079963         2.1759

MULLIKEN ATOMIC CHARGES
-----------------------
   0 C :   -0.185343
   1 C :   -0.121915
   2 C :   -0.118170
   3 C :   -0.123735
   4 C :   -0.169287
   5 C :    0.237057
   6 O :   -0.313473
   7 C :    0.236739
   8 C :   -0.169372
   9 C :   -0.123666
  10 C :   -0.118145
  11 C :   -0.121866
  12 C :   -0.185315
  13 H :    0.134480
  14 H :    0.130473
  15 H :    0.125392
  16 H :    0.130744
  17 H :    0.117210
  18 H :    0.117183
  19 H :    0.130721
  20 H :    0.125373
  21 H :    0.130455
  22 H :    0.134457
Sum of atomic charges:    0.0000000

LOEWDIN ATOMIC CHARGES
----------------------
   0 C :   -0.162525
   1 C :   -0.126848
   2 C :   -0.155142
   3 C :   -0.127406
   4 C :   -0.156921
   5 C :    0.033973
   6 O :   -0.068276
   7 C :    0.033864
   8 C :   -0.156987
   9 C :   -0.127388
  10 C :   -0.155125
  11 C :   -0.126823
  12 C :   -0.162559
  13 H :    0.149799
  14 H :    0.144723
  15 H :    0.142369
  16 H :    0.144609
  17 H :    0.147618
  18 H :    0.147601
  19 H :    0.144596
  20 H :    0.142358
  21 H :    0.144711
  22 H :    0.149779

  Mayer bond orders larger than 0.100000
B(  0-C ,  1-C ) :   1.3784 B(  0-C ,  5-C ) :   1.3462 B(  0-C , 22-H ) :   0.9547
B(  1-C ,  2-C ) :   1.3770 B(  1-C , 21-H ) :   0.9601 B(  2-C ,  3-C ) :   1.3789
B(  2-C , 20-H ) :   0.9663 B(  3-C ,  4-C ) :   1.3695 B(  3-C , 19-H ) :   0.9615
B(  4-C ,  5-C ) :   1.3827 B(  4-C , 18-H ) :   0.9663 B(  5-C ,  6-O ) :   1.0083
B(  6-O ,  7-C ) :   1.0084 B(  7-C ,  8-C ) :   1.3827 B(  7-C , 12-C ) :   1.3462
B(  8-C ,  9-C ) :   1.3695 B(  8-C , 17-H ) :   0.9663 B(  9-C , 10-C ) :   1.3789
B(  9-C , 16-H ) :   0.9615 B( 10-C , 11-C ) :   1.3770 B( 10-C , 15-H ) :   0.9663
B( 11-C , 12-C ) :   1.3784 B( 11-C , 14-H ) :   0.9601 B( 12-C , 13-H ) :   0.9547

Dispersion correction           -0.023550029
FINAL SINGLE POINT ENERGY      -537.514492927468

DIPOLE MOMENT
-------------

Method             : SCF
Type of density    : Electron Density
Multiplicity       :   1
Irrep              :   0
Energy             :  -537.4909428984217357 Eh
Relativity type    :
Basis              : AO
                                X                 Y                 Z
Electronic contribution:     -0.000256316       2.459898453      -0.000339616
Nuclear contribution   :      0.000075144      -2.989432696      -0.000024467
                        -----------------------------------------
Total Dipole Moment    :     -0.000181172      -0.529534243      -0.000364083
                        -----------------------------------------
Magnitude (a.u.)       :      0.529534399
Magnitude (Debye)      :      1.345969477

VIBRATIONAL FREQUENCIES
-----------------------

Scaling factor for frequencies =  1.000000000  (already applied!)

     0:       0.00 cm**-1
     1:       0.00 cm**-1
     2:       0.00 cm**-1
     3:       0.00 cm**-1
     4:       0.00 cm**-1
     5:       0.00 cm**-1
     6:      13.57 cm**-1
     7:      39.80 cm**-1
     8:      89.11 cm**-1
     9:     220.51 cm**-1
    10:     241.35 cm**-1
    11:     319.51 cm**-1
    12:     392.08 cm**-1
    13:     425.02 cm**-1
    14:     429.46 cm**-1
    15:     494.60 cm**-1
    16:     520.88 cm**-1
    17:     576.56 cm**-1
    18:     613.97 cm**-1
    19:     625.76 cm**-1
    20:     637.55 cm**-1
    21:     716.61 cm**-1
    22:     718.41 cm**-1
    23:     772.44 cm**-1
    24:     778.74 cm**-1
    25:     820.72 cm**-1
    26:     848.90 cm**-1
    27:     849.76 cm**-1
    28:     899.28 cm**-1
    29:     930.80 cm**-1
    30:     936.26 cm**-1
    31:     998.28 cm**-1
    32:     999.03 cm**-1
    33:    1015.46 cm**-1
    34:    1016.12 cm**-1
    35:    1023.10 cm**-1
    36:    1023.32 cm**-1
    37:    1052.60 cm**-1
    38:    1052.73 cm**-1
    39:    1093.24 cm**-1
    40:    1095.77 cm**-1
    41:    1148.49 cm**-1
    42:    1148.70 cm**-1
    43:    1163.86 cm**-1
    44:    1164.50 cm**-1
    45:    1253.48 cm**-1
    46:    1317.58 cm**-1
    47:    1320.29 cm**-1
    48:    1329.80 cm**-1
    49:    1394.92 cm**-1
    50:    1405.16 cm**-1
    51:    1492.45 cm**-1
    52:    1501.19 cm**-1
    53:    1531.20 cm**-1
    54:    1541.44 cm**-1
    55:    1669.92 cm**-1
    56:    1676.43 cm**-1
    57:    1679.26 cm**-1
    58:    1696.60 cm**-1
    59:    3200.16 cm**-1
    60:    3200.31 cm**-1
    61:    3207.53 cm**-1
    62:    3207.69 cm**-1
    63:    3217.25 cm**-1
    64:    3217.53 cm**-1
    65:    3222.61 cm**-1
    66:    3222.96 cm**-1
    67:    3227.13 cm**-1
    68:    3227.22 cm**-1

IR SPECTRUM
-----------

 Mode   freq       eps      Int      T**2         TX        TY        TZ
       cm**-1   L/(mol*cm) km/mol    a.u.
----------------------------------------------------------------------------
  6:     13.57   0.000498    2.52  0.011456  (-0.093898  0.000038  0.051374)
  7:     39.80   0.000023    0.12  0.000180  (-0.000099 -0.013409  0.000021)
  8:     89.11   0.000063    0.32  0.000221  (-0.000002  0.014876 -0.000085)
  9:    220.51   0.000375    1.90  0.000531  ( 0.022852 -0.000005  0.003027)
 10:    241.35   0.000026    0.13  0.000034  ( 0.000034 -0.005821  0.000086)
 11:    319.51   0.000106    0.54  0.000103  ( 0.000027  0.010171  0.000060)
 12:    392.08   0.001682    8.50  0.001339  (-0.033907 -0.000009  0.013744)
 13:    425.02   0.000140    0.71  0.000102  (-0.009659  0.000003 -0.003030)
 14:    429.46   0.000006    0.03  0.000004  ( 0.000035  0.002099  0.000021)
 15:    494.60   0.002812   14.21  0.001774  ( 0.000012  0.042120  0.000046)
 16:    520.88   0.006445   32.57  0.003861  ( 0.044162  0.000006  0.043717)
 17:    576.56   0.000151    0.76  0.000082  ( 0.002982  0.000004  0.008525)
 18:    613.97   0.000027    0.14  0.000014  (-0.000007 -0.003692 -0.000057)
 19:    625.76   0.000249    1.26  0.000124  ( 0.006691 -0.000005 -0.008915)
 20:    637.55   0.000304    1.54  0.000149  ( 0.000006 -0.012194  0.000006)
 21:    716.61   0.014798   74.78  0.006444  ( 0.031661  0.000037  0.073769)
 22:    718.41   0.007122   35.99  0.003094  ( 0.000004  0.055622  0.000031)
 23:    772.44   0.001591    8.04  0.000643  (-0.000005  0.025349 -0.000095)
 24:    778.74   0.021059  106.42  0.008439  (-0.002261 -0.000010 -0.091835)
 25:    820.72   0.006271   31.69  0.002385  ( 0.000014  0.048832  0.000027)
 26:    848.90   0.000104    0.52  0.000038  ( 0.005925  0.000049  0.001731)
 27:    849.76   0.000072    0.36  0.000026  (-0.000069  0.005128 -0.000048)
 28:    899.28   0.011165   56.43  0.003875  (-0.062246 -0.000003  0.000259)
 29:    930.80   0.002772   14.01  0.000929  ( 0.009618  0.000004  0.028927)
 30:    936.26   0.001746    8.83  0.000582  ( 0.000003  0.024126 -0.000016)
 31:    998.28   0.000040    0.20  0.000012  (-0.003195  0.000019  0.001478)
 32:    999.03   0.000001    0.00  0.000000  ( 0.000016  0.000465 -0.000048)
 33:   1015.46   0.001066    5.38  0.000327  (-0.018093 -0.000018 -0.000336)
 34:   1016.12   0.000001    0.00  0.000000  (-0.000142  0.000414  0.000042)
 35:   1023.10   0.000133    0.67  0.000040  ( 0.005001  0.000061  0.003932)
 36:   1023.32   0.000035    0.18  0.000011  (-0.000086  0.003272 -0.000071)
 37:   1052.60   0.000446    2.25  0.000132  ( 0.001558 -0.011390 -0.000016)
 38:   1052.73   0.005128   25.92  0.001520  ( 0.038985  0.000437  0.000365)
 39:   1093.24   0.004736   23.93  0.001352  (-0.014380 -0.000222  0.033837)
 40:   1095.77   0.006149   31.08  0.001751  ( 0.000043 -0.041848 -0.000245)
 41:   1148.49   0.000024    0.12  0.000007  ( 0.000004  0.000032 -0.002550)
 42:   1148.70   0.000063    0.32  0.000017  (-0.000000  0.004131  0.000030)
 43:   1163.86   0.000490    2.47  0.000131  ( 0.000356 -0.011452  0.000051)
 44:   1164.50   0.002754   13.92  0.000738  ( 0.027087  0.000145 -0.002085)
 45:   1253.48   0.002202   11.13  0.000548  ( 0.000003  0.023415 -0.000009)
 46:   1317.58   0.011401   57.61  0.002700  ( 0.051727  0.000000  0.004954)
 47:   1320.29   0.153222  774.32  0.036215  ( 0.190271 -0.000011  0.003524)
 48:   1329.80   0.000360    1.82  0.000084  ( 0.000204  0.009186 -0.000056)
 49:   1394.92   0.003803   19.22  0.000851  ( 0.028238 -0.000018 -0.007317)
 50:   1405.16   0.000055    0.28  0.000012  (-0.000031 -0.003504 -0.000015)
 51:   1492.45   0.000367    1.86  0.000077  (-0.004911  0.000002 -0.007256)
 52:   1501.19   0.000400    2.02  0.000083  (-0.000001 -0.009115  0.000014)
 53:   1531.20   0.110903  560.46  0.022603  (-0.150254 -0.000045 -0.005110)
 54:   1541.44   0.005824   29.43  0.001179  ( 0.000260 -0.034338  0.000048)
 55:   1669.92   0.002860   14.45  0.000534  ( 0.003961  0.000036  0.022777)
 56:   1676.43   0.045444  229.65  0.008459  (-0.091942  0.000087  0.002421)
 57:   1679.26   0.005253   26.55  0.000976  (-0.000279 -0.031243 -0.000021)
 58:   1696.60   0.000961    4.86  0.000177  (-0.000020  0.013296  0.000010)
 59:   3200.16   0.000619    3.13  0.000060  ( 0.007590 -0.000227  0.001651)
 60:   3200.31   0.000094    0.47  0.000009  ( 0.000552  0.002969  0.000113)
 61:   3207.53   0.001321    6.68  0.000129  (-0.004688 -0.000840  0.010288)
 62:   3207.69   0.001716    8.67  0.000167  (-0.000304  0.012899  0.000660)
 63:   3217.25   0.005878   29.71  0.000570  ( 0.023866 -0.000323  0.000667)
 64:   3217.53   0.001192    6.02  0.000116  ( 0.000681  0.010731 -0.000015)
 65:   3222.61   0.001043    5.27  0.000101  ( 0.001658  0.000408 -0.009901)
 66:   3222.96   0.001554    7.85  0.000150  ( 0.000034 -0.012261 -0.000339)
 67:   3227.13   0.001305    6.59  0.000126  (-0.010978 -0.000018  0.002375)
 68:   3227.22   0.000003    0.02  0.000000  (-0.000459  0.000323  0.000032)

--------------------------
THERMOCHEMISTRY AT 298.15K
--------------------------

Temperature         ...   298.15 K
Pressure            ...     1.00 atm
Total Mass          ...   170.21 AMU
Quasi RRHO          ...     True
Cut-Off Frequency   ...     1.00 cm^-1

Throughout the following assumptions are being made:
  (1) The electronic state is orbitally nondegenerate
  (2) There are no thermally accessible electronically excited states
  (3) Hindered rotations indicated by low frequency modes are not
      treated as such but are treated as vibrations and this may
      cause some error
  (4) All equations used are the standard statistical mechanics
      equations for an ideal gas
  (5) All vibrations are strictly harmonic

freq.      13.57  E(vib)   ...       0.57
freq.      39.80  E(vib)   ...       0.54
freq.      89.11  E(vib)   ...       0.47
freq.     220.51  E(vib)   ...       0.33
freq.     241.35  E(vib)   ...       0.31
freq.     319.51  E(vib)   ...       0.25
freq.     392.08  E(vib)   ...       0.20
freq.     425.02  E(vib)   ...       0.18
freq.     429.46  E(vib)   ...       0.18
freq.     494.60  E(vib)   ...       0.14
freq.     520.88  E(vib)   ...       0.13
freq.     576.56  E(vib)   ...       0.11
freq.     613.97  E(vib)   ...       0.10
freq.     625.76  E(vib)   ...       0.09
freq.     637.55  E(vib)   ...       0.09
freq.     716.61  E(vib)   ...       0.07
freq.     718.41  E(vib)   ...       0.07
freq.     772.44  E(vib)   ...       0.05
freq.     778.74  E(vib)   ...       0.05
freq.     820.72  E(vib)   ...       0.05
freq.     848.90  E(vib)   ...       0.04
freq.     849.76  E(vib)   ...       0.04
freq.     899.28  E(vib)   ...       0.03
freq.     930.80  E(vib)   ...       0.03
freq.     936.26  E(vib)   ...       0.03
freq.     998.28  E(vib)   ...       0.02
freq.     999.03  E(vib)   ...       0.02
freq.    1015.46  E(vib)   ...       0.02
freq.    1016.12  E(vib)   ...       0.02
freq.    1023.10  E(vib)   ...       0.02
freq.    1023.32  E(vib)   ...       0.02
freq.    1052.60  E(vib)   ...       0.02
freq.    1052.73  E(vib)   ...       0.02
freq.    1093.24  E(vib)   ...       0.02
freq.    1095.77  E(vib)   ...       0.02
freq.    1148.49  E(vib)   ...       0.01
freq.    1148.70  E(vib)   ...       0.01
freq.    1163.86  E(vib)   ...       0.01
freq.    1164.50  E(vib)   ...       0.01
freq.    1253.48  E(vib)   ...       0.01
freq.    1317.58  E(vib)   ...       0.01
freq.    1320.29  E(vib)   ...       0.01
freq.    1329.80  E(vib)   ...       0.01
freq.    1394.92  E(vib)   ...       0.00
freq.    1405.16  E(vib)   ...       0.00
freq.    1492.45  E(vib)   ...       0.00
freq.    1501.19  E(vib)   ...       0.00
freq.    1531.20  E(vib)   ...       0.00
freq.    1541.44  E(vib)   ...       0.00
freq.    1669.92  E(vib)   ...       0.00
freq.    1676.43  E(vib)   ...       0.00
freq.    1679.26  E(vib)   ...       0.00
freq.    1696.60  E(vib)   ...       0.00
freq.    3200.16  E(vib)   ...       0.00
freq.    3200.31  E(vib)   ...       0.00
freq.    3207.53  E(vib)   ...       0.00
freq.    3207.69  E(vib)   ...       0.00
freq.    3217.25  E(vib)   ...       0.00
freq.    3217.53  E(vib)   ...       0.00
freq.    3222.61  E(vib)   ...       0.00
freq.    3222.96  E(vib)   ...       0.00
freq.    3227.13  E(vib)   ...       0.00
freq.    3227.22  E(vib)   ...       0.00

------------
INNER ENERGY
------------

The inner energy is: U= E(el) + E(ZPE) + E(vib) + E(rot) + E(trans)
    E(el)   - is the total energy from the electronic structure calculation
              = E(kin-el) + E(nuc-el) + E(el-el) + E(nuc-nuc)
    E(ZPE)  - the the zero temperature vibrational energy from the frequency calculation
    E(vib)  - the the finite temperature correction to E(ZPE) due to population
              of excited vibrational states
    E(rot)  - is the rotational thermal energy
    E(trans)- is the translational thermal energy

Summary of contributions to the inner energy U:
Electronic energy                ...   -537.51449293 Eh
Zero point energy                ...      0.18650668 Eh     117.03 kcal/mol
Thermal vibrational correction   ...      0.00710878 Eh       4.46 kcal/mol
Thermal rotational correction    ...      0.00141627 Eh       0.89 kcal/mol
Thermal translational correction ...      0.00141627 Eh       0.89 kcal/mol
-----------------------------------------------------------------------
Total thermal energy                   -537.31804493 Eh

Summary of corrections to the electronic energy:
(perhaps to be used in another calculation)
Total thermal correction                  0.00994132 Eh       6.24 kcal/mol
Non-thermal (ZPE) correction              0.18650668 Eh     117.03 kcal/mol
-----------------------------------------------------------------------
Total correction                          0.19644800 Eh     123.27 kcal/mol

--------
ENTHALPY
--------

The enthalpy is H = U + kB*T
                kB is Boltzmann's constant
Total thermal energy              ...   -537.31804493 Eh
Thermal Enthalpy correction       ...      0.00094421 Eh       0.59 kcal/mol
-----------------------------------------------------------------------
Total Enthalpy                    ...   -537.31710072 Eh

Note: Only C1 symmetry has been detected, increase convergence thresholds
      if your molecule has a higher symmetry. Symmetry factor of 1.0 is
      used for the rotational entropy correction.

Note: Rotational entropy computed according to Herzberg
Infrared and Raman Spectra, Chapter V,1, Van Nostrand Reinhold, 1945
Point Group:  C1, Symmetry Number:   1
Rotational constants in cm-1:     0.080023     0.014480     0.013555

Vibrational entropy computed according to the QRRHO of S. Grimme
Chem.Eur.J. 2012 18 9955 using a reference frequency of 100.0 cm-1

-------
ENTROPY
-------

The entropy contributions are T*S = T*(S(el)+S(vib)+S(rot)+S(trans))
     S(el)   - electronic entropy
     S(vib)  - vibrational entropy
     S(rot)  - rotational entropy
     S(trans)- translational entropy
The entropies will be listed as multiplied by the temperature to get
units of energy

Electronic entropy                ...      0.00000000 Eh      0.00 kcal/mol
Vibrational entropy               ...      0.01228838 Eh      7.71 kcal/mol
Rotational entropy                ...      0.01473280 Eh      9.24 kcal/mol
Translational entropy             ...      0.01962451 Eh     12.31 kcal/mol
-----------------------------------------------------------------------
Final entropy term                ...      0.04664569 Eh     29.27 kcal/mol

In case the symmetry of your molecule has not been determined correctly
or in case you have a reason to use a different symmetry number we print

                             ****ORCA TERMINATED NORMALLY****
TOTAL RUN TIME: 0 days 0 hours 8 minutes 14 seconds 273 msec
