                         Program Version 6.0.0  -   RELEASE  -
|  1> !TPSSh aug-cc-pVTZ d3 TightSCF SlowConv RIJCOSX defgrid2
|  2>
|  3> %pal
|  4> nprocs 4
|  5> end
|  6>
|  7> %scf
|  8> MaxIter 1500
|  9> end
| 10>
| 11> %maxcore 3000
| 12>
| 13> !CPCM
| 14> %cpcm smd true
| 15> SMDsolvent "MeCN"
| 16> surfacetype gepol_ses
| 17> rsolv 2.19
| 18> end
| 19>
| 20> * xyz 1 2
| 21>   C          -0.51166320460813      1.22812669775511      0.04221064338961
| 22>   C          -1.88952625296000      1.21539539176763      0.05617367919047
| 23>   C          -2.59180844712688      0.00013116204188     -0.01880666295911
| 24>   C          -1.89049624956733     -1.21520671526456     -0.10134329816321
| 25>   C          -0.51256019966680     -1.22809524037907     -0.10227638476799
| 26>   C           0.21731408963535     -0.00001586789402     -0.03400404554273
| 27>   N           1.56995492990017     -0.00005133599829     -0.04140778831312
| 28>   C           2.34433477639579      1.21948603186316     -0.20492690765417
| 29>   H           3.31457999055289      0.96026373998418     -0.65302403936483
| 30>   H           1.83135324244622      1.92816869292227     -0.86818407839005
| 31>   H           2.52747752953805      1.69293789980228      0.77768636738438
| 32>   C           2.34605804905977     -1.21960114143284      0.11365277395931
| 33>   H           3.32105951761834     -0.96038019427341      0.55132163130194
| 34>   H           1.84024142677529     -1.92835608634421      0.78230594720200
| 35>   H           2.51862728476156     -1.69296466175821     -0.87090867989595
| 36>   H           0.01065172080766     -2.18040178328804     -0.19486548078037
| 37>   H          -2.43851884091908     -2.15821605280130     -0.17289394083341
| 38>   H          -3.68523926435270      0.00018625586019     -0.01289591193808
| 39>   H          -2.43664007610670      2.15846249523866      0.13367176321164
| 40>   H           0.01262657781651      2.18036711219859      0.12915381296366
| 41> *
| 42>
| 43>                          ****END OF INPUT****

CARTESIAN COORDINATES (ANGSTROEM)
---------------------------------
  C     -0.511663    1.228127    0.042211
  C     -1.889526    1.215395    0.056174
  C     -2.591808    0.000131   -0.018807
  C     -1.890496   -1.215207   -0.101343
  C     -0.512560   -1.228095   -0.102276
  C      0.217314   -0.000016   -0.034004
  N      1.569955   -0.000051   -0.041408
  C      2.344335    1.219486   -0.204927
  H      3.314580    0.960264   -0.653024
  H      1.831353    1.928169   -0.868184
  H      2.527478    1.692938    0.777686
  C      2.346058   -1.219601    0.113653
  H      3.321060   -0.960380    0.551322
  H      1.840241   -1.928356    0.782306
  H      2.518627   -1.692965   -0.870909
  H      0.010652   -2.180402   -0.194865
  H     -2.438519   -2.158216   -0.172894
  H     -3.685239    0.000186   -0.012896
  H     -2.436640    2.158462    0.133672
  H      0.012627    2.180367    0.129154

 Total Charge           Charge          ....    1
 Multiplicity           Mult            ....    2
 Number of Electrons    NEL             ....   65
 Basis Dimension        Dim             ....  667

ORBITAL ENERGIES
----------------
                 SPIN UP ORBITALS
  NO   OCC          E(Eh)            E(eV)
   0   1.0000     -14.368576      -390.9888
   1   1.0000     -10.203273      -277.6452
   2   1.0000     -10.165976      -276.6303
   3   1.0000     -10.165936      -276.6292
   4   1.0000     -10.155023      -276.3322
   5   1.0000     -10.155006      -276.3318
   6   1.0000     -10.154853      -276.3276
   7   1.0000     -10.143059      -276.0067
   8   1.0000     -10.143054      -276.0065
   9   1.0000      -1.000178       -27.2162
  10   1.0000      -0.861141       -23.4328
  11   1.0000      -0.765944       -20.8424
  12   1.0000      -0.765829       -20.8393
  13   1.0000      -0.729610       -19.8537
  14   1.0000      -0.681496       -18.5444
  15   1.0000      -0.612468       -16.6661
  16   1.0000      -0.587984       -15.9999
  17   1.0000      -0.544373       -14.8131
  18   1.0000      -0.498729       -13.5711
  19   1.0000      -0.497918       -13.5490
  20   1.0000      -0.491009       -13.3610
  21   1.0000      -0.451479       -12.2854
  22   1.0000      -0.435812       -11.8590
  23   1.0000      -0.432806       -11.7773
  24   1.0000      -0.410344       -11.1660
  25   1.0000      -0.404568       -11.0089
  26   1.0000      -0.393341       -10.7034
  27   1.0000      -0.382035       -10.3957
  28   1.0000      -0.369409       -10.0521
  29   1.0000      -0.346717        -9.4346
  30   1.0000      -0.326397        -8.8817
  31   1.0000      -0.280578        -7.6349
  32   1.0000      -0.241961        -6.5841
  33   0.0000      -0.050740        -1.3807
  34   0.0000      -0.047093        -1.2815
  35   0.0000      -0.009457        -0.2573
  36   0.0000       0.005335         0.1452
  37   0.0000       0.009091         0.2474

                 SPIN DOWN ORBITALS
  NO   OCC          E(Eh)            E(eV)
   0   1.0000     -14.356810      -390.6687
   1   1.0000     -10.204288      -277.6728
   2   1.0000     -10.166424      -276.6425
   3   1.0000     -10.166384      -276.6414
   4   1.0000     -10.151772      -276.2438
   5   1.0000     -10.151755      -276.2433
   6   1.0000     -10.150078      -276.1977
   7   1.0000     -10.144666      -276.0504
   8   1.0000     -10.144653      -276.0500
   9   1.0000      -0.983128       -26.7523
  10   1.0000      -0.855533       -23.2802
  11   1.0000      -0.762665       -20.7532
  12   1.0000      -0.761292       -20.7158
  13   1.0000      -0.728374       -19.8201
  14   1.0000      -0.673843       -18.3362
  15   1.0000      -0.609654       -16.5895
  16   1.0000      -0.583280       -15.8719
  17   1.0000      -0.541009       -14.7216
  18   1.0000      -0.494565       -13.4578
  19   1.0000      -0.487349       -13.2614
  20   1.0000      -0.473168       -12.8756
  21   1.0000      -0.450405       -12.2561
  22   1.0000      -0.433200       -11.7880
  23   1.0000      -0.431643       -11.7456
  24   1.0000      -0.405149       -11.0247
  25   1.0000      -0.402862       -10.9624
  26   1.0000      -0.384038       -10.4502
  27   1.0000      -0.377963       -10.2849
  28   1.0000      -0.367735       -10.0066
  29   1.0000      -0.345242        -9.3945
  30   1.0000      -0.301322        -8.1994
  31   1.0000      -0.272149        -7.4056
  32   0.0000      -0.175644        -4.7795
  33   0.0000      -0.041127        -1.1191
  34   0.0000      -0.027699        -0.7537
  35   0.0000      -0.008228        -0.2239
  36   0.0000       0.006146         0.1673

MULLIKEN ATOMIC CHARGES AND SPIN POPULATIONS
--------------------------------------------
   0 C :   -0.381311    0.193705
   1 C :   -0.501134   -0.104788
   2 C :   -0.357687    0.302733
   3 C :   -0.500517   -0.104801
   4 C :   -0.381710    0.193741
   5 C :    1.084658    0.038313
   6 N :   -0.132533    0.441466
   7 C :   -0.314757   -0.045046
   8 H :    0.091623    0.014367
   9 H :    0.166493    0.006569
  10 H :    0.163214    0.041999
  11 C :   -0.315097   -0.045074
  12 H :    0.091579    0.014387
  13 H :    0.166318    0.006552
  14 H :    0.163118    0.042014
  15 H :    0.374452    0.001749
  16 H :    0.388152   -0.004688
  17 H :    0.431185    0.009748
  18 H :    0.388990   -0.004690
  19 H :    0.374962    0.001745
Sum of atomic charges         :    1.0000000

LOEWDIN ATOMIC CHARGES AND SPIN POPULATIONS
-------------------------------------------
   0 C :    0.268445    0.094328
   1 C :    0.240540    0.026622
   2 C :    0.248109    0.139553
   3 C :    0.240535    0.026629
   4 C :    0.268422    0.094334
   5 C :   -0.153110    0.086095
   6 N :    0.307273    0.308315
   7 C :    0.566544    0.053212
   8 H :   -0.131860    0.005636
   9 H :   -0.146897    0.006648
  10 H :   -0.104364    0.017847
  11 C :    0.566532    0.053214
  12 H :   -0.131837    0.005639
  13 H :   -0.146937    0.006644
  14 H :   -0.104378    0.017845
  15 H :   -0.165991    0.019589
  16 H :   -0.152639   -0.007555
  17 H :   -0.149800    0.033375
  18 H :   -0.152640   -0.007557
  19 H :   -0.165947    0.019587

  Mayer bond orders larger than 0.100000
B(  0-C ,  1-C ) :   1.5504 B(  0-C ,  2-C ) :   0.2891 B(  0-C ,  4-C ) :   0.2331
B(  0-C ,  5-C ) :   0.6032 B(  0-C ,  6-N ) :  -0.1274 B(  0-C , 18-H ) :   0.1521
B(  0-C , 19-H ) :   0.4074 B(  1-C ,  2-C ) :   1.2929 B(  1-C ,  5-C ) :  -0.3311
B(  1-C , 18-H ) :   0.6368 B(  2-C ,  3-C ) :   1.2922 B(  2-C ,  4-C ) :   0.2883
B(  2-C ,  5-C ) :  -0.1082 B(  2-C , 17-H ) :   0.4670 B(  3-C ,  4-C ) :   1.5505
B(  3-C ,  5-C ) :  -0.3328 B(  3-C , 16-H ) :   0.6380 B(  4-C ,  5-C ) :   0.6007
B(  4-C ,  6-N ) :  -0.1291 B(  4-C , 15-H ) :   0.4097 B(  4-C , 16-H ) :   0.1518
B(  5-C ,  6-N ) :   0.7793 B(  6-N ,  7-C ) :   1.1700 B(  6-N , 11-C ) :   1.1705
B(  7-C ,  8-H ) :   0.9871 B(  7-C ,  9-H ) :   0.9466 B(  7-C , 10-H ) :   0.9149
B( 11-C , 12-H ) :   0.9869 B( 11-C , 13-H ) :   0.9468 B( 11-C , 14-H ) :   0.9153

Dispersion correction           -0.023448816
FINAL SINGLE POINT ENERGY      -366.226625079815

DIPOLE MOMENT
-------------

Method             : SCF
Type of density    : Electron Density
Multiplicity       :   2
Irrep              :   0
Energy             :  -366.2031762633977792 Eh
Relativity type    :
Basis              : AO
                                X                 Y                 Z
Electronic contribution:     -5.028288527       0.000492624       0.027578767
Nuclear contribution   :      6.490918904      -0.000107030      -0.035404468
                        -----------------------------------------
Total Dipole Moment    :      1.462630377       0.000385594      -0.007825701
                        -----------------------------------------
Magnitude (a.u.)       :      1.462651363
Magnitude (Debye)      :      3.717764308

Rotational constants in cm-1:             0.115459             0.040921             0.030704
Rotational constants in MHz :          3461.380126          1226.789981           920.471270

                             ****ORCA TERMINATED NORMALLY****
TOTAL RUN TIME: 0 days 0 hours 8 minutes 58 seconds 397 msec
