                         Program Version 6.0.0  -   RELEASE  -
|  1> !r2SCAN aug-cc-pVTZ d3 TightSCF SlowConv RIJCOSX defgrid2
|  2>
|  3> %pal
|  4> nprocs 4
|  5> end
|  6>
|  7> %scf
|  8> MaxIter 1500
|  9> end
| 10>
| 11> %maxcore 3000
| 12>
| 13> !CPCM
| 14> %cpcm smd true
| 15> SMDsolvent "MeCN"
| 16> surfacetype gepol_ses
| 17> rsolv 2.19
| 18> end
| 19>
| 20> * xyz 1 2
| 21> C          -1.18929710111744     -1.09285531809476     -0.10819644925615
| 22> C           0.00589173329489     -1.79822529332208     -0.13401141651239
| 23> C           1.19808208156691     -1.09105158000585     -0.06434654491920
| 24> C           1.21365138858984      0.35785054897918      0.03424223925553
| 25> C           2.51775471479426      1.05048436689676      0.10640427638312
| 26> H           2.41427085604479      2.14280676868630      0.17575377847974
| 27> H           3.09603271561737      0.68522468132195      0.97881748737636
| 28> H           3.13366664954396      0.79986441621953     -0.78044888567292
| 29> C          -0.00007800896972      1.04312717812580      0.05823770417539
| 30> C          -1.21092205755184      0.35593020163616     -0.01041203166499
| 31> C          -2.51780389192698      1.04678727365115      0.01197629521183
| 32> H          -3.09403194335214      0.80285450596818     -0.90319738383305
| 33> H          -2.41838300212946      2.13863620693826      0.09339400927998
| 34> H          -3.13338924600238      0.67411631081689      0.85502734287022
| 35> H          -0.00212028703487      2.13377489791986      0.13228993338047
| 36> H           2.15561414738440     -1.62182776088860     -0.08279661789994
| 37> H           0.00790773530576     -2.88854491189358     -0.20783219258290
| 38> H          -2.14457188405735     -1.62532769295516     -0.16174234407112
| 39> *
| 40>
| 41>                          ****END OF INPUT****

CARTESIAN COORDINATES (ANGSTROEM)
---------------------------------
  C     -1.189297   -1.092855   -0.108196
  C      0.005892   -1.798225   -0.134011
  C      1.198082   -1.091052   -0.064347
  C      1.213651    0.357851    0.034242
  C      2.517755    1.050484    0.106404
  H      2.414271    2.142807    0.175754
  H      3.096033    0.685225    0.978817
  H      3.133667    0.799864   -0.780449
  C     -0.000078    1.043127    0.058238
  C     -1.210922    0.355930   -0.010412
  C     -2.517804    1.046787    0.011976
  H     -3.094032    0.802855   -0.903197
  H     -2.418383    2.138636    0.093394
  H     -3.133389    0.674116    0.855027
  H     -0.002120    2.133775    0.132290
  H      2.155614   -1.621828   -0.082797
  H      0.007908   -2.888545   -0.207832
  H     -2.144572   -1.625328   -0.161742

 Total Charge           Charge          ....    1
 Multiplicity           Mult            ....    2
 Number of Electrons    NEL             ....   57
 Basis Dimension        Dim             ....  598

ORBITAL ENERGIES
----------------
                 SPIN UP ORBITALS
  NO   OCC          E(Eh)            E(eV)
   0   1.0000     -10.119776      -275.3731
   1   1.0000     -10.119719      -275.3715
   2   1.0000     -10.107512      -275.0394
   3   1.0000     -10.107480      -275.0385
   4   1.0000     -10.077222      -274.2151
   5   1.0000     -10.071347      -274.0553
   6   1.0000     -10.053373      -273.5662
   7   1.0000     -10.053349      -273.5655
   8   1.0000      -0.877061       -23.8660
   9   1.0000      -0.797190       -21.6926
  10   1.0000      -0.772812       -21.0293
  11   1.0000      -0.690839       -18.7987
  12   1.0000      -0.685136       -18.6435
  13   1.0000      -0.601895       -16.3784
  14   1.0000      -0.579408       -15.7665
  15   1.0000      -0.505261       -13.7488
  16   1.0000      -0.481174       -13.0934
  17   1.0000      -0.447663       -12.1815
  18   1.0000      -0.432126       -11.7587
  19   1.0000      -0.419990       -11.4285
  20   1.0000      -0.408422       -11.1137
  21   1.0000      -0.407198       -11.0804
  22   1.0000      -0.384816       -10.4714
  23   1.0000      -0.368561       -10.0291
  24   1.0000      -0.359419        -9.7803
  25   1.0000      -0.347667        -9.4605
  26   1.0000      -0.339625        -9.2417
  27   1.0000      -0.279520        -7.6061
  28   1.0000      -0.277600        -7.5539
  29   0.0000      -0.105875        -2.8810
  30   0.0000      -0.068406        -1.8614
  31   0.0000       0.005320         0.1448
  32   0.0000       0.021232         0.5778
  33   0.0000       0.022596         0.6149

                 SPIN DOWN ORBITALS
  NO   OCC          E(Eh)            E(eV)
   0   1.0000     -10.116068      -275.2722
   1   1.0000     -10.116020      -275.2709
   2   1.0000     -10.101036      -274.8632
   3   1.0000     -10.101011      -274.8625
   4   1.0000     -10.079868      -274.2871
   5   1.0000     -10.072704      -274.0922
   6   1.0000     -10.053173      -273.5608
   7   1.0000     -10.053149      -273.5601
   8   1.0000      -0.865971       -23.5643
   9   1.0000      -0.783547       -21.3214
  10   1.0000      -0.770228       -20.9590
  11   1.0000      -0.690458       -18.7883
  12   1.0000      -0.672069       -18.2879
  13   1.0000      -0.597574       -16.2608
  14   1.0000      -0.571759       -15.5584
  15   1.0000      -0.502955       -13.6861
  16   1.0000      -0.478797       -13.0287
  17   1.0000      -0.443965       -12.0809
  18   1.0000      -0.419517       -11.4156
  19   1.0000      -0.415032       -11.2936
  20   1.0000      -0.404008       -10.9936
  21   1.0000      -0.397965       -10.8292
  22   1.0000      -0.383840       -10.4448
  23   1.0000      -0.367070        -9.9885
  24   1.0000      -0.346102        -9.4179
  25   1.0000      -0.342029        -9.3071
  26   1.0000      -0.337190        -9.1754
  27   1.0000      -0.272788        -7.4230
  28   0.0000      -0.227042        -6.1781
  29   0.0000      -0.061899        -1.6844
  30   0.0000      -0.056847        -1.5469
  31   0.0000       0.006954         0.1892
  32   0.0000       0.022530         0.6131

MULLIKEN ATOMIC CHARGES AND SPIN POPULATIONS
--------------------------------------------
   0 C :   -0.770549    0.356288
   1 C :   -0.658382   -0.222169
   2 C :   -0.770669    0.355839
   3 C :    1.461428    0.258935
   4 C :   -0.628324   -0.048616
   5 H :    0.154991   -0.005202
   6 H :    0.225452    0.027090
   7 H :    0.224696    0.026662
   8 C :   -0.667938   -0.105577
   9 C :    1.462369    0.258305
  10 C :   -0.628383   -0.048226
  11 H :    0.225871    0.027134
  12 H :    0.155241   -0.005184
  13 H :    0.224339    0.026416
  14 H :   -0.113111   -0.011260
  15 H :    0.314359    0.060713
  16 H :    0.475730   -0.011913
  17 H :    0.312883    0.060768
Sum of atomic charges         :    1.0000000

LOEWDIN ATOMIC CHARGES AND SPIN POPULATIONS
-------------------------------------------
   0 C :    0.311852    0.202794
   1 C :    0.276329    0.037263
   2 C :    0.311799    0.202568
   3 C :   -0.052457    0.154206
   4 C :    0.629237    0.052271
   5 H :   -0.147254    0.002490
   6 H :   -0.127272    0.014419
   7 H :   -0.127467    0.014299
   8 C :    0.291734    0.024232
   9 C :   -0.052569    0.154017
  10 C :    0.629221    0.052169
  11 H :   -0.127180    0.014452
  12 H :   -0.147296    0.002487
  13 H :   -0.127569    0.014219
  14 H :   -0.144203   -0.007393
  15 H :   -0.125605    0.039462
  16 H :   -0.145716   -0.013475
  17 H :   -0.125583    0.039520

  Mayer bond orders larger than 0.100000
B(  0-C ,  1-C ) :   1.1990 B(  0-C ,  3-C ) :  -0.2806 B(  0-C ,  8-C ) :  -0.1428
B(  0-C ,  9-C ) :   0.4719 B(  0-C , 10-C ) :   0.1788 B(  0-C , 17-H ) :   0.8833
B(  1-C ,  2-C ) :   1.1983 B(  1-C ,  3-C ) :   0.1197 B(  1-C ,  9-C ) :   0.1195
B(  1-C , 16-H ) :   0.4739 B(  2-C ,  3-C ) :   0.4726 B(  2-C ,  4-C ) :   0.1793
B(  2-C ,  8-C ) :  -0.1427 B(  2-C ,  9-C ) :  -0.2805 B(  2-C , 15-H ) :   0.8814
B(  3-C ,  4-C ) :   0.2144 B(  3-C ,  8-C ) :   0.2736 B(  3-C ,  9-C ) :   0.4525
B(  3-C , 10-C ) :   0.1313 B(  3-C , 14-H ) :  -0.1791 B(  3-C , 17-H ) :  -0.1154
B(  4-C ,  5-H ) :   1.0496 B(  4-C ,  6-H ) :   0.9752 B(  4-C ,  7-H ) :   0.9755
B(  4-C ,  8-C ) :  -0.1561 B(  4-C ,  9-C ) :   0.1314 B(  8-C ,  9-C ) :   0.2741
B(  8-C , 10-C ) :  -0.1559 B(  8-C , 14-H ) :   1.5532 B(  8-C , 15-H ) :   0.1017
B(  8-C , 17-H ) :   0.1020 B(  9-C , 10-C ) :   0.2144 B(  9-C , 14-H ) :  -0.1794
B(  9-C , 15-H ) :  -0.1153 B( 10-C , 11-H ) :   0.9746 B( 10-C , 12-H ) :   1.0497
B( 10-C , 13-H ) :   0.9759

Dispersion correction           -0.005149680
FINAL SINGLE POINT ENERGY      -310.590144869118

DIPOLE MOMENT
-------------

Method             : SCF
Type of density    : Electron Density
Multiplicity       :   2
Irrep              :   0
Energy             :  -310.5849951890781995 Eh
Relativity type    :
Basis              : AO
                                X                 Y                 Z
Electronic contribution:      0.006640408      -3.146864627      -0.214527798
Nuclear contribution   :     -0.005606480       2.888237007       0.196904737
                        -----------------------------------------
Total Dipole Moment    :      0.001033928      -0.258627620      -0.017623061
                        -----------------------------------------
Magnitude (a.u.)       :      0.259229410
Magnitude (Debye)      :      0.658908796

Rotational constants in cm-1:             0.117442             0.059099             0.039898
Rotational constants in MHz :          3520.819355          1771.755031          1196.125429

                             ****ORCA TERMINATED NORMALLY****
TOTAL RUN TIME: 0 days 0 hours 4 minutes 14 seconds 58 msec
