                         Program Version 6.0.0  -   RELEASE  -
|  1> !PBE0 def2-SV(p) Opt Freq d3 TightSCF SlowConv RIJCOSX defgrid2
|  2>
|  3> %pal
|  4> nprocs 15
|  5> end
|  6>
|  7> %scf
|  8> MaxIter 1500
|  9> end
| 10>
| 11> %maxcore 3500
| 12>
| 13>
| 14>
| 15> * xyz 0 1
| 16> C        0.000000000      0.000000000      0.000000000
| 17> C        0.000000000      1.373319056      0.090541189
| 18> C        0.000000000      2.005801373      1.358202556
| 19> C        0.000000000      1.252280933      2.509901250
| 20> C        0.000000000     -0.167564122      2.452067234
| 21> C        0.000000000     -0.807631659      1.169203086
| 22> C        0.000000000     -2.227476714      1.111369070
| 23> C        0.000000000     -2.980997154      2.263067764
| 24> C        0.000000000     -2.348514836      3.530729131
| 25> C        0.000000000     -0.975195780      3.621270320
| 26> H        0.000000000      1.978586921     -0.811248289
| 27> H        0.000000000     -0.487597890      4.592806506
| 28> H        0.000000000     -2.953782701      4.432518609
| 29> H        0.000000000     -4.065491075      2.204361841
| 30> H        0.000000000     -2.710489610      0.137545264
| 31> C        0.000000000      3.543550002      1.441444104
| 32> H       -1.020692000      3.941505213      1.471906292
| 33> H        0.518060000      3.894447577      2.341217560
| 34> H        0.502632000      3.990007252      0.575912090
| 35> O        0.000000000      1.892133153      3.799935799
| 36> O        0.000000000     -0.645926009     -1.287004115
| 37> *
| 38>
| 39>                          ****END OF INPUT****
 Total Charge           Charge          ....    0
 Multiplicity           Mult            ....    1
 Number of Electrons    NEL             ....   90
Dispersion correction           -0.022725397
FINAL SINGLE POINT ENERGY      -573.262643677039
Dispersion correction             ... done (  0.1 sec)
Dispersion correction           -0.022803726
FINAL SINGLE POINT ENERGY      -573.328011941806
Dispersion correction             ... done (  0.1 sec)
Dispersion correction           -0.022859221
FINAL SINGLE POINT ENERGY      -573.363647385994
Dispersion correction             ... done (  0.1 sec)
FINAL SINGLE POINT ENERGY      -573.369233487265
FINAL SINGLE POINT ENERGY      -573.370592845778
FINAL SINGLE POINT ENERGY      -573.370880000775
FINAL SINGLE POINT ENERGY      -573.371175783147
FINAL SINGLE POINT ENERGY      -573.371333500079
FINAL SINGLE POINT ENERGY      -573.371406785402
Dispersion correction             ... done (  0.1 sec)
Dispersion correction           -0.022792590
FINAL SINGLE POINT ENERGY      -573.371429039555
Dispersion correction             ... done (  0.1 sec)
Dispersion correction           -0.022790897
FINAL SINGLE POINT ENERGY      -573.371432926374
Dispersion correction             ... done (  0.1 sec)
                    ***********************HURRAY********************

CARTESIAN COORDINATES (ANGSTROEM)
---------------------------------
  C      0.057407   -0.038185   -0.053053
  C      0.047528    1.430427    0.092881
  C      0.008658    2.064198    1.283140
  C     -0.026314    1.273319    2.551156
  C     -0.019244   -0.210300    2.448284
  C      0.021391   -0.844765    1.197389
  C      0.027789   -2.237694    1.121270
  C     -0.006350   -2.996635    2.287917
  C     -0.046983   -2.365842    3.534541
  C     -0.053332   -0.976240    3.615228
  H      0.074233    1.986474   -0.849705
  H     -0.084626   -0.457175    4.576534
  H     -0.073884   -2.965305    4.449225
  H     -0.001474   -4.089000    2.228726
  H      0.059905   -2.702057    0.132388
  C     -0.002061    3.547029    1.434757
  H     -0.902240    3.871181    1.985515
  H      0.859908    3.878262    2.039778
  H      0.026350    4.050665    0.456280
  O     -0.059662    1.839620    3.625525
  O      0.093001   -0.557015   -1.152029

 Multiplicity           Mult            ....    1
 Number of Electrons    NEL             ....   90
 Basis Dimension        Dim             ....  198

ORBITAL ENERGIES
----------------

  NO   OCC          E(Eh)            E(eV)
   0   2.0000     -19.219659      -522.9935
   1   2.0000     -19.213409      -522.8234
   2   2.0000     -10.337609      -281.3006
   3   2.0000     -10.333555      -281.1903
   4   2.0000     -10.279261      -279.7129
   5   2.0000     -10.265982      -279.3516
   6   2.0000     -10.264940      -279.3232
   7   2.0000     -10.261892      -279.2403
   8   2.0000     -10.261744      -279.2363
   9   2.0000     -10.261244      -279.2226
  10   2.0000     -10.259010      -279.1618
  11   2.0000     -10.258254      -279.1413
  12   2.0000     -10.240930      -278.6699
  13   2.0000      -1.080037       -29.3893
  14   2.0000      -1.072780       -29.1918
  15   2.0000      -0.907468       -24.6934
  16   2.0000      -0.863013       -23.4838
  17   2.0000      -0.801376       -21.8066
  18   2.0000      -0.791785       -21.5456
  19   2.0000      -0.743534       -20.2326
  20   2.0000      -0.696084       -18.9414
  21   2.0000      -0.660906       -17.9842
  22   2.0000      -0.635912       -17.3041
  23   2.0000      -0.598775       -16.2935
  24   2.0000      -0.560051       -15.2398
  25   2.0000      -0.538886       -14.6638
  26   2.0000      -0.509859       -13.8740
  27   2.0000      -0.493324       -13.4240
  28   2.0000      -0.474071       -12.9001
  29   2.0000      -0.469036       -12.7631
  30   2.0000      -0.462092       -12.5742
  31   2.0000      -0.461785       -12.5658
  32   2.0000      -0.439701       -11.9649
  33   2.0000      -0.438159       -11.9229
  34   2.0000      -0.428101       -11.6492
  35   2.0000      -0.420716       -11.4483
  36   2.0000      -0.411119       -11.1871
  37   2.0000      -0.391659       -10.6576
  38   2.0000      -0.389992       -10.6122
  39   2.0000      -0.379018       -10.3136
  40   2.0000      -0.304756        -8.2928
  41   2.0000      -0.292069        -7.9476
  42   2.0000      -0.289149        -7.8681
  43   2.0000      -0.288175        -7.8416
  44   2.0000      -0.278013        -7.5651
  45   0.0000      -0.114109        -3.1051
  46   0.0000      -0.044707        -1.2165
  47   0.0000      -0.023385        -0.6363
  48   0.0000       0.043642         1.1876
  49   0.0000       0.071179         1.9369

MULLIKEN ATOMIC CHARGES
-----------------------
   0 C :    0.221304
   1 C :   -0.234980
   2 C :   -0.038628
   3 C :    0.184530
   4 C :   -0.017572
   5 C :   -0.041931
   6 C :   -0.131696
   7 C :   -0.067023
   8 C :   -0.069078
   9 C :   -0.130915
  10 H :    0.100082
  11 H :    0.111927
  12 H :    0.110936
  13 H :    0.111414
  14 H :    0.111147
  15 C :   -0.279393
  16 H :    0.158192
  17 H :    0.158189
  18 H :    0.135550
  19 O :   -0.191230
  20 O :   -0.200825
Sum of atomic charges:   -0.0000000

LOEWDIN ATOMIC CHARGES
----------------------
   0 C :    0.067148
   1 C :   -0.126710
   2 C :   -0.045347
   3 C :    0.080342
   4 C :   -0.063444
   5 C :   -0.060806
   6 C :   -0.087145
   7 C :   -0.107604
   8 C :   -0.109420
   9 C :   -0.086312
  10 H :    0.143512
  11 H :    0.144730
  12 H :    0.136277
  13 H :    0.136404
  14 H :    0.145234
  15 C :   -0.324105
  16 H :    0.147726
  17 H :    0.147731
  18 H :    0.131676
  19 O :   -0.133208
  20 O :   -0.136680

  Mayer bond orders larger than 0.100000
B(  0-C ,  1-C ) :   1.0250 B(  0-C ,  5-C ) :   0.9315 B(  0-C , 20-O ) :   2.0815
B(  1-C ,  2-C ) :   1.6865 B(  1-C , 10-H ) :   0.9599 B(  2-C ,  3-C ) :   0.9644
B(  2-C , 15-C ) :   1.0921 B(  3-C ,  4-C ) :   0.9525 B(  3-C , 19-O ) :   2.1470
B(  4-C ,  5-C ) :   1.3438 B(  4-C ,  9-C ) :   1.4089 B(  5-C ,  6-C ) :   1.4205
B(  6-C ,  7-C ) :   1.3588 B(  6-C , 14-H ) :   0.9554 B(  7-C ,  8-C ) :   1.3622
B(  7-C , 13-H ) :   0.9636 B(  8-C ,  9-C ) :   1.3614 B(  8-C , 12-H ) :   0.9638
B(  9-C , 11-H ) :   0.9569 B( 15-C , 16-H ) :   0.9265 B( 15-C , 17-H ) :   0.9265
B( 15-C , 18-H ) :   0.9447

Dispersion correction           -0.022789969
FINAL SINGLE POINT ENERGY      -573.371434196225

DIPOLE MOMENT
-------------

Method             : SCF
Type of density    : Electron Density
Multiplicity       :   1
Irrep              :   0
Energy             :  -573.3486442270412908 Eh
Relativity type    :
Basis              : AO
                                X                 Y                 Z
Electronic contribution:      0.052443494      -3.198050334      -1.122009472
Nuclear contribution   :     -0.064708602       3.027549454       1.475829711
                        -----------------------------------------
Total Dipole Moment    :     -0.012265107      -0.170500881       0.353820239
                        -----------------------------------------
Magnitude (a.u.)       :      0.392950054
Magnitude (Debye)      :      0.998799661

VIBRATIONAL FREQUENCIES
-----------------------

Scaling factor for frequencies =  1.000000000  (already applied!)

     0:       0.00 cm**-1
     1:       0.00 cm**-1
     2:       0.00 cm**-1
     3:       0.00 cm**-1
     4:       0.00 cm**-1
     5:       0.00 cm**-1
     6:      65.49 cm**-1
     7:     125.66 cm**-1
     8:     136.49 cm**-1
     9:     163.56 cm**-1
    10:     213.04 cm**-1
    11:     252.39 cm**-1
    12:     300.09 cm**-1
    13:     364.03 cm**-1
    14:     384.71 cm**-1
    15:     412.84 cm**-1
    16:     440.01 cm**-1
    17:     467.16 cm**-1
    18:     495.79 cm**-1
    19:     527.68 cm**-1
    20:     659.80 cm**-1
    21:     663.80 cm**-1
    22:     698.18 cm**-1
    23:     728.01 cm**-1
    24:     729.98 cm**-1
    25:     802.24 cm**-1
    26:     809.42 cm**-1
    27:     849.25 cm**-1
    28:     933.31 cm**-1
    29:     942.00 cm**-1
    30:     974.78 cm**-1
    31:    1016.59 cm**-1
    32:    1027.97 cm**-1
    33:    1042.03 cm**-1
    34:    1062.55 cm**-1
    35:    1063.57 cm**-1
    36:    1108.13 cm**-1
    37:    1141.91 cm**-1
    38:    1172.20 cm**-1
    39:    1200.02 cm**-1
    40:    1258.12 cm**-1
    41:    1289.51 cm**-1
    42:    1350.23 cm**-1
    43:    1383.89 cm**-1
    44:    1419.87 cm**-1
    45:    1427.54 cm**-1
    46:    1451.61 cm**-1
    47:    1458.59 cm**-1
    48:    1508.92 cm**-1
    49:    1533.67 cm**-1
    50:    1669.54 cm**-1
    51:    1686.58 cm**-1
    52:    1730.82 cm**-1
    53:    1810.16 cm**-1
    54:    1812.23 cm**-1
    55:    3047.82 cm**-1
    56:    3129.74 cm**-1
    57:    3163.35 cm**-1
    58:    3202.35 cm**-1
    59:    3204.00 cm**-1
    60:    3216.22 cm**-1
    61:    3228.37 cm**-1
    62:    3231.47 cm**-1

IR SPECTRUM
-----------

 Mode   freq       eps      Int      T**2         TX        TY        TZ
       cm**-1   L/(mol*cm) km/mol    a.u.
----------------------------------------------------------------------------
  6:     65.49   0.001400    7.08  0.006672  ( 0.081645  0.000282  0.002479)
  7:    125.66   0.000001    0.00  0.000002  ( 0.001353 -0.000000  0.000037)
  8:    136.49   0.000000    0.00  0.000000  ( 0.000139  0.000014 -0.000117)
  9:    163.56   0.000287    1.45  0.000548  (-0.023401 -0.000153 -0.000653)
 10:    213.04   0.000082    0.42  0.000120  (-0.010967 -0.000068 -0.000331)
 11:    252.39   0.000135    0.68  0.000167  (-0.000343 -0.001503  0.012835)
 12:    300.09   0.000025    0.13  0.000026  (-0.000097 -0.001789  0.004801)
 13:    364.03   0.000043    0.22  0.000037  (-0.006073  0.000354 -0.000389)
 14:    384.71   0.002690   13.59  0.002182  ( 0.000492  0.042676 -0.018988)
 15:    412.84   0.001893    9.57  0.001431  (-0.000414 -0.033788  0.017001)
 16:    440.01   0.000035    0.18  0.000025  (-0.004977 -0.000008 -0.000126)
 17:    467.16   0.001107    5.59  0.000739  (-0.000177 -0.025575  0.009230)
 18:    495.79   0.000001    0.01  0.000001  ( 0.000906 -0.000041  0.000061)
 19:    527.68   0.001038    5.24  0.000614  (-0.000027 -0.024468  0.003865)
 20:    659.80   0.000513    2.59  0.000243  (-0.000378 -0.007101  0.013864)
 21:    663.80   0.000267    1.35  0.000126  (-0.000251 -0.007607  0.008224)
 22:    698.18   0.004370   22.09  0.001953  (-0.044175 -0.000124 -0.001388)
 23:    728.01   0.003678   18.59  0.001577  ( 0.039698  0.000340  0.000783)
 24:    729.98   0.000582    2.94  0.000249  (-0.000685  0.007483 -0.013862)
 25:    802.24   0.005744   29.03  0.002234  ( 0.047245  0.000090  0.001518)
 26:    809.42   0.000183    0.92  0.000071  ( 0.000376  0.006540 -0.005253)
 27:    849.25   0.000035    0.18  0.000013  (-0.003608 -0.000042 -0.000089)
 28:    933.31   0.002266   11.45  0.000758  (-0.027516 -0.000140 -0.000797)
 29:    942.00   0.000379    1.92  0.000126  ( 0.011199  0.000042  0.000341)
 30:    974.78   0.007020   35.48  0.002248  ( 0.000220  0.045708 -0.012580)
 31:   1016.59   0.000042    0.21  0.000013  (-0.003590 -0.000013 -0.000131)
 32:   1027.97   0.002003   10.12  0.000608  (-0.000715  0.006351  0.023813)
 33:   1042.03   0.000005    0.03  0.000002  ( 0.001279 -0.000058  0.000044)
 34:   1062.55   0.001035    5.23  0.000304  ( 0.017426  0.000093  0.000541)
 35:   1063.57   0.000972    4.91  0.000285  ( 0.000117  0.015815 -0.005923)
 36:   1108.13   0.000332    1.68  0.000094  (-0.000195 -0.006252  0.007383)
 37:   1141.91   0.001383    6.99  0.000378  ( 0.000448 -0.014908 -0.012471)
 38:   1172.20   0.001334    6.74  0.000355  (-0.000131  0.018714  0.002198)
 39:   1200.02   0.001568    7.92  0.000408  ( 0.000528 -0.012686 -0.015703)
 40:   1258.12   0.000554    2.80  0.000137  (-0.000268 -0.007051  0.009356)
 41:   1289.51   0.009095   45.96  0.002201  (-0.000090 -0.046248  0.007884)
 42:   1350.23   0.049611  250.72  0.011466  ( 0.000972  0.098543 -0.041885)
 43:   1383.89   0.008727   44.10  0.001968  (-0.000564 -0.038698  0.021679)
 44:   1419.87   0.003284   16.59  0.000722  ( 0.000812 -0.003904 -0.026567)
 45:   1427.54   0.000949    4.80  0.000208  (-0.000206 -0.011837  0.008209)
 46:   1451.61   0.002353   11.89  0.000506  ( 0.022485  0.000099  0.000600)
 47:   1458.59   0.002926   14.79  0.000626  ( 0.000705 -0.000897 -0.024993)
 48:   1508.92   0.000408    2.06  0.000084  (-0.000251  0.004842  0.007802)
 49:   1533.67   0.001405    7.10  0.000286  ( 0.000102  0.016013 -0.005425)
 50:   1669.54   0.000281    1.42  0.000053  ( 0.000016 -0.007226  0.000607)
 51:   1686.58   0.008286   41.88  0.001533  (-0.001115  0.018592  0.034443)
 52:   1730.82   0.011951   60.40  0.002155  (-0.000018  0.046197 -0.004540)
 53:   1810.16   0.002268   11.46  0.000391  ( 0.000034 -0.019601 -0.002614)
 54:   1812.23   0.070412  355.83  0.012125  ( 0.003132 -0.051239 -0.097415)
 55:   3047.82   0.000941    4.75  0.000096  ( 0.000018  0.009587 -0.002098)
 56:   3129.74   0.000233    1.18  0.000023  (-0.004812  0.000018 -0.000179)
 57:   3163.35   0.001402    7.08  0.000138  (-0.000181 -0.009249  0.007261)
 58:   3202.35   0.000496    2.50  0.000048  (-0.000204  0.002853  0.006333)
 59:   3204.00   0.000771    3.90  0.000075  ( 0.000141  0.006599 -0.005616)
 60:   3216.22   0.000911    4.60  0.000088  ( 0.000099  0.008433 -0.004158)
 61:   3228.37   0.000002    0.01  0.000000  ( 0.000005 -0.000013  0.000394)
 62:   3231.47   0.001461    7.38  0.000141  (-0.000135 -0.010654  0.005248)

--------------------------
THERMOCHEMISTRY AT 298.15K
--------------------------

Temperature         ...   298.15 K
Pressure            ...     1.00 atm
Total Mass          ...   172.18 AMU
Quasi RRHO          ...     True
Cut-Off Frequency   ...     1.00 cm^-1

Throughout the following assumptions are being made:
  (1) The electronic state is orbitally nondegenerate
  (2) There are no thermally accessible electronically excited states
  (3) Hindered rotations indicated by low frequency modes are not
      treated as such but are treated as vibrations and this may
      cause some error
  (4) All equations used are the standard statistical mechanics
      equations for an ideal gas
  (5) All vibrations are strictly harmonic

freq.      65.49  E(vib)   ...       0.50
freq.     125.66  E(vib)   ...       0.43
freq.     136.49  E(vib)   ...       0.42
freq.     163.56  E(vib)   ...       0.39
freq.     213.04  E(vib)   ...       0.34
freq.     252.39  E(vib)   ...       0.30
freq.     300.09  E(vib)   ...       0.26
freq.     364.03  E(vib)   ...       0.22
freq.     384.71  E(vib)   ...       0.20
freq.     412.84  E(vib)   ...       0.19
freq.     440.01  E(vib)   ...       0.17
freq.     467.16  E(vib)   ...       0.16
freq.     495.79  E(vib)   ...       0.14
freq.     527.68  E(vib)   ...       0.13
freq.     659.80  E(vib)   ...       0.08
freq.     663.80  E(vib)   ...       0.08
freq.     698.18  E(vib)   ...       0.07
freq.     728.01  E(vib)   ...       0.06
freq.     729.98  E(vib)   ...       0.06
freq.     802.24  E(vib)   ...       0.05
freq.     809.42  E(vib)   ...       0.05
freq.     849.25  E(vib)   ...       0.04
freq.     933.31  E(vib)   ...       0.03
freq.     942.00  E(vib)   ...       0.03
freq.     974.78  E(vib)   ...       0.03
freq.    1016.59  E(vib)   ...       0.02
freq.    1027.97  E(vib)   ...       0.02
freq.    1042.03  E(vib)   ...       0.02
freq.    1062.55  E(vib)   ...       0.02
freq.    1063.57  E(vib)   ...       0.02
freq.    1108.13  E(vib)   ...       0.02
freq.    1141.91  E(vib)   ...       0.01
freq.    1172.20  E(vib)   ...       0.01
freq.    1200.02  E(vib)   ...       0.01
freq.    1258.12  E(vib)   ...       0.01
freq.    1289.51  E(vib)   ...       0.01
freq.    1350.23  E(vib)   ...       0.01
freq.    1383.89  E(vib)   ...       0.00
freq.    1419.87  E(vib)   ...       0.00
freq.    1427.54  E(vib)   ...       0.00
freq.    1451.61  E(vib)   ...       0.00
freq.    1458.59  E(vib)   ...       0.00
freq.    1508.92  E(vib)   ...       0.00
freq.    1533.67  E(vib)   ...       0.00
freq.    1669.54  E(vib)   ...       0.00
freq.    1686.58  E(vib)   ...       0.00
freq.    1730.82  E(vib)   ...       0.00
freq.    1810.16  E(vib)   ...       0.00
freq.    1812.23  E(vib)   ...       0.00
freq.    3047.82  E(vib)   ...       0.00
freq.    3129.74  E(vib)   ...       0.00
freq.    3163.35  E(vib)   ...       0.00
freq.    3202.35  E(vib)   ...       0.00
freq.    3204.00  E(vib)   ...       0.00
freq.    3216.22  E(vib)   ...       0.00
freq.    3228.37  E(vib)   ...       0.00
freq.    3231.47  E(vib)   ...       0.00

------------
INNER ENERGY
------------

The inner energy is: U= E(el) + E(ZPE) + E(vib) + E(rot) + E(trans)
    E(el)   - is the total energy from the electronic structure calculation
              = E(kin-el) + E(nuc-el) + E(el-el) + E(nuc-nuc)
    E(ZPE)  - the the zero temperature vibrational energy from the frequency calculation
    E(vib)  - the the finite temperature correction to E(ZPE) due to population
              of excited vibrational states
    E(rot)  - is the rotational thermal energy
    E(trans)- is the translational thermal energy

Summary of contributions to the inner energy U:
Electronic energy                ...   -573.37143420 Eh
Zero point energy                ...      0.16218117 Eh     101.77 kcal/mol
Thermal vibrational correction   ...      0.00739245 Eh       4.64 kcal/mol
Thermal rotational correction    ...      0.00141627 Eh       0.89 kcal/mol
Thermal translational correction ...      0.00141627 Eh       0.89 kcal/mol
-----------------------------------------------------------------------
Total thermal energy                   -573.19902803 Eh

Summary of corrections to the electronic energy:
(perhaps to be used in another calculation)
Total thermal correction                  0.01022499 Eh       6.42 kcal/mol
Non-thermal (ZPE) correction              0.16218117 Eh     101.77 kcal/mol
-----------------------------------------------------------------------
Total correction                          0.17240616 Eh     108.19 kcal/mol

--------
ENTHALPY
--------

The enthalpy is H = U + kB*T
                kB is Boltzmann's constant
Total thermal energy              ...   -573.19902803 Eh
Thermal Enthalpy correction       ...      0.00094421 Eh       0.59 kcal/mol
-----------------------------------------------------------------------
Total Enthalpy                    ...   -573.19808382 Eh

Note: Only C1 symmetry has been detected, increase convergence thresholds
      if your molecule has a higher symmetry. Symmetry factor of 1.0 is
      used for the rotational entropy correction.

Note: Rotational entropy computed according to Herzberg
Infrared and Raman Spectra, Chapter V,1, Van Nostrand Reinhold, 1945
Point Group:  C1, Symmetry Number:   1
Rotational constants in cm-1:     0.042977     0.025752     0.016151

Vibrational entropy computed according to the QRRHO of S. Grimme
Chem.Eur.J. 2012 18 9955 using a reference frequency of 100.0 cm-1

-------
ENTROPY
-------

The entropy contributions are T*S = T*(S(el)+S(vib)+S(rot)+S(trans))
     S(el)   - electronic entropy
     S(vib)  - vibrational entropy
     S(rot)  - rotational entropy
     S(trans)- translational entropy
The entropies will be listed as multiplied by the temperature to get
units of energy

Electronic entropy                ...      0.00000000 Eh      0.00 kcal/mol
Vibrational entropy               ...      0.01232769 Eh      7.74 kcal/mol
Rotational entropy                ...      0.01467173 Eh      9.21 kcal/mol
Translational entropy             ...      0.01964083 Eh     12.32 kcal/mol
-----------------------------------------------------------------------
Final entropy term                ...      0.04664025 Eh     29.27 kcal/mol

In case the symmetry of your molecule has not been determined correctly
or in case you have a reason to use a different symmetry number we print
out the resulting rotational entropy values for sn=1,12:

 non-linear molecules -----------------------------------
|  sn= 1 | S(rot)=       0.01467173 Eh      9.21 kcal/mol|
|  sn= 2 | S(rot)=       0.01401728 Eh      8.80 kcal/mol|
|  sn= 3 | S(rot)=       0.01363445 Eh      8.56 kcal/mol|

                             ****ORCA TERMINATED NORMALLY****
TOTAL RUN TIME: 0 days 0 hours 21 minutes 43 seconds 274 msec
