                         Program Version 6.0.0  -   RELEASE  -
|  1> !r2SCANh aug-cc-pVTZ d3 TightSCF SlowConv RIJCOSX defgrid2
|  2>
|  3> %pal
|  4> nprocs 4
|  5> end
|  6>
|  7> %scf
|  8> MaxIter 1500
|  9> end
| 10>
| 11> %maxcore 3000
| 12>
| 13> !CPCM
| 14> %cpcm smd true
| 15> SMDsolvent "MeCN"
| 16> surfacetype gepol_ses
| 17> rsolv 2.19
| 18> end
| 19>
| 20> * xyz 0 1
| 21>   C           1.35661311001034      0.08242353673381     -0.04830147992154
| 22>   C           0.72528734400678      1.33237499260851      0.02931980589731
| 23>   C          -0.65716684626784      1.42571283843268      0.04302512633637
| 24>   C          -1.44754625606451      0.26653460954742      0.00874339988909
| 25>   C          -0.82552870874395     -0.98502153376474     -0.04770168852446
| 26>   C           0.56772235704198     -1.06633130194090     -0.08313298846277
| 27>   H           1.05006188676245     -2.04577688056741     -0.14354433447971
| 28>   H          -1.41135553820799     -1.90566385705075     -0.07389044457674
| 29>   O          -2.78063858244739      0.45554290336633      0.03645550634804
| 30>   C          -3.62283453444167     -0.66142074230683      0.01078196288993
| 31>   H          -4.65283077190408     -0.27592428677814      0.04102787975267
| 32>   H          -3.48787720923621     -1.25466269618222     -0.91406269819965
| 33>   H          -3.45860421924221     -1.31813897835911      0.88673287617431
| 34>   H          -1.16047233306293      2.39441311771435      0.09515969980486
| 35>   H           1.33361129819119      2.23967992641979      0.08145593960365
| 36>   S           3.13145786803727     -0.06127748319567     -0.01892864657318
| 37>   H           3.36519883556877      0.49010163532289     -1.23773021595817
| 38> *
| 39>
| 40>                          ****END OF INPUT****

CARTESIAN COORDINATES (ANGSTROEM)
---------------------------------
  C      1.356613    0.082424   -0.048301
  C      0.725287    1.332375    0.029320
  C     -0.657167    1.425713    0.043025
  C     -1.447546    0.266535    0.008743
  C     -0.825529   -0.985022   -0.047702
  C      0.567722   -1.066331   -0.083133
  H      1.050062   -2.045777   -0.143544
  H     -1.411356   -1.905664   -0.073890
  O     -2.780639    0.455543    0.036456
  C     -3.622835   -0.661421    0.010782
  H     -4.652831   -0.275924    0.041028
  H     -3.487877   -1.254663   -0.914063
  H     -3.458604   -1.318139    0.886733
  H     -1.160472    2.394413    0.095160
  H      1.333611    2.239680    0.081456
  S      3.131458   -0.061277   -0.018929
  H      3.365199    0.490102   -1.237730

 Total Charge           Charge          ....    0
 Multiplicity           Mult            ....    1
 Number of Electrons    NEL             ....   74
 Basis Dimension        Dim             ....  602

ORBITAL ENERGIES
----------------

  NO   OCC          E(Eh)            E(eV)
   0   2.0000     -88.904321     -2419.2096
   1   2.0000     -19.156462      -521.2738
   2   2.0000     -10.227367      -278.3008
   3   2.0000     -10.199637      -277.5462
   4   2.0000     -10.191961      -277.3374
   5   2.0000     -10.170134      -276.7434
   6   2.0000     -10.169983      -276.7393
   7   2.0000     -10.163224      -276.5554
   8   2.0000     -10.162675      -276.5404
   9   2.0000      -7.969450      -216.8597
  10   2.0000      -5.890850      -160.2982
  11   2.0000      -5.887569      -160.2089
  12   2.0000      -5.882957      -160.0834
  13   2.0000      -1.085525       -29.5386
  14   2.0000      -0.867150       -23.5964
  15   2.0000      -0.785275       -21.3684
  16   2.0000      -0.755412       -20.5558
  17   2.0000      -0.720921       -19.6173
  18   2.0000      -0.670191       -18.2368
  19   2.0000      -0.612222       -16.6594
  20   2.0000      -0.578216       -15.7341
  21   2.0000      -0.529367       -14.4048
  22   2.0000      -0.483639       -13.1605
  23   2.0000      -0.465106       -12.6562
  24   2.0000      -0.461312       -12.5529
  25   2.0000      -0.436836       -11.8869
  26   2.0000      -0.415593       -11.3089
  27   2.0000      -0.407541       -11.0898
  28   2.0000      -0.399610       -10.8739
  29   2.0000      -0.371653       -10.1132
  30   2.0000      -0.350953        -9.5499
  31   2.0000      -0.340069        -9.2537
  32   2.0000      -0.317119        -8.6293
  33   2.0000      -0.312905        -8.5146
  34   2.0000      -0.260610        -7.0916
  35   2.0000      -0.249890        -6.7999
  36   2.0000      -0.218014        -5.9325
  37   0.0000      -0.033472        -0.9108
  38   0.0000      -0.027008        -0.7349
  39   0.0000       0.002927         0.0797
  40   0.0000       0.018084         0.4921
  41   0.0000       0.021636         0.5888

MULLIKEN ATOMIC CHARGES
-----------------------
   0 C :    0.782517
   1 C :   -0.647011
   2 C :   -0.965262
   3 C :    1.138628
   4 C :   -0.346364
   5 C :   -0.831204
   6 H :    0.404627
   7 H :    0.474294
   8 O :   -0.653497
   9 C :   -0.700840
  10 H :    0.255963
  11 H :    0.271497
  12 H :    0.271395
  13 H :    0.507077
  14 H :    0.432082
  15 S :   -0.488077
  16 H :    0.094174
Sum of atomic charges:    0.0000000

LOEWDIN ATOMIC CHARGES
----------------------
   0 C :   -0.603359
   1 C :    0.102323
   2 C :    0.194553
   3 C :   -0.407254
   4 C :    0.197898
   5 C :    0.099877
   6 H :   -0.190976
   7 H :   -0.188642
   8 O :    0.590465
   9 C :    0.326048
  10 H :   -0.168473
  11 H :   -0.159911
  12 H :   -0.159707
  13 H :   -0.170179
  14 H :   -0.185562
  15 S :    1.265382
  16 H :   -0.542484

  Mayer bond orders larger than 0.100000
B(  0-C ,  1-C ) :   0.9734 B(  0-C ,  4-C ) :   0.1053 B(  0-C ,  5-C ) :   0.9638
B(  0-C , 15-S ) :   0.6093 B(  1-C ,  2-C ) :   1.2020 B(  1-C ,  3-C ) :  -0.3470
B(  1-C ,  7-H ) :   0.1000 B(  1-C , 14-H ) :   0.7554 B(  2-C ,  3-C ) :   0.6581
B(  2-C ,  4-C ) :   0.2571 B(  2-C ,  8-O ) :   0.2764 B(  2-C , 13-H ) :   0.4072
B(  3-C ,  4-C ) :   0.9300 B(  3-C ,  5-C ) :  -0.3022 B(  3-C ,  7-H ) :   0.1261
B(  3-C ,  8-O ) :   0.3614 B(  4-C ,  5-C ) :   0.9624 B(  4-C ,  7-H ) :   0.3593
B(  4-C ,  8-O ) :  -0.1176 B(  5-C ,  6-H ) :   0.7814 B(  5-C ,  7-H ) :   0.1045
B(  6-H , 15-S ) :  -0.1331 B(  8-O ,  9-C ) :   1.0372 B(  9-C , 10-H ) :   0.9695
B(  9-C , 11-H ) :   0.9087 B(  9-C , 12-H ) :   0.9095 B( 14-H , 15-S ) :  -0.1300
B( 15-S , 16-H ) :   1.1012

Dispersion correction           -0.005692929
FINAL SINGLE POINT ENERGY      -744.879200149488

DIPOLE MOMENT
-------------

Method             : SCF
Type of density    : Electron Density
Multiplicity       :   1
Irrep              :   0
Energy             :  -744.8735072201501453 Eh
Relativity type    :
Basis              : AO
                                X                 Y                 Z
Electronic contribution:      6.866771960       1.634051326       0.676052372
Nuclear contribution   :     -8.061833988      -2.011071937      -1.060175110
                        -----------------------------------------
Total Dipole Moment    :     -1.195062029      -0.377020611      -0.384122738
                        -----------------------------------------
Magnitude (a.u.)       :      1.310674663
Magnitude (Debye)      :      3.331470236

Rotational constants in cm-1:             0.159819             0.022967             0.020233
Rotational constants in MHz :          4791.258551           688.540294           606.561125

                             ****ORCA TERMINATED NORMALLY****
TOTAL RUN TIME: 0 days 0 hours 4 minutes 1 seconds 343 msec
