                         Program Version 6.0.0  -   RELEASE  -
|  1> !PBE0 freq def2-SV(p) d3 TightSCF SlowConv RIJCOSX defgrid2
|  2>
|  3> %pal
|  4> nprocs 12
|  5> end
|  6>
|  7> %scf
|  8> MaxIter 1500
|  9> end
| 10>
| 11> %maxcore 5000
| 12>
| 13> !CPCM
| 14> %cpcm smd true
| 15> SMDsolvent "MeCN"
| 16> surfacetype gepol_ses
| 17> rsolv 2.19
| 18> end
| 19>
| 20> * xyz 1 2
| 21> C           2.44470649494876     -0.69496637901521     -0.00004155761448
| 22> C           2.44472454732584      0.69490418962886     -0.00022697111032
| 23> C           1.23153317480760      1.40081103750946     -0.00024406371487
| 24> C           0.00001071869178      0.71431604051320      0.00000968155977
| 25> C          -1.23149311671810      1.40084145683914      0.00026517195107
| 26> C          -2.44470577287559      0.69496826824150      0.00023764420365
| 27> C          -2.44472443380789     -0.69490426134103      0.00004830892344
| 28> C          -1.23152794961053     -1.40080575336343      0.00008556724091
| 29> C          -0.00000848513449     -0.71431072885149      0.00001063051015
| 30> C           1.23149477575340     -1.40083852479128     -0.00006639827770
| 31> H           1.23641876715128     -2.49408693639074      0.00001462208782
| 32> H          -1.23647713340018     -2.49405518766728     -0.00001108684481
| 33> H          -3.38877499236081     -1.24506833081857     -0.00038590323619
| 34> H          -3.38874494254440      1.24515529913314     -0.00005333998106
| 35> H          -1.23641441486275      2.49408787429660      0.00028942821613
| 36> H           1.23648995825509      2.49405988316742     -0.00027585817280
| 37> H           3.38877658612916      1.24506653294684      0.00005023463937
| 38> H           3.38874721825184     -1.24515248003716      0.00037048961993
| 39> *
| 40>
| 41>                          ****END OF INPUT****

CARTESIAN COORDINATES (ANGSTROEM)
---------------------------------
  C      2.444706   -0.694966   -0.000042
  C      2.444725    0.694904   -0.000227
  C      1.231533    1.400811   -0.000244
  C      0.000011    0.714316    0.000010
  C     -1.231493    1.400841    0.000265
  C     -2.444706    0.694968    0.000238
  C     -2.444724   -0.694904    0.000048
  C     -1.231528   -1.400806    0.000086
  C     -0.000008   -0.714311    0.000011
  C      1.231495   -1.400839   -0.000066
  H      1.236419   -2.494087    0.000015
  H     -1.236477   -2.494055   -0.000011
  H     -3.388775   -1.245068   -0.000386
  H     -3.388745    1.245155   -0.000053
  H     -1.236414    2.494088    0.000289
  H      1.236490    2.494060   -0.000276
  H      3.388777    1.245067    0.000050
  H      3.388747   -1.245152    0.000370

 Total Charge           Charge          ....    1
 Multiplicity           Mult            ....    2
 Number of Electrons    NEL             ....   67
 Basis Dimension        Dim             ....  156

ORBITAL ENERGIES
----------------
                 SPIN UP ORBITALS
  NO   OCC          E(Eh)            E(eV)
   0   1.0000     -10.296185      -280.1734
   1   1.0000     -10.296181      -280.1733
   2   1.0000     -10.296101      -280.1712
   3   1.0000     -10.296069      -280.1703
   4   1.0000     -10.284924      -279.8670
   5   1.0000     -10.284633      -279.8591
   6   1.0000     -10.280338      -279.7422
   7   1.0000     -10.280329      -279.7420
   8   1.0000     -10.279876      -279.7296
   9   1.0000     -10.279875      -279.7296
  10   1.0000      -0.943671       -25.6786
  11   1.0000      -0.887683       -24.1551
  12   1.0000      -0.839263       -22.8375
  13   1.0000      -0.801909       -21.8211
  14   1.0000      -0.778929       -21.1957
  15   1.0000      -0.686362       -18.6769
  16   1.0000      -0.666645       -18.1403
  17   1.0000      -0.652764       -17.7626
  18   1.0000      -0.568742       -15.4762
  19   1.0000      -0.558693       -15.2028
  20   1.0000      -0.550019       -14.9668
  21   1.0000      -0.497417       -13.5354
  22   1.0000      -0.495889       -13.4938
  23   1.0000      -0.474997       -12.9253
  24   1.0000      -0.469483       -12.7753
  25   1.0000      -0.457610       -12.4522
  26   1.0000      -0.442508       -12.0413
  27   1.0000      -0.422833       -11.5059
  28   1.0000      -0.392187       -10.6720
  29   1.0000      -0.389013       -10.5856
  30   1.0000      -0.382866       -10.4183
  31   1.0000      -0.354624        -9.6498
  32   1.0000      -0.301599        -8.2069
  33   1.0000      -0.282345        -7.6830
  34   0.0000      -0.100047        -2.7224
  35   0.0000      -0.047050        -1.2803
  36   0.0000      -0.019926        -0.5422
  37   0.0000       0.055159         1.5010
  38   0.0000       0.068953         1.8763

                 SPIN DOWN ORBITALS
  NO   OCC          E(Eh)            E(eV)
   0   1.0000     -10.291961      -280.0585
   1   1.0000     -10.291942      -280.0580
   2   1.0000     -10.291882      -280.0563
   3   1.0000     -10.291840      -280.0552
   4   1.0000     -10.286190      -279.9015
   5   1.0000     -10.285901      -279.8936
   6   1.0000     -10.279768      -279.7267
   7   1.0000     -10.279759      -279.7265
   8   1.0000     -10.279291      -279.7137
   9   1.0000     -10.279290      -279.7137
  10   1.0000      -0.938999       -25.5515
  11   1.0000      -0.880747       -23.9663
  12   1.0000      -0.830296       -22.5935
  13   1.0000      -0.801317       -21.8050
  14   1.0000      -0.765823       -20.8391
  15   1.0000      -0.681739       -18.5510
  16   1.0000      -0.662822       -18.0363
  17   1.0000      -0.648178       -17.6378
  18   1.0000      -0.565555       -15.3895
  19   1.0000      -0.554460       -15.0876
  20   1.0000      -0.547792       -14.9062
  21   1.0000      -0.496762       -13.5176
  22   1.0000      -0.493362       -13.4251
  23   1.0000      -0.472637       -12.8611
  24   1.0000      -0.466372       -12.6906
  25   1.0000      -0.443480       -12.0677
  26   1.0000      -0.439889       -11.9700
  27   1.0000      -0.421707       -11.4752
  28   1.0000      -0.386607       -10.5201
  29   1.0000      -0.382074       -10.3968
  30   1.0000      -0.370398       -10.0790
  31   1.0000      -0.322649        -8.7797
  32   1.0000      -0.301485        -8.2038
  33   0.0000      -0.199649        -5.4327
  34   0.0000      -0.070510        -1.9187
  35   0.0000      -0.038075        -1.0361
  36   0.0000       0.001581         0.0430
  37   0.0000       0.069923         1.9027

MULLIKEN ATOMIC CHARGES AND SPIN POPULATIONS
--------------------------------------------
   0 C :   -0.058822    0.029357
   1 C :   -0.058821    0.029358
   2 C :   -0.053507    0.295015
   3 C :    0.055483   -0.115308
   4 C :   -0.053503    0.295012
   5 C :   -0.058824    0.029357
   6 C :   -0.058824    0.029359
   7 C :   -0.053511    0.295010
   8 C :    0.055498   -0.115308
   9 C :   -0.053509    0.295013
  10 H :    0.165951   -0.013626
  11 H :    0.165951   -0.013626
  12 H :    0.168634   -0.003090
  13 H :    0.168635   -0.003090
  14 H :    0.165951   -0.013626
  15 H :    0.165952   -0.013626
  16 H :    0.168634   -0.003090
  17 H :    0.168635   -0.003090
Sum of atomic charges         :    1.0000000

LOEWDIN ATOMIC CHARGES AND SPIN POPULATIONS
-------------------------------------------
   0 C :   -0.071283    0.048255
   1 C :   -0.071281    0.048256
   2 C :    0.001996    0.235716
   3 C :   -0.043142   -0.050921
   4 C :    0.001993    0.235714
   5 C :   -0.071283    0.048255
   6 C :   -0.071283    0.048256
   7 C :    0.001994    0.235712
   8 C :   -0.043140   -0.050920
   9 C :    0.001996    0.235715
  10 H :    0.172484   -0.006950
  11 H :    0.172484   -0.006950
  12 H :    0.168373   -0.001560
  13 H :    0.168373   -0.001560
  14 H :    0.172484   -0.006950
  15 H :    0.172485   -0.006950
  16 H :    0.168373   -0.001560
  17 H :    0.168374   -0.001560

  Mayer bond orders larger than 0.100000
B(  0-C ,  1-C ) :   1.4010 B(  0-C ,  9-C ) :   1.3037 B(  0-C , 17-H ) :   0.9552
B(  1-C ,  2-C ) :   1.3037 B(  1-C , 16-H ) :   0.9552 B(  2-C ,  3-C ) :   1.2664
B(  2-C , 15-H ) :   0.9546 B(  3-C ,  4-C ) :   1.2664 B(  3-C ,  8-C ) :   1.1934
B(  4-C ,  5-C ) :   1.3037 B(  4-C , 14-H ) :   0.9546 B(  5-C ,  6-C ) :   1.4010
B(  5-C , 13-H ) :   0.9552 B(  6-C ,  7-C ) :   1.3037 B(  6-C , 12-H ) :   0.9552
B(  7-C ,  8-C ) :   1.2664 B(  7-C , 11-H ) :   0.9546 B(  8-C ,  9-C ) :   1.2664
B(  9-C , 10-H ) :   0.9546

Dispersion correction           -0.018481867
FINAL SINGLE POINT ENERGY      -384.954549910085

DIPOLE MOMENT
-------------

Method             : SCF
Type of density    : Electron Density
Multiplicity       :   2
Irrep              :   0
Energy             :  -384.9360680429798549 Eh
Relativity type    :
Basis              : AO
                                X                 Y                 Z
Electronic contribution:      0.000017004       0.000005932       0.000037208
Nuclear contribution   :      0.000011503      -0.000004942      -0.000056112
                        -----------------------------------------
Total Dipole Moment    :      0.000028506       0.000000990      -0.000018904
                        -----------------------------------------
Magnitude (a.u.)       :      0.000034219
Magnitude (Debye)      :      0.000086978

VIBRATIONAL FREQUENCIES
-----------------------

Scaling factor for frequencies =  1.000000000  (already applied!)

     0:       0.00 cm**-1
     1:       0.00 cm**-1
     2:       0.00 cm**-1
     3:       0.00 cm**-1
     4:       0.00 cm**-1
     5:       0.00 cm**-1
     6:     148.99 cm**-1
     7:     178.75 cm**-1
     8:     354.72 cm**-1
     9:     375.11 cm**-1
    10:     420.18 cm**-1
    11:     443.11 cm**-1
    12:     474.49 cm**-1
    13:     514.15 cm**-1
    14:     571.01 cm**-1
    15:     601.67 cm**-1
    16:     737.25 cm**-1
    17:     762.97 cm**-1
    18:     767.02 cm**-1
    19:     786.38 cm**-1
    20:     807.55 cm**-1
    21:     874.87 cm**-1
    22:     937.70 cm**-1
    23:     945.06 cm**-1
    24:     983.62 cm**-1
    25:    1006.88 cm**-1
    26:    1034.88 cm**-1
    27:    1039.81 cm**-1
    28:    1053.58 cm**-1
    29:    1070.50 cm**-1
    30:    1113.76 cm**-1
    31:    1116.02 cm**-1
    32:    1154.88 cm**-1
    33:    1157.70 cm**-1
    34:    1229.80 cm**-1
    35:    1258.06 cm**-1
    36:    1294.66 cm**-1
    37:    1421.12 cm**-1
    38:    1467.94 cm**-1
    39:    1473.62 cm**-1
    40:    1477.55 cm**-1
    41:    1496.66 cm**-1
    42:    1544.17 cm**-1
    43:    1582.26 cm**-1
    44:    1586.87 cm**-1
    45:    1670.16 cm**-1
    46:    3225.71 cm**-1
    47:    3225.88 cm**-1
    48:    3229.64 cm**-1
    49:    3229.65 cm**-1
    50:    3237.75 cm**-1
    51:    3237.89 cm**-1
    52:    3247.01 cm**-1
    53:    3247.42 cm**-1

IR SPECTRUM
-----------

 Mode   freq       eps      Int      T**2         TX        TY        TZ
       cm**-1   L/(mol*cm) km/mol    a.u.
----------------------------------------------------------------------------
  6:    148.99   0.000785    3.97  0.001644  (-0.001830  0.000001 -0.040500)
  7:    178.75   0.000000    0.00  0.000000  (-0.000001 -0.000407  0.000007)
  8:    354.72   0.000365    1.85  0.000321  (-0.000010 -0.017927  0.000003)
  9:    375.11   0.000000    0.00  0.000000  (-0.000001  0.000008 -0.000014)
 10:    420.18   0.007605   38.43  0.005648  ( 0.000048 -0.000001 -0.075156)
 11:    443.11   0.000000    0.00  0.000000  ( 0.000310  0.000000  0.000196)
 12:    474.49   0.000000    0.00  0.000000  (-0.000083 -0.000002 -0.000004)
 13:    514.15   0.000000    0.00  0.000000  (-0.000011 -0.000010  0.000000)
 14:    571.01   0.000000    0.00  0.000000  ( 0.000004  0.000390  0.000000)
 15:    601.67   0.007149   36.13  0.003708  (-0.060894 -0.000005 -0.000095)
 16:    737.25   0.000000    0.00  0.000000  ( 0.000000 -0.000004  0.000009)
 17:    762.97   0.025579  129.27  0.010462  ( 0.000255  0.000000  0.102285)
 18:    767.02   0.000004    0.02  0.000002  (-0.000098 -0.000000  0.001223)
 19:    786.38   0.000000    0.00  0.000000  (-0.000008  0.000059 -0.000001)
 20:    807.55   0.000373    1.88  0.000144  (-0.000017 -0.012000 -0.000001)
 21:    874.87   0.000000    0.00  0.000000  ( 0.000001  0.000316  0.000002)
 22:    937.70   0.000000    0.00  0.000000  ( 0.000038 -0.000006 -0.000008)
 23:    945.06   0.000000    0.00  0.000000  (-0.000077 -0.000001  0.000034)
 24:    983.62   0.000000    0.00  0.000000  (-0.000002 -0.000005  0.000002)
 25:   1006.88   0.000420    2.12  0.000130  ( 0.000248  0.000000 -0.011407)
 26:   1034.88   0.000000    0.00  0.000000  ( 0.000002  0.000187 -0.000001)
 27:   1039.81   0.000000    0.00  0.000000  ( 0.000045 -0.000001  0.000045)
 28:   1053.58   0.001142    5.77  0.000338  ( 0.018394 -0.000010 -0.000225)
 29:   1070.50   0.000000    0.00  0.000000  ( 0.000095  0.000013 -0.000002)
 30:   1113.76   0.000494    2.50  0.000138  (-0.000055 -0.011767 -0.000000)
 31:   1116.02   0.000000    0.00  0.000000  ( 0.000076 -0.000037  0.000001)
 32:   1154.88   0.004778   24.14  0.001291  (-0.035930 -0.000002  0.000004)
 33:   1157.70   0.000000    0.00  0.000000  ( 0.000138  0.000002 -0.000000)
 34:   1229.80   0.135548  685.00  0.034395  ( 0.185460  0.000004  0.000051)
 35:   1258.06   0.000001    0.00  0.000000  ( 0.000371 -0.000004  0.000006)
 36:   1294.66   0.001898    9.59  0.000457  (-0.000018  0.021386 -0.000000)
 37:   1421.12   0.015163   76.63  0.003330  ( 0.000089 -0.057702 -0.000000)
 38:   1467.94   0.000001    0.01  0.000000  ( 0.000537 -0.000013 -0.000011)
 39:   1473.62   0.009320   47.10  0.001974  (-0.044427 -0.000090  0.000073)
 40:   1477.55   0.000000    0.00  0.000000  (-0.000001  0.000008  0.000001)
 41:   1496.66   0.000000    0.00  0.000000  (-0.000012 -0.000063  0.000000)
 42:   1544.17   0.000000    0.00  0.000000  (-0.000067 -0.000097 -0.000005)
 43:   1582.26   0.035621  180.01  0.007025  (-0.003317 -0.083752  0.000003)
 44:   1586.87   0.050535  255.38  0.009938  (-0.099650  0.002782  0.000098)
 45:   1670.16   0.000000    0.00  0.000000  (-0.000032  0.000018  0.000000)
 46:   3225.71   0.000000    0.00  0.000000  (-0.000006  0.000005  0.000001)
 47:   3225.88   0.000005    0.02  0.000000  (-0.000016 -0.000688  0.000000)
 48:   3229.64   0.000005    0.02  0.000000  ( 0.000681 -0.000005  0.000001)
 49:   3229.65   0.001066    5.39  0.000103  (-0.010149 -0.000004 -0.000005)
 50:   3237.75   0.000350    1.77  0.000034  ( 0.000013 -0.005805  0.000000)
 51:   3237.89   0.000000    0.00  0.000000  ( 0.000007 -0.000096 -0.000001)
 52:   3247.01   0.001680    8.49  0.000162  (-0.012708 -0.000003  0.000076)
 53:   3247.42   0.000000    0.00  0.000000  (-0.000020 -0.000003  0.000001)

--------------------------
THERMOCHEMISTRY AT 298.15K
--------------------------

Temperature         ...   298.15 K
Pressure            ...     1.00 atm
Total Mass          ...   128.17 AMU
Quasi RRHO          ...     True
Cut-Off Frequency   ...     1.00 cm^-1

Throughout the following assumptions are being made:
  (1) The electronic state is orbitally nondegenerate
      but the spin degeneracy is treated
  (2) There are no thermally accessible electronically excited states
  (3) Hindered rotations indicated by low frequency modes are not
      treated as such but are treated as vibrations and this may
      cause some error
  (4) All equations used are the standard statistical mechanics
      equations for an ideal gas
  (5) All vibrations are strictly harmonic

freq.     148.99  E(vib)   ...       0.40
freq.     178.75  E(vib)   ...       0.37
freq.     354.72  E(vib)   ...       0.22
freq.     375.11  E(vib)   ...       0.21
freq.     420.18  E(vib)   ...       0.18
freq.     443.11  E(vib)   ...       0.17
freq.     474.49  E(vib)   ...       0.15
freq.     514.15  E(vib)   ...       0.13
freq.     571.01  E(vib)   ...       0.11
freq.     601.67  E(vib)   ...       0.10
freq.     737.25  E(vib)   ...       0.06
freq.     762.97  E(vib)   ...       0.06
freq.     767.02  E(vib)   ...       0.06
freq.     786.38  E(vib)   ...       0.05
freq.     807.55  E(vib)   ...       0.05
freq.     874.87  E(vib)   ...       0.04
freq.     937.70  E(vib)   ...       0.03
freq.     945.06  E(vib)   ...       0.03
freq.     983.62  E(vib)   ...       0.02
freq.    1006.88  E(vib)   ...       0.02
freq.    1034.88  E(vib)   ...       0.02
freq.    1039.81  E(vib)   ...       0.02
freq.    1053.58  E(vib)   ...       0.02
freq.    1070.50  E(vib)   ...       0.02
freq.    1113.76  E(vib)   ...       0.01
freq.    1116.02  E(vib)   ...       0.01
freq.    1154.88  E(vib)   ...       0.01
freq.    1157.70  E(vib)   ...       0.01
freq.    1229.80  E(vib)   ...       0.01
freq.    1258.06  E(vib)   ...       0.01
freq.    1294.66  E(vib)   ...       0.01
freq.    1421.12  E(vib)   ...       0.00
freq.    1467.94  E(vib)   ...       0.00
freq.    1473.62  E(vib)   ...       0.00
freq.    1477.55  E(vib)   ...       0.00
freq.    1496.66  E(vib)   ...       0.00
freq.    1544.17  E(vib)   ...       0.00
freq.    1582.26  E(vib)   ...       0.00
freq.    1586.87  E(vib)   ...       0.00
freq.    1670.16  E(vib)   ...       0.00
freq.    3225.71  E(vib)   ...       0.00
freq.    3225.88  E(vib)   ...       0.00
freq.    3229.64  E(vib)   ...       0.00
freq.    3229.65  E(vib)   ...       0.00
freq.    3237.75  E(vib)   ...       0.00
freq.    3237.89  E(vib)   ...       0.00
freq.    3247.01  E(vib)   ...       0.00
freq.    3247.42  E(vib)   ...       0.00

------------
INNER ENERGY
------------

The inner energy is: U= E(el) + E(ZPE) + E(vib) + E(rot) + E(trans)
    E(el)   - is the total energy from the electronic structure calculation
              = E(kin-el) + E(nuc-el) + E(el-el) + E(nuc-nuc)
    E(ZPE)  - the the zero temperature vibrational energy from the frequency calculation
    E(vib)  - the the finite temperature correction to E(ZPE) due to population
              of excited vibrational states
    E(rot)  - is the rotational thermal energy
    E(trans)- is the translational thermal energy

Summary of contributions to the inner energy U:
Electronic energy                ...   -384.95454991 Eh
Zero point energy                ...      0.14766272 Eh      92.66 kcal/mol
Thermal vibrational correction   ...      0.00423592 Eh       2.66 kcal/mol
Thermal rotational correction    ...      0.00141627 Eh       0.89 kcal/mol
Thermal translational correction ...      0.00141627 Eh       0.89 kcal/mol
-----------------------------------------------------------------------
Total thermal energy                   -384.79981873 Eh

Summary of corrections to the electronic energy:
(perhaps to be used in another calculation)
Total thermal correction                  0.00706846 Eh       4.44 kcal/mol
Non-thermal (ZPE) correction              0.14766272 Eh      92.66 kcal/mol
-----------------------------------------------------------------------
Total correction                          0.15473118 Eh      97.10 kcal/mol

--------
ENTHALPY
--------

The enthalpy is H = U + kB*T
                kB is Boltzmann's constant
Total thermal energy              ...   -384.79981873 Eh
Thermal Enthalpy correction       ...      0.00094421 Eh       0.59 kcal/mol
-----------------------------------------------------------------------
Total Enthalpy                    ...   -384.79887452 Eh

Note: Rotational entropy computed according to Herzberg
Infrared and Raman Spectra, Chapter V,1, Van Nostrand Reinhold, 1945
Point Group:  C2, Symmetry Number:   2
Rotational constants in cm-1:     0.104662     0.040870     0.029392

Vibrational entropy computed according to the QRRHO of S. Grimme
Chem.Eur.J. 2012 18 9955 using a reference frequency of 100.0 cm-1

-------
ENTROPY
-------

The entropy contributions are T*S = T*(S(el)+S(vib)+S(rot)+S(trans))
     S(el)   - electronic entropy
     S(vib)  - vibrational entropy
     S(rot)  - rotational entropy
     S(trans)- translational entropy
The entropies will be listed as multiplied by the temperature to get
units of energy

Electronic entropy                ...      0.00065446 Eh      0.41 kcal/mol
Vibrational entropy               ...      0.00649421 Eh      4.08 kcal/mol
Rotational entropy                ...      0.01309639 Eh      8.22 kcal/mol
Translational entropy             ...      0.01922279 Eh     12.06 kcal/mol
-----------------------------------------------------------------------
Final entropy term                ...      0.03946785 Eh     24.77 kcal/mol

In case the symmetry of your molecule has not been determined correctly
or in case you have a reason to use a different symmetry number we print
out the resulting rotational entropy values for sn=1,12:

 non-linear molecules -----------------------------------
|  sn= 1 | S(rot)=       0.01375085 Eh      8.63 kcal/mol|
|  sn= 2 | S(rot)=       0.01309639 Eh      8.22 kcal/mol|
|  sn= 3 | S(rot)=       0.01271356 Eh      7.98 kcal/mol|
|  sn= 4 | S(rot)=       0.01244194 Eh      7.81 kcal/mol|
|  sn= 5 | S(rot)=       0.01223125 Eh      7.68 kcal/mol|
|  sn= 6 | S(rot)=       0.01205910 Eh      7.57 kcal/mol|
|  sn= 7 | S(rot)=       0.01191356 Eh      7.48 kcal/mol|
|  sn= 8 | S(rot)=       0.01178748 Eh      7.40 kcal/mol|
|  sn= 9 | S(rot)=       0.01167627 Eh      7.33 kcal/mol|
|  sn=10 | S(rot)=       0.01157679 Eh      7.26 kcal/mol|
|  sn=11 | S(rot)=       0.01148680 Eh      7.21 kcal/mol|
|  sn=12 | S(rot)=       0.01140465 Eh      7.16 kcal/mol|
 linear molecules ---------------------------------------
|  Dinfh | S(rot)=       0.00865596 Eh      5.43 kcal/mol|
|  Cinfv | S(rot)=       0.00931041 Eh      5.84 kcal/mol|
 --------------------------------------------------------

                             ****ORCA TERMINATED NORMALLY****
TOTAL RUN TIME: 0 days 0 hours 35 minutes 27 seconds 949 msec
