                         Program Version 6.0.0  -   RELEASE  -
|  1> !r2SCANh opt aug-cc-pVTZ d3 TightSCF SlowConv RIJCOSX defgrid2
|  2>
|  3> %pal
|  4> nprocs 8
|  5> end
|  6>
|  7> %scf
|  8> MaxIter 1500
|  9> end
| 10>
| 11> %maxcore 3500
| 12>
| 13> !CPCM
| 14> %cpcm smd true
| 15> SMDsolvent "MeCN"
| 16> surfacetype gepol_ses
| 17> rsolv 2.19
| 18> end
| 19>
| 20> * xyz 0 1
| 21> C          -0.72498712360752     -1.03199143591489     -0.00035587408950
| 22> C          -1.31725281953672      0.23700082940336     -0.00009216740947
| 23> C          -0.49927603036286      1.37741269983118     -0.00017815340748
| 24> C           0.87877130461947      1.25225114649976     -0.00046421372633
| 25> C           1.48912617012247     -0.01748708715836     -0.00062594889474
| 26> C           0.66252427774642     -1.14934366375667     -0.00064528665934
| 27> H           1.11889620163877     -2.14249327366435     -0.00083021648088
| 28> C           2.91104462440564     -0.14733894022628     -0.00063151415770
| 29> C           4.11990582812650     -0.25742637188868      0.00161358861277
| 30> H           5.19058139416864     -0.35415649223885      0.00097524906911
| 31> H           1.50779855780145      2.14601626186340     -0.00050473395896
| 32> H          -0.98017045333696      2.35860761783862      0.00000793066196
| 33> O          -2.64430351331883      0.45808400164866      0.00024605971359
| 34> C          -3.51534558275692     -0.63765175952228      0.00045178300619
| 35> H          -4.53490407246321     -0.22445155867607      0.00076695107216
| 36> H          -3.38161982455796     -1.26589006640153     -0.90098962915142
| 37> H          -3.38109122143507     -1.26596319208985      0.90176498266982
| 38> H          -1.33393961725331     -1.93771991554716     -0.00032660686979
| 39> *
| 40>
| 41>                          ****END OF INPUT****
 Total Charge           Charge          ....    0
 Multiplicity           Mult            ....    1
 Number of Electrons    NEL             ....   70
Dispersion correction           -0.005725978
FINAL SINGLE POINT ENERGY      -422.823255511011
Dispersion correction             ... done (  0.1 sec)
Dispersion correction           -0.005746052
FINAL SINGLE POINT ENERGY      -422.824745778848
Dispersion correction             ... done (  0.1 sec)
Dispersion correction           -0.005749076
FINAL SINGLE POINT ENERGY      -422.824839492458
Dispersion correction             ... done (  0.1 sec)
Dispersion correction           -0.005749396
FINAL SINGLE POINT ENERGY      -422.824871811987
Dispersion correction             ... done (  0.1 sec)
Dispersion correction           -0.005748925
FINAL SINGLE POINT ENERGY      -422.824875856610
Dispersion correction             ... done (  0.1 sec)
                    ***********************HURRAY********************

CARTESIAN COORDINATES (ANGSTROEM)
---------------------------------
  C     -0.727903   -1.021985    0.000942
  C     -1.307600    0.246312    0.000821
  C     -0.492784    1.381689    0.000278
  C      0.878279    1.252379   -0.000119
  C      1.477032   -0.016774    0.000056
  C      0.651908   -1.143879    0.000620
  H      1.096661   -2.129377    0.000324
  C      2.890214   -0.151110   -0.000845
  C      4.089517   -0.263689    0.000298
  H      5.149288   -0.362216   -0.001203
  H      1.501408    2.135809   -0.000788
  H     -0.955952    2.358751    0.000378
  O     -2.636261    0.473189    0.001182
  C     -3.501356   -0.657892   -0.000497
  H     -4.510541   -0.258712   -0.001067
  H     -3.348946   -1.265361   -0.893367
  H     -3.350787   -1.266974    0.891596
  H     -1.336418   -1.912698    0.001571

 Multiplicity           Mult            ....    1
 Number of Electrons    NEL             ....   70
 Basis Dimension        Dim             ....  644

ORBITAL ENERGIES
----------------

  NO   OCC          E(Eh)            E(eV)
   0   2.0000     -19.157254      -521.2954
   1   2.0000     -10.227514      -278.3048
   2   2.0000     -10.196633      -277.4645
   3   2.0000     -10.184241      -277.1273
   4   2.0000     -10.170516      -276.7538
   5   2.0000     -10.169781      -276.7338
   6   2.0000     -10.167182      -276.6631
   7   2.0000     -10.161332      -276.5039
   8   2.0000     -10.160098      -276.4703
   9   2.0000     -10.153441      -276.2892
  10   2.0000      -1.080637       -29.4056
  11   2.0000      -0.871955       -23.7271
  12   2.0000      -0.790824       -21.5194
  13   2.0000      -0.760472       -20.6935
  14   2.0000      -0.738601       -20.0984
  15   2.0000      -0.696153       -18.9433
  16   2.0000      -0.619342       -16.8532
  17   2.0000      -0.605658       -16.4808
  18   2.0000      -0.547112       -14.8877
  19   2.0000      -0.522687       -14.2230
  20   2.0000      -0.489827       -13.3289
  21   2.0000      -0.484575       -13.1860
  22   2.0000      -0.461324       -12.5533
  23   2.0000      -0.440428       -11.9846
  24   2.0000      -0.419882       -11.4256
  25   2.0000      -0.407244       -11.0817
  26   2.0000      -0.388578       -10.5737
  27   2.0000      -0.383662       -10.4400
  28   2.0000      -0.356324        -9.6961
  29   2.0000      -0.341901        -9.3036
  30   2.0000      -0.320966        -8.7339
  31   2.0000      -0.288846        -7.8599
  32   2.0000      -0.280400        -7.6301
  33   2.0000      -0.263201        -7.1621
  34   2.0000      -0.216617        -5.8945
  35   0.0000      -0.042940        -1.1685
  36   0.0000      -0.030816        -0.8385
  37   0.0000       0.008988         0.2446
  38   0.0000       0.020641         0.5617
  39   0.0000       0.021649         0.5891

MULLIKEN ATOMIC CHARGES
-----------------------
   0 C :   -0.153643
   1 C :    1.400151
   2 C :   -0.882364
   3 C :   -1.200345
   4 C :    1.739404
   5 C :   -1.389820
   6 H :   -0.412035
   7 C :    1.181192
   8 C :   -0.789163
   9 H :    0.308882
  10 H :   -0.354473
  11 H :    0.587560
  12 O :   -0.715332
  13 C :   -0.689699
  14 H :    0.246510
  15 H :    0.282783
  16 H :    0.282373
  17 H :    0.558020
Sum of atomic charges:   -0.0000000

LOEWDIN ATOMIC CHARGES
----------------------
   0 C :    0.217838
   1 C :   -0.400048
   2 C :    0.212024
   3 C :    0.191503
   4 C :   -0.237132
   5 C :    0.197506
   6 H :   -0.167548
   7 C :   -0.029059
   8 C :    0.399200
   9 H :   -0.294954
  10 H :   -0.168835
  11 H :   -0.175209
  12 O :    0.600522
  13 C :    0.366902
  14 H :   -0.177202
  15 H :   -0.169574
  16 H :   -0.169531
  17 H :   -0.196403

  Mayer bond orders larger than 0.100000
B(  0-C ,  1-C ) :   0.9069 B(  0-C ,  2-C ) :   0.2266 B(  0-C ,  4-C ) :   0.8100
B(  0-C ,  5-C ) :   0.9053 B(  0-C ,  6-H ) :  -0.2657 B(  0-C ,  7-C ) :  -0.2236
B(  0-C ,  8-C ) :  -0.1561 B(  0-C , 10-H ) :  -0.1545 B(  0-C , 11-H ) :  -0.1311
B(  0-C , 13-C ) :  -0.1002 B(  0-C , 17-H ) :   0.2468 B(  1-C ,  2-C ) :   0.6233
B(  1-C ,  3-C ) :  -0.6410 B(  1-C ,  5-C ) :  -0.5708 B(  1-C ,  7-C ) :   0.2355
B(  1-C ,  8-C ) :   0.1309 B(  1-C , 10-H ) :  -0.1113 B(  1-C , 11-H ) :   0.2074
B(  1-C , 12-O ) :   0.2481 B(  1-C , 17-H ) :   0.2243 B(  2-C ,  3-C ) :   1.2830
B(  2-C ,  4-C ) :   0.5954 B(  2-C ,  7-C ) :  -0.1182 B(  2-C , 10-H ) :  -0.1004
B(  2-C , 11-H ) :   0.2122 B(  2-C , 12-O ) :   0.3190 B(  2-C , 17-H ) :  -0.1071
B(  3-C ,  5-C ) :  -0.7177 B(  3-C ,  6-H ) :   0.2786 B(  3-C ,  7-C ) :   0.5241
B(  3-C , 10-H ) :   2.3789 B(  4-C ,  6-H ) :  -0.3263 B(  4-C ,  7-C ) :  -0.2283
B(  4-C ,  8-C ) :   0.9465 B(  4-C ,  9-H ) :   0.1044 B(  4-C , 10-H ) :  -0.1579
B(  4-C , 12-O ) :   0.1373 B(  4-C , 17-H ) :  -0.1185 B(  5-C ,  6-H ) :   2.5643
B(  5-C ,  7-C ) :   0.4179 B(  5-C ,  8-C ) :  -0.2105 B(  5-C , 10-H ) :   0.2635
B(  5-C , 17-H ) :  -0.1003 B(  6-H ,  7-C ) :  -0.3212 B(  6-H ,  8-C ) :  -0.5072
B(  6-H , 10-H ) :   0.6118 B(  6-H , 11-H ) :  -0.1216 B(  6-H , 17-H ) :  -0.1356
B(  7-C ,  8-C ) :   2.1078 B(  7-C ,  9-H ) :  -0.2445 B(  7-C , 10-H ) :  -0.3822
B(  7-C , 17-H ) :   0.1209 B(  8-C ,  9-H ) :   1.2198 B(  8-C , 10-H ) :  -0.5203
B(  8-C , 11-H ) :   0.2192 B(  8-C , 17-H ) :   0.2808 B( 10-H , 11-H ) :  -0.1233
B( 10-H , 17-H ) :  -0.1071 B( 12-O , 13-C ) :   1.0055 B( 13-C , 14-H ) :   0.9919
B( 13-C , 15-H ) :   0.9028 B( 13-C , 16-H ) :   0.9031

Dispersion correction           -0.005748727
FINAL SINGLE POINT ENERGY      -422.824876436561

DIPOLE MOMENT
-------------

Method             : SCF
Type of density    : Electron Density
Multiplicity       :   1
Irrep              :   0
Energy             :  -422.8191277091387974 Eh
Relativity type    :
Basis              : AO
                                X                 Y                 Z
Electronic contribution:      4.325937091       1.944626177       0.003094863
Nuclear contribution   :     -5.412992254      -2.546419380      -0.004371781
                        -----------------------------------------
Total Dipole Moment    :     -1.087055163      -0.601793204      -0.001276918
                        -----------------------------------------
Magnitude (a.u.)       :      1.242515842
Magnitude (Debye)      :      3.158224282

Rotational constants in cm-1:             0.161856             0.023820             0.020847
Rotational constants in MHz :          4852.310788           714.110887           624.970654

                             ****ORCA TERMINATED NORMALLY****
TOTAL RUN TIME: 0 days 0 hours 24 minutes 44 seconds 16 msec
