                         Program Version 6.0.0  -   RELEASE  -
|  1> !PBE0 opt def2-SV(p) d3 TightSCF SlowConv RIJCOSX defgrid2
|  2>
|  3> %pal
|  4> nprocs 8
|  5> end
|  6>
|  7> %scf
|  8> MaxIter 1500
|  9> end
| 10>
| 11> %maxcore 3500
| 12>
| 13> !CPCM
| 14> %cpcm smd true
| 15> SMDsolvent "MeCN"
| 16> surfacetype gepol_ses
| 17> rsolv 2.19
| 18> end
| 19>
| 20> * xyz 0 1
| 21> C          -0.33578897576289      0.78706332413970     -0.00007064342653
| 22> C          -1.63104450940735      0.25443214150099      0.00002424994707
| 23> C          -1.80666505085776     -1.13184792287007      0.00010488474499
| 24> C          -0.67709514280741     -1.95709297790421      0.00008171672668
| 25> C           0.60485199074243     -1.42986794226310     -0.00000896897667
| 26> C           0.79403740595386     -0.03404919740528     -0.00007754792200
| 27> C           2.11776775675579      0.59942775277408     -0.00015788147995
| 28> C           3.31301096591764     -0.01037680773538      0.00016998990263
| 29> C           4.62672268480693      0.69670422006693      0.00006613977785
| 30> H           5.22986800286636      0.42062681248378     -0.88556810108390
| 31> H           5.22969209158747      0.42121685919020      0.88600364391119
| 32> H           4.49947065542959      1.79239087728672     -0.00031400154329
| 33> H           3.35830731979376     -1.10765129675188      0.00055685548665
| 34> H           2.10183131012046      1.69773297660842     -0.00050241232510
| 35> H           1.46480294351024     -2.10372145346859     -0.00005885954138
| 36> H          -0.81507815522221     -3.04272899333565      0.00012435061663
| 37> H          -2.80202830314914     -1.57931173714880      0.00017356816380
| 38> O          -2.63880088575063      1.15236499149081      0.00002597094029
| 39> C          -3.95583677666632      0.68525859520605      0.00017372040280
| 40> H          -4.60351833384684      1.57486457447649      0.00019490121742
| 41> H          -4.17725863855936      0.08018155004781      0.90083429325456
| 42> H          -4.17743481291300      0.08009944047560     -0.90038823724126
| 43> H          -0.23264934254160      1.87564721313537     -0.00013303155248
| 44> *
| 45>
| 46>                          ****END OF INPUT****
 Total Charge           Charge          ....    0
 Multiplicity           Mult            ....    1
 Number of Electrons    NEL             ....   80
Dispersion correction           -0.019920963
FINAL SINGLE POINT ENERGY      -462.613207942682
Dispersion correction             ... done (  0.1 sec)
Dispersion correction           -0.019911320
FINAL SINGLE POINT ENERGY      -462.613285611487
Dispersion correction             ... done (  0.1 sec)
Dispersion correction           -0.019909736
FINAL SINGLE POINT ENERGY      -462.613298531229
Dispersion correction             ... done (  0.1 sec)
                    ***********************HURRAY********************

CARTESIAN COORDINATES (ANGSTROEM)
---------------------------------
  C     -0.336043    0.792805   -0.000986
  C     -1.632815    0.258207   -0.001111
  C     -1.807397   -1.130163   -0.000266
  C     -0.676191   -1.954254    0.000942
  C      0.607870   -1.426545    0.001220
  C      0.795803   -0.029061    0.000085
  C      2.119960    0.607071    0.000492
  C      3.314613   -0.008126   -0.001106
  C      4.629145    0.693793    0.000086
  H      5.230003    0.412170   -0.885773
  H      5.231206    0.406047    0.883162
  H      4.510614    1.790954    0.003860
  H      3.358951   -1.105863   -0.003623
  H      2.103623    1.705602    0.002276
  H      1.467180   -2.102038    0.002874
  H     -0.813971   -3.040159    0.002046
  H     -2.802691   -1.578366   -0.000823
  O     -2.640255    1.151017   -0.001917
  C     -3.963655    0.678201    0.000034
  H     -4.612551    1.567009   -0.000224
  H     -4.182425    0.076570    0.902044
  H     -4.184464    0.074837   -0.900245
  H     -0.229347    1.881655   -0.001791

 Multiplicity           Mult            ....    1
 Number of Electrons    NEL             ....   80
 Basis Dimension        Dim             ....  178

ORBITAL ENERGIES
----------------

  NO   OCC          E(Eh)            E(eV)
   0   2.0000     -19.242282      -523.6091
   1   2.0000     -10.297523      -280.2099
   2   2.0000     -10.269492      -279.4471
   3   2.0000     -10.249759      -278.9101
   4   2.0000     -10.237631      -278.5801
   5   2.0000     -10.236767      -278.5566
   6   2.0000     -10.231316      -278.4083
   7   2.0000     -10.231133      -278.4033
   8   2.0000     -10.229994      -278.3723
   9   2.0000     -10.228419      -278.3294
  10   2.0000     -10.219643      -278.0906
  11   2.0000      -1.092582       -29.7307
  12   2.0000      -0.878386       -23.9021
  13   2.0000      -0.816197       -22.2099
  14   2.0000      -0.774240       -21.0681
  15   2.0000      -0.765965       -20.8430
  16   2.0000      -0.706465       -19.2239
  17   2.0000      -0.692727       -18.8501
  18   2.0000      -0.620261       -16.8782
  19   2.0000      -0.611926       -16.6514
  20   2.0000      -0.564071       -15.3492
  21   2.0000      -0.537256       -14.6195
  22   2.0000      -0.503411       -13.6985
  23   2.0000      -0.495870       -13.4933
  24   2.0000      -0.483066       -13.1449
  25   2.0000      -0.473314       -12.8795
  26   2.0000      -0.445500       -12.1227
  27   2.0000      -0.432056       -11.7568
  28   2.0000      -0.421185       -11.4610
  29   2.0000      -0.412339       -11.2203
  30   2.0000      -0.398517       -10.8442
  31   2.0000      -0.397420       -10.8144
  32   2.0000      -0.380109       -10.3433
  33   2.0000      -0.366120        -9.9626
  34   2.0000      -0.354539        -9.6475
  35   2.0000      -0.345722        -9.4076
  36   2.0000      -0.335420        -9.1272
  37   2.0000      -0.304002        -8.2723
  38   2.0000      -0.243348        -6.6218
  39   2.0000      -0.229108        -6.2344
  40   0.0000      -0.030675        -0.8347
  41   0.0000       0.001794         0.0488
  42   0.0000       0.067007         1.8234
  43   0.0000       0.087563         2.3827
  44   0.0000       0.096244         2.6189

MULLIKEN ATOMIC CHARGES
-----------------------
   0 C :   -0.258697
   1 C :    0.289906
   2 C :   -0.261170
   3 C :   -0.104966
   4 C :   -0.187693
   5 C :    0.093457
   6 C :   -0.161322
   7 C :   -0.189562
   8 C :   -0.327717
   9 H :    0.152372
  10 H :    0.152274
  11 H :    0.144646
  12 H :    0.140494
  13 H :    0.112439
  14 H :    0.114085
  15 H :    0.122593
  16 H :    0.123398
  17 O :   -0.336678
  18 C :   -0.178274
  19 H :    0.161304
  20 H :    0.147578
  21 H :    0.147597
  22 H :    0.103938
Sum of atomic charges:    0.0000000

LOEWDIN ATOMIC CHARGES
----------------------
   0 C :   -0.161063
   1 C :    0.032154
   2 C :   -0.197336
   3 C :   -0.124697
   4 C :   -0.161149
   5 C :   -0.047678
   6 C :   -0.158757
   7 C :   -0.136085
   8 C :   -0.345065
   9 H :    0.139644
  10 H :    0.139599
  11 H :    0.131838
  12 H :    0.133863
  13 H :    0.134953
  14 H :    0.137886
  15 H :    0.142195
  16 H :    0.147726
  17 O :   -0.117879
  18 C :   -0.205889
  19 H :    0.131497
  20 H :    0.120674
  21 H :    0.120677
  22 H :    0.142891

  Mayer bond orders larger than 0.100000
B(  0-C ,  1-C ) :   1.3191 B(  0-C ,  5-C ) :   1.3548 B(  0-C , 22-H ) :   0.9679
B(  1-C ,  2-C ) :   1.3135 B(  1-C , 17-O ) :   1.1228 B(  2-C ,  3-C ) :   1.3378
B(  2-C , 16-H ) :   0.9623 B(  3-C ,  4-C ) :   1.4239 B(  3-C , 15-H ) :   0.9592
B(  4-C ,  5-C ) :   1.3233 B(  4-C , 14-H ) :   0.9548 B(  5-C ,  6-C ) :   1.0821
B(  6-C ,  7-C ) :   1.8781 B(  6-C , 13-H ) :   0.9369 B(  7-C ,  8-C ) :   1.0863
B(  7-C , 12-H ) :   0.9124 B(  8-C ,  9-H ) :   0.9323 B(  8-C , 10-H ) :   0.9324
B(  8-C , 11-H ) :   0.9509 B( 17-O , 18-C ) :   0.9400 B( 18-C , 19-H ) :   0.9534
B( 18-C , 20-H ) :   0.9406 B( 18-C , 21-H ) :   0.9406

Dispersion correction           -0.019910259
FINAL SINGLE POINT ENERGY      -462.613299507786

DIPOLE MOMENT
-------------

Method             : SCF
Type of density    : Electron Density
Multiplicity       :   1
Irrep              :   0
Energy             :  -462.5933892489657069 Eh
Relativity type    :
Basis              : AO
                                X                 Y                 Z
Electronic contribution:     -5.099715772      -0.433467423      -0.005227773
Nuclear contribution   :      4.759436814       0.079387014       0.006123684
                        -----------------------------------------
Total Dipole Moment    :     -0.340278958      -0.354080409       0.000895910
                        -----------------------------------------
Magnitude (a.u.)       :      0.491084013
Magnitude (Debye)      :      1.248236362

Rotational constants in cm-1:             0.102649             0.016926             0.014611
Rotational constants in MHz :          3077.327470           507.431312           438.030329

                             ****ORCA TERMINATED NORMALLY****
TOTAL RUN TIME: 0 days 0 hours 4 minutes 10 seconds 6 msec
