                         Program Version 6.0.0  -   RELEASE  -
|  1> !B3LYP aug-cc-pVTZ d3 TightSCF SlowConv RIJCOSX defgrid2
|  2>
|  3> %pal
|  4> nprocs 4
|  5> end
|  6>
|  7> %scf
|  8> MaxIter 1500
|  9> end
| 10>
| 11> %maxcore 3000
| 12>
| 13> !CPCM
| 14> %cpcm smd true
| 15> SMDsolvent "MeCN"
| 16> surfacetype gepol_ses
| 17> rsolv 2.19
| 18> end
| 19>
| 20> * xyz 0 1
| 21> C          -2.35855566249028     -1.18298734946581      0.44746508492782
| 22> C          -3.63998601494038     -0.64494677752617      0.40531310745406
| 23> C          -3.85303233632332      0.64184728390947     -0.08922899701963
| 24> C          -2.76160264019232      1.37149847988341     -0.55944574759612
| 25> C          -1.47660109339583      0.83661893600173     -0.53774129143291
| 26> C          -1.25440681594945     -0.45059005524099     -0.02098393310126
| 27> N          -0.00000421351286     -1.04691099052655     -0.00000634656969
| 28> C           1.25440223898594     -0.45059921009457      0.02097107702327
| 29> C           1.47660100518815      0.83661344736755      0.53772022597142
| 30> C           2.76160709047823      1.37148092391060      0.55943972704073
| 31> C           3.85303807972459      0.64181530245744      0.08924769050056
| 32> C           3.63998848210222     -0.64498151368667     -0.40528711196994
| 33> C           2.35855298180034     -1.18301040091692     -0.44745622777963
| 34> H           2.19908895406864     -2.18668027905193     -0.85522438065874
| 35> H           4.48199840421952     -1.23797876876707     -0.77528111411611
| 36> H           4.85916686280388      1.06886680223861      0.11285453118115
| 37> H           2.91087680856629      2.37556477081901      0.96852154939093
| 38> H           0.64246040679070      1.40934002015136      0.94801182020360
| 39> H          -0.00000725820461     -2.05910419744794     -0.00000990999799
| 40> H          -0.64246082169541      1.40933334107559     -0.94805093043179
| 41> H          -2.91086965745103      2.37558015369041     -0.96853357662371
| 42> H          -4.85915726714274      1.06890811498503     -0.11281791601209
| 43> H          -4.48199557743319     -1.23793238163885      0.77532568830103
| 44> H          -2.19909265599709     -2.18665445212673      0.85523908131503
| 45> *
| 46>
| 47>                          ****END OF INPUT****

CARTESIAN COORDINATES (ANGSTROEM)
---------------------------------
  C     -2.358556   -1.182987    0.447465
  C     -3.639986   -0.644947    0.405313
  C     -3.853032    0.641847   -0.089229
  C     -2.761603    1.371498   -0.559446
  C     -1.476601    0.836619   -0.537741
  C     -1.254407   -0.450590   -0.020984
  N     -0.000004   -1.046911   -0.000006
  C      1.254402   -0.450599    0.020971
  C      1.476601    0.836613    0.537720
  C      2.761607    1.371481    0.559440
  C      3.853038    0.641815    0.089248
  C      3.639988   -0.644982   -0.405287
  C      2.358553   -1.183010   -0.447456
  H      2.199089   -2.186680   -0.855224
  H      4.481998   -1.237979   -0.775281
  H      4.859167    1.068867    0.112855
  H      2.910877    2.375565    0.968522
  H      0.642460    1.409340    0.948012
  H     -0.000007   -2.059104   -0.000010
  H     -0.642461    1.409333   -0.948051
  H     -2.910870    2.375580   -0.968534
  H     -4.859157    1.068908   -0.112818
  H     -4.481996   -1.237932    0.775326
  H     -2.199093   -2.186654    0.855239

 Total Charge           Charge          ....    0
 Multiplicity           Mult            ....    1
 Number of Electrons    NEL             ....   90
 Basis Dimension        Dim             ....  851

ORBITAL ENERGIES
----------------

  NO   OCC          E(Eh)            E(eV)
   0   2.0000     -14.338956      -390.1828
   1   2.0000     -10.220239      -278.1068
   2   2.0000     -10.220234      -278.1067
   3   2.0000     -10.175284      -276.8836
   4   2.0000     -10.175281      -276.8835
   5   2.0000     -10.175205      -276.8814
   6   2.0000     -10.175205      -276.8814
   7   2.0000     -10.171643      -276.7845
   8   2.0000     -10.171636      -276.7843
   9   2.0000     -10.171083      -276.7693
  10   2.0000     -10.171080      -276.7692
  11   2.0000     -10.167124      -276.6615
  12   2.0000     -10.167121      -276.6614
  13   2.0000      -0.953471       -25.9453
  14   2.0000      -0.856451       -23.3052
  15   2.0000      -0.836405       -22.7597
  16   2.0000      -0.757418       -20.6104
  17   2.0000      -0.747204       -20.3324
  18   2.0000      -0.741376       -20.1739
  19   2.0000      -0.712293       -19.3825
  20   2.0000      -0.622288       -16.9333
  21   2.0000      -0.620892       -16.8953
  22   2.0000      -0.596203       -16.2235
  23   2.0000      -0.578407       -15.7393
  24   2.0000      -0.531440       -14.4612
  25   2.0000      -0.522588       -14.2203
  26   2.0000      -0.492818       -13.4103
  27   2.0000      -0.472904       -12.8684
  28   2.0000      -0.451368       -12.2824
  29   2.0000      -0.443508       -12.0685
  30   2.0000      -0.428603       -11.6629
  31   2.0000      -0.425170       -11.5695
  32   2.0000      -0.416545       -11.3348
  33   2.0000      -0.415055       -11.2942
  34   2.0000      -0.395253       -10.7554
  35   2.0000      -0.370874       -10.0920
  36   2.0000      -0.363935        -9.9032
  37   2.0000      -0.352430        -9.5901
  38   2.0000      -0.341164        -9.2835
  39   2.0000      -0.339166        -9.2292
  40   2.0000      -0.321149        -8.7389
  41   2.0000      -0.258581        -7.0363
  42   2.0000      -0.257721        -7.0129
  43   2.0000      -0.255668        -6.9571
  44   2.0000      -0.195184        -5.3112
  45   0.0000      -0.021511        -0.5853
  46   0.0000      -0.016362        -0.4452
  47   0.0000      -0.012250        -0.3333
  48   0.0000      -0.003904        -0.1062
  49   0.0000       0.004805         0.1307

MULLIKEN ATOMIC CHARGES
-----------------------
   0 C :   -0.900176
   1 C :   -0.439482
   2 C :   -0.387309
   3 C :   -0.916466
   4 C :   -0.441164
   5 C :    1.178617
   6 N :   -0.552926
   7 C :    1.171748
   8 C :   -0.441275
   9 C :   -0.921231
  10 C :   -0.393580
  11 C :   -0.441497
  12 C :   -0.888167
  13 H :    0.379252
  14 H :    0.418153
  15 H :    0.492584
  16 H :    0.347779
  17 H :    0.586511
  18 H :   -0.068747
  19 H :    0.586570
  20 H :    0.344252
  21 H :    0.493999
  22 H :    0.409949
  23 H :    0.382606
Sum of atomic charges:   -0.0000000

LOEWDIN ATOMIC CHARGES
----------------------
   0 C :    0.211321
   1 C :    0.170334
   2 C :    0.168738
   3 C :    0.175824
   4 C :    0.201401
   5 C :   -0.221008
   6 N :    0.561200
   7 C :   -0.221031
   8 C :    0.201405
   9 C :    0.175817
  10 C :    0.168749
  11 C :    0.170337
  12 C :    0.211311
  13 H :   -0.161232
  14 H :   -0.169553
  15 H :   -0.177985
  16 H :   -0.168743
  17 H :   -0.179820
  18 H :   -0.259699
  19 H :   -0.179844
  20 H :   -0.168743
  21 H :   -0.177990
  22 H :   -0.169556
  23 H :   -0.161233

  Mayer bond orders larger than 0.100000
B(  0-C ,  1-C ) :   1.2385 B(  0-C ,  5-C ) :   0.3861 B(  0-C , 14-H ) :  -0.1233
B(  0-C , 15-H ) :   0.1017 B(  0-C , 23-H ) :   0.6776 B(  1-C ,  2-C ) :   1.1209
B(  1-C ,  5-C ) :  -0.1809 B(  1-C , 22-H ) :   0.7244 B(  2-C ,  3-C ) :   1.2730
B(  2-C ,  4-C ) :   0.1176 B(  2-C , 21-H ) :   0.6027 B(  3-C ,  4-C ) :   1.2488
B(  3-C ,  5-C ) :  -0.2825 B(  3-C , 20-H ) :   0.8171 B(  4-C ,  5-C ) :   0.6627
B(  4-C ,  6-N ) :  -0.1955 B(  4-C ,  7-C ) :   0.1473 B(  4-C , 17-H ) :  -0.1294
B(  4-C , 19-H ) :   0.4526 B(  5-C ,  6-N ) :   0.6390 B(  5-C ,  8-C ) :   0.1647
B(  5-C , 17-H ) :  -0.1280 B(  5-C , 18-H ) :  -0.1054 B(  6-N ,  7-C ) :   0.6410
B(  6-N ,  8-C ) :  -0.1931 B(  6-N , 18-H ) :   1.3572 B(  7-C ,  8-C ) :   0.6705
B(  7-C ,  9-C ) :  -0.2806 B(  7-C , 11-C ) :  -0.1716 B(  7-C , 12-C ) :   0.3887
B(  7-C , 18-H ) :  -0.1071 B(  7-C , 19-H ) :  -0.1371 B(  8-C ,  9-C ) :   1.2472
B(  8-C , 10-C ) :   0.1134 B(  8-C , 17-H ) :   0.4533 B(  8-C , 19-H ) :  -0.1221
B(  9-C , 10-C ) :   1.2869 B(  9-C , 16-H ) :   0.8124 B( 10-C , 11-C ) :   1.1173
B( 10-C , 15-H ) :   0.6045 B( 11-C , 12-C ) :   1.2247 B( 11-C , 14-H ) :   0.7092
B( 12-C , 13-H ) :   0.6877

Dispersion correction           -0.048506060
FINAL SINGLE POINT ENERGY      -518.575307914838

DIPOLE MOMENT
-------------

Method             : SCF
Type of density    : Electron Density
Multiplicity       :   1
Irrep              :   0
Energy             :  -518.5268018546485109 Eh
Relativity type    :
Basis              : AO
                                X                 Y                 Z
Electronic contribution:      0.000022841      -1.322163766       0.000755491
Nuclear contribution   :      0.000006870       0.752166841       0.000025965
                        -----------------------------------------
Total Dipole Moment    :      0.000029711      -0.569996924       0.000781456
                        -----------------------------------------
Magnitude (a.u.)       :      0.569997461
Magnitude (Debye)      :      1.448818406

Rotational constants in cm-1:             0.084180             0.013733             0.012322
Rotational constants in MHz :          2523.650354           411.709672           369.402071

                             ****ORCA TERMINATED NORMALLY****
TOTAL RUN TIME: 0 days 0 hours 7 minutes 27 seconds 673 msec
