                         Program Version 6.0.0  -   RELEASE  -
|  1> !r2SCAN aug-cc-pVTZ d3 TightSCF SlowConv RIJCOSX defgrid2
|  2>
|  3> %pal
|  4> nprocs 15
|  5> end
|  6>
|  7> %scf
|  8> MaxIter 1500
|  9> end
| 10>
| 11> %maxcore 3500
| 12>
| 13> !CPCM
| 14> %cpcm smd true
| 15> SMDsolvent "WATER"
| 16> surfacetype gepol_ses
| 17> rsolv 1.40
| 18> end
| 19>
| 20> * xyz 1 1
| 21> O           1.78804094605451      3.57407180225234      1.26949194793146
| 22> N           2.67789422851893      2.80320165261973      1.24235605674492
| 23> C           3.71778316034813      2.91642565718559      0.16690169044367
| 24> C           4.00336272113038      1.49623261444906     -0.34502278805979
| 25> C           4.25766982671167      0.52191894036115      0.75815899662553
| 26> C           3.72478741138320      0.67902204568292      1.96909401147761
| 27> C           2.74959286644548      1.76027704323926      2.33487529589660
| 28> C           4.95479041346433      3.52595927403589      0.85716379705375
| 29> C           3.19004706306109      3.83072822434414     -0.92224433141749
| 30> C           3.15485574167612      2.51408579594002      3.61549894601635
| 31> C           1.33516544733407      1.17999753290778      2.47825951823241
| 32> H           4.87996183732221      1.57668875415100     -1.00999500614608
| 33> H           3.17021668262368      1.15296792938084     -0.98863220317568
| 34> H           4.90337590828949     -0.33836578770133      0.55566284253488
| 35> H           3.92357861346000     -0.03968109815672      2.77061581286109
| 36> H           4.70844618705422      4.48811332405391      1.33490279509444
| 37> H           5.40761709603610      2.84446172249759      1.59225247734595
| 38> H           5.69483505273624      3.71884274386665      0.06263108376658
| 39> H           3.04024511163629      4.86095117972371     -0.56406719285224
| 40> H           2.23933329941609      3.45894408996336     -1.33920228019874
| 41> H           3.93412607430717      3.85508376979621     -1.73438810478811
| 42> H           2.42690041381949      3.30933728300165      3.84390224235101
| 43> H           4.16701870887203      2.94082178104930      3.54605561909481
| 44> H           3.14478541414984      1.78516218068988      4.44194641182067
| 45> H           0.61276609896706      1.95074174596123      2.78900733696933
| 46> H           1.00104681299372      0.70960454278176      1.53898778688725
| 47> H           1.37065586218837      0.39927625592302      3.25432923748977
| 48> *
| 49>
| 50>                          ****END OF INPUT****

CARTESIAN COORDINATES (ANGSTROEM)
---------------------------------
  O      1.788041    3.574072    1.269492
  N      2.677894    2.803202    1.242356
  C      3.717783    2.916426    0.166902
  C      4.003363    1.496233   -0.345023
  C      4.257670    0.521919    0.758159
  C      3.724787    0.679022    1.969094
  C      2.749593    1.760277    2.334875
  C      4.954790    3.525959    0.857164
  C      3.190047    3.830728   -0.922244
  C      3.154856    2.514086    3.615499
  C      1.335165    1.179998    2.478260
  H      4.879962    1.576689   -1.009995
  H      3.170217    1.152968   -0.988632
  H      4.903376   -0.338366    0.555663
  H      3.923579   -0.039681    2.770616
  H      4.708446    4.488113    1.334903
  H      5.407617    2.844462    1.592252
  H      5.694835    3.718843    0.062631
  H      3.040245    4.860951   -0.564067
  H      2.239333    3.458944   -1.339202
  H      3.934126    3.855084   -1.734388
  H      2.426900    3.309337    3.843902
  H      4.167019    2.940822    3.546056
  H      3.144785    1.785162    4.441946
  H      0.612766    1.950742    2.789007
  H      1.001047    0.709605    1.538988
  H      1.370656    0.399276    3.254329

 Total Charge           Charge          ....    1
 Multiplicity           Mult            ....    1
 Number of Electrons    NEL             ....   84
 Basis Dimension        Dim             ....  874

ORBITAL ENERGIES
----------------

  NO   OCC          E(Eh)            E(eV)
   0   2.0000     -19.086137      -519.3602
   1   2.0000     -14.398844      -391.8125
   2   2.0000     -10.135897      -275.8118
   3   2.0000     -10.133812      -275.7550
   4   2.0000     -10.065417      -273.8939
   5   2.0000     -10.057412      -273.6761
   6   2.0000     -10.055878      -273.6343
   7   2.0000     -10.055151      -273.6146
   8   2.0000     -10.054198      -273.5886
   9   2.0000     -10.049514      -273.4612
  10   2.0000     -10.043764      -273.3047
  11   2.0000      -1.232709       -33.5437
  12   2.0000      -0.897421       -24.4201
  13   2.0000      -0.828764       -22.5518
  14   2.0000      -0.768348       -20.9078
  15   2.0000      -0.723109       -19.6768
  16   2.0000      -0.686219       -18.6730
  17   2.0000      -0.675651       -18.3854
  18   2.0000      -0.674065       -18.3423
  19   2.0000      -0.623135       -16.9564
  20   2.0000      -0.586780       -15.9671
  21   2.0000      -0.548515       -14.9259
  22   2.0000      -0.529508       -14.4086
  23   2.0000      -0.502658       -13.6780
  24   2.0000      -0.470269       -12.7967
  25   2.0000      -0.453492       -12.3402
  26   2.0000      -0.435458       -11.8494
  27   2.0000      -0.431273       -11.7355
  28   2.0000      -0.406476       -11.0608
  29   2.0000      -0.402337       -10.9481
  30   2.0000      -0.390521       -10.6266
  31   2.0000      -0.389381       -10.5956
  32   2.0000      -0.368987       -10.0406
  33   2.0000      -0.366932        -9.9847
  34   2.0000      -0.364492        -9.9183
  35   2.0000      -0.358362        -9.7515
  36   2.0000      -0.345702        -9.4070
  37   2.0000      -0.344520        -9.3749
  38   2.0000      -0.338241        -9.2040
  39   2.0000      -0.317270        -8.6334
  40   2.0000      -0.297690        -8.1005
  41   2.0000      -0.249434        -6.7874
  42   0.0000      -0.194560        -5.2942
  43   0.0000      -0.037372        -1.0169
  44   0.0000       0.005565         0.1514
  45   0.0000       0.015254         0.4151
  46   0.0000       0.021554         0.5865

MULLIKEN ATOMIC CHARGES
-----------------------
   0 O :   -0.940980
   1 N :    1.056434
   2 C :    2.023120
   3 C :   -0.280921
   4 C :   -0.672083
   5 C :   -0.590525
   6 C :    1.618930
   7 C :   -0.958194
   8 C :   -1.339754
   9 C :   -1.081723
  10 C :   -1.188978
  11 H :    0.080957
  12 H :    0.214090
  13 H :    0.726505
  14 H :    0.233137
  15 H :    0.191150
  16 H :    0.288823
  17 H :    0.096293
  18 H :    0.170112
  19 H :    0.150591
  20 H :    0.146735
  21 H :    0.127951
  22 H :    0.240375
  23 H :    0.155193
  24 H :    0.142796
  25 H :    0.219973
  26 H :    0.169993
Sum of atomic charges:    1.0000000

LOEWDIN ATOMIC CHARGES
----------------------
   0 O :    0.649999
   1 N :   -0.016428
   2 C :   -0.387273
   3 C :    0.312251
   4 C :    0.262369
   5 C :    0.241050
   6 C :   -0.407057
   7 C :    0.636547
   8 C :    0.599722
   9 C :    0.629141
  10 C :    0.613653
  11 H :   -0.111059
  12 H :   -0.105697
  13 H :   -0.142510
  14 H :   -0.137220
  15 H :   -0.124090
  16 H :   -0.153774
  17 H :   -0.119619
  18 H :   -0.145928
  19 H :   -0.136666
  20 H :   -0.130349
  21 H :   -0.138021
  22 H :   -0.147571
  23 H :   -0.127322
  24 H :   -0.151727
  25 H :   -0.130325
  26 H :   -0.132095

  Mayer bond orders larger than 0.100000
B(  0-O ,  1-N ) :   0.5829 B(  0-O ,  6-C ) :  -0.1360 B(  0-O ,  8-C ) :   0.1568
B(  1-N ,  2-C ) :   0.9459 B(  1-N ,  3-C ) :   0.2248 B(  1-N ,  4-C ) :   0.1281
B(  1-N ,  6-C ) :   0.8193 B(  1-N ,  7-C ) :   0.1476 B(  1-N ,  8-C ) :  -0.3204
B(  2-C ,  3-C ) :   0.2332 B(  2-C ,  4-C ) :   0.2628 B(  2-C ,  5-C ) :   0.1343
B(  2-C ,  7-C ) :   0.1713 B(  3-C ,  4-C ) :   0.5928 B(  3-C ,  7-C ) :   0.1485
B(  3-C , 11-H ) :   0.9573 B(  3-C , 12-H ) :   0.9590 B(  3-C , 13-H ) :   0.2227
B(  4-C ,  5-C ) :   1.4082 B(  5-C ,  6-C ) :   0.7225 B(  5-C ,  9-C ) :  -0.1082
B(  5-C , 14-H ) :   0.9956 B(  6-C ,  9-C ) :   0.3515 B(  6-C , 10-C ) :   0.2348
B(  7-C ,  8-C ) :   0.1578 B(  7-C , 15-H ) :   0.9789 B(  7-C , 16-H ) :   0.8974
B(  7-C , 17-H ) :   1.1099 B(  8-C , 18-H ) :   1.0433 B(  8-C , 19-H ) :   1.1095
B(  8-C , 20-H ) :   1.0900 B(  9-C , 10-C ) :   0.2160 B(  9-C , 21-H ) :   1.0880
B(  9-C , 22-H ) :   0.9514 B(  9-C , 23-H ) :   1.0831 B( 10-C , 24-H ) :   1.0827
B( 10-C , 25-H ) :   1.0008 B( 10-C , 26-H ) :   1.0569

Dispersion correction           -0.009694982
FINAL SINGLE POINT ENERGY      -482.217799062950

DIPOLE MOMENT
-------------

Method             : SCF
Type of density    : Electron Density
Multiplicity       :   1
Irrep              :   0
Energy             :  -482.2081040809185879 Eh
Relativity type    :
Basis              : AO
                                X                 Y                 Z
Electronic contribution:     -2.654219839       0.019040200      -0.540480160
Nuclear contribution   :      3.088927410      -0.095134284       0.454097178
                        -----------------------------------------
Total Dipole Moment    :      0.434707571      -0.076094084      -0.086382982
                        -----------------------------------------
Magnitude (a.u.)       :      0.449692119
Magnitude (Debye)      :      1.143026527

Rotational constants in cm-1:             0.051995             0.036397             0.030146
Rotational constants in MHz :          1558.765882          1091.144705           903.756196

                             ****ORCA TERMINATED NORMALLY****
TOTAL RUN TIME: 0 days 0 hours 3 minutes 32 seconds 834 msec
