                         Program Version 6.0.0  -   RELEASE  -
|  1> !PBE0 opt def2-SV(p) d3 TightSCF SlowConv RIJCOSX defgrid2
|  2>
|  3> %pal
|  4> nprocs 8
|  5> end
|  6>
|  7> %scf
|  8> MaxIter 1500
|  9> end
| 10>
| 11> %maxcore 3500
| 12>
| 13> !CPCM
| 14> %cpcm smd true
| 15> SMDsolvent "MeCN"
| 16> surfacetype gepol_ses
| 17> rsolv 2.19
| 18> end
| 19>
| 20> * xyz -1 2
| 21> C          -1.22535307927293     -0.03882807002799     -0.00002255469277
| 22> C          -1.22206264378164      1.41582015720061     -0.00002423880206
| 23> C           0.00004637420421      2.08121905033007     -0.00000415463824
| 24> C           1.22212161683371      1.41575862792076      0.00002170232485
| 25> C           1.22534433396412     -0.03888819251674      0.00002507087618
| 26> C          -0.00002135567409     -0.71608207495025      0.00000157424078
| 27> H          -0.00004774645346     -1.81053735349218      0.00000261550832
| 28> C           2.43402384370652     -0.77080587803239      0.00007579493229
| 29> N           3.44413671726320     -1.36247120639636      0.00011250089172
| 30> H           2.16848850432676      1.96074544120089      0.00003301965359
| 31> H           0.00007494156619      3.17901522614598     -0.00000842096167
| 32> H          -2.16840192148197      1.96085605610510     -0.00003754989011
| 33> C          -2.43406244869294     -0.77069683887805     -0.00005052688718
| 34> N          -3.44419623650770     -1.36232524460946     -0.00007393255569
| 35> *
| 36>
| 37>                          ****END OF INPUT****
 Total Charge           Charge          ....   -1
 Multiplicity           Mult            ....    2
 Number of Electrons    NEL             ....   67
Dispersion correction           -0.014129699
FINAL SINGLE POINT ENERGY      -416.041782944027
Dispersion correction             ... done (  0.1 sec)
Dispersion correction           -0.014137604
FINAL SINGLE POINT ENERGY      -416.041851258232
Dispersion correction             ... done (  0.1 sec)
Dispersion correction           -0.014141152
FINAL SINGLE POINT ENERGY      -416.041864311119
Dispersion correction             ... done (  0.1 sec)
                    ***********************HURRAY********************

CARTESIAN COORDINATES (ANGSTROEM)
---------------------------------
  C     -1.221438   -0.038746   -0.000047
  C     -1.222030    1.416987   -0.000290
  C      0.000047    2.084539   -0.000005
  C      1.222091    1.416928    0.000289
  C      1.221430   -0.038808    0.000064
  C     -0.000023   -0.723725    0.000012
  H     -0.000050   -1.817896    0.000015
  C      2.426872   -0.770157   -0.000139
  N      3.436544   -1.361992   -0.000316
  H      2.167775    1.963190    0.000760
  H      0.000072    3.181055   -0.000011
  H     -2.167688    1.963294   -0.000767
  C     -2.426909   -0.770044    0.000157
  N     -3.436602   -1.361844    0.000329

 Multiplicity           Mult            ....    2
 Number of Electrons    NEL             ....   67
 Basis Dimension        Dim             ....  148

ORBITAL ENERGIES
----------------
                 SPIN UP ORBITALS
  NO   OCC          E(Eh)            E(eV)
   0   1.0000     -14.368127      -390.9766
   1   1.0000     -14.368119      -390.9764
   2   1.0000     -10.259192      -279.1668
   3   1.0000     -10.259173      -279.1663
   4   1.0000     -10.245662      -278.7986
   5   1.0000     -10.242189      -278.7041
   6   1.0000     -10.242169      -278.7036
   7   1.0000     -10.222188      -278.1599
   8   1.0000     -10.214423      -277.9486
   9   1.0000     -10.214406      -277.9481
  10   1.0000      -0.906192       -24.6587
  11   1.0000      -0.902400       -24.5556
  12   1.0000      -0.860300       -23.4099
  13   1.0000      -0.773599       -21.0507
  14   1.0000      -0.763492       -20.7757
  15   1.0000      -0.648382       -17.6434
  16   1.0000      -0.634171       -17.2567
  17   1.0000      -0.569323       -15.4921
  18   1.0000      -0.489960       -13.3325
  19   1.0000      -0.480413       -13.0727
  20   1.0000      -0.458765       -12.4836
  21   1.0000      -0.430640       -11.7183
  22   1.0000      -0.409457       -11.1419
  23   1.0000      -0.378209       -10.2916
  24   1.0000      -0.374884       -10.2011
  25   1.0000      -0.373294       -10.1578
  26   1.0000      -0.361236        -9.8297
  27   1.0000      -0.361183        -9.8283
  28   1.0000      -0.335799        -9.1375
  29   1.0000      -0.328618        -8.9421
  30   1.0000      -0.325199        -8.8491
  31   1.0000      -0.268595        -7.3088
  32   1.0000      -0.260121        -7.0782
  33   1.0000      -0.107373        -2.9218
  34   0.0000      -0.020096        -0.5469
  35   0.0000       0.047096         1.2816
  36   0.0000       0.061556         1.6750
  37   0.0000       0.065554         1.7838
  38   0.0000       0.089614         2.4385

                 SPIN DOWN ORBITALS
  NO   OCC          E(Eh)            E(eV)
   0   1.0000     -14.365874      -390.9153
   1   1.0000     -14.365866      -390.9151
   2   1.0000     -10.259406      -279.1726
   3   1.0000     -10.259387      -279.1721
   4   1.0000     -10.246607      -278.8244
   5   1.0000     -10.240377      -278.6548
   6   1.0000     -10.240372      -278.6547
   7   1.0000     -10.224720      -278.2288
   8   1.0000     -10.207980      -277.7733
   9   1.0000     -10.207978      -277.7732
  10   1.0000      -0.902646       -24.5622
  11   1.0000      -0.899061       -24.4647
  12   1.0000      -0.855103       -23.2685
  13   1.0000      -0.764935       -20.8149
  14   1.0000      -0.758851       -20.6494
  15   1.0000      -0.634487       -17.2653
  16   1.0000      -0.631945       -17.1961
  17   1.0000      -0.568358       -15.4658
  18   1.0000      -0.484530       -13.1847
  19   1.0000      -0.478206       -13.0126
  20   1.0000      -0.455280       -12.3888
  21   1.0000      -0.430269       -11.7082
  22   1.0000      -0.396328       -10.7846
  23   1.0000      -0.374617       -10.1938
  24   1.0000      -0.370105       -10.0711
  25   1.0000      -0.363300        -9.8859
  26   1.0000      -0.359130        -9.7724
  27   1.0000      -0.358062        -9.7434
  28   1.0000      -0.327038        -8.8992
  29   1.0000      -0.323558        -8.8045
  30   1.0000      -0.321332        -8.7439
  31   1.0000      -0.257431        -7.0051
  32   1.0000      -0.227909        -6.2017
  33   0.0000      -0.018734        -0.5098
  34   0.0000      -0.015052        -0.4096
  35   0.0000       0.048940         1.3317
  36   0.0000       0.063867         1.7379
  37   0.0000       0.083328         2.2675

MULLIKEN ATOMIC CHARGES AND SPIN POPULATIONS
--------------------------------------------
   0 C :   -0.182287    0.108484
   1 C :   -0.185411    0.465089
   2 C :   -0.118530   -0.206797
   3 C :   -0.185419    0.465086
   4 C :   -0.182301    0.108490
   5 C :   -0.108144   -0.072289
   6 H :    0.113131    0.002611
   7 C :   -0.062331   -0.018594
   8 N :   -0.156638    0.105757
   9 H :    0.088368   -0.026157
  10 H :    0.110169    0.007318
  11 H :    0.088367   -0.026157
  12 C :   -0.062331   -0.018594
  13 N :   -0.156643    0.105754
Sum of atomic charges         :   -1.0000000

LOEWDIN ATOMIC CHARGES AND SPIN POPULATIONS
-------------------------------------------
   0 C :   -0.179118    0.104846
   1 C :   -0.222493    0.365339
   2 C :   -0.142633   -0.101446
   3 C :   -0.222497    0.365337
   4 C :   -0.179123    0.104851
   5 C :   -0.068689   -0.036574
   6 H :    0.146227    0.000738
   7 C :   -0.036447    0.012270
   8 N :   -0.226844    0.096749
   9 H :    0.130337   -0.012251
  10 H :    0.134232    0.003377
  11 H :    0.130337   -0.012251
  12 C :   -0.036446    0.012269
  13 N :   -0.226842    0.096746

  Mayer bond orders larger than 0.100000
B(  0-C ,  1-C ) :   1.1226 B(  0-C ,  5-C ) :   1.3774 B(  0-C , 12-C ) :   1.1730
B(  1-C ,  2-C ) :   1.3907 B(  1-C , 11-H ) :   0.9673 B(  2-C ,  3-C ) :   1.3907
B(  2-C , 10-H ) :   0.9564 B(  3-C ,  4-C ) :   1.1226 B(  3-C ,  9-H ) :   0.9673
B(  4-C ,  5-C ) :   1.3774 B(  4-C ,  7-C ) :   1.1730 B(  5-C ,  6-H ) :   0.9603
B(  7-C ,  8-N ) :   2.8923 B( 12-C , 13-N ) :   2.8923

Dispersion correction           -0.014141238
FINAL SINGLE POINT ENERGY      -416.041864783108

DIPOLE MOMENT
-------------

Method             : SCF
Type of density    : Electron Density
Multiplicity       :   2
Irrep              :   0
Energy             :  -416.0277235446361033 Eh
Relativity type    :
Basis              : AO
                                X                 Y                 Z
Electronic contribution:     -0.000122643      -3.405315059       0.000010378
Nuclear contribution   :      0.000108938       5.002510224      -0.000022192
                        -----------------------------------------
Total Dipole Moment    :     -0.000013705       1.597195165      -0.000011814
                        -----------------------------------------
Magnitude (a.u.)       :      1.597195166
Magnitude (Debye)      :      4.059747477

Rotational constants in cm-1:             0.086792             0.030455             0.022545
Rotational constants in MHz :          2601.952900           913.031680           675.867961

                             ****ORCA TERMINATED NORMALLY****
TOTAL RUN TIME: 0 days 0 hours 5 minutes 35 seconds 261 msec
