                         Program Version 6.0.0  -   RELEASE  -
|  1> !PBE0 aug-cc-pVTZ d3 TightSCF SlowConv RIJCOSX defgrid2
|  2>
|  3> %pal
|  4> nprocs 4
|  5> end
|  6>
|  7> %scf
|  8> MaxIter 1500
|  9> end
| 10>
| 11> %maxcore 3000
| 12>
| 13> !CPCM
| 14> %cpcm smd true
| 15> SMDsolvent "MeCN"
| 16> surfacetype gepol_ses
| 17> rsolv 2.19
| 18> end
| 19>
| 20> * xyz 0 1
| 21> C           1.11186063431218     -1.27161750848334      0.03529687525431
| 22> C           0.40062560849469      0.06050080568744      0.01645658990368
| 23> C           1.09132291899843      1.22728525455366     -0.01481187748794
| 24> C           2.59071448413322      1.31213757575100     -0.04259953894168
| 25> C           3.24159815994134     -0.01937627947586     -0.39841325306825
| 26> C           2.58911379103733     -1.14676967388403      0.38832716012891
| 27> H           3.09748891391144     -2.10891626969463      0.20096696093946
| 28> H           2.69042588645759     -0.93817776710244      1.47032103152836
| 29> H           4.32799261089383      0.01691698871123     -0.20339895848800
| 30> H           3.11607401581807     -0.21456505742642     -1.48081651387058
| 31> H           2.90797745861562      2.08798412644276     -0.76484604682040
| 32> H           2.97758486033447      1.65547047948827      0.94073256876005
| 33> H           0.54718288972158      2.17640255493605     -0.01902463744638
| 34> N          -0.97616721213332      0.00495853491955      0.02697160227337
| 35> C          -1.78872482665766      1.19747534852265      0.05715418513192
| 36> C          -3.21005262050385      0.66964169739812      0.23596327149758
| 37> C          -3.15237336592481     -0.69599286303147     -0.44293484397097
| 38> C          -1.76610643119617     -1.20659042879325     -0.05714971676551
| 39> H          -1.36563278919925     -1.91141795135958     -0.80640934529533
| 40> H          -1.80537787661672     -1.75015520174994      0.91214209774396
| 41> H          -3.95970487602702     -1.37895631866201     -0.13218330548580
| 42> H          -3.21412175894358     -0.57519572273874     -1.53925950514829
| 43> H          -3.97216674301970      1.34137885928184     -0.19076791065005
| 44> H          -3.43419513408562      0.54752707903326      1.31073431906276
| 45> H          -1.48163666786281      1.86730753786198      0.88332008233158
| 46> H          -1.67922253541657      1.78041926532680     -0.88331716928986
| 47> H           0.61356353671055     -1.94715361756419      0.75320195239957
| 48> H           1.00544556820675     -1.75500544794871     -0.95629237422648
| 49> *
| 50>
| 51>                          ****END OF INPUT****

CARTESIAN COORDINATES (ANGSTROEM)
---------------------------------
  C      1.111861   -1.271618    0.035297
  C      0.400626    0.060501    0.016457
  C      1.091323    1.227285   -0.014812
  C      2.590714    1.312138   -0.042600
  C      3.241598   -0.019376   -0.398413
  C      2.589114   -1.146770    0.388327
  H      3.097489   -2.108916    0.200967
  H      2.690426   -0.938178    1.470321
  H      4.327993    0.016917   -0.203399
  H      3.116074   -0.214565   -1.480817
  H      2.907977    2.087984   -0.764846
  H      2.977585    1.655470    0.940733
  H      0.547183    2.176403   -0.019025
  N     -0.976167    0.004959    0.026972
  C     -1.788725    1.197475    0.057154
  C     -3.210053    0.669642    0.235963
  C     -3.152373   -0.695993   -0.442935
  C     -1.766106   -1.206590   -0.057150
  H     -1.365633   -1.911418   -0.806409
  H     -1.805378   -1.750155    0.912142
  H     -3.959705   -1.378956   -0.132183
  H     -3.214122   -0.575196   -1.539260
  H     -3.972167    1.341379   -0.190768
  H     -3.434195    0.547527    1.310734
  H     -1.481637    1.867308    0.883320
  H     -1.679223    1.780419   -0.883317
  H      0.613564   -1.947154    0.753202
  H      1.005446   -1.755005   -0.956292

 Total Charge           Charge          ....    0
 Multiplicity           Mult            ....    1
 Number of Electrons    NEL             ....   84
 Basis Dimension        Dim             ....  897

ORBITAL ENERGIES
----------------

  NO   OCC          E(Eh)            E(eV)
   0   2.0000     -14.388469      -391.5302
   1   2.0000     -10.250018      -278.9172
   2   2.0000     -10.245595      -278.7968
   3   2.0000     -10.242757      -278.7196
   4   2.0000     -10.218090      -278.0484
   5   2.0000     -10.216900      -278.0160
   6   2.0000     -10.216543      -278.0063
   7   2.0000     -10.211835      -277.8781
   8   2.0000     -10.211242      -277.8620
   9   2.0000     -10.208968      -277.8001
  10   2.0000     -10.189570      -277.2723
  11   2.0000      -0.974876       -26.5277
  12   2.0000      -0.851658       -23.1748
  13   2.0000      -0.805670       -21.9234
  14   2.0000      -0.761002       -20.7079
  15   2.0000      -0.741679       -20.1821
  16   2.0000      -0.730382       -19.8747
  17   2.0000      -0.638296       -17.3689
  18   2.0000      -0.627577       -17.0772
  19   2.0000      -0.588142       -16.0042
  20   2.0000      -0.581065       -15.8116
  21   2.0000      -0.538777       -14.6609
  22   2.0000      -0.507023       -13.7968
  23   2.0000      -0.503793       -13.7089
  24   2.0000      -0.460846       -12.5403
  25   2.0000      -0.445234       -12.1154
  26   2.0000      -0.432640       -11.7727
  27   2.0000      -0.431462       -11.7407
  28   2.0000      -0.425441       -11.5768
  29   2.0000      -0.408682       -11.1208
  30   2.0000      -0.394670       -10.7395
  31   2.0000      -0.385700       -10.4954
  32   2.0000      -0.379005       -10.3132
  33   2.0000      -0.375684       -10.2229
  34   2.0000      -0.348969        -9.4959
  35   2.0000      -0.346282        -9.4228
  36   2.0000      -0.330054        -8.9812
  37   2.0000      -0.325581        -8.8595
  38   2.0000      -0.321453        -8.7472
  39   2.0000      -0.308263        -8.3883
  40   2.0000      -0.286385        -7.7929
  41   2.0000      -0.184193        -5.0121
  42   0.0000      -0.000604        -0.0164
  43   0.0000       0.010353         0.2817
  44   0.0000       0.014910         0.4057
  45   0.0000       0.015254         0.4151
  46   0.0000       0.026768         0.7284

MULLIKEN ATOMIC CHARGES
-----------------------
   0 C :    0.005132
   1 C :    0.187652
   2 C :   -0.619213
   3 C :   -0.369049
   4 C :   -0.386687
   5 C :   -0.556497
   6 H :    0.202012
   7 H :    0.168861
   8 H :    0.193290
   9 H :    0.176813
  10 H :    0.237268
  11 H :    0.179096
  12 H :    0.122834
  13 N :    0.199789
  14 C :   -0.512667
  15 C :   -0.499026
  16 C :   -0.434964
  17 C :   -0.437217
  18 H :    0.243647
  19 H :    0.209940
  20 H :    0.242984
  21 H :    0.151694
  22 H :    0.245939
  23 H :    0.150266
  24 H :    0.248680
  25 H :    0.203841
  26 H :    0.245767
  27 H :    0.199814
Sum of atomic charges:    0.0000000

LOEWDIN ATOMIC CHARGES
----------------------
   0 C :    0.270457
   1 C :   -0.199207
   2 C :    0.226953
   3 C :    0.223638
   4 C :    0.254175
   5 C :    0.269400
   6 H :   -0.126114
   7 H :   -0.124690
   8 H :   -0.129859
   9 H :   -0.127870
  10 H :   -0.144001
  11 H :   -0.139351
  12 H :   -0.203416
  13 N :    0.275191
  14 C :    0.161462
  15 C :    0.295056
  16 C :    0.293169
  17 C :    0.175829
  18 H :   -0.130564
  19 H :   -0.114595
  20 H :   -0.124301
  21 H :   -0.125454
  22 H :   -0.125600
  23 H :   -0.126583
  24 H :   -0.129202
  25 H :   -0.114760
  26 H :   -0.138630
  27 H :   -0.121133

  Mayer bond orders larger than 0.100000
B(  0-C ,  1-C ) :   0.6021 B(  0-C ,  2-C ) :  -0.1150 B(  0-C ,  5-C ) :   0.9603
B(  0-C , 26-H ) :   0.9093 B(  0-C , 27-H ) :   0.9477 B(  1-C ,  2-C ) :   0.7110
B(  1-C ,  3-C ) :  -0.1716 B(  1-C , 13-N ) :   0.4917 B(  1-C , 17-C ) :  -0.1404
B(  1-C , 26-H ) :  -0.1116 B(  2-C ,  3-C ) :   0.8785 B(  2-C ,  4-C ) :   0.1309
B(  2-C , 12-H ) :   0.9591 B(  2-C , 13-N ) :  -0.3403 B(  2-C , 17-C ) :   0.1301
B(  3-C ,  4-C ) :   1.0025 B(  3-C , 10-H ) :   0.9212 B(  3-C , 11-H ) :   0.9920
B(  4-C ,  5-C ) :   1.0228 B(  4-C ,  8-H ) :   0.9467 B(  4-C ,  9-H ) :   0.9837
B(  5-C ,  6-H ) :   0.9252 B(  5-C ,  7-H ) :   1.0073 B( 13-N , 14-C ) :   0.8769
B( 13-N , 17-C ) :   0.7835 B( 14-C , 15-C ) :   0.9882 B( 14-C , 24-H ) :   0.9479
B( 14-C , 25-H ) :   0.9954 B( 15-C , 16-C ) :   1.0496 B( 15-C , 22-H ) :   0.9137
B( 15-C , 23-H ) :   1.0215 B( 16-C , 17-C ) :   0.9511 B( 16-C , 20-H ) :   0.9142
B( 16-C , 21-H ) :   1.0241 B( 17-C , 18-H ) :   0.9382 B( 17-C , 19-H ) :   0.9741

Dispersion correction           -0.025438372
FINAL SINGLE POINT ENERGY      -445.691874285847

DIPOLE MOMENT
-------------

Method             : SCF
Type of density    : Electron Density
Multiplicity       :   1
Irrep              :   0
Energy             :  -445.6664359139019211 Eh
Relativity type    :
Basis              : AO
                                X                 Y                 Z
Electronic contribution:     -1.123411017       0.490290733       0.147285378
Nuclear contribution   :      0.342331497      -1.087953366      -0.177536996
                        -----------------------------------------
Total Dipole Moment    :     -0.781079520      -0.597662633      -0.030251619
                        -----------------------------------------
Magnitude (a.u.)       :      0.983972053
Magnitude (Debye)      :      2.501058195

Rotational constants in cm-1:             0.091846             0.021037             0.017897
Rotational constants in MHz :          2753.468293           630.660673           536.548584

                             ****ORCA TERMINATED NORMALLY****
TOTAL RUN TIME: 0 days 0 hours 12 minutes 10 seconds 363 msec
