                         Program Version 6.0.0  -   RELEASE  -
|  1> !PBE0 def2-SV(p) Opt Freq d3 TightSCF SlowConv RIJCOSX defgrid2
|  2>
|  3> %pal
|  4> nprocs 8
|  5> end
|  6>
|  7> %scf
|  8> MaxIter 1500
|  9> end
| 10>
| 11> %maxcore 3000
| 12>
| 13> * xyz -1 2
| 14> 6       -3.596822500      2.123945500      0.165084500
| 15> 6       -4.886509000      1.619625000      0.187059500
| 16> 6       -2.444104000      1.287362500     -0.030051000
| 17> 6       -2.710426000     -0.107254500     -0.302743500
| 18> 6       -4.007898000     -0.610868500     -0.242814500
| 19> 6       -5.119536000      0.236737000      0.022349000
| 20> 6       -1.152865000      2.001807500      0.000653500
| 21> 6        0.142889014      1.341387508      0.252906301
| 22> 6        1.286213013      2.207443172      0.151839079
| 23> 6        2.581689080      1.753606623      0.335883911
| 24> 6        2.831532897      0.394887475      0.627986554
| 25> 6        1.719813562     -0.475929830      0.805202997
| 26> 6        0.411555436     -0.020552518      0.657383331
| 27> 8       -1.192220000      3.267204500      0.000584000
| 28> 1       -4.151193500     -1.698416500     -0.453551500
| 29> 1       -6.137457000     -0.167182000      0.062486000
| 30> 1       -3.404294500      3.198868000      0.294917000
| 31> 1       -5.734901000      2.315616000      0.343647000
| 32> 1       -1.901174500     -0.833490000     -0.701091000
| 33> 1       -0.422050858     -0.749869321      0.996511873
| 34> 1        3.857245088      0.029094389      0.751024817
| 35> 1        1.865569080     -1.540575190      1.110131446
| 36> 1        1.080800862      3.262913517     -0.078718242
| 37> 1        3.422542539      2.470097090      0.242982782
| 38> *
| 39>
| 40>                          ****END OF INPUT****
 Total Charge           Charge          ....   -1
 Multiplicity           Mult            ....    2
 Number of Electrons    NEL             ....   97
Dispersion correction           -0.025621149
FINAL SINGLE POINT ENERGY      -575.553367482864
Dispersion correction             ... done (  0.1 sec)
Dispersion correction           -0.026000887
FINAL SINGLE POINT ENERGY      -575.565033939489
Dispersion correction             ... done (  0.1 sec)
Dispersion correction           -0.025919255
FINAL SINGLE POINT ENERGY      -575.565789603012
Dispersion correction             ... done (  0.1 sec)
FINAL SINGLE POINT ENERGY      -575.566655606174
FINAL SINGLE POINT ENERGY      -575.566756465110
Dispersion correction             ... done (  0.1 sec)
Dispersion correction           -0.026014647
FINAL SINGLE POINT ENERGY      -575.566802452446
Dispersion correction             ... done (  0.1 sec)
Dispersion correction           -0.026023468
FINAL SINGLE POINT ENERGY      -575.566812970569
Dispersion correction             ... done (  0.1 sec)
                    ***********************HURRAY********************

CARTESIAN COORDINATES (ANGSTROEM)
---------------------------------
  C     -3.629847    2.106349    0.294134
  C     -4.885217    1.524603    0.212852
  C     -2.439961    1.359290    0.084229
  C     -2.610969   -0.001719   -0.278022
  C     -3.872873   -0.578502   -0.369045
  C     -5.030239    0.166964   -0.109883
  C     -1.169481    2.092560    0.161648
  C      0.120674    1.405947    0.304262
  C      1.289642    2.164141    0.026302
  C      2.560665    1.627616    0.158129
  C      2.743613    0.309170    0.601917
  C      1.607213   -0.441854    0.929029
  C      0.329767    0.088712    0.788256
  O     -1.187874    3.354795    0.103444
  H     -3.957526   -1.631424   -0.664862
  H     -6.021749   -0.293248   -0.177156
  H     -3.503057    3.167967    0.521409
  H     -5.776435    2.136780    0.399841
  H     -1.740102   -0.605233   -0.543565
  H     -0.523775   -0.512557    1.109303
  H      3.747543   -0.115135    0.709029
  H      1.720881   -1.460804    1.319094
  H      1.132998    3.196749   -0.296076
  H      3.434506    2.245289   -0.084604

 Multiplicity           Mult            ....    2
 Number of Electrons    NEL             ....   97
 Basis Dimension        Dim             ....  216

ORBITAL ENERGIES
----------------
                 SPIN UP ORBITALS
  NO   OCC          E(Eh)            E(eV)
   0   1.0000     -18.986824      -516.6577
   1   1.0000     -10.109259      -275.0869
   2   1.0000     -10.098036      -274.7815
   3   1.0000     -10.097950      -274.7792
   4   1.0000     -10.096361      -274.7359
   5   1.0000     -10.096286      -274.7339
   6   1.0000     -10.093860      -274.6679
   7   1.0000     -10.093788      -274.6659
   8   1.0000     -10.089569      -274.5511
   9   1.0000     -10.089507      -274.5494
  10   1.0000     -10.084859      -274.4230
  11   1.0000     -10.084765      -274.4204
  12   1.0000     -10.080748      -274.3111
  13   1.0000     -10.080710      -274.3101
  14   1.0000      -0.839816       -22.8526
  15   1.0000      -0.726429       -19.7671
  16   1.0000      -0.724012       -19.7014
  17   1.0000      -0.633712       -17.2442
  18   1.0000      -0.616829       -16.7848
  19   1.0000      -0.616047       -16.7635
  20   1.0000      -0.611305       -16.6345
  21   1.0000      -0.514631       -14.0038
  22   1.0000      -0.479397       -13.0451
  23   1.0000      -0.474426       -12.9098
  24   1.0000      -0.462634       -12.5889
  25   1.0000      -0.421329       -11.4650
  26   1.0000      -0.394354       -10.7309
  27   1.0000      -0.370774       -10.0893
  28   1.0000      -0.332446        -9.0463
  29   1.0000      -0.324001        -8.8165
  30   1.0000      -0.317849        -8.6491
  31   1.0000      -0.312899        -8.5144
  32   1.0000      -0.291013        -7.9189
  33   1.0000      -0.289529        -7.8785
  34   1.0000      -0.286628        -7.7995
  35   1.0000      -0.258194        -7.0258
  36   1.0000      -0.256584        -6.9820
  37   1.0000      -0.240719        -6.5503
  38   1.0000      -0.232720        -6.3326
  39   1.0000      -0.220559        -6.0017
  40   1.0000      -0.211591        -5.7577
  41   1.0000      -0.198995        -5.4149
  42   1.0000      -0.196398        -5.3443
  43   1.0000      -0.128629        -3.5002
  44   1.0000      -0.128420        -3.4945
  45   1.0000      -0.121748        -3.3129
  46   1.0000      -0.118961        -3.2371
  47   1.0000      -0.080227        -2.1831
  48   1.0000       0.029210         0.7948
  49   0.0000       0.123940         3.3726
  50   0.0000       0.139931         3.8077
  51   0.0000       0.140190         3.8148
  52   0.0000       0.191721         5.2170
  53   0.0000       0.197129         5.3642

                 SPIN DOWN ORBITALS
  NO   OCC          E(Eh)            E(eV)
   0   1.0000     -18.978555      -516.4327
   1   1.0000     -10.106062      -274.9999
   2   1.0000     -10.098849      -274.8037
   3   1.0000     -10.098769      -274.8015
   4   1.0000     -10.097286      -274.7611
   5   1.0000     -10.097217      -274.7592
   6   1.0000     -10.091264      -274.5972
   7   1.0000     -10.091177      -274.5949
   8   1.0000     -10.088107      -274.5113
   9   1.0000     -10.088036      -274.5094
  10   1.0000     -10.084835      -274.4223
  11   1.0000     -10.084740      -274.4197
  12   1.0000     -10.079032      -274.2644
  13   1.0000     -10.078987      -274.2632
  14   1.0000      -0.825492       -22.4628
  15   1.0000      -0.723656       -19.6917
  16   1.0000      -0.721950       -19.6453
  17   1.0000      -0.628790       -17.1102
  18   1.0000      -0.614667       -16.7260
  19   1.0000      -0.613625       -16.6976
  20   1.0000      -0.608717       -16.5640
  21   1.0000      -0.505661       -13.7597
  22   1.0000      -0.476538       -12.9672
  23   1.0000      -0.473455       -12.8834
  24   1.0000      -0.460917       -12.5422
  25   1.0000      -0.418567       -11.3898
  26   1.0000      -0.393297       -10.7022
  27   1.0000      -0.367175        -9.9913
  28   1.0000      -0.330166        -8.9843
  29   1.0000      -0.322451        -8.7743
  30   1.0000      -0.316596        -8.6150
  31   1.0000      -0.311569        -8.4782
  32   1.0000      -0.290498        -7.9049
  33   1.0000      -0.288860        -7.8603
  34   1.0000      -0.283572        -7.7164
  35   1.0000      -0.253428        -6.8961
  36   1.0000      -0.245163        -6.6712
  37   1.0000      -0.234790        -6.3890
  38   1.0000      -0.229383        -6.2418
  39   1.0000      -0.218510        -5.9459
  40   1.0000      -0.199810        -5.4371
  41   1.0000      -0.196285        -5.3412
  42   1.0000      -0.182510        -4.9664
  43   1.0000      -0.123096        -3.3496
  44   1.0000      -0.122235        -3.3262
  45   1.0000      -0.111796        -3.0421
  46   1.0000      -0.093829        -2.5532
  47   1.0000      -0.070997        -1.9319
  48   0.0000       0.106259         2.8915
  49   0.0000       0.138931         3.7805
  50   0.0000       0.143261         3.8983
  51   0.0000       0.146120         3.9761
  52   0.0000       0.192217         5.2305

MULLIKEN ATOMIC CHARGES AND SPIN POPULATIONS
--------------------------------------------
   0 C :   -0.139603    0.128181
   1 C :   -0.089894   -0.075357
   2 C :   -0.009854   -0.007323
   3 C :   -0.158581    0.104889
   4 C :   -0.109324   -0.065441
   5 C :   -0.131353    0.188396
   6 C :    0.112945    0.207310
   7 C :   -0.009546   -0.007266
   8 C :   -0.139688    0.128718
   9 C :   -0.089949   -0.075738
  10 C :   -0.131356    0.189400
  11 C :   -0.109392   -0.065879
  12 C :   -0.159024    0.105525
  13 O :   -0.384188    0.283671
  14 H :    0.045094    0.002711
  15 H :    0.041186   -0.011278
  16 H :    0.068906   -0.008039
  17 H :    0.046700    0.002951
  18 H :    0.072594   -0.005841
  19 H :    0.072676   -0.005877
  20 H :    0.041204   -0.011343
  21 H :    0.044999    0.002735
  22 H :    0.068805   -0.008072
  23 H :    0.046645    0.002968
Sum of atomic charges         :   -1.0000000

LOEWDIN ATOMIC CHARGES AND SPIN POPULATIONS
-------------------------------------------
   0 C :   -0.136083    0.099191
   1 C :   -0.152696   -0.038947
   2 C :   -0.073540    0.025208
   3 C :   -0.152992    0.077774
   4 C :   -0.157633   -0.032390
   5 C :   -0.200408    0.145092
   6 C :   -0.036852    0.184066
   7 C :   -0.073741    0.025373
   8 C :   -0.136158    0.099585
   9 C :   -0.152716   -0.039142
  10 C :   -0.200597    0.145847
  11 C :   -0.157660   -0.032618
  12 C :   -0.153128    0.078229
  13 O :   -0.319172    0.280038
  14 H :    0.104071    0.001285
  15 H :    0.101750   -0.005092
  16 H :    0.123545   -0.003640
  17 H :    0.103903    0.001389
  18 H :    0.118477   -0.002573
  19 H :    0.118453   -0.002591
  20 H :    0.101753   -0.005121
  21 H :    0.104039    0.001296
  22 H :    0.123509   -0.003657
  23 H :    0.103876    0.001397

  Mayer bond orders larger than 0.100000
B(  0-C ,  1-C ) :   1.4125 B(  0-C ,  2-C ) :   1.3205 B(  0-C , 16-H ) :   0.9460
B(  1-C ,  5-C ) :   1.3282 B(  1-C , 17-H ) :   0.9653 B(  2-C ,  3-C ) :   1.3028
B(  2-C ,  6-C ) :   1.0777 B(  3-C ,  4-C ) :   1.4399 B(  3-C , 18-H ) :   0.9445
B(  4-C ,  5-C ) :   1.3471 B(  4-C , 14-H ) :   0.9610 B(  5-C , 15-H ) :   0.9667
B(  6-C ,  7-C ) :   1.0787 B(  6-C , 13-O ) :   1.8487 B(  7-C ,  8-C ) :   1.3199
B(  7-C , 12-C ) :   1.3022 B(  8-C ,  9-C ) :   1.4129 B(  8-C , 22-H ) :   0.9460
B(  9-C , 10-C ) :   1.3279 B(  9-C , 23-H ) :   0.9652 B( 10-C , 11-C ) :   1.3469
B( 10-C , 20-H ) :   0.9667 B( 11-C , 12-C ) :   1.4405 B( 11-C , 21-H ) :   0.9609
B( 12-C , 19-H ) :   0.9444

Dispersion correction           -0.026024711
FINAL SINGLE POINT ENERGY      -575.566814612622

DIPOLE MOMENT
-------------

Method             : SCF
Type of density    : Electron Density
Multiplicity       :   2
Irrep              :   0
Energy             :  -575.5407899011521522 Eh
Relativity type    :
Basis              : AO
                                X                 Y                 Z
Electronic contribution:     -0.050481503       3.333087430      -0.152672052
Nuclear contribution   :      0.065380464      -4.610103580       0.211136604
                        -----------------------------------------
Total Dipole Moment    :      0.014898960      -1.277016150       0.058464552
                        -----------------------------------------
Magnitude (a.u.)       :      1.278440586
Magnitude (Debye)      :      3.249537723

VIBRATIONAL FREQUENCIES
-----------------------

Scaling factor for frequencies =  1.000000000  (already applied!)

     0:       0.00 cm**-1
     1:       0.00 cm**-1
     2:       0.00 cm**-1
     3:       0.00 cm**-1
     4:       0.00 cm**-1
     5:       0.00 cm**-1
     6:      50.07 cm**-1
     7:      66.59 cm**-1
     8:     111.85 cm**-1
     9:     149.14 cm**-1
    10:     220.28 cm**-1
    11:     244.38 cm**-1
    12:     299.99 cm**-1
    13:     382.39 cm**-1
    14:     420.11 cm**-1
    15:     433.87 cm**-1
    16:     442.14 cm**-1
    17:     467.84 cm**-1
    18:     564.34 cm**-1
    19:     626.22 cm**-1
    20:     631.13 cm**-1
    21:     633.16 cm**-1
    22:     645.26 cm**-1
    23:     700.04 cm**-1
    24:     710.36 cm**-1
    25:     728.43 cm**-1
    26:     752.00 cm**-1
    27:     775.10 cm**-1
    28:     834.28 cm**-1
    29:     850.53 cm**-1
    30:     884.11 cm**-1
    31:     884.51 cm**-1
    32:     942.34 cm**-1
    33:     967.56 cm**-1
    34:     987.00 cm**-1
    35:     987.09 cm**-1
    36:     994.11 cm**-1
    37:     996.66 cm**-1
    38:    1008.68 cm**-1
    39:    1045.76 cm**-1
    40:    1049.95 cm**-1
    41:    1089.02 cm**-1
    42:    1100.65 cm**-1
    43:    1143.87 cm**-1
    44:    1149.25 cm**-1
    45:    1156.84 cm**-1
    46:    1181.17 cm**-1
    47:    1205.05 cm**-1
    48:    1297.65 cm**-1
    49:    1316.72 cm**-1
    50:    1326.44 cm**-1
    51:    1399.19 cm**-1
    52:    1403.15 cm**-1
    53:    1485.45 cm**-1
    54:    1486.45 cm**-1
    55:    1511.25 cm**-1
    56:    1519.13 cm**-1
    57:    1567.00 cm**-1
    58:    1598.36 cm**-1
    59:    1613.66 cm**-1
    60:    1641.76 cm**-1
    61:    1689.32 cm**-1
    62:    3151.04 cm**-1
    63:    3151.74 cm**-1
    64:    3158.90 cm**-1
    65:    3159.37 cm**-1
    66:    3187.60 cm**-1
    67:    3188.34 cm**-1
    68:    3207.29 cm**-1
    69:    3218.57 cm**-1
    70:    3218.90 cm**-1
    71:    3220.00 cm**-1

IR SPECTRUM
-----------

 Mode   freq       eps      Int      T**2         TX        TY        TZ
       cm**-1   L/(mol*cm) km/mol    a.u.
----------------------------------------------------------------------------
  6:     50.07   0.000560    2.83  0.003492  (-0.051842  0.000073  0.028368)
  7:     66.59   0.000056    0.28  0.000263  ( 0.001231 -0.016181  0.000063)
  8:    111.85   0.000096    0.49  0.000269  (-0.000602  0.016372 -0.000631)
  9:    149.14   0.001782    9.01  0.003729  (-0.057950  0.000020  0.019261)
 10:    220.28   0.000011    0.06  0.000016  ( 0.000147 -0.003951  0.000186)
 11:    244.38   0.000173    0.87  0.000220  ( 0.014677  0.000122 -0.002221)
 12:    299.99   0.000048    0.24  0.000050  ( 0.000052  0.007041 -0.000314)
 13:    382.39   0.000325    1.64  0.000265  (-0.011588 -0.000637 -0.011436)
 14:    420.11   0.000275    1.39  0.000204  (-0.013114  0.000031  0.005701)
 15:    433.87   0.001025    5.18  0.000738  (-0.023657 -0.001013 -0.013301)
 16:    442.14   0.000011    0.05  0.000007  ( 0.000431  0.002691  0.000094)
 17:    467.84   0.000790    3.99  0.000527  (-0.000477  0.022921 -0.001023)
 18:    564.34   0.000149    0.75  0.000083  (-0.000258  0.009074 -0.000421)
 19:    626.22   0.001008    5.10  0.000502  ( 0.001775 -0.001013 -0.022323)
 20:    631.13   0.000004    0.02  0.000002  ( 0.000131  0.001355 -0.000574)
 21:    633.16   0.004484   22.66  0.002210  ( 0.017498 -0.001773 -0.043597)
 22:    645.26   0.004684   23.67  0.002265  (-0.033107  0.001075  0.034178)
 23:    700.04   0.013945   70.47  0.006216  (-0.008895  0.003627  0.078256)
 24:    710.36   0.001234    6.24  0.000542  (-0.000150  0.023226 -0.001682)
 25:    728.43   0.000007    0.03  0.000003  ( 0.000130  0.001685  0.000215)
 26:    752.00   0.000424    2.14  0.000176  ( 0.000061 -0.013238  0.000710)
 27:    775.10   0.002268   11.46  0.000913  (-0.017108 -0.001252 -0.024875)
 28:    834.28   0.002676   13.52  0.001001  ( 0.031244  0.000594  0.004951)
 29:    850.53   0.000046    0.23  0.000017  (-0.000157 -0.004108  0.000126)
 30:    884.11   0.001300    6.57  0.000459  (-0.003421 -0.006752 -0.020037)
 31:    884.51   0.000772    3.90  0.000272  ( 0.002467 -0.007544  0.014467)
 32:    942.34   0.000552    2.79  0.000183  (-0.012384 -0.000390 -0.005404)
 33:    967.56   0.002971   15.02  0.000958  ( 0.030689  0.000618  0.004014)
 34:    987.00   0.004699   23.75  0.001486  ( 0.037538  0.007331  0.004792)
 35:    987.09   0.039205  198.13  0.012395  ( 0.110307 -0.000005  0.015063)
 36:    994.11   0.000001    0.00  0.000000  ( 0.000305  0.000364  0.000012)
 37:    996.66   0.015212   76.88  0.004763  ( 0.069006  0.000985  0.000505)
 38:   1008.68   0.000173    0.88  0.000054  ( 0.000122 -0.007317  0.000317)
 39:   1045.76   0.016400   82.88  0.004894  ( 0.069483  0.001060  0.008053)
 40:   1049.95   0.000688    3.48  0.000205  (-0.000872 -0.014266  0.000511)
 41:   1089.02   0.000642    3.24  0.000184  (-0.011317 -0.000456 -0.007459)
 42:   1100.65   0.003456   17.46  0.000980  (-0.000401  0.031268 -0.001403)
 43:   1143.87   0.031335  158.35  0.008549  ( 0.091880  0.001555  0.010212)
 44:   1149.25   0.000613    3.10  0.000166  (-0.001456 -0.012810  0.000420)
 45:   1156.84   0.033628  169.94  0.009071  (-0.094990 -0.001558 -0.006760)
 46:   1181.17   0.000262    1.32  0.000069  (-0.000060 -0.008314  0.000374)
 47:   1205.05   0.000062    0.31  0.000016  (-0.000247 -0.003983  0.000158)
 48:   1297.65   0.081192  410.31  0.019525  ( 0.138936  0.002504  0.014689)
 49:   1316.72   0.038287  193.49  0.009074  ( 0.094518  0.001794  0.011718)
 50:   1326.44   0.000044    0.22  0.000010  ( 0.000489 -0.003181  0.000216)
 51:   1399.19   0.000254    1.29  0.000057  ( 0.000174 -0.000270 -0.007525)
 52:   1403.15   0.000265    1.34  0.000059  (-0.000090  0.007670 -0.000285)
 53:   1485.45   0.002323   11.74  0.000488  (-0.021973  0.001564 -0.001651)
 54:   1486.45   0.002155   10.89  0.000452  ( 0.001914  0.021165 -0.000843)
 55:   1511.25   0.073034  369.08  0.015081  (-0.122151 -0.002144 -0.012468)
 56:   1519.13   0.000064    0.32  0.000013  ( 0.000807  0.003528 -0.000067)
 57:   1567.00   0.031618  159.79  0.006297  (-0.000854  0.079265 -0.003614)
 58:   1598.36   0.000435    2.20  0.000085  ( 0.007969 -0.000601 -0.004590)
 59:   1613.66   0.003631   18.35  0.000702  (-0.000126 -0.026469  0.001213)
 60:   1641.76   0.166159  839.70  0.031583  (-0.176764 -0.003300 -0.018078)
 61:   1689.32   0.000046    0.23  0.000009  (-0.000362 -0.002903  0.000087)
 62:   3151.04   0.011408   57.65  0.001130  (-0.033565 -0.000924 -0.001527)
 63:   3151.74   0.000154    0.78  0.000015  (-0.001945  0.003372 -0.000308)
 64:   3158.90   0.004338   21.92  0.000429  (-0.015022 -0.005226  0.013249)
 65:   3159.37   0.015542   78.54  0.001535  (-0.002864  0.039076  0.000071)
 66:   3187.60   0.018347   92.72  0.001796  (-0.042278 -0.001748 -0.002364)
 67:   3188.34   0.002827   14.29  0.000277  ( 0.002795 -0.016373  0.000882)
 68:   3207.29   0.000937    4.73  0.000091  (-0.000100 -0.000353 -0.009539)
 69:   3218.57   0.002121   10.72  0.000206  ( 0.013738 -0.001239 -0.003921)
 70:   3218.90   0.002449   12.37  0.000237  (-0.000980 -0.015340  0.001043)
 71:   3220.00   0.001402    7.08  0.000136  ( 0.000293 -0.011642  0.000473)

--------------------------
THERMOCHEMISTRY AT 298.15K
--------------------------

Temperature         ...   298.15 K
Pressure            ...     1.00 atm
Total Mass          ...   182.22 AMU
Quasi RRHO          ...     True
Cut-Off Frequency   ...     1.00 cm^-1

Throughout the following assumptions are being made:
  (1) The electronic state is orbitally nondegenerate
      but the spin degeneracy is treated
  (2) There are no thermally accessible electronically excited states
  (3) Hindered rotations indicated by low frequency modes are not
      treated as such but are treated as vibrations and this may
      cause some error
  (4) All equations used are the standard statistical mechanics
      equations for an ideal gas
  (5) All vibrations are strictly harmonic

freq.      50.07  E(vib)   ...       0.52
freq.      66.59  E(vib)   ...       0.50
freq.     111.85  E(vib)   ...       0.45
freq.     149.14  E(vib)   ...       0.40
freq.     220.28  E(vib)   ...       0.33
freq.     244.38  E(vib)   ...       0.31
freq.     299.99  E(vib)   ...       0.26
freq.     382.39  E(vib)   ...       0.21
freq.     420.11  E(vib)   ...       0.18
freq.     433.87  E(vib)   ...       0.17
freq.     442.14  E(vib)   ...       0.17
freq.     467.84  E(vib)   ...       0.16
freq.     564.34  E(vib)   ...       0.11
freq.     626.22  E(vib)   ...       0.09
freq.     631.13  E(vib)   ...       0.09
freq.     633.16  E(vib)   ...       0.09
freq.     645.26  E(vib)   ...       0.09
freq.     700.04  E(vib)   ...       0.07
freq.     710.36  E(vib)   ...       0.07
freq.     728.43  E(vib)   ...       0.06
freq.     752.00  E(vib)   ...       0.06
freq.     775.10  E(vib)   ...       0.05
freq.     834.28  E(vib)   ...       0.04
freq.     850.53  E(vib)   ...       0.04
freq.     884.11  E(vib)   ...       0.04
freq.     884.51  E(vib)   ...       0.04
freq.     942.34  E(vib)   ...       0.03
freq.     967.56  E(vib)   ...       0.03
freq.     987.00  E(vib)   ...       0.02
freq.     987.09  E(vib)   ...       0.02
freq.     994.11  E(vib)   ...       0.02
freq.     996.66  E(vib)   ...       0.02
freq.    1008.68  E(vib)   ...       0.02
freq.    1045.76  E(vib)   ...       0.02
freq.    1049.95  E(vib)   ...       0.02
freq.    1089.02  E(vib)   ...       0.02
freq.    1100.65  E(vib)   ...       0.02
freq.    1143.87  E(vib)   ...       0.01
freq.    1149.25  E(vib)   ...       0.01
freq.    1156.84  E(vib)   ...       0.01
freq.    1181.17  E(vib)   ...       0.01
freq.    1205.05  E(vib)   ...       0.01
freq.    1297.65  E(vib)   ...       0.01
freq.    1316.72  E(vib)   ...       0.01
freq.    1326.44  E(vib)   ...       0.01
freq.    1399.19  E(vib)   ...       0.00
freq.    1403.15  E(vib)   ...       0.00
freq.    1485.45  E(vib)   ...       0.00
freq.    1486.45  E(vib)   ...       0.00
freq.    1511.25  E(vib)   ...       0.00
freq.    1519.13  E(vib)   ...       0.00
freq.    1567.00  E(vib)   ...       0.00
freq.    1598.36  E(vib)   ...       0.00
freq.    1613.66  E(vib)   ...       0.00
freq.    1641.76  E(vib)   ...       0.00
freq.    1689.32  E(vib)   ...       0.00
freq.    3151.04  E(vib)   ...       0.00
freq.    3151.74  E(vib)   ...       0.00
freq.    3158.90  E(vib)   ...       0.00
freq.    3159.37  E(vib)   ...       0.00
freq.    3187.60  E(vib)   ...       0.00
freq.    3188.34  E(vib)   ...       0.00
freq.    3207.29  E(vib)   ...       0.00
freq.    3218.57  E(vib)   ...       0.00
freq.    3218.90  E(vib)   ...       0.00
freq.    3220.00  E(vib)   ...       0.00

------------
INNER ENERGY
------------

The inner energy is: U= E(el) + E(ZPE) + E(vib) + E(rot) + E(trans)
    E(el)   - is the total energy from the electronic structure calculation
              = E(kin-el) + E(nuc-el) + E(el-el) + E(nuc-nuc)
    E(ZPE)  - the the zero temperature vibrational energy from the frequency calculation
    E(vib)  - the the finite temperature correction to E(ZPE) due to population
              of excited vibrational states
    E(rot)  - is the rotational thermal energy
    E(trans)- is the translational thermal energy

Summary of contributions to the inner energy U:
Electronic energy                ...   -575.56681461 Eh
Zero point energy                ...      0.18961284 Eh     118.98 kcal/mol
Thermal vibrational correction   ...      0.00791724 Eh       4.97 kcal/mol
Thermal rotational correction    ...      0.00141627 Eh       0.89 kcal/mol
Thermal translational correction ...      0.00141627 Eh       0.89 kcal/mol
-----------------------------------------------------------------------
Total thermal energy                   -575.36645199 Eh

Summary of corrections to the electronic energy:
(perhaps to be used in another calculation)
Total thermal correction                  0.01074979 Eh       6.75 kcal/mol
Non-thermal (ZPE) correction              0.18961284 Eh     118.98 kcal/mol
-----------------------------------------------------------------------
Total correction                          0.20036262 Eh     125.73 kcal/mol

--------
ENTHALPY
--------

The enthalpy is H = U + kB*T
                kB is Boltzmann's constant
Total thermal energy              ...   -575.36645199 Eh
Thermal Enthalpy correction       ...      0.00094421 Eh       0.59 kcal/mol
-----------------------------------------------------------------------
Total Enthalpy                    ...   -575.36550778 Eh

Note: Only C1 symmetry has been detected, increase convergence thresholds
      if your molecule has a higher symmetry. Symmetry factor of 1.0 is
      used for the rotational entropy correction.

Note: Rotational entropy computed according to Herzberg
Infrared and Raman Spectra, Chapter V,1, Van Nostrand Reinhold, 1945
Point Group:  C1, Symmetry Number:   1
Rotational constants in cm-1:     0.059016     0.013412     0.011183

Vibrational entropy computed according to the QRRHO of S. Grimme
Chem.Eur.J. 2012 18 9955 using a reference frequency of 100.0 cm-1

-------
ENTROPY
-------

The entropy contributions are T*S = T*(S(el)+S(vib)+S(rot)+S(trans))
     S(el)   - electronic entropy
     S(vib)  - vibrational entropy
     S(rot)  - rotational entropy
     S(trans)- translational entropy
The entropies will be listed as multiplied by the temperature to get
units of energy

Electronic entropy                ...      0.00065446 Eh      0.41 kcal/mol
Vibrational entropy               ...      0.01318305 Eh      8.27 kcal/mol
Rotational entropy                ...      0.01500354 Eh      9.41 kcal/mol
Translational entropy             ...      0.01972108 Eh     12.38 kcal/mol
-----------------------------------------------------------------------

                             ****ORCA TERMINATED NORMALLY****
TOTAL RUN TIME: 0 days 0 hours 15 minutes 29 seconds 714 msec
