                         Program Version 6.0.0  -   RELEASE  -
|  1> !PBE0 opt def2-SV(p) d3 TightSCF SlowConv RIJCOSX defgrid2
|  2>
|  3> %pal
|  4> nprocs 8
|  5> end
|  6>
|  7> %scf
|  8> MaxIter 1500
|  9> end
| 10>
| 11> %maxcore 3500
| 12>
| 13> !CPCM
| 14> %cpcm smd true
| 15> SMDsolvent "MeCN"
| 16> surfacetype gepol_ses
| 17> rsolv 2.19
| 18> end
| 19>
| 20> * xyz 0 1
| 21> C          -0.01157783641881      1.20352898199244      0.00001890353025
| 22> C           1.37990540430455      1.22191450811359      0.00011854591947
| 23> C           2.06592899516975      0.01252414866139      0.00007181753194
| 24> C           1.39794249050432     -1.20933071970230     -0.00006681343243
| 25> C           0.01016197626576     -1.21076373795935     -0.00015906863819
| 26> C          -0.71228022521915     -0.00932565619212     -0.00012281102354
| 27> C          -2.20544538942687     -0.09111368239076     -0.00023883939795
| 28> O          -2.76237956084169     -1.16697560386648     -0.00031741607190
| 29> C          -2.99637020201978      1.19627311334720     -0.00027997588088
| 30> H          -2.76201741553525      1.80607989056811      0.88981335524989
| 31> H          -2.76168147330890      1.80627685436038     -0.89014621124470
| 32> H          -4.06823478710533      0.95066483560844     -0.00049545748797
| 33> H          -0.55378818786793     -2.14712022161097     -0.00026564570615
| 34> H           1.97664868381534     -2.13630478054762     -0.00010007290271
| 35> F           3.39392859180167      0.02324511926514      0.00015796253828
| 36> H           1.94353444532030      2.15785345098842      0.00023004641097
| 37> H          -0.54990740943796      2.15466559936447      0.00005528060562
| 38> *
| 39>
| 40>                          ****END OF INPUT****
 Total Charge           Charge          ....    0
 Multiplicity           Mult            ....    1
 Number of Electrons    NEL             ....   72
Dispersion correction           -0.015319375
FINAL SINGLE POINT ENERGY      -483.250119067908
Dispersion correction             ... done (  0.1 sec)
Dispersion correction           -0.015326256
FINAL SINGLE POINT ENERGY      -483.250210480856
Dispersion correction             ... done (  0.1 sec)
Dispersion correction           -0.015329201
FINAL SINGLE POINT ENERGY      -483.250232693875
Dispersion correction             ... done (  0.1 sec)
Dispersion correction           -0.015328441
FINAL SINGLE POINT ENERGY      -483.250234985247
Dispersion correction             ... done (  0.1 sec)
Dispersion correction           -0.015327302
FINAL SINGLE POINT ENERGY      -483.250235825131
Dispersion correction             ... done (  0.1 sec)
                    ***********************HURRAY********************

CARTESIAN COORDINATES (ANGSTROEM)
---------------------------------
  C     -0.018029    1.202467   -0.000404
  C      1.373855    1.223501   -0.000072
  C      2.058755    0.014328    0.000166
  C      1.398794   -1.211136    0.000455
  C      0.010267   -1.214635   -0.000010
  C     -0.715078   -0.013973   -0.000465
  C     -2.207708   -0.088955   -0.000887
  O     -2.767822   -1.168261   -0.002327
  C     -2.989415    1.196545    0.000175
  H     -2.748237    1.804594    0.889705
  H     -2.748592    1.805732   -0.888712
  H     -4.064942    0.964119    0.000321
  H     -0.541666   -2.158007    0.000175
  H      1.977253   -2.138481    0.000865
  F      3.391452    0.027735    0.000120
  H      1.931623    2.163196   -0.000206
  H     -0.556141    2.153322   -0.000627

 Multiplicity           Mult            ....    1
 Number of Electrons    NEL             ....   72
 Basis Dimension        Dim             ....  154

ORBITAL ENERGIES
----------------

  NO   OCC          E(Eh)            E(eV)
   0   2.0000     -24.795371      -674.7163
   1   2.0000     -19.198507      -522.4179
   2   2.0000     -10.331558      -281.1360
   3   2.0000     -10.322615      -280.8926
   4   2.0000     -10.254523      -279.0397
   5   2.0000     -10.250832      -278.9393
   6   2.0000     -10.248702      -278.8814
   7   2.0000     -10.246760      -278.8285
   8   2.0000     -10.246575      -278.8235
   9   2.0000     -10.220901      -278.1249
  10   2.0000      -1.254429       -34.1348
  11   2.0000      -1.059647       -28.8345
  12   2.0000      -0.893234       -24.3061
  13   2.0000      -0.793885       -21.6027
  14   2.0000      -0.780989       -21.2518
  15   2.0000      -0.743657       -20.2359
  16   2.0000      -0.653575       -17.7847
  17   2.0000      -0.644816       -17.5463
  18   2.0000      -0.572813       -15.5870
  19   2.0000      -0.569028       -15.4840
  20   2.0000      -0.521757       -14.1977
  21   2.0000      -0.499173       -13.5832
  22   2.0000      -0.497222       -13.5301
  23   2.0000      -0.466616       -12.6973
  24   2.0000      -0.456091       -12.4109
  25   2.0000      -0.449846       -12.2409
  26   2.0000      -0.447813       -12.1856
  27   2.0000      -0.423744       -11.5307
  28   2.0000      -0.416510       -11.3338
  29   2.0000      -0.391764       -10.6604
  30   2.0000      -0.389186       -10.5903
  31   2.0000      -0.366927        -9.9846
  32   2.0000      -0.361528        -9.8377
  33   2.0000      -0.284443        -7.7401
  34   2.0000      -0.269386        -7.3304
  35   2.0000      -0.267839        -7.2883
  36   0.0000      -0.053075        -1.4443
  37   0.0000      -0.017967        -0.4889
  38   0.0000       0.045712         1.2439
  39   0.0000       0.080683         2.1955
  40   0.0000       0.104943         2.8557

MULLIKEN ATOMIC CHARGES
-----------------------
   0 C :   -0.141165
   1 C :   -0.197148
   2 C :    0.358397
   3 C :   -0.197216
   4 C :   -0.135295
   5 C :   -0.001559
   6 C :    0.091861
   7 O :   -0.257009
   8 C :   -0.350634
   9 H :    0.176137
  10 H :    0.176184
  11 H :    0.147504
  12 H :    0.126048
  13 H :    0.138154
  14 F :   -0.212332
  15 H :    0.137390
  16 H :    0.140684
Sum of atomic charges:    0.0000000

LOEWDIN ATOMIC CHARGES
----------------------
   0 C :   -0.094922
   1 C :   -0.158696
   2 C :    0.082515
   3 C :   -0.157784
   4 C :   -0.085238
   5 C :   -0.106556
   6 C :    0.078089
   7 O :   -0.189614
   8 C :   -0.371266
   9 H :    0.156741
  10 H :    0.156772
  11 H :    0.140394
  12 H :    0.147414
  13 H :    0.157597
  14 F :   -0.066103
  15 H :    0.157995
  16 H :    0.152660

  Mayer bond orders larger than 0.100000
B(  0-C ,  1-C ) :   1.3707 B(  0-C ,  5-C ) :   1.3608 B(  0-C , 16-H ) :   0.9452
B(  1-C ,  2-C ) :   1.3525 B(  1-C , 15-H ) :   0.9606 B(  2-C ,  3-C ) :   1.3370
B(  2-C , 14-F ) :   1.0421 B(  3-C ,  4-C ) :   1.3650 B(  3-C , 13-H ) :   0.9635
B(  4-C ,  5-C ) :   1.3565 B(  4-C , 12-H ) :   0.9562 B(  5-C ,  6-C ) :   0.9404
B(  6-C ,  7-O ) :   2.1050 B(  6-C ,  8-C ) :   1.1206 B(  8-C ,  9-H ) :   0.9131
B(  8-C , 10-H ) :   0.9130 B(  8-C , 11-H ) :   0.9336

Dispersion correction           -0.015327508
FINAL SINGLE POINT ENERGY      -483.250236469542

DIPOLE MOMENT
-------------

Method             : SCF
Type of density    : Electron Density
Multiplicity       :   1
Irrep              :   0
Energy             :  -483.2349089615621551 Eh
Relativity type    :
Basis              : AO
                                X                 Y                 Z
Electronic contribution:      9.818505453      -3.051194938      -0.001473058
Nuclear contribution   :     -9.527592082       4.276582154       0.003158717
                        -----------------------------------------
Total Dipole Moment    :      0.290913371       1.225387216       0.001685659
                        -----------------------------------------
Magnitude (a.u.)       :      1.259447204
Magnitude (Debye)      :      3.201260385

Rotational constants in cm-1:             0.122490             0.025856             0.021436
Rotational constants in MHz :          3672.167668           775.151118           642.639955

                             ****ORCA TERMINATED NORMALLY****
TOTAL RUN TIME: 0 days 0 hours 6 minutes 19 seconds 282 msec
