                         Program Version 6.0.0  -   RELEASE  -
|  1> !TPSSh aug-cc-pVTZ d3 TightSCF SlowConv RIJCOSX defgrid2
|  2>
|  3> %pal
|  4> nprocs 4
|  5> end
|  6>
|  7> %scf
|  8> MaxIter 1500
|  9> end
| 10>
| 11> %maxcore 3000
| 12>
| 13> !CPCM
| 14> %cpcm smd true
| 15> SMDsolvent "MeCN"
| 16> surfacetype gepol_ses
| 17> rsolv 2.19
| 18> end
| 19>
| 20> * xyz 1 2
| 21> C          -2.34552987536684     -1.21989010437598      0.39037314372658
| 22> C          -3.61895068813073     -0.68175269434440      0.38389142559167
| 23> C          -3.82314603181153      0.63223129507657     -0.05997707610989
| 24> C          -2.74291757400101      1.40018818267067     -0.51535069014080
| 25> C          -1.45991639594185      0.88100768107606     -0.50933331005631
| 26> C          -1.24682427758412     -0.43286197652402     -0.02997852330470
| 27> N          -0.00000583482740     -1.01085724580805     -0.00004772669115
| 28> C           1.24681241286631     -0.43287174597834      0.02990526482063
| 29> C           1.45990511527645      0.88100588629127      0.50923458111131
| 30> C           2.74292315008343      1.40015182716249      0.51533074845338
| 31> C           3.82316479830717      0.63215150787923      0.06005371973868
| 32> C           3.61896072254659     -0.68183818250133     -0.38379986432228
| 33> C           2.34552582381883     -1.21993769489926     -0.39035690905535
| 34> H           2.17816875399825     -2.24126262631785     -0.74631287979897
| 35> H           4.46447935418444     -1.28373988515481     -0.72627658434262
| 36> H           4.83264524497399      1.05187382862867      0.07202071830295
| 37> H           2.91442484546385      2.40736518053646      0.90385483105346
| 38> H           0.63238245735310      1.45557255022259      0.92936286739960
| 39> H          -0.00000303273582     -2.03154086007956     -0.00006285746572
| 40> H          -0.63240635676261      1.45553755141713     -0.92953302648471
| 41> H          -2.91442477275671      2.40739802155151     -0.90387838458025
| 42> H          -4.83260942910992      1.05198735407979     -0.07187345817988
| 43> H          -4.46446345632637     -1.28362150345028      0.72644056993610
| 44> H          -2.17818095351749     -2.24120514715858      0.74635382039827
| 45> *
| 46>
| 47>                          ****END OF INPUT****

CARTESIAN COORDINATES (ANGSTROEM)
---------------------------------
  C     -2.345530   -1.219890    0.390373
  C     -3.618951   -0.681753    0.383891
  C     -3.823146    0.632231   -0.059977
  C     -2.742918    1.400188   -0.515351
  C     -1.459916    0.881008   -0.509333
  C     -1.246824   -0.432862   -0.029979
  N     -0.000006   -1.010857   -0.000048
  C      1.246812   -0.432872    0.029905
  C      1.459905    0.881006    0.509235
  C      2.742923    1.400152    0.515331
  C      3.823165    0.632152    0.060054
  C      3.618961   -0.681838   -0.383800
  C      2.345526   -1.219938   -0.390357
  H      2.178169   -2.241263   -0.746313
  H      4.464479   -1.283740   -0.726277
  H      4.832645    1.051874    0.072021
  H      2.914425    2.407365    0.903855
  H      0.632382    1.455573    0.929363
  H     -0.000003   -2.031541   -0.000063
  H     -0.632406    1.455538   -0.929533
  H     -2.914425    2.407398   -0.903878
  H     -4.832609    1.051987   -0.071873
  H     -4.464463   -1.283622    0.726441
  H     -2.178181   -2.241205    0.746354

 Total Charge           Charge          ....    1
 Multiplicity           Mult            ....    2
 Number of Electrons    NEL             ....   89
 Basis Dimension        Dim             ....  851

ORBITAL ENERGIES
----------------
                 SPIN UP ORBITALS
  NO   OCC          E(Eh)            E(eV)
   0   1.0000     -14.360902      -390.7800
   1   1.0000     -10.200979      -277.5827
   2   1.0000     -10.200960      -277.5822
   3   1.0000     -10.151413      -276.2340
   4   1.0000     -10.151380      -276.2331
   5   1.0000     -10.151182      -276.2277
   6   1.0000     -10.151176      -276.2275
   7   1.0000     -10.147990      -276.1409
   8   1.0000     -10.147987      -276.1408
   9   1.0000     -10.140864      -275.9469
  10   1.0000     -10.140844      -275.9464
  11   1.0000     -10.140521      -275.9376
  12   1.0000     -10.140517      -275.9375
  13   1.0000      -1.000288       -27.2192
  14   1.0000      -0.870240       -23.6804
  15   1.0000      -0.850061       -23.1313
  16   1.0000      -0.773848       -21.0575
  17   1.0000      -0.761762       -20.7286
  18   1.0000      -0.754405       -20.5284
  19   1.0000      -0.727123       -19.7860
  20   1.0000      -0.643448       -17.5091
  21   1.0000      -0.638701       -17.3799
  22   1.0000      -0.607674       -16.5357
  23   1.0000      -0.591401       -16.0928
  24   1.0000      -0.546348       -14.8669
  25   1.0000      -0.543345       -14.7852
  26   1.0000      -0.506770       -13.7899
  27   1.0000      -0.487410       -13.2631
  28   1.0000      -0.469247       -12.7689
  29   1.0000      -0.452689       -12.3183
  30   1.0000      -0.442705       -12.0466
  31   1.0000      -0.437450       -11.9036
  32   1.0000      -0.430564       -11.7162
  33   1.0000      -0.428459       -11.6590
  34   1.0000      -0.418648       -11.3920
  35   1.0000      -0.387802       -10.5526
  36   1.0000      -0.372425       -10.1342
  37   1.0000      -0.361742        -9.8435
  38   1.0000      -0.358561        -9.7570
  39   1.0000      -0.350127        -9.5275
  40   1.0000      -0.343285        -9.3413
  41   1.0000      -0.280378        -7.6295
  42   1.0000      -0.277024        -7.5382
  43   1.0000      -0.274554        -7.4710
  44   1.0000      -0.232008        -6.3133
  45   0.0000      -0.064542        -1.7563
  46   0.0000      -0.050567        -1.3760
  47   0.0000      -0.048004        -1.3063
  48   0.0000      -0.028149        -0.7660
  49   0.0000      -0.008830        -0.2403

                 SPIN DOWN ORBITALS
  NO   OCC          E(Eh)            E(eV)
   0   1.0000     -14.351891      -390.5348
   1   1.0000     -10.201507      -277.5971
   2   1.0000     -10.201488      -277.5966
   3   1.0000     -10.149117      -276.1715
   4   1.0000     -10.149085      -276.1706
   5   1.0000     -10.148889      -276.1653
   6   1.0000     -10.148881      -276.1651
   7   1.0000     -10.144754      -276.0528
   8   1.0000     -10.144752      -276.0527
   9   1.0000     -10.141953      -275.9766
  10   1.0000     -10.141932      -275.9760
  11   1.0000     -10.141625      -275.9676
  12   1.0000     -10.141620      -275.9675
  13   1.0000      -0.987390       -26.8683
  14   1.0000      -0.866876       -23.5889
  15   1.0000      -0.845485       -23.0068
  16   1.0000      -0.770629       -20.9699
  17   1.0000      -0.759253       -20.6603
  18   1.0000      -0.752292       -20.4709
  19   1.0000      -0.719326       -19.5739
  20   1.0000      -0.639388       -17.3986
  21   1.0000      -0.636814       -17.3286
  22   1.0000      -0.605169       -16.4675
  23   1.0000      -0.588781       -16.0216
  24   1.0000      -0.544894       -14.8273
  25   1.0000      -0.540737       -14.7142
  26   1.0000      -0.504359       -13.7243
  27   1.0000      -0.484838       -13.1931
  28   1.0000      -0.460477       -12.5302
  29   1.0000      -0.451561       -12.2876
  30   1.0000      -0.436861       -11.8876
  31   1.0000      -0.435442       -11.8490
  32   1.0000      -0.427779       -11.6404
  33   1.0000      -0.427644       -11.6368
  34   1.0000      -0.409421       -11.1409
  35   1.0000      -0.378549       -10.3008
  36   1.0000      -0.371117       -10.0986
  37   1.0000      -0.360563        -9.8114
  38   1.0000      -0.350332        -9.5330
  39   1.0000      -0.349238        -9.5032
  40   1.0000      -0.330898        -9.0042
  41   1.0000      -0.271332        -7.3833
  42   1.0000      -0.268868        -7.3163
  43   1.0000      -0.265641        -7.2285
  44   0.0000      -0.181610        -4.9419
  45   0.0000      -0.054338        -1.4786
  46   0.0000      -0.044416        -1.2086
  47   0.0000      -0.041195        -1.1210
  48   0.0000      -0.013712        -0.3731

MULLIKEN ATOMIC CHARGES AND SPIN POPULATIONS
--------------------------------------------
   0 C :   -0.526264    0.123263
   1 C :   -0.345537   -0.075083
   2 C :   -0.260116    0.210657
   3 C :   -0.722840   -0.071883
   4 C :   -0.371829    0.140798
   5 C :    0.888515    0.025691
   6 N :   -0.426853    0.343321
   7 C :    0.887167    0.025542
   8 C :   -0.361805    0.140247
   9 C :   -0.721221   -0.071604
  10 C :   -0.268301    0.210538
  11 C :   -0.331918   -0.075282
  12 C :   -0.541294    0.122967
  13 H :    0.353474   -0.012976
  14 H :    0.345405   -0.004149
  15 H :    0.468193    0.006125
  16 H :    0.337744    0.000399
  17 H :    0.584079   -0.011344
  18 H :   -0.075480   -0.004344
  19 H :    0.585809   -0.011724
  20 H :    0.337768    0.000575
  21 H :    0.470860    0.006022
  22 H :    0.341754   -0.004337
  23 H :    0.352690   -0.013420
Sum of atomic charges         :    1.0000000

LOEWDIN ATOMIC CHARGES AND SPIN POPULATIONS
-------------------------------------------
   0 C :    0.264960    0.065725
   1 C :    0.229555    0.017826
   2 C :    0.234853    0.094901
   3 C :    0.234724    0.018542
   4 C :    0.251077    0.067047
   5 C :   -0.155413    0.067874
   6 N :    0.624986    0.233159
   7 C :   -0.155477    0.067868
   8 C :    0.251144    0.067005
   9 C :    0.234662    0.018534
  10 C :    0.234841    0.094858
  11 C :    0.229540    0.017821
  12 C :    0.264882    0.065684
  13 H :   -0.140656    0.012217
  14 H :   -0.155471   -0.005282
  15 H :   -0.153883    0.022867
  16 H :   -0.154220   -0.004862
  17 H :   -0.163389    0.013069
  18 H :   -0.208972    0.027112
  19 H :   -0.163524    0.013083
  20 H :   -0.154204   -0.004865
  21 H :   -0.153887    0.022878
  22 H :   -0.155468   -0.005285
  23 H :   -0.140660    0.012224

  Mayer bond orders larger than 0.100000
B(  0-C ,  1-C ) :   1.5111 B(  0-C ,  2-C ) :   0.1610 B(  0-C ,  5-C ) :   0.6468
B(  0-C , 23-H ) :   0.4722 B(  1-C ,  2-C ) :   1.2822 B(  1-C ,  5-C ) :  -0.2756
B(  1-C , 22-H ) :   0.7180 B(  2-C ,  3-C ) :   1.4052 B(  2-C ,  4-C ) :   0.2223
B(  2-C , 21-H ) :   0.4546 B(  3-C ,  4-C ) :   1.6503 B(  3-C ,  5-C ) :  -0.3176
B(  3-C , 20-H ) :   0.7249 B(  4-C ,  5-C ) :   0.7651 B(  4-C ,  6-N ) :  -0.1540
B(  4-C ,  7-C ) :   0.1296 B(  4-C , 17-H ) :  -0.1252 B(  4-C , 19-H ) :   0.3200
B(  5-C ,  6-N ) :   0.7825 B(  5-C ,  8-C ) :   0.1250 B(  5-C , 18-H ) :  -0.1064
B(  5-C , 23-H ) :   0.1121 B(  6-N ,  7-C ) :   0.7788 B(  6-N ,  8-C ) :  -0.1605
B(  6-N , 18-H ) :   1.3576 B(  7-C ,  8-C ) :   0.7663 B(  7-C ,  9-C ) :  -0.3151
B(  7-C , 11-C ) :  -0.2799 B(  7-C , 12-C ) :   0.6465 B(  7-C , 13-H ) :   0.1159
B(  7-C , 18-H ) :  -0.1058 B(  8-C ,  9-C ) :   1.6416 B(  8-C , 10-C ) :   0.2215
B(  8-C , 17-H ) :   0.3219 B(  8-C , 19-H ) :  -0.1250 B(  9-C , 10-C ) :   1.4118
B(  9-C , 16-H ) :   0.7250 B( 10-C , 11-C ) :   1.2785 B( 10-C , 12-C ) :   0.1657
B( 10-C , 15-H ) :   0.4572 B( 11-C , 12-C ) :   1.5305 B( 11-C , 14-H ) :   0.7133
B( 12-C , 13-H ) :   0.4686

Dispersion correction           -0.033282228
FINAL SINGLE POINT ENERGY      -518.735721574091

DIPOLE MOMENT
-------------

Method             : SCF
Type of density    : Electron Density
Multiplicity       :   2
Irrep              :   0
Energy             :  -518.7024393462489797 Eh
Relativity type    :
Basis              : AO
                                X                 Y                 Z
Electronic contribution:     -0.000969405      -1.448213660       0.003498357
Nuclear contribution   :      0.000010787       0.666083860       0.000129839
                        -----------------------------------------
Total Dipole Moment    :     -0.000958618      -0.782129801       0.003628196
                        -----------------------------------------
Magnitude (a.u.)       :      0.782138804
Magnitude (Debye)      :      1.988038847

Rotational constants in cm-1:             0.083302             0.013962             0.012406
Rotational constants in MHz :          2497.339782           418.559791           371.935015

                             ****ORCA TERMINATED NORMALLY****
TOTAL RUN TIME: 0 days 0 hours 11 minutes 1 seconds 725 msec
