                         Program Version 6.0.0  -   RELEASE  -
|  1> !B3LYP aug-cc-pVTZ d3 TightSCF SlowConv RIJCOSX defgrid2
|  2>
|  3> %pal
|  4> nprocs 4
|  5> end
|  6>
|  7> %scf
|  8> MaxIter 1500
|  9> end
| 10>
| 11> %maxcore 3000
| 12>
| 13> !CPCM
| 14> %cpcm smd true
| 15> SMDsolvent "MeCN"
| 16> surfacetype gepol_ses
| 17> rsolv 2.19
| 18> end
| 19>
| 20> * xyz 1 2
| 21> C          -1.21410268013558      0.66079671488085      0.00044125101463
| 22> C          -0.00479873951211      1.42348649358076      0.00008291249140
| 23> C           1.19917788477091      0.76805500599948     -0.00093245598873
| 24> C           1.21410525376750     -0.66078759041144     -0.00041186823336
| 25> C           0.00483277696024     -1.42348058095615     -0.00006380880582
| 26> C          -1.19915583251644     -0.76807297563841      0.00095026344814
| 27> H          -2.14500237789104     -1.31691197560262      0.00198921433109
| 28> H           0.05803237074867     -2.51570929713129     -0.00010038106333
| 29> H           2.17564601802106     -1.18573947417440      0.00063492612648
| 30> H           2.14497947433067      1.31689182680587     -0.00197612697820
| 31> H          -0.05801300840356      2.51575704823161      0.00011149719674
| 32> H          -2.17570214014031      1.18578190441576     -0.00060722353904
| 33> *
| 34>
| 35>                          ****END OF INPUT****

CARTESIAN COORDINATES (ANGSTROEM)
---------------------------------
  C     -1.214103    0.660797    0.000441
  C     -0.004799    1.423486    0.000083
  C      1.199178    0.768055   -0.000932
  C      1.214105   -0.660788   -0.000412
  C      0.004833   -1.423481   -0.000064
  C     -1.199156   -0.768073    0.000950
  H     -2.145002   -1.316912    0.001989
  H      0.058032   -2.515709   -0.000100
  H      2.175646   -1.185739    0.000635
  H      2.144979    1.316892   -0.001976
  H     -0.058013    2.515757    0.000111
  H     -2.175702    1.185782   -0.000607

 Total Charge           Charge          ....    1
 Multiplicity           Mult            ....    2
 Number of Electrons    NEL             ....   41
 Basis Dimension        Dim             ....  414

ORBITAL ENERGIES
----------------
                 SPIN UP ORBITALS
  NO   OCC          E(Eh)            E(eV)
   0   1.0000     -10.267384      -279.3897
   1   1.0000     -10.267340      -279.3885
   2   1.0000     -10.232107      -278.4298
   3   1.0000     -10.232068      -278.4287
   4   1.0000     -10.231273      -278.4071
   5   1.0000     -10.231235      -278.4061
   6   1.0000      -0.910059       -24.7640
   7   1.0000      -0.801101       -21.7991
   8   1.0000      -0.799247       -21.7486
   9   1.0000      -0.655847       -17.8465
  10   1.0000      -0.646595       -17.5947
  11   1.0000      -0.561851       -15.2887
  12   1.0000      -0.500934       -13.6311
  13   1.0000      -0.498879       -13.5752
  14   1.0000      -0.466770       -12.7015
  15   1.0000      -0.460704       -12.5364
  16   1.0000      -0.427499       -11.6328
  17   1.0000      -0.392425       -10.6784
  18   1.0000      -0.386408       -10.5147
  19   1.0000      -0.323440        -8.8013
  20   1.0000      -0.307970        -8.3803
  21   0.0000      -0.086797        -2.3619
  22   0.0000      -0.054090        -1.4719
  23   0.0000      -0.007719        -0.2101
  24   0.0000       0.011231         0.3056
  25   0.0000       0.011463         0.3119

                 SPIN DOWN ORBITALS
  NO   OCC          E(Eh)            E(eV)
   0   1.0000     -10.260795      -279.2104
   1   1.0000     -10.260758      -279.2094
   2   1.0000     -10.231726      -278.4194
   3   1.0000     -10.231688      -278.4184
   4   1.0000     -10.230915      -278.3974
   5   1.0000     -10.230880      -278.3964
   6   1.0000      -0.899702       -24.4821
   7   1.0000      -0.797423       -21.6990
   8   1.0000      -0.781382       -21.2625
   9   1.0000      -0.646744       -17.5988
  10   1.0000      -0.640937       -17.4408
  11   1.0000      -0.559574       -15.2268
  12   1.0000      -0.496412       -13.5081
  13   1.0000      -0.494696       -13.4613
  14   1.0000      -0.466613       -12.6972
  15   1.0000      -0.455824       -12.4036
  16   1.0000      -0.396549       -10.7907
  17   1.0000      -0.390545       -10.6273
  18   1.0000      -0.383089       -10.4244
  19   1.0000      -0.303873        -8.2688
  20   0.0000      -0.227899        -6.2015
  21   0.0000      -0.047853        -1.3021
  22   0.0000      -0.041512        -1.1296
  23   0.0000      -0.007431        -0.2022
  24   0.0000       0.011125         0.3027

MULLIKEN ATOMIC CHARGES AND SPIN POPULATIONS
--------------------------------------------
   0 C :   -0.188905    0.448768
   1 C :   -0.325353    0.022803
   2 C :   -0.335025    0.017189
   3 C :   -0.186403    0.448654
   4 C :   -0.328841    0.022849
   5 C :   -0.333922    0.017233
   6 H :    0.432464   -0.002250
   7 H :    0.445105   -0.002097
   8 H :    0.472130    0.015599
   9 H :    0.431685   -0.002239
  10 H :    0.445979   -0.002102
  11 H :    0.471086    0.015593
Sum of atomic charges         :    1.0000000

LOEWDIN ATOMIC CHARGES AND SPIN POPULATIONS
-------------------------------------------
   0 C :    0.326059    0.251653
   1 C :    0.282158    0.093500
   2 C :    0.281673    0.091769
   3 C :    0.326065    0.251622
   4 C :    0.282160    0.093489
   5 C :    0.281671    0.091779
   6 H :   -0.136484    0.005741
   7 H :   -0.136201    0.006291
   8 H :   -0.117237    0.051064
   9 H :   -0.136518    0.005740
  10 H :   -0.136163    0.006293
  11 H :   -0.117184    0.051061

  Mayer bond orders larger than 0.100000
B(  0-C ,  1-C ) :   1.0368 B(  0-C ,  5-C ) :   1.0286 B(  0-C , 11-H ) :   0.6564
B(  1-C ,  2-C ) :   1.3715 B(  1-C , 10-H ) :   0.7053 B(  2-C ,  3-C ) :   1.0295
B(  2-C ,  9-H ) :   0.7305 B(  3-C ,  4-C ) :   1.0368 B(  3-C ,  8-H ) :   0.6550
B(  4-C ,  5-C ) :   1.3708 B(  4-C ,  7-H ) :   0.7066 B(  5-C ,  6-H ) :   0.7298

Dispersion correction           -0.018784946
FINAL SINGLE POINT ENERGY      -231.964711491729

DIPOLE MOMENT
-------------

Method             : SCF
Type of density    : Electron Density
Multiplicity       :   2
Irrep              :   0
Energy             :  -231.9459265459711048 Eh
Relativity type    :
Basis              : AO
                                X                 Y                 Z
Electronic contribution:      0.000039836      -0.000018355       0.000010010
Nuclear contribution   :     -0.000102416       0.000063154      -0.000012453
                        -----------------------------------------
Total Dipole Moment    :     -0.000062580       0.000044799      -0.000002443
                        -----------------------------------------
Magnitude (a.u.)       :      0.000077001
Magnitude (Debye)      :      0.000195722

Rotational constants in cm-1:             0.193350             0.179303             0.093031
Rotational constants in MHz :          5796.486713          5375.355688          2788.992179

                             ****ORCA TERMINATED NORMALLY****
TOTAL RUN TIME: 0 days 0 hours 1 minutes 36 seconds 969 msec
