                         Program Version 6.0.0  -   RELEASE  -
|  1> !r2SCAN aug-cc-pVTZ d3 TightSCF SlowConv RIJCOSX defgrid2
|  2>
|  3> %pal
|  4> nprocs 4
|  5> end
|  6>
|  7> %scf
|  8> MaxIter 1500
|  9> end
| 10>
| 11> %maxcore 3000
| 12>
| 13> !CPCM
| 14> %cpcm smd true
| 15> SMDsolvent "MeCN"
| 16> surfacetype gepol_ses
| 17> rsolv 2.19
| 18> end
| 19>
| 20> * xyz 1 2
| 21> C           1.84281234672153     -0.00006597869847      0.01285546623039
| 22> C           1.14355368564506     -1.23902490190253      0.00158488089103
| 23> C          -0.22635786234437     -1.24013111711704     -0.01699413586169
| 24> C          -0.95506719113591     -0.00029607647166     -0.02822657050256
| 25> C          -2.42493771335276     -0.00015694603531     -0.01540251479795
| 26> H          -2.85288988584861      0.90688759110700     -0.47308067341050
| 27> H          -2.85357110348468     -0.91037144459146     -0.46576655952987
| 28> H          -2.75683389603493      0.00504463864823      1.05046901822320
| 29> C          -0.22649470626097      1.23969602067318     -0.01458794729593
| 30> C           1.14339815090709      1.23878434923716      0.00398375524291
| 31> H           1.70466297579754      2.17704577622432      0.01138483317017
| 32> H          -0.78522490872320      2.18007136225477     -0.02327385957075
| 33> H          -0.78496408789097     -2.18055191214167     -0.02751919353185
| 34> H           1.70496196149810     -2.17721430622763      0.00716529435102
| 35> H           2.93762583450709      0.00000044504112      0.02964230639238
| 36> *
| 37>
| 38>                          ****END OF INPUT****

CARTESIAN COORDINATES (ANGSTROEM)
---------------------------------
  C      1.842812   -0.000066    0.012855
  C      1.143554   -1.239025    0.001585
  C     -0.226358   -1.240131   -0.016994
  C     -0.955067   -0.000296   -0.028227
  C     -2.424938   -0.000157   -0.015403
  H     -2.852890    0.906888   -0.473081
  H     -2.853571   -0.910371   -0.465767
  H     -2.756834    0.005045    1.050469
  C     -0.226495    1.239696   -0.014588
  C      1.143398    1.238784    0.003984
  H      1.704663    2.177046    0.011385
  H     -0.785225    2.180071   -0.023274
  H     -0.784964   -2.180552   -0.027519
  H      1.704962   -2.177214    0.007165
  H      2.937626    0.000000    0.029642

 Total Charge           Charge          ....    1
 Multiplicity           Mult            ....    2
 Number of Electrons    NEL             ....   49
 Basis Dimension        Dim             ....  506

ORBITAL ENERGIES
----------------
                 SPIN UP ORBITALS
  NO   OCC          E(Eh)            E(eV)
   0   1.0000     -10.137135      -275.8455
   1   1.0000     -10.118436      -275.3366
   2   1.0000     -10.092246      -274.6240
   3   1.0000     -10.092190      -274.6225
   4   1.0000     -10.088062      -274.5101
   5   1.0000     -10.088000      -274.5084
   6   1.0000     -10.059433      -273.7311
   7   1.0000      -0.877320       -23.8731
   8   1.0000      -0.791329       -21.5331
   9   1.0000      -0.762793       -20.7567
  10   1.0000      -0.691606       -18.8195
  11   1.0000      -0.614621       -16.7247
  12   1.0000      -0.595981       -16.2175
  13   1.0000      -0.513930       -13.9848
  14   1.0000      -0.474899       -12.9227
  15   1.0000      -0.457781       -12.4568
  16   1.0000      -0.431788       -11.7496
  17   1.0000      -0.429411       -11.6849
  18   1.0000      -0.414395       -11.2763
  19   1.0000      -0.380579       -10.3561
  20   1.0000      -0.377661       -10.2767
  21   1.0000      -0.356058        -9.6888
  22   1.0000      -0.343249        -9.3403
  23   1.0000      -0.287504        -7.8234
  24   1.0000      -0.287063        -7.8114
  25   0.0000      -0.105970        -2.8836
  26   0.0000      -0.076432        -2.0798
  27   0.0000       0.006330         0.1723
  28   0.0000       0.021553         0.5865
  29   0.0000       0.025452         0.6926

                 SPIN DOWN ORBITALS
  NO   OCC          E(Eh)            E(eV)
   0   1.0000     -10.130464      -275.6639
   1   1.0000     -10.110648      -275.1247
   2   1.0000     -10.090678      -274.5813
   3   1.0000     -10.090638      -274.5802
   4   1.0000     -10.088639      -274.5258
   5   1.0000     -10.088590      -274.5245
   6   1.0000     -10.059203      -273.7248
   7   1.0000      -0.865415       -23.5491
   8   1.0000      -0.776162       -21.1204
   9   1.0000      -0.760893       -20.7049
  10   1.0000      -0.682075       -18.5602
  11   1.0000      -0.609748       -16.5921
  12   1.0000      -0.586959       -15.9720
  13   1.0000      -0.511831       -13.9276
  14   1.0000      -0.472332       -12.8528
  15   1.0000      -0.452835       -12.3223
  16   1.0000      -0.429424       -11.6852
  17   1.0000      -0.410993       -11.1837
  18   1.0000      -0.410350       -11.1662
  19   1.0000      -0.378808       -10.3079
  20   1.0000      -0.357689        -9.7332
  21   1.0000      -0.354258        -9.6398
  22   1.0000      -0.340399        -9.2627
  23   1.0000      -0.281571        -7.6619
  24   0.0000      -0.235398        -6.4055
  25   0.0000      -0.064608        -1.7581
  26   0.0000      -0.059892        -1.6297
  27   0.0000       0.008084         0.2200
  28   0.0000       0.023703         0.6450

MULLIKEN ATOMIC CHARGES AND SPIN POPULATIONS
--------------------------------------------
   0 C :   -0.177513    0.408524
   1 C :   -0.420958   -0.047054
   2 C :   -0.725825    0.098295
   3 C :    1.359435    0.421841
   4 C :   -0.556269   -0.071483
   5 H :    0.206911    0.005037
   6 H :    0.206239    0.004511
   7 H :    0.285329    0.072609
   8 C :   -0.727878    0.099483
   9 C :   -0.422401   -0.047943
  10 H :    0.510114    0.000107
  11 H :    0.249322    0.015582
  12 H :    0.246745    0.015188
  13 H :    0.512096    0.000255
  14 H :    0.454654    0.025049
Sum of atomic charges         :    1.0000000

LOEWDIN ATOMIC CHARGES AND SPIN POPULATIONS
-------------------------------------------
   0 C :    0.308886    0.232708
   1 C :    0.280396    0.068063
   2 C :    0.293758    0.098708
   3 C :   -0.037254    0.227571
   4 C :    0.642303    0.086289
   5 H :   -0.136789    0.009305
   6 H :   -0.137067    0.009081
   7 H :   -0.107040    0.031590
   8 C :    0.293710    0.098940
   9 C :    0.280334    0.067801
  10 H :   -0.141424   -0.000606
  11 H :   -0.135781    0.010482
  12 H :   -0.135900    0.010416
  13 H :   -0.141384   -0.000526
  14 H :   -0.126749    0.050179

  Mayer bond orders larger than 0.100000
B(  0-C ,  1-C ) :   0.9516 B(  0-C ,  9-C ) :   0.9511 B(  0-C , 14-H ) :   0.6699
B(  1-C ,  2-C ) :   1.3856 B(  1-C ,  8-C ) :  -0.1118 B(  1-C , 13-H ) :   0.5138
B(  2-C ,  3-C ) :   0.4714 B(  2-C ,  9-C ) :  -0.1092 B(  2-C , 12-H ) :   0.9508
B(  3-C ,  4-C ) :   0.4828 B(  3-C ,  8-C ) :   0.4742 B(  4-C ,  5-H ) :   0.9759
B(  4-C ,  6-H ) :   0.9769 B(  4-C ,  7-H ) :   0.8591 B(  8-C ,  9-C ) :   1.3866
B(  8-C , 11-H ) :   0.9451 B(  9-C , 10-H ) :   0.5168

Dispersion correction           -0.004065483
FINAL SINGLE POINT ENERGY      -271.274996233648

DIPOLE MOMENT
-------------

Method             : SCF
Type of density    : Electron Density
Multiplicity       :   2
Irrep              :   0
Energy             :  -271.2709307510793906 Eh
Relativity type    :
Basis              : AO
                                X                 Y                 Z
Electronic contribution:      3.413323196      -0.000813353      -0.049556858
Nuclear contribution   :     -3.446153110       0.001949667       0.148888103
                        -----------------------------------------
Total Dipole Moment    :     -0.032829914       0.001136315       0.099331245
                        -----------------------------------------
Magnitude (a.u.)       :      0.104622133
Magnitude (Debye)      :      0.265928329

Rotational constants in cm-1:             0.175281             0.085805             0.058230
Rotational constants in MHz :          5254.798892          2572.379074          1745.693725

                             ****ORCA TERMINATED NORMALLY****
TOTAL RUN TIME: 0 days 0 hours 2 minutes 38 seconds 66 msec
