                         Program Version 6.0.0  -   RELEASE  -
|  1> !r2SCAN aug-cc-pVTZ d3 TightSCF SlowConv RIJCOSX defgrid2
|  2>
|  3> %pal
|  4> nprocs 6
|  5> end
|  6>
|  7> %scf
|  8> MaxIter 1500
|  9> end
| 10>
| 11> %maxcore 3000
| 12>
| 13> !CPCM
| 14> %cpcm smd true
| 15> SMDsolvent "MeCN"
| 16> surfacetype gepol_ses
| 17> rsolv 2.19
| 18> end
| 19>
| 20> * xyz -1 2
| 21>   C          -3.62984747030359      2.10634854089890      0.29413366187786
| 22>   C          -4.88521656793814      1.52460279264563      0.21285194664948
| 23>   C          -2.43996070251224      1.35928996872449      0.08422922937252
| 24>   C          -2.61096888777262     -0.00171874484877     -0.27802191885602
| 25>   C          -3.87287251644746     -0.57850198655770     -0.36904469903670
| 26>   C          -5.03023873609438      0.16696438667983     -0.10988269549484
| 27>   C          -1.16948079167151      2.09256049707431      0.16164767275919
| 28>   C           0.12067423933497      1.40594735978097      0.30426152268307
| 29>   C           1.28964189965584      2.16414147627999      0.02630190894131
| 30>   C           2.56066514539573      1.62761624229261      0.15812903251074
| 31>   C           2.74361326089362      0.30916965549547      0.60191698925079
| 32>   C           1.60721306175648     -0.44185421529682      0.92902893717985
| 33>   C           0.32976744930311      0.08871154082537      0.78825579984698
| 34>   O          -1.18787359702741      3.35479483613606      0.10344354720181
| 35>   H          -3.95752568777400     -1.63142375583986     -0.66486174996515
| 36>   H          -6.02174902533034     -0.29324813226849     -0.17715643182860
| 37>   H          -3.50305728008549      3.16796655235268      0.52140925280262
| 38>   H          -5.77643532337797      2.13678032750153      0.39984091569786
| 39>   H          -1.74010174342944     -0.60523310453178     -0.54356548187453
| 40>   H          -0.52377533184004     -0.51255708549791      1.10930263672941
| 41>   H           3.74754253761040     -0.11513493690994      0.70902931502125
| 42>   H           1.72088092192766     -1.46080357442395      1.31909388538700
| 43>   H           1.13299801894373      3.19674935471579     -0.29607576485640
| 44>   H           3.43450583978311      2.24528941977158     -0.08460366299948
| 45> *
| 46>
| 47>                          ****END OF INPUT****

CARTESIAN COORDINATES (ANGSTROEM)
---------------------------------
  C     -3.629847    2.106349    0.294134
  C     -4.885217    1.524603    0.212852
  C     -2.439961    1.359290    0.084229
  C     -2.610969   -0.001719   -0.278022
  C     -3.872873   -0.578502   -0.369045
  C     -5.030239    0.166964   -0.109883
  C     -1.169481    2.092560    0.161648
  C      0.120674    1.405947    0.304262
  C      1.289642    2.164141    0.026302
  C      2.560665    1.627616    0.158129
  C      2.743613    0.309170    0.601917
  C      1.607213   -0.441854    0.929029
  C      0.329767    0.088712    0.788256
  O     -1.187874    3.354795    0.103444
  H     -3.957526   -1.631424   -0.664862
  H     -6.021749   -0.293248   -0.177156
  H     -3.503057    3.167967    0.521409
  H     -5.776435    2.136780    0.399841
  H     -1.740102   -0.605233   -0.543565
  H     -0.523775   -0.512557    1.109303
  H      3.747543   -0.115135    0.709029
  H      1.720881   -1.460804    1.319094
  H      1.132998    3.196749   -0.296076
  H      3.434506    2.245289   -0.084604

 Total Charge           Charge          ....   -1
 Multiplicity           Mult            ....    2
 Number of Electrons    NEL             ....   97
 Basis Dimension        Dim             ....  874

ORBITAL ENERGIES
----------------
                 SPIN UP ORBITALS
  NO   OCC          E(Eh)            E(eV)
   0   1.0000     -18.876433      -513.6539
   1   1.0000     -10.055552      -273.6255
   2   1.0000     -10.025246      -272.8008
   3   1.0000     -10.025236      -272.8005
   4   1.0000     -10.025165      -272.7986
   5   1.0000     -10.025145      -272.7981
   6   1.0000     -10.023879      -272.7636
   7   1.0000     -10.023863      -272.7632
   8   1.0000     -10.023514      -272.7537
   9   1.0000     -10.023500      -272.7533
  10   1.0000     -10.022125      -272.7159
  11   1.0000     -10.022101      -272.7152
  12   1.0000     -10.017127      -272.5799
  13   1.0000     -10.017114      -272.5795
  14   1.0000      -0.932462       -25.3736
  15   1.0000      -0.803820       -21.8730
  16   1.0000      -0.800560       -21.7843
  17   1.0000      -0.715102       -19.4589
  18   1.0000      -0.696966       -18.9654
  19   1.0000      -0.695947       -18.9377
  20   1.0000      -0.691339       -18.8123
  21   1.0000      -0.598383       -16.2828
  22   1.0000      -0.559160       -15.2155
  23   1.0000      -0.554103       -15.0779
  24   1.0000      -0.542890       -14.7728
  25   1.0000      -0.500703       -13.6248
  26   1.0000      -0.468957       -12.7610
  27   1.0000      -0.449740       -12.2380
  28   1.0000      -0.411914       -11.2087
  29   1.0000      -0.403273       -10.9736
  30   1.0000      -0.396452       -10.7880
  31   1.0000      -0.391111       -10.6427
  32   1.0000      -0.370985       -10.0950
  33   1.0000      -0.368475       -10.0267
  34   1.0000      -0.365799        -9.9539
  35   1.0000      -0.347518        -9.4565
  36   1.0000      -0.346931        -9.4405
  37   1.0000      -0.332097        -9.0368
  38   1.0000      -0.312834        -8.5126
  39   1.0000      -0.306743        -8.3469
  40   1.0000      -0.299018        -8.1367
  41   1.0000      -0.282684        -7.6922
  42   1.0000      -0.278703        -7.5839
  43   1.0000      -0.228515        -6.2182
  44   1.0000      -0.227769        -6.1979
  45   1.0000      -0.224317        -6.1040
  46   1.0000      -0.219918        -5.9843
  47   1.0000      -0.179069        -4.8727
  48   1.0000      -0.091287        -2.4840
  49   0.0000      -0.032232        -0.8771
  50   0.0000      -0.023131        -0.6294
  51   0.0000      -0.022284        -0.6064
  52   0.0000       0.005006         0.1362
  53   0.0000       0.017102         0.4654

                 SPIN DOWN ORBITALS
  NO   OCC          E(Eh)            E(eV)
   0   1.0000     -18.869410      -513.4628
   1   1.0000     -10.050951      -273.5003
   2   1.0000     -10.026313      -272.8298
   3   1.0000     -10.026306      -272.8297
   4   1.0000     -10.025989      -272.8210
   5   1.0000     -10.025970      -272.8205
   6   1.0000     -10.023945      -272.7654
   7   1.0000     -10.023913      -272.7645
   8   1.0000     -10.021970      -272.7117
   9   1.0000     -10.021966      -272.7116
  10   1.0000     -10.019362      -272.6407
  11   1.0000     -10.019327      -272.6398
  12   1.0000     -10.015082      -272.5242
  13   1.0000     -10.015064      -272.5237
  14   1.0000      -0.921581       -25.0775
  15   1.0000      -0.801258       -21.8033
  16   1.0000      -0.798553       -21.7297
  17   1.0000      -0.710368       -19.3301
  18   1.0000      -0.694535       -18.8993
  19   1.0000      -0.693659       -18.8754
  20   1.0000      -0.689032       -18.7495
  21   1.0000      -0.588566       -16.0157
  22   1.0000      -0.556515       -15.1436
  23   1.0000      -0.553435       -15.0597
  24   1.0000      -0.541129       -14.7249
  25   1.0000      -0.497448       -13.5362
  26   1.0000      -0.468185       -12.7400
  27   1.0000      -0.446234       -12.1427
  28   1.0000      -0.409627       -11.1465
  29   1.0000      -0.402135       -10.9426
  30   1.0000      -0.395146       -10.7525
  31   1.0000      -0.389962       -10.6114
  32   1.0000      -0.367933       -10.0120
  33   1.0000      -0.366588        -9.9754
  34   1.0000      -0.364547        -9.9198
  35   1.0000      -0.343198        -9.3389
  36   1.0000      -0.337798        -9.1920
  37   1.0000      -0.326704        -8.8901
  38   1.0000      -0.310819        -8.4578
  39   1.0000      -0.299453        -8.1485
  40   1.0000      -0.288288        -7.8447
  41   1.0000      -0.281370        -7.6565
  42   1.0000      -0.276010        -7.5106
  43   1.0000      -0.223703        -6.0873
  44   1.0000      -0.222769        -6.0619
  45   1.0000      -0.216103        -5.8805
  46   1.0000      -0.204461        -5.5637
  47   1.0000      -0.173256        -4.7145
  48   0.0000      -0.060987        -1.6595
  49   0.0000      -0.023781        -0.6471
  50   0.0000      -0.018881        -0.5138
  51   0.0000      -0.017280        -0.4702
  52   0.0000       0.006684         0.1819

MULLIKEN ATOMIC CHARGES AND SPIN POPULATIONS
--------------------------------------------
   0 C :   -1.308575    0.197121
   1 C :   -0.624675   -0.116976
   2 C :    2.284222   -0.089872
   3 C :   -0.599649    0.163825
   4 C :   -1.042127   -0.108726
   5 C :   -0.261527    0.211113
   6 C :    0.725434    0.286776
   7 C :    2.288490   -0.089661
   8 C :   -1.308268    0.197658
   9 C :   -0.625256   -0.116900
  10 C :   -0.261973    0.211897
  11 C :   -1.041262   -0.108997
  12 C :   -0.602123    0.163660
  13 O :   -1.213425    0.261904
  14 H :    0.365598   -0.005354
  15 H :    0.561088   -0.009363
  16 H :   -0.219634   -0.010823
  17 H :    0.445929   -0.004045
  18 H :    0.142785   -0.001637
  19 H :    0.142233   -0.001396
  20 H :    0.562232   -0.009661
  21 H :    0.364686   -0.005298
  22 H :   -0.220309   -0.010943
  23 H :    0.446105   -0.004303
Sum of atomic charges         :   -1.0000000

LOEWDIN ATOMIC CHARGES AND SPIN POPULATIONS
-------------------------------------------
   0 C :    0.150623    0.055319
   1 C :    0.151433    0.010783
   2 C :   -0.173993    0.064119
   3 C :    0.166929    0.049377
   4 C :    0.158395    0.013413
   5 C :    0.155350    0.073388
   6 C :   -0.630439    0.182019
   7 C :   -0.174030    0.064327
   8 C :    0.150675    0.055478
   9 C :    0.151304    0.010832
  10 C :    0.155401    0.073712
  11 C :    0.158232    0.013498
  12 C :    0.166754    0.049564
  13 O :    0.383507    0.212931
  14 H :   -0.181055   -0.003604
  15 H :   -0.189686    0.019756
  16 H :   -0.220823    0.012877
  17 H :   -0.182844   -0.004816
  18 H :   -0.210528    0.011337
  19 H :   -0.210617    0.011373
  20 H :   -0.189728    0.019839
  21 H :   -0.181108   -0.003607
  22 H :   -0.220859    0.012912
  23 H :   -0.182891   -0.004827

  Mayer bond orders larger than 0.100000
B(  0-C ,  1-C ) :   1.2202 B(  0-C ,  2-C ) :  -0.6031 B(  0-C ,  3-C ) :  -0.7013
B(  0-C ,  5-C ) :  -0.1366 B(  0-C ,  6-C ) :   0.3171 B(  0-C ,  7-C ) :   0.1522
B(  0-C , 15-H ) :   0.1067 B(  0-C , 16-H ) :   1.6434 B(  0-C , 17-H ) :  -0.1844
B(  0-C , 18-H ) :   0.1041 B(  1-C ,  4-C ) :   0.2187 B(  1-C ,  5-C ) :   0.9760
B(  1-C , 17-H ) :   0.6067 B(  1-C , 18-H ) :  -0.1699 B(  2-C ,  3-C ) :   0.2051
B(  2-C ,  4-C ) :  -0.1253 B(  2-C ,  6-C ) :   0.3619 B(  2-C ,  7-C ) :  -0.1615
B(  2-C ,  8-C ) :   0.1522 B(  2-C , 12-C ) :   0.1119 B(  2-C , 16-H ) :  -0.2895
B(  3-C ,  4-C ) :   1.1262 B(  3-C ,  6-C ) :   0.2170 B(  3-C ,  7-C ) :   0.1103
B(  3-C , 16-H ) :   0.1032 B(  3-C , 18-H ) :   1.4220 B(  3-C , 19-H ) :  -0.1298
B(  4-C ,  5-C ) :   1.1234 B(  4-C , 14-H ) :   0.6591 B(  4-C , 16-H ) :  -0.1425
B(  5-C ,  6-C ) :   0.2412 B(  5-C , 15-H ) :   0.4717 B(  6-C ,  7-C ) :   0.3634
B(  6-C ,  8-C ) :   0.3157 B(  6-C , 10-C ) :   0.2418 B(  6-C , 12-C ) :   0.2145
B(  6-C , 16-H ) :  -0.3750 B(  6-C , 18-H ) :  -0.1342 B(  6-C , 19-H ) :  -0.1388
B(  6-C , 22-H ) :  -0.3759 B(  7-C ,  8-C ) :  -0.6034 B(  7-C , 11-C ) :  -0.1274
B(  7-C , 12-C ) :   0.1988 B(  7-C , 22-H ) :  -0.2889 B(  8-C ,  9-C ) :   1.2207
B(  8-C , 10-C ) :  -0.1355 B(  8-C , 12-C ) :  -0.7012 B(  8-C , 19-H ) :   0.1050
B(  8-C , 20-H ) :   0.1062 B(  8-C , 22-H ) :   1.6425 B(  8-C , 23-H ) :  -0.1841
B(  9-C , 10-C ) :   0.9768 B(  9-C , 11-C ) :   0.2190 B(  9-C , 12-C ) :  -0.1000
B(  9-C , 19-H ) :  -0.1700 B(  9-C , 23-H ) :   0.6067 B( 10-C , 11-C ) :   1.1221
B( 10-C , 20-H ) :   0.4704 B( 11-C , 12-C ) :   1.1276 B( 11-C , 21-H ) :   0.6606
B( 11-C , 22-H ) :  -0.1426 B( 12-C , 18-H ) :  -0.1285 B( 12-C , 19-H ) :   1.4255
B( 12-C , 22-H ) :   0.1029 B( 13-O , 16-H ) :   0.3630 B( 13-O , 22-H ) :   0.3632
B( 16-H , 18-H ) :   0.1844 B( 16-H , 22-H ) :   0.1598 B( 19-H , 22-H ) :   0.1846

Dispersion correction           -0.009143723
FINAL SINGLE POINT ENERGY      -576.629446535443

DIPOLE MOMENT
-------------

Method             : SCF
Type of density    : Electron Density
Multiplicity       :   2
Irrep              :   0
Energy             :  -576.6203028124815546 Eh
Relativity type    :
Basis              : AO
                                X                 Y                 Z
Electronic contribution:     -0.037059906       2.404172320      -0.112457469
Nuclear contribution   :      0.065380464      -4.610103580       0.211136604
                        -----------------------------------------
Total Dipole Moment    :      0.028320558      -2.205931261       0.098679135
                        -----------------------------------------
Magnitude (a.u.)       :      2.208318897
Magnitude (Debye)      :      5.613100556

Rotational constants in cm-1:             0.059016             0.013412             0.011183
Rotational constants in MHz :          1769.265782           402.071173           335.263928

                             ****ORCA TERMINATED NORMALLY****
TOTAL RUN TIME: 0 days 0 hours 5 minutes 16 seconds 377 msec
