                         Program Version 6.0.0  -   RELEASE  -
|  1> !B3LYP aug-cc-pVTZ d3 TightSCF SlowConv RIJCOSX defgrid2
|  2>
|  3> %pal
|  4> nprocs 15
|  5> end
|  6>
|  7> %scf
|  8> MaxIter 1500
|  9> end
| 10>
| 11> %maxcore 3500
| 12>
| 13> !CPCM
| 14> %cpcm smd true
| 15> SMDsolvent "WATER"
| 16> surfacetype gepol_ses
| 17> rsolv 1.40
| 18> end
| 19>
| 20> * xyz -1 2
| 21> C          -0.03973046046840      0.10892812040704     -0.07338476870276
| 22> C          -1.16098921528207     -0.36942550235928      0.71209175660899
| 23> C           1.12950619870235      0.46906063473388      0.70766297682295
| 24> H          -2.06041411321376     -0.64988443685068      0.14997121109878
| 25> H           1.99092702988929      0.83408061571124      0.13293381113983
| 26> C          -1.11212024378879     -0.46999723963456      2.07962395432224
| 27> C           1.19382481607047      0.37407440355199      2.07622299159295
| 28> H          -1.97201412595405     -0.83453656930806      2.65522434724164
| 29> C           0.05609683638602     -0.10970890072807      2.85428687501407
| 30> O           0.10372480477544     -0.20102139334893      4.10562446305031
| 31> O          -0.07494807117445      0.20434515385365     -1.32351109494325
| 32> C           2.41507813745815      0.75326139926788      2.85674776584986
| 33> H           2.18096706491750      1.54375255830692      3.59412318045315
| 34> H           2.78389777303057     -0.10350094502541      3.45115835416892
| 35> H           3.22614155265174      1.10750873042238      2.19600586528230
| 36> *
| 37>
| 38>                          ****END OF INPUT****

CARTESIAN COORDINATES (ANGSTROEM)
---------------------------------
  C     -0.039730    0.108928   -0.073385
  C     -1.160989   -0.369426    0.712092
  C      1.129506    0.469061    0.707663
  H     -2.060414   -0.649884    0.149971
  H      1.990927    0.834081    0.132934
  C     -1.112120   -0.469997    2.079624
  C      1.193825    0.374074    2.076223
  H     -1.972014   -0.834537    2.655224
  C      0.056097   -0.109709    2.854287
  O      0.103725   -0.201021    4.105624
  O     -0.074948    0.204345   -1.323511
  C      2.415078    0.753261    2.856748
  H      2.180967    1.543753    3.594123
  H      2.783898   -0.103501    3.451158
  H      3.226142    1.107509    2.196006

 Total Charge           Charge          ....   -1
 Multiplicity           Mult            ....    2
 Number of Electrons    NEL             ....   65
 Basis Dimension        Dim             ....  552

ORBITAL ENERGIES
----------------
                 SPIN UP ORBITALS
  NO   OCC          E(Eh)            E(eV)
   0   1.0000     -19.090739      -519.4854
   1   1.0000     -19.090424      -519.4768
   2   1.0000     -10.225123      -278.2397
   3   1.0000     -10.223099      -278.1847
   4   1.0000     -10.175836      -276.8986
   5   1.0000     -10.166589      -276.6470
   6   1.0000     -10.165700      -276.6228
   7   1.0000     -10.161442      -276.5069
   8   1.0000     -10.157982      -276.4127
   9   1.0000      -1.010039       -27.4846
  10   1.0000      -1.007999       -27.4290
  11   1.0000      -0.823535       -22.4095
  12   1.0000      -0.760559       -20.6959
  13   1.0000      -0.695846       -18.9349
  14   1.0000      -0.662317       -18.0226
  15   1.0000      -0.588324       -16.0091
  16   1.0000      -0.552061       -15.0223
  17   1.0000      -0.478635       -13.0243
  18   1.0000      -0.469730       -12.7820
  19   1.0000      -0.441630       -12.0174
  20   1.0000      -0.425375       -11.5751
  21   1.0000      -0.408806       -11.1242
  22   1.0000      -0.401607       -10.9283
  23   1.0000      -0.393061       -10.6957
  24   1.0000      -0.386599       -10.5199
  25   1.0000      -0.374147       -10.1811
  26   1.0000      -0.364309        -9.9134
  27   1.0000      -0.350281        -9.5316
  28   1.0000      -0.286962        -7.8086
  29   1.0000      -0.253481        -6.8976
  30   1.0000      -0.250873        -6.8266
  31   1.0000      -0.244517        -6.6537
  32   1.0000      -0.166458        -4.5296
  33   0.0000      -0.007763        -0.2112
  34   0.0000       0.001378         0.0375
  35   0.0000       0.013323         0.3625
  36   0.0000       0.017621         0.4795
  37   0.0000       0.021763         0.5922

                 SPIN DOWN ORBITALS
  NO   OCC          E(Eh)            E(eV)
   0   1.0000     -19.084416      -519.3134
   1   1.0000     -19.083984      -519.3016
   2   1.0000     -10.223445      -278.1941
   3   1.0000     -10.221226      -278.1337
   4   1.0000     -10.174649      -276.8663
   5   1.0000     -10.165452      -276.6160
   6   1.0000     -10.164359      -276.5863
   7   1.0000     -10.160738      -276.4877
   8   1.0000     -10.158070      -276.4151
   9   1.0000      -0.998696       -27.1759
  10   1.0000      -0.996412       -27.1138
  11   1.0000      -0.817462       -22.2443
  12   1.0000      -0.757638       -20.6164
  13   1.0000      -0.690052       -18.7773
  14   1.0000      -0.654882       -17.8203
  15   1.0000      -0.584066       -15.8932
  16   1.0000      -0.547599       -14.9009
  17   1.0000      -0.476375       -12.9628
  18   1.0000      -0.465289       -12.6611
  19   1.0000      -0.436874       -11.8880
  20   1.0000      -0.413249       -11.2451
  21   1.0000      -0.405226       -11.0267
  22   1.0000      -0.399190       -10.8625
  23   1.0000      -0.384775       -10.4703
  24   1.0000      -0.375257       -10.2113
  25   1.0000      -0.362218        -9.8564
  26   1.0000      -0.350526        -9.5383
  27   1.0000      -0.348084        -9.4718
  28   1.0000      -0.256724        -6.9858
  29   1.0000      -0.247695        -6.7401
  30   1.0000      -0.242582        -6.6010
  31   1.0000      -0.239045        -6.5047
  32   0.0000      -0.093648        -2.5483
  33   0.0000       0.001606         0.0437
  34   0.0000       0.006121         0.1666
  35   0.0000       0.013400         0.3646
  36   0.0000       0.017869         0.4862

MULLIKEN ATOMIC CHARGES AND SPIN POPULATIONS
--------------------------------------------
   0 C :    1.035855    0.112676
   1 C :   -0.581287    0.099297
   2 C :   -0.870897    0.068686
   3 H :    0.426148   -0.002979
   4 H :    0.230595   -0.000674
   5 C :   -0.681008    0.066701
   6 C :    0.923390    0.081749
   7 H :    0.467455    0.001124
   8 C :    0.568192    0.116775
   9 O :   -1.155349    0.234512
  10 O :   -1.151688    0.224432
  11 C :   -0.807335   -0.012053
  12 H :    0.203349    0.005297
  13 H :    0.203797    0.005321
  14 H :    0.188782   -0.000863
Sum of atomic charges         :   -1.0000000

LOEWDIN ATOMIC CHARGES AND SPIN POPULATIONS
-------------------------------------------
   0 C :   -0.702517    0.123251
   1 C :    0.140423    0.084514
   2 C :    0.165703    0.060840
   3 H :   -0.193588    0.009670
   4 H :   -0.188183    0.005128
   5 C :    0.145327    0.079500
   6 C :   -0.175804    0.072539
   7 H :   -0.192836    0.007580
   8 C :   -0.668833    0.131221
   9 O :    0.340880    0.209681
  10 O :    0.304510    0.203313
  11 C :    0.524028    0.008421
  12 H :   -0.165665    0.002316
  13 H :   -0.165679    0.002318
  14 H :   -0.167766   -0.000291

  Mayer bond orders larger than 0.100000
B(  0-C ,  1-C ) :   0.9850 B(  0-C ,  2-C ) :   0.9523 B(  0-C ,  5-C ) :  -0.1519
B(  0-C , 10-O ) :   0.3969 B(  1-C ,  2-C ) :   0.3110 B(  1-C ,  3-H ) :   0.5250
B(  1-C ,  5-C ) :   1.4381 B(  1-C ,  8-C ) :  -0.1215 B(  1-C , 10-O ) :   0.1741
B(  2-C ,  4-H ) :   0.8032 B(  2-C ,  5-C ) :  -0.1261 B(  2-C ,  6-C ) :   0.9745
B(  2-C , 10-O ) :   0.1120 B(  4-H , 10-O ) :   0.1012 B(  5-C ,  6-C ) :   0.2584
B(  5-C ,  7-H ) :   0.4418 B(  5-C ,  8-C ) :   1.1421 B(  5-C ,  9-O ) :   0.1839
B(  6-C ,  8-C ) :   0.9981 B(  6-C , 10-O ) :   0.1053 B(  6-C , 11-C ) :   0.3782
B(  8-C ,  9-O ) :   0.4715 B(  8-C , 11-C ) :   0.2112 B( 11-C , 12-H ) :   0.9868
B( 11-C , 13-H ) :   0.9863 B( 11-C , 14-H ) :   1.0074

Dispersion correction           -0.026443550
FINAL SINGLE POINT ENERGY      -420.881406718323

DIPOLE MOMENT
-------------

Method             : SCF
Type of density    : Electron Density
Multiplicity       :   2
Irrep              :   0
Energy             :  -420.8549631682645327 Eh
Relativity type    :
Basis              : AO
                                X                 Y                 Z
Electronic contribution:     -3.361818695      -1.054567778      -2.019428800
Nuclear contribution   :      4.080055806       1.268229623       2.595706688
                        -----------------------------------------
Total Dipole Moment    :      0.718237112       0.213661845       0.576277888
                        -----------------------------------------
Magnitude (a.u.)       :      0.945310604
Magnitude (Debye)      :      2.402788602

Rotational constants in cm-1:             0.102982             0.046318             0.032139
Rotational constants in MHz :          3087.332210          1388.578907           963.495969

                             ****ORCA TERMINATED NORMALLY****
TOTAL RUN TIME: 0 days 0 hours 3 minutes 23 seconds 453 msec
