                         Program Version 6.0.0  -   RELEASE  -
|  1> !r2SCANh aug-cc-pVTZ d3 TightSCF SlowConv RIJCOSX defgrid2
|  2>
|  3> %pal
|  4> nprocs 4
|  5> end
|  6>
|  7> %scf
|  8> MaxIter 1500
|  9> end
| 10>
| 11> %maxcore 3000
| 12>
| 13> !CPCM
| 14> %cpcm smd true
| 15> SMDsolvent "MeCN"
| 16> surfacetype gepol_ses
| 17> rsolv 2.19
| 18> end
| 19>
| 20> * xyz 0 1
| 21> C           1.36094883267894     -0.66831836744035      0.79166505304401
| 22> C           2.61668489634387     -1.26993624441883      0.83762450630671
| 23> C           3.69751463551123     -0.71498852855237      0.15220113395429
| 24> C           3.51411500210824      0.45521897470958     -0.58452696169930
| 25> C           2.26200602044100      1.06208181225052     -0.64510108123094
| 26> C           1.18681200151517      0.49836983896063      0.04263488062587
| 27> O          -0.00001482572359      1.16979071588351      0.00005454238981
| 28> C          -1.18682038085230      0.49834069380338     -0.04260530375666
| 29> C          -2.26210069770780      1.06211241497205      0.64495038697290
| 30> C          -3.51419441314783      0.45522857582203      0.58430306316011
| 31> C          -3.69749941395526     -0.71506183581738     -0.15231803955518
| 32> C          -2.61658550079969     -1.27006941979564     -0.83755825340367
| 33> C          -1.36085917884001     -0.66843361449673     -0.79152524362506
| 34> H          -0.51558365320611     -1.09715909206061     -1.33585483016717
| 35> H          -2.75062021450227     -2.18281812892327     -1.42596293506599
| 36> H          -4.68044516686291     -1.19217947086648     -0.19470697547587
| 37> H          -4.35472302990288      0.90118829684160      1.12448028512422
| 38> H          -2.09557313650778      1.97752399950586      1.21789909020225
| 39> H           2.09540249638844      1.97742680661202     -1.21813253528145
| 40> H           4.35457955862348      0.90113009122578     -1.12484535245104
| 41> H           4.68047118965145     -1.19208889118135      0.19453111833043
| 42> H           2.75079772312689     -2.18261728806241      1.42611640363857
| 43> H           0.51573555561975     -1.09698553897151      1.33613674796315
| 44> *
| 45>
| 46>                          ****END OF INPUT****

CARTESIAN COORDINATES (ANGSTROEM)
---------------------------------
  C      1.360949   -0.668318    0.791665
  C      2.616685   -1.269936    0.837625
  C      3.697515   -0.714989    0.152201
  C      3.514115    0.455219   -0.584527
  C      2.262006    1.062082   -0.645101
  C      1.186812    0.498370    0.042635
  O     -0.000015    1.169791    0.000055
  C     -1.186820    0.498341   -0.042605
  C     -2.262101    1.062112    0.644950
  C     -3.514194    0.455229    0.584303
  C     -3.697499   -0.715062   -0.152318
  C     -2.616586   -1.270069   -0.837558
  C     -1.360859   -0.668434   -0.791525
  H     -0.515584   -1.097159   -1.335855
  H     -2.750620   -2.182818   -1.425963
  H     -4.680445   -1.192179   -0.194707
  H     -4.354723    0.901188    1.124480
  H     -2.095573    1.977524    1.217899
  H      2.095402    1.977427   -1.218133
  H      4.354580    0.901130   -1.124845
  H      4.680471   -1.192089    0.194531
  H      2.750798   -2.182617    1.426116
  H      0.515736   -1.096986    1.336137

 Total Charge           Charge          ....    0
 Multiplicity           Mult            ....    1
 Number of Electrons    NEL             ....   90
 Basis Dimension        Dim             ....  828

ORBITAL ENERGIES
----------------

  NO   OCC          E(Eh)            E(eV)
   0   2.0000     -19.167816      -521.5828
   1   2.0000     -10.227853      -278.3140
   2   2.0000     -10.227831      -278.3134
   3   2.0000     -10.165924      -276.6289
   4   2.0000     -10.165910      -276.6285
   5   2.0000     -10.165683      -276.6223
   6   2.0000     -10.165666      -276.6218
   7   2.0000     -10.163560      -276.5645
   8   2.0000     -10.163544      -276.5641
   9   2.0000     -10.162022      -276.5227
  10   2.0000     -10.162005      -276.5222
  11   2.0000     -10.158877      -276.4371
  12   2.0000     -10.158864      -276.4368
  13   2.0000      -1.100598       -29.9488
  14   2.0000      -0.867748       -23.6126
  15   2.0000      -0.852705       -23.2033
  16   2.0000      -0.769832       -20.9482
  17   2.0000      -0.753205       -20.4957
  18   2.0000      -0.749183       -20.3863
  19   2.0000      -0.725837       -19.7510
  20   2.0000      -0.637753       -17.3541
  21   2.0000      -0.615732       -16.7549
  22   2.0000      -0.603592       -16.4246
  23   2.0000      -0.575899       -15.6710
  24   2.0000      -0.542327       -14.7575
  25   2.0000      -0.501391       -13.6435
  26   2.0000      -0.479314       -13.0428
  27   2.0000      -0.473428       -12.8826
  28   2.0000      -0.465441       -12.6653
  29   2.0000      -0.434659       -11.8277
  30   2.0000      -0.430787       -11.7223
  31   2.0000      -0.413931       -11.2636
  32   2.0000      -0.413249       -11.2451
  33   2.0000      -0.400286       -10.8923
  34   2.0000      -0.395345       -10.7579
  35   2.0000      -0.364657        -9.9228
  36   2.0000      -0.355285        -9.6678
  37   2.0000      -0.349151        -9.5009
  38   2.0000      -0.348225        -9.4757
  39   2.0000      -0.326892        -8.8952
  40   2.0000      -0.322582        -8.7779
  41   2.0000      -0.261608        -7.1187
  42   2.0000      -0.255460        -6.9514
  43   2.0000      -0.252777        -6.8784
  44   2.0000      -0.220435        -5.9984
  45   0.0000      -0.037049        -1.0082
  46   0.0000      -0.029649        -0.8068
  47   0.0000      -0.021822        -0.5938
  48   0.0000      -0.010204        -0.2777
  49   0.0000       0.008905         0.2423

MULLIKEN ATOMIC CHARGES
-----------------------
   0 C :   -0.452117
   1 C :   -0.614277
   2 C :   -0.511125
   3 C :   -0.402372
   4 C :   -1.312674
   5 C :    1.461537
   6 O :   -0.817641
   7 C :    1.458537
   8 C :   -1.311370
   9 C :   -0.406264
  10 C :   -0.513302
  11 C :   -0.614042
  12 C :   -0.450825
  13 H :    0.533161
  14 H :    0.365410
  15 H :    0.466418
  16 H :    0.382964
  17 H :    0.496913
  18 H :    0.498853
  19 H :    0.376718
  20 H :    0.466788
  21 H :    0.363946
  22 H :    0.534765
Sum of atomic charges:   -0.0000000

LOEWDIN ATOMIC CHARGES
----------------------
   0 C :    0.197019
   1 C :    0.184380
   2 C :    0.179393
   3 C :    0.178041
   4 C :    0.201991
   5 C :   -0.404297
   6 O :    0.618881
   7 C :   -0.404353
   8 C :    0.201950
   9 C :    0.178036
  10 C :    0.179408
  11 C :    0.184387
  12 C :    0.197002
  13 H :   -0.165161
  14 H :   -0.168050
  15 H :   -0.175169
  16 H :   -0.169368
  17 H :   -0.168150
  18 H :   -0.168155
  19 H :   -0.169383
  20 H :   -0.175181
  21 H :   -0.168061
  22 H :   -0.165161

  Mayer bond orders larger than 0.100000
B(  0-C ,  1-C ) :   1.0849 B(  0-C ,  3-C ) :  -0.1190 B(  0-C ,  4-C ) :   0.4164
B(  0-C ,  5-C ) :   0.8318 B(  0-C ,  7-C ) :  -0.1111 B(  0-C , 12-C ) :   0.3206
B(  0-C , 22-H ) :   0.4086 B(  1-C ,  2-C ) :   1.1807 B(  1-C ,  4-C ) :  -0.2223
B(  1-C ,  5-C ) :  -0.2837 B(  1-C , 21-H ) :   0.8251 B(  2-C ,  3-C ) :   1.1825
B(  2-C ,  4-C ) :   0.4677 B(  2-C ,  5-C ) :  -0.1461 B(  2-C , 20-H ) :   0.6239
B(  3-C ,  4-C ) :   1.2179 B(  3-C ,  5-C ) :  -0.3322 B(  3-C , 19-H ) :   0.7927
B(  4-C ,  6-O ) :   0.1715 B(  4-C , 18-H ) :   0.3044 B(  5-C ,  6-O ) :   0.5060
B(  5-C , 12-C ) :  -0.1105 B(  6-O ,  7-C ) :   0.5040 B(  6-O ,  8-C ) :   0.1721
B(  7-C ,  9-C ) :  -0.3315 B(  7-C , 10-C ) :  -0.1448 B(  7-C , 11-C ) :  -0.2821
B(  7-C , 12-C ) :   0.8318 B(  8-C ,  9-C ) :   1.2161 B(  8-C , 10-C ) :   0.4665
B(  8-C , 11-C ) :  -0.2243 B(  8-C , 12-C ) :   0.4144 B(  8-C , 17-H ) :   0.3069
B(  9-C , 10-C ) :   1.1838 B(  9-C , 12-C ) :  -0.1200 B(  9-C , 16-H ) :   0.7844
B( 10-C , 11-C ) :   1.1811 B( 10-C , 15-H ) :   0.6251 B( 11-C , 12-C ) :   1.0849
B( 11-C , 14-H ) :   0.8216 B( 12-C , 13-H ) :   0.4101

Dispersion correction           -0.008632799
FINAL SINGLE POINT ENERGY      -538.393871478606

DIPOLE MOMENT
-------------

Method             : SCF
Type of density    : Electron Density
Multiplicity       :   1
Irrep              :   0
Energy             :  -538.3852386793366804 Eh
Relativity type    :
Basis              : AO
                                X                 Y                 Z
Electronic contribution:     -0.000242196       2.486268058      -0.000177370
Nuclear contribution   :      0.000034886      -2.982425974      -0.000176877
                        -----------------------------------------
Total Dipole Moment    :     -0.000207310      -0.496157916      -0.000354246
                        -----------------------------------------
Magnitude (a.u.)       :      0.496158086
Magnitude (Debye)      :      1.261133631

Rotational constants in cm-1:             0.080234             0.014509             0.013552
Rotational constants in MHz :          2405.352266           434.979833           406.266844

                             ****ORCA TERMINATED NORMALLY****
TOTAL RUN TIME: 0 days 0 hours 10 minutes 46 seconds 700 msec
