                         Program Version 6.0.0  -   RELEASE  -
|  1> !PBE0 aug-cc-pVTZ d3 TightSCF SlowConv RIJCOSX defgrid2
|  2>
|  3> %pal
|  4> nprocs 15
|  5> end
|  6>
|  7> %scf
|  8> MaxIter 1500
|  9> end
| 10>
| 11> %maxcore 3500
| 12>
| 13> !CPCM
| 14> %cpcm smd true
| 15> SMDsolvent "WATER"
| 16> surfacetype gepol_ses
| 17> rsolv 1.40
| 18> end
| 19>
| 20> * xyz 0 2
| 21> O           1.91470638718140      3.68438074947034      1.42427791228666
| 22> N           2.68096308945993      2.69375168448893      1.26769968685529
| 23> C           3.77391580515862      2.86611617790763      0.27680202232567
| 24> C           4.43155802114185      1.51994211991304     -0.03530115296342
| 25> C           4.73340248947632      0.69829774992947      1.21810391563609
| 26> C           3.42519309826840      0.42580302914814      1.94119980726915
| 27> C           2.70579217610673      1.70523956651208      2.37690104523736
| 28> C           4.79322172800676      3.87508980195447      0.82020172066500
| 29> C           3.14425995359759      3.42149633811360     -0.99940045320580
| 30> C           3.37488386456858      2.34129799708755      3.60196963848657
| 31> C           1.25335355183061      1.37175446215543      2.71392471745753
| 32> H           5.35765292922926      1.70556085241930     -0.60472877121535
| 33> H           3.75876551381861      0.92933792835036     -0.68368429967338
| 34> H           5.42888308378114      1.26691647113913      1.85777249757383
| 35> H           3.58597216229996     -0.20127854132091      2.83446428065128
| 36> H           2.76741452667512     -0.15000338556619      1.26812064668017
| 37> H           4.26369527400293      4.78489567317599      1.14666574670165
| 38> H           5.36148593564960      3.47818359531948      1.67676804635832
| 39> H           5.51454614342091      4.14822445029490      0.03143381287120
| 40> H           2.68677781882656      4.40345192403324     -0.80882149057439
| 41> H           2.35856298596588      2.74147992136098     -1.37017141185833
| 42> H           3.91629839859089      3.52710620200660     -1.78046613000472
| 43> H           2.90751365674073      3.31881435496866      3.80391606383020
| 44> H           4.45686105296294      2.49742578329982      3.46040550353472
| 45> H           3.23836167981079      1.69582567705536      4.48654381685627
| 46> H           0.71883159023383      2.26983495660360      3.05695397631866
| 47> H           0.73234928593055      0.97814208936524      1.82472152714422
| 48> H           1.22257422130559      0.60584599485455      3.50731645957130
| 49> C           5.50980399137963     -0.53351097116185      0.81636396333535
| 50> O           6.67868338961729     -0.53392563796249      0.53412674849617
| 51> O           4.75697757690545     -1.64256703152170      0.76161649704885
| 52> H           5.34368613905548     -2.36501696039479      0.46736191230387
| 53> *
| 54>
| 55>                          ****END OF INPUT****

CARTESIAN COORDINATES (ANGSTROEM)
---------------------------------
  O      1.914706    3.684381    1.424278
  N      2.680963    2.693752    1.267700
  C      3.773916    2.866116    0.276802
  C      4.431558    1.519942   -0.035301
  C      4.733402    0.698298    1.218104
  C      3.425193    0.425803    1.941200
  C      2.705792    1.705240    2.376901
  C      4.793222    3.875090    0.820202
  C      3.144260    3.421496   -0.999400
  C      3.374884    2.341298    3.601970
  C      1.253354    1.371754    2.713925
  H      5.357653    1.705561   -0.604729
  H      3.758766    0.929338   -0.683684
  H      5.428883    1.266916    1.857772
  H      3.585972   -0.201279    2.834464
  H      2.767415   -0.150003    1.268121
  H      4.263695    4.784896    1.146666
  H      5.361486    3.478184    1.676768
  H      5.514546    4.148224    0.031434
  H      2.686778    4.403452   -0.808821
  H      2.358563    2.741480   -1.370171
  H      3.916298    3.527106   -1.780466
  H      2.907514    3.318814    3.803916
  H      4.456861    2.497426    3.460406
  H      3.238362    1.695826    4.486544
  H      0.718832    2.269835    3.056954
  H      0.732349    0.978142    1.824722
  H      1.222574    0.605846    3.507316
  C      5.509804   -0.533511    0.816364
  O      6.678683   -0.533926    0.534127
  O      4.756978   -1.642567    0.761616
  H      5.343686   -2.365017    0.467362

 Total Charge           Charge          ....    0
 Multiplicity           Mult            ....    2
 Number of Electrons    NEL             ....  109
 Basis Dimension        Dim             .... 1058

ORBITAL ENERGIES
----------------
                 SPIN UP ORBITALS
  NO   OCC          E(Eh)            E(eV)
   0   1.0000     -19.262039      -524.1467
   1   1.0000     -19.215935      -522.8922
   2   1.0000     -19.209992      -522.7305
   3   1.0000     -14.485643      -394.1744
   4   1.0000     -10.366121      -282.0765
   5   1.0000     -10.278730      -279.6985
   6   1.0000     -10.277745      -279.6717
   7   1.0000     -10.247460      -278.8476
   8   1.0000     -10.233035      -278.4550
   9   1.0000     -10.227929      -278.3161
  10   1.0000     -10.214373      -277.9472
  11   1.0000     -10.214003      -277.9371
  12   1.0000     -10.211622      -277.8723
  13   1.0000     -10.211073      -277.8574
  14   1.0000      -1.149914       -31.2908
  15   1.0000      -1.147902       -31.2360
  16   1.0000      -1.059277       -28.8244
  17   1.0000      -0.906793       -24.6751
  18   1.0000      -0.849929       -23.1277
  19   1.0000      -0.821349       -22.3500
  20   1.0000      -0.744896       -20.2697
  21   1.0000      -0.714730       -19.4488
  22   1.0000      -0.706964       -19.2375
  23   1.0000      -0.703638       -19.1470
  24   1.0000      -0.681882       -18.5549
  25   1.0000      -0.621010       -16.8985
  26   1.0000      -0.612083       -16.6556
  27   1.0000      -0.545896       -14.8546
  28   1.0000      -0.526389       -14.3238
  29   1.0000      -0.519310       -14.1311
  30   1.0000      -0.512642       -13.9497
  31   1.0000      -0.503475       -13.7002
  32   1.0000      -0.496140       -13.5007
  33   1.0000      -0.475001       -12.9254
  34   1.0000      -0.466238       -12.6870
  35   1.0000      -0.450370       -12.2552
  36   1.0000      -0.440535       -11.9876
  37   1.0000      -0.432724       -11.7750
  38   1.0000      -0.422758       -11.5038
  39   1.0000      -0.415988       -11.3196
  40   1.0000      -0.401205       -10.9173
  41   1.0000      -0.398317       -10.8387
  42   1.0000      -0.383771       -10.4429
  43   1.0000      -0.381614       -10.3842
  44   1.0000      -0.375667       -10.2224
  45   1.0000      -0.368541       -10.0285
  46   1.0000      -0.365246        -9.9389
  47   1.0000      -0.354880        -9.6568
  48   1.0000      -0.351801        -9.5730
  49   1.0000      -0.344957        -9.3868
  50   1.0000      -0.340782        -9.2732
  51   1.0000      -0.333364        -9.0713
  52   1.0000      -0.301540        -8.2053
  53   1.0000      -0.281703        -7.6655
  54   1.0000      -0.217081        -5.9071
  55   0.0000      -0.000780        -0.0212
  56   0.0000       0.001223         0.0333
  57   0.0000       0.011737         0.3194
  58   0.0000       0.014468         0.3937
  59   0.0000       0.016188         0.4405

                 SPIN DOWN ORBITALS
  NO   OCC          E(Eh)            E(eV)
   0   1.0000     -19.262039      -524.1467
   1   1.0000     -19.209992      -522.7305
   2   1.0000     -19.202883      -522.5370
   3   1.0000     -14.472613      -393.8198
   4   1.0000     -10.366112      -282.0763
   5   1.0000     -10.279186      -279.7109
   6   1.0000     -10.278200      -279.6840
   7   1.0000     -10.247480      -278.8481
   8   1.0000     -10.232988      -278.4538
   9   1.0000     -10.227883      -278.3148
  10   1.0000     -10.213686      -277.9285
  11   1.0000     -10.213317      -277.9185
  12   1.0000     -10.211368      -277.8655
  13   1.0000     -10.210819      -277.8505
  14   1.0000      -1.149885       -31.2900
  15   1.0000      -1.123282       -30.5661
  16   1.0000      -1.059277       -28.8244
  17   1.0000      -0.897878       -24.4325
  18   1.0000      -0.848597       -23.0915
  19   1.0000      -0.815104       -22.1801
  20   1.0000      -0.730505       -19.8780
  21   1.0000      -0.712124       -19.3779
  22   1.0000      -0.706574       -19.2269
  23   1.0000      -0.702359       -19.1122
  24   1.0000      -0.679730       -18.4964
  25   1.0000      -0.617755       -16.8100
  26   1.0000      -0.611250       -16.6330
  27   1.0000      -0.539413       -14.6782
  28   1.0000      -0.524393       -14.2695
  29   1.0000      -0.518183       -14.1005
  30   1.0000      -0.506922       -13.7941
  31   1.0000      -0.493640       -13.4326
  32   1.0000      -0.478366       -13.0170
  33   1.0000      -0.466564       -12.6958
  34   1.0000      -0.459423       -12.5015
  35   1.0000      -0.449790       -12.2394
  36   1.0000      -0.439887       -11.9699
  37   1.0000      -0.430162       -11.7053
  38   1.0000      -0.415747       -11.3131
  39   1.0000      -0.413407       -11.2494
  40   1.0000      -0.397296       -10.8110
  41   1.0000      -0.396481       -10.7888
  42   1.0000      -0.379640       -10.3305
  43   1.0000      -0.375389       -10.2149
  44   1.0000      -0.374033       -10.1780
  45   1.0000      -0.364993        -9.9320
  46   1.0000      -0.358418        -9.7530
  47   1.0000      -0.353927        -9.6308
  48   1.0000      -0.344983        -9.3875
  49   1.0000      -0.343353        -9.3431
  50   1.0000      -0.337436        -9.1821
  51   1.0000      -0.321460        -8.7474
  52   1.0000      -0.301355        -8.2003
  53   1.0000      -0.271706        -7.3935
  54   0.0000      -0.055888        -1.5208
  55   0.0000      -0.000691        -0.0188
  56   0.0000       0.001580         0.0430
  57   0.0000       0.012307         0.3349
  58   0.0000       0.014646         0.3985

MULLIKEN ATOMIC CHARGES AND SPIN POPULATIONS
--------------------------------------------
   0 O :   -1.098790    0.487564
   1 N :    0.301302    0.494045
   2 C :    2.339206   -0.025757
   3 C :   -1.100100   -0.007531
   4 C :    0.925128   -0.003763
   5 C :   -0.622508   -0.008332
   6 C :    2.201519   -0.034028
   7 C :   -1.343538    0.030571
   8 C :   -1.487238    0.012313
   9 C :   -1.338606    0.031946
  10 C :   -1.483589    0.013684
  11 H :    0.308506   -0.002402
  12 H :    0.188127    0.000582
  13 H :    0.194063    0.008752
  14 H :    0.429396   -0.002428
  15 H :    0.092066    0.003853
  16 H :    0.213626    0.002824
  17 H :    0.251643   -0.002504
  18 H :    0.076058    0.004794
  19 H :    0.218062   -0.004653
  20 H :    0.221139    0.001473
  21 H :    0.190843   -0.000790
  22 H :    0.195063    0.003317
  23 H :    0.271409   -0.002677
  24 H :    0.074642    0.004763
  25 H :    0.226112   -0.004721
  26 H :    0.221180    0.001325
  27 H :    0.182821   -0.000726
  28 C :    0.356502   -0.001426
  29 O :   -0.987062    0.000058
  30 O :   -0.441475   -0.000109
  31 H :    0.224492   -0.000016
Sum of atomic charges         :    0.0000000

LOEWDIN ATOMIC CHARGES AND SPIN POPULATIONS
-------------------------------------------
   0 O :    0.393698    0.437399
   1 N :   -0.103283    0.404957
   2 C :   -0.435914    0.041473
   3 C :    0.299750    0.002231
   4 C :   -0.033661    0.000284
   5 C :    0.287946    0.002186
   6 C :   -0.435746    0.041389
   7 C :    0.595354    0.019286
   8 C :    0.567950    0.004502
   9 C :    0.594714    0.019267
  10 C :    0.567135    0.004518
  11 H :   -0.110635   -0.000238
  12 H :   -0.111609    0.000877
  13 H :   -0.142355    0.000068
  14 H :   -0.106771   -0.000242
  15 H :   -0.132621    0.000860
  16 H :   -0.151060    0.001886
  17 H :   -0.165499    0.001805
  18 H :   -0.133746    0.005404
  19 H :   -0.172408   -0.000206
  20 H :   -0.142101    0.001061
  21 H :   -0.137306    0.000586
  22 H :   -0.152188    0.001883
  23 H :   -0.164342    0.001801
  24 H :   -0.134359    0.005400
  25 H :   -0.172678   -0.000202
  26 H :   -0.142437    0.001065
  27 H :   -0.137971    0.000587
  28 C :   -0.801534    0.000098
  29 O :    0.462434    0.000015
  30 O :    0.880961    0.000001
  31 H :   -0.429718   -0.000002

  Mayer bond orders larger than 0.100000
B(  0-O ,  1-N ) :   0.4638 B(  0-O ,  2-C ) :  -0.1297 B(  0-O ,  6-C ) :  -0.1152
B(  1-N ,  2-C ) :   0.6100 B(  1-N ,  3-C ) :   0.1522 B(  1-N ,  5-C ) :   0.1741
B(  1-N ,  6-C ) :   0.4926 B(  1-N ,  8-C ) :   0.2062 B(  1-N , 10-C ) :   0.2231
B(  2-C ,  3-C ) :   0.1199 B(  2-C ,  7-C ) :   0.1956 B(  2-C ,  8-C ) :  -0.2049
B(  2-C , 20-H ) :  -0.1713 B(  3-C ,  4-C ) :   0.9273 B(  3-C ,  5-C ) :   0.2215
B(  3-C , 11-H ) :   0.6465 B(  3-C , 12-H ) :   1.0733 B(  3-C , 28-C ) :   0.2203
B(  3-C , 29-O ) :   0.1675 B(  3-C , 30-O ) :   0.1126 B(  4-C ,  5-C ) :   1.1995
B(  4-C , 13-H ) :   0.8210 B(  4-C , 28-C ) :  -0.1049 B(  4-C , 29-O ) :  -0.1635
B(  5-C ,  6-C ) :   0.1509 B(  5-C , 14-H ) :   0.6401 B(  5-C , 15-H ) :   1.1083
B(  5-C , 28-C ) :  -0.2304 B(  5-C , 30-O ) :  -0.1713 B(  6-C ,  9-C ) :   0.2071
B(  6-C , 10-C ) :  -0.1995 B(  6-C , 26-H ) :  -0.1736 B(  7-C ,  8-C ) :   0.1749
B(  7-C , 16-H ) :   1.0088 B(  7-C , 17-H ) :   0.9871 B(  7-C , 18-H ) :   1.1862
B(  8-C , 19-H ) :   1.0102 B(  8-C , 20-H ) :   1.0693 B(  8-C , 21-H ) :   1.0555
B(  9-C , 10-C ) :   0.1682 B(  9-C , 22-H ) :   1.0348 B(  9-C , 23-H ) :   0.9707
B(  9-C , 24-H ) :   1.1839 B( 10-C , 25-H ) :   0.9953 B( 10-C , 26-H ) :   1.0702
B( 10-C , 27-H ) :   1.0634 B( 11-H , 29-O ) :   0.1210 B( 13-H , 28-C ) :  -0.1409
B( 28-C , 29-O ) :   0.9039 B( 28-C , 30-O ) :   0.9264 B( 29-O , 30-O ) :   0.1144
B( 30-O , 31-H ) :   0.9309

Dispersion correction           -0.033203233
FINAL SINGLE POINT ENERGY      -671.815675020167

DIPOLE MOMENT
-------------

Method             : SCF
Type of density    : Electron Density
Multiplicity       :   2
Irrep              :   0
Energy             :  -671.7824717869024198 Eh
Relativity type    :
Basis              : AO
                                X                 Y                 Z
Electronic contribution:      4.806600076      -8.547324530      -2.450975908
Nuclear contribution   :     -4.499370341       7.227471368       2.551456631
                        -----------------------------------------
Total Dipole Moment    :      0.307229734      -1.319853162       0.100480723
                        -----------------------------------------
Magnitude (a.u.)       :      1.358859394
Magnitude (Debye)      :      3.453946091

Rotational constants in cm-1:             0.032861             0.018000             0.014315
Rotational constants in MHz :           985.137825           539.637510           429.167318

                             ****ORCA TERMINATED NORMALLY****
TOTAL RUN TIME: 0 days 0 hours 25 minutes 37 seconds 511 msec
