                         Program Version 6.0.0  -   RELEASE  -
|  1> !r2SCAN opt aug-cc-pVTZ d3 TightSCF SlowConv RIJCOSX defgrid2
|  2>
|  3> %pal
|  4> nprocs 8
|  5> end
|  6>
|  7> %scf
|  8> MaxIter 1500
|  9> end
| 10>
| 11> %maxcore 3500
| 12>
| 13> !CPCM
| 14> %cpcm smd true
| 15> SMDsolvent "MeCN"
| 16> surfacetype gepol_ses
| 17> rsolv 2.19
| 18> end
| 19>
| 20> * xyz 0 1
| 21> C           2.43031351008729     -0.70749139029856      0.00001403239272
| 22> C           2.43032444825569      0.70745716976960      0.00001780057511
| 23> C           1.24225650957686      1.40066986227340      0.00001298600543
| 24> C           0.00000747832604      0.71479447718917      0.00000542687051
| 25> C          -1.24223111805275      1.40068893561610      0.00000324875952
| 26> C          -2.43030983452578      0.70749421287076     -0.00000358520312
| 27> C          -2.43032103578901     -0.70745426001962     -0.00000960120256
| 28> C          -1.24225352108494     -1.40066808823521     -0.00000641420954
| 29> C          -0.00000405709778     -0.71479302978643      0.00000150500237
| 30> C           1.24223524877496     -1.40068686163162      0.00000460886950
| 31> H           1.23824372924118     -2.49527550154318      0.00000243863973
| 32> H          -1.23827753101703     -2.49525698617010     -0.00000852848414
| 33> H          -3.38175156931066     -1.24754932619836     -0.00001429910497
| 34> H          -3.38173131512848      1.24760412689582     -0.00000496639229
| 35> H          -1.23823830440863      2.49527781567030      0.00000665226192
| 36> H           1.23827983240145      2.49525951167016      0.00001366019695
| 37> H           3.38175416757919      1.24755290950869      0.00002330946105
| 38> H           3.38173466217241     -1.24760147758094      0.00001812556182
| 39> *
| 40>
| 41>                          ****END OF INPUT****
 Total Charge           Charge          ....    0
 Multiplicity           Mult            ....    1
 Number of Electrons    NEL             ....   68
Dispersion correction           -0.006298504
FINAL SINGLE POINT ENERGY      -385.817259376360
Dispersion correction             ... done (  0.1 sec)
Dispersion correction           -0.006309506
FINAL SINGLE POINT ENERGY      -385.817838549875
Dispersion correction             ... done (  0.1 sec)
                    ***********************HURRAY********************

CARTESIAN COORDINATES (ANGSTROEM)
---------------------------------
  C      2.423966   -0.705912   -0.000217
  C      2.423978    0.705878   -0.000191
  C      1.238994    1.399600   -0.000071
  C      0.000007    0.715113    0.000007
  C     -1.238969    1.399619    0.000088
  C     -2.423964    0.705915    0.000202
  C     -2.423974   -0.705875    0.000223
  C     -1.238990   -1.399598    0.000103
  C     -0.000004   -0.715110    0.000002
  C      1.238972   -1.399617   -0.000102
  H      1.235758   -2.484420    0.000016
  H     -1.235792   -2.484401   -0.000023
  H     -3.366581   -1.240522   -0.000173
  H     -3.366563    1.240576   -0.000208
  H     -1.235754    2.484422   -0.000049
  H      1.235795    2.484403    0.000072
  H      3.366585    1.240524    0.000222
  H      3.366565   -1.240574    0.000176

 Multiplicity           Mult            ....    1
 Number of Electrons    NEL             ....   68
 Basis Dimension        Dim             ....  644

ORBITAL ENERGIES
----------------

  NO   OCC          E(Eh)            E(eV)
   0   2.0000     -10.051497      -273.5151
   1   2.0000     -10.051170      -273.5062
   2   2.0000     -10.040035      -273.2032
   3   2.0000     -10.040029      -273.2031
   4   2.0000     -10.039941      -273.2007
   5   2.0000     -10.039939      -273.2006
   6   2.0000     -10.039476      -273.1880
   7   2.0000     -10.039474      -273.1880
   8   2.0000     -10.039203      -273.1806
   9   2.0000     -10.039196      -273.1804
  10   2.0000      -0.844455       -22.9788
  11   2.0000      -0.790537       -21.5116
  12   2.0000      -0.743314       -20.2266
  13   2.0000      -0.710558       -19.3353
  14   2.0000      -0.687896       -18.7186
  15   2.0000      -0.594556       -16.1787
  16   2.0000      -0.580177       -15.7874
  17   2.0000      -0.564152       -15.3514
  18   2.0000      -0.482127       -13.1193
  19   2.0000      -0.476997       -12.9798
  20   2.0000      -0.461461       -12.5570
  21   2.0000      -0.413279       -11.2459
  22   2.0000      -0.409314       -11.1380
  23   2.0000      -0.384183       -10.4541
  24   2.0000      -0.383648       -10.4396
  25   2.0000      -0.373691       -10.1687
  26   2.0000      -0.365356        -9.9419
  27   2.0000      -0.335132        -9.1194
  28   2.0000      -0.312189        -8.4951
  29   2.0000      -0.304793        -8.2938
  30   2.0000      -0.296956        -8.0806
  31   2.0000      -0.272752        -7.4220
  32   2.0000      -0.235507        -6.4085
  33   2.0000      -0.207086        -5.6351
  34   0.0000      -0.071271        -1.9394
  35   0.0000      -0.042233        -1.1492
  36   0.0000      -0.011302        -0.3075
  37   0.0000       0.007729         0.2103
  38   0.0000       0.021330         0.5804

MULLIKEN ATOMIC CHARGES
-----------------------
   0 C :   -0.435340
   1 C :   -0.435370
   2 C :   -1.188488
   3 C :    2.001536
   4 C :   -1.188492
   5 C :   -0.435381
   6 C :   -0.435399
   7 C :   -1.188484
   8 C :    2.001611
   9 C :   -1.188514
  10 H :   -0.007838
  11 H :   -0.007777
  12 H :    0.630897
  13 H :    0.630893
  14 H :   -0.007823
  15 H :   -0.007830
  16 H :    0.630911
  17 H :    0.630887
Sum of atomic charges:    0.0000000

LOEWDIN ATOMIC CHARGES
----------------------
   0 C :    0.200443
   1 C :    0.200444
   2 C :    0.216284
   3 C :   -0.131103
   4 C :    0.216284
   5 C :    0.200444
   6 C :    0.200443
   7 C :    0.216284
   8 C :   -0.131103
   9 C :    0.216284
  10 H :   -0.171826
  11 H :   -0.171826
  12 H :   -0.179350
  13 H :   -0.179350
  14 H :   -0.171826
  15 H :   -0.171826
  16 H :   -0.179350
  17 H :   -0.179350

  Mayer bond orders larger than 0.100000
B(  0-C ,  1-C ) :   1.0329 B(  0-C ,  3-C ) :  -0.3552 B(  0-C ,  9-C ) :   1.1378
B(  0-C , 17-H ) :   0.2584 B(  1-C ,  2-C ) :   1.1378 B(  1-C ,  8-C ) :  -0.3552
B(  1-C , 16-H ) :   0.2584 B(  2-C ,  3-C ) :  -0.4436 B(  2-C ,  4-C ) :   0.5744
B(  2-C ,  8-C ) :  -0.3465 B(  2-C , 15-H ) :   1.4608 B(  2-C , 16-H ) :  -0.1946
B(  3-C ,  4-C ) :  -0.4436 B(  3-C ,  6-C ) :  -0.3552 B(  3-C ,  7-C ) :  -0.3464
B(  3-C ,  8-C ) :   1.4300 B(  3-C ,  9-C ) :  -0.3464 B(  3-C , 13-H ) :   0.1076
B(  3-C , 14-H ) :  -0.1635 B(  3-C , 15-H ) :  -0.1635 B(  3-C , 16-H ) :   0.1076
B(  4-C ,  5-C ) :   1.1378 B(  4-C ,  8-C ) :  -0.3465 B(  4-C , 13-H ) :  -0.1946
B(  4-C , 14-H ) :   1.4608 B(  5-C ,  6-C ) :   1.0329 B(  5-C ,  8-C ) :  -0.3552
B(  5-C , 13-H ) :   0.2584 B(  6-C ,  7-C ) :   1.1378 B(  6-C , 12-H ) :   0.2584
B(  7-C ,  8-C ) :  -0.4437 B(  7-C ,  9-C ) :   0.5744 B(  7-C , 11-H ) :   1.4607
B(  7-C , 12-H ) :  -0.1946 B(  8-C ,  9-C ) :  -0.4437 B(  8-C , 10-H ) :  -0.1635
B(  8-C , 11-H ) :  -0.1634 B(  8-C , 12-H ) :   0.1076 B(  8-C , 17-H ) :   0.1076
B(  9-C , 10-H ) :   1.4608 B(  9-C , 17-H ) :  -0.1947

Dispersion correction           -0.006310394
FINAL SINGLE POINT ENERGY      -385.817841314807

DIPOLE MOMENT
-------------

Method             : SCF
Type of density    : Electron Density
Multiplicity       :   1
Irrep              :   0
Energy             :  -385.8115309203962511 Eh
Relativity type    :
Basis              : AO
                                X                 Y                 Z
Electronic contribution:     -0.000002649      -0.000001184      -0.000001232
Nuclear contribution   :     -0.000000007      -0.000001019      -0.000000432
                        -----------------------------------------
Total Dipole Moment    :     -0.000002656      -0.000002202      -0.000001664
                        -----------------------------------------
Magnitude (a.u.)       :      0.000003831
Magnitude (Debye)      :      0.000009737

Rotational constants in cm-1:             0.104427             0.041328             0.029610
Rotational constants in MHz :          3130.649369          1238.992816           887.681857

                             ****ORCA TERMINATED NORMALLY****
TOTAL RUN TIME: 0 days 0 hours 5 minutes 31 seconds 445 msec
