                         Program Version 6.0.0  -   RELEASE  -
|  1> !r2SCAN opt aug-cc-pVTZ d3 TightSCF SlowConv RIJCOSX defgrid2
|  2>
|  3> %pal
|  4> nprocs 8
|  5> end
|  6>
|  7> %scf
|  8> MaxIter 1500
|  9> end
| 10>
| 11> %maxcore 3500
| 12>
| 13> !CPCM
| 14> %cpcm smd true
| 15> SMDsolvent "MeCN"
| 16> surfacetype gepol_ses
| 17> rsolv 2.19
| 18> end
| 19>
| 20> * xyz 0 1
| 21> C           2.39749463161436     -0.83149819893554      0.67669387485363
| 22> C           1.27172397639116     -0.40047992295486     -0.03969915484816
| 23> C           1.38259238776027      0.76303550152059     -0.81642324820039
| 24> C           2.58576374302039      1.45963699946448     -0.89073073539891
| 25> C           3.70030483512470      1.01412413753758     -0.17987702815859
| 26> C           3.60056124987950     -0.13306932613824      0.60654243714533
| 27> H           4.46466138277505     -0.48209902986176      1.17996120108222
| 28> H           4.64383968195764      1.56540648474814     -0.23276704782048
| 29> H           2.65415437190379      2.35888092106518     -1.51038356423303
| 30> H           0.51264382726920      1.11680700092055     -1.37721808377949
| 31> C          -0.00001123541006     -1.16417502511622     -0.00002273576044
| 32> C          -0.00001884782649     -2.50996676952303     -0.00003277235160
| 33> H          -0.93225135885572     -3.07886784376654      0.08064455143521
| 34> H           0.93220419630722     -3.07888213761201     -0.08071574786352
| 35> C          -1.27174210287451     -0.40047320911747      0.03966757754902
| 36> C          -2.39750985071673     -0.83146289450512     -0.67674719863415
| 37> C          -3.60057439169967     -0.13303092760862     -0.60657919634084
| 38> C          -3.70031659242385      1.01413981080717      0.17987332068473
| 39> C          -2.58577653905984      1.45962201354211      0.89074922577948
| 40> C          -1.38260956202413      0.76301589591316      0.81642903255360
| 41> H          -0.51266418903044      1.11676009652396      1.37724534040847
| 42> H          -2.65416367308445      2.35884547498639      1.51043035509866
| 43> H          -4.64384894904450      1.56542539828851      0.23277593005599
| 44> H          -4.46467229568686     -0.48204204645132     -1.18001194866167
| 45> H          -2.31694066862491     -1.71619568559047     -1.31480317865473
| 46> H           2.31692587235889     -1.71625071813661      1.31472229405965
| 47> *
| 48>
| 49>                          ****END OF INPUT****
 Total Charge           Charge          ....    0
 Multiplicity           Mult            ....    1
 Number of Electrons    NEL             ....   96
Dispersion correction           -0.010349950
FINAL SINGLE POINT ENERGY      -540.594775006611
Dispersion correction             ... done (  0.0 sec)
Dispersion correction           -0.010371014
FINAL SINGLE POINT ENERGY      -540.595727503545
Dispersion correction             ... done (  0.0 sec)
Dispersion correction           -0.010368768
FINAL SINGLE POINT ENERGY      -540.595732991480
Dispersion correction             ... done (  0.0 sec)
                    ***********************HURRAY********************

CARTESIAN COORDINATES (ANGSTROEM)
---------------------------------
  C      2.397999   -0.841705    0.664062
  C      1.271303   -0.392606   -0.035343
  C      1.382887    0.778971   -0.795075
  C      2.587856    1.465657   -0.870595
  C      3.702063    1.004465   -0.175591
  C      3.601155   -0.150519    0.594149
  H      4.459131   -0.508908    1.151092
  H      4.639365    1.545791   -0.226931
  H      2.656868    2.363662   -1.473480
  H      0.521937    1.144681   -1.342418
  C     -0.000009   -1.152559    0.000131
  C      0.000039   -2.494861    0.000078
  H     -0.922646   -3.058247    0.066175
  H      0.922766   -3.058172   -0.066094
  C     -1.271362   -0.392679    0.035551
  C     -2.397932   -0.841656   -0.664122
  C     -3.601047   -0.150369   -0.594463
  C     -3.702041    1.004604    0.175274
  C     -2.587986    1.465637    0.870609
  C     -1.383107    0.778803    0.795364
  H     -0.522341    1.144277    1.343144
  H     -2.657053    2.363607    1.473541
  H     -4.639298    1.546032    0.226377
  H     -4.458922   -0.508672   -1.151619
  H     -2.320871   -1.728975   -1.281606
  H      2.321018   -1.729051    1.281516

 Multiplicity           Mult            ....    1
 Number of Electrons    NEL             ....   96
 Basis Dimension        Dim             ....  920

ORBITAL ENERGIES
----------------

  NO   OCC          E(Eh)            E(eV)
   0   2.0000     -10.056368      -273.6477
   1   2.0000     -10.052837      -273.5516
   2   2.0000     -10.052834      -273.5515
   3   2.0000     -10.039875      -273.1989
   4   2.0000     -10.039847      -273.1981
   5   2.0000     -10.039494      -273.1885
   6   2.0000     -10.039490      -273.1884
   7   2.0000     -10.039223      -273.1812
   8   2.0000     -10.039218      -273.1810
   9   2.0000     -10.038992      -273.1748
  10   2.0000     -10.038990      -273.1748
  11   2.0000     -10.038521      -273.1620
  12   2.0000     -10.038517      -273.1619
  13   2.0000     -10.027931      -272.8739
  14   2.0000      -0.839528       -22.8447
  15   2.0000      -0.823170       -22.3996
  16   2.0000      -0.773959       -21.0605
  17   2.0000      -0.717938       -19.5361
  18   2.0000      -0.717559       -19.5258
  19   2.0000      -0.712138       -19.3782
  20   2.0000      -0.686499       -18.6806
  21   2.0000      -0.601099       -16.3567
  22   2.0000      -0.577918       -15.7260
  23   2.0000      -0.569726       -15.5030
  24   2.0000      -0.566574       -15.4173
  25   2.0000      -0.520083       -14.1522
  26   2.0000      -0.492237       -13.3944
  27   2.0000      -0.468789       -12.7564
  28   2.0000      -0.435614       -11.8537
  29   2.0000      -0.429777       -11.6948
  30   2.0000      -0.419340       -11.4108
  31   2.0000      -0.409987       -11.1563
  32   2.0000      -0.406951       -11.0737
  33   2.0000      -0.387793       -10.5524
  34   2.0000      -0.387242       -10.5374
  35   2.0000      -0.383735       -10.4420
  36   2.0000      -0.352916        -9.6033
  37   2.0000      -0.348749        -9.4899
  38   2.0000      -0.347186        -9.4474
  39   2.0000      -0.323911        -8.8141
  40   2.0000      -0.313271        -8.5245
  41   2.0000      -0.305510        -8.3133
  42   2.0000      -0.300768        -8.1843
  43   2.0000      -0.280865        -7.6427
  44   2.0000      -0.245166        -6.6713
  45   2.0000      -0.241439        -6.5699
  46   2.0000      -0.238891        -6.5005
  47   2.0000      -0.209458        -5.6996
  48   0.0000      -0.069459        -1.8901
  49   0.0000      -0.045816        -1.2467
  50   0.0000      -0.041328        -1.1246
  51   0.0000      -0.029866        -0.8127
  52   0.0000       0.004863         0.1323

MULLIKEN ATOMIC CHARGES
-----------------------
   0 C :   -1.222922
   1 C :    2.500740
   2 C :   -0.772484
   3 C :   -0.865630
   4 C :   -0.123953
   5 C :   -0.781498
   6 H :    0.482905
   7 H :    0.496150
   8 H :    0.466373
   9 H :   -0.032423
  10 C :    0.902666
  11 C :   -1.303296
  12 H :    0.195885
  13 H :    0.195966
  14 C :    2.500422
  15 C :   -1.222981
  16 C :   -0.781322
  17 C :   -0.123906
  18 C :   -0.865202
  19 C :   -0.771032
  20 H :   -0.035191
  21 H :    0.466662
  22 H :    0.495915
  23 H :    0.482935
  24 H :   -0.142418
  25 H :   -0.142362
Sum of atomic charges:   -0.0000000

LOEWDIN ATOMIC CHARGES
----------------------
   0 C :    0.211063
   1 C :   -0.143738
   2 C :    0.208459
   3 C :    0.204451
   4 C :    0.195094
   5 C :    0.202431
   6 H :   -0.177031
   7 H :   -0.178971
   8 H :   -0.176423
   9 H :   -0.169803
  10 C :   -0.143474
  11 C :    0.558553
  12 H :   -0.205473
  13 H :   -0.205474
  14 C :   -0.143726
  15 C :    0.211092
  16 C :    0.202454
  17 C :    0.195132
  18 C :    0.204492
  19 C :    0.208385
  20 H :   -0.169909
  21 H :   -0.176409
  22 H :   -0.178969
  23 H :   -0.177031
  24 H :   -0.177586
  25 H :   -0.177590

  Mayer bond orders larger than 0.100000
B(  0-C ,  1-C ) :  -0.2015 B(  0-C ,  2-C ) :  -0.7984 B(  0-C ,  4-C ) :  -0.1514
B(  0-C ,  5-C ) :   1.3177 B(  0-C ,  6-H ) :  -0.1573 B(  0-C ,  9-H ) :   0.1145
B(  0-C , 10-C ) :   0.3311 B(  0-C , 25-H ) :   1.8485 B(  1-C ,  2-C ) :   0.2541
B(  1-C ,  4-C ) :  -0.1444 B(  1-C ,  8-H ) :   0.1001 B(  1-C ,  9-H ) :  -0.1094
B(  1-C , 10-C ) :  -0.3148 B(  1-C , 11-C ) :  -0.3578 B(  1-C , 14-C ) :  -0.1871
B(  1-C , 25-H ) :  -0.1941 B(  2-C ,  3-C ) :   1.2505 B(  2-C ,  4-C ) :  -0.1200
B(  2-C ,  9-H ) :   1.5589 B(  2-C , 10-C ) :   0.2775 B(  2-C , 11-C ) :   0.1466
B(  2-C , 19-C ) :   0.1399 B(  3-C ,  4-C ) :   1.1901 B(  3-C ,  5-C ) :   0.2816
B(  3-C ,  8-H ) :   0.5007 B(  3-C , 25-H ) :  -0.1546 B(  4-C ,  5-C ) :   1.0594
B(  4-C ,  7-H ) :   0.5605 B(  4-C ,  9-H ) :  -0.1020 B(  4-C , 10-C ) :   0.1997
B(  5-C ,  6-H ) :   0.5153 B(  5-C ,  9-H ) :  -0.1274 B(  9-H , 25-H ) :   0.2148
B( 10-C , 11-C ) :   0.6754 B( 10-C , 14-C ) :  -0.3154 B( 10-C , 15-C ) :   0.3309
B( 10-C , 17-C ) :   0.2000 B( 10-C , 19-C ) :   0.2783 B( 10-C , 24-H ) :  -0.2252
B( 10-C , 25-H ) :  -0.2250 B( 11-C , 12-H ) :   1.0213 B( 11-C , 13-H ) :   1.0213
B( 11-C , 14-C ) :  -0.3575 B( 11-C , 19-C ) :   0.1467 B( 14-C , 15-C ) :  -0.2017
B( 14-C , 17-C ) :  -0.1444 B( 14-C , 19-C ) :   0.2560 B( 14-C , 20-H ) :  -0.1103
B( 14-C , 21-H ) :   0.1004 B( 14-C , 24-H ) :  -0.1940 B( 15-C , 16-C ) :   1.3178
B( 15-C , 17-C ) :  -0.1513 B( 15-C , 19-C ) :  -0.7985 B( 15-C , 20-H ) :   0.1152
B( 15-C , 23-H ) :  -0.1573 B( 15-C , 24-H ) :   1.8485 B( 16-C , 17-C ) :   1.0593
B( 16-C , 18-C ) :   0.2815 B( 16-C , 20-H ) :  -0.1274 B( 16-C , 23-H ) :   0.5152
B( 17-C , 18-C ) :   1.1901 B( 17-C , 19-C ) :  -0.1202 B( 17-C , 20-H ) :  -0.1021
B( 17-C , 22-H ) :   0.5609 B( 18-C , 19-C ) :   1.2517 B( 18-C , 21-H ) :   0.5004
B( 18-C , 24-H ) :  -0.1545 B( 19-C , 20-H ) :   1.5596 B( 20-H , 24-H ) :   0.2148

Dispersion correction           -0.010368136
FINAL SINGLE POINT ENERGY      -540.595734248098

DIPOLE MOMENT
-------------

Method             : SCF
Type of density    : Electron Density
Multiplicity       :   1
Irrep              :   0
Energy             :  -540.5853661123179563 Eh
Relativity type    :
Basis              : AO
                                X                 Y                 Z
Electronic contribution:     -0.000919649       0.634859193      -0.000580730
Nuclear contribution   :      0.000096145      -0.484487898      -0.000287289
                        -----------------------------------------
Total Dipole Moment    :     -0.000823504       0.150371295      -0.000868019
                        -----------------------------------------
Magnitude (a.u.)       :      0.150376055
Magnitude (Debye)      :      0.382225557

Rotational constants in cm-1:             0.053709             0.014016             0.012199
Rotational constants in MHz :          1610.167076           420.198030           365.716084

                             ****ORCA TERMINATED NORMALLY****
TOTAL RUN TIME: 0 days 0 hours 14 minutes 3 seconds 343 msec
