                         Program Version 6.0.0  -   RELEASE  -
|  1> !TPSSh aug-cc-pVTZ d3 TightSCF SlowConv RIJCOSX defgrid2
|  2>
|  3> %pal
|  4> nprocs 4
|  5> end
|  6>
|  7> %scf
|  8> MaxIter 1500
|  9> end
| 10>
| 11> %maxcore 3000
| 12>
| 13> !CPCM
| 14> %cpcm smd true
| 15> SMDsolvent "MeCN"
| 16> surfacetype gepol_ses
| 17> rsolv 2.19
| 18> end
| 19>
| 20> * xyz 1 2
| 21> C          -0.69806914174773     -1.08130758385803      0.00000478073461
| 22> C          -1.29995911913199      0.21220975823502      0.00000712364871
| 23> C          -0.48713495449795      1.39007645246692     -0.00001560397811
| 24> C           0.87407248196079      1.28097563070640     -0.00003015609287
| 25> C           1.48961473063931     -0.00988444370075     -0.00003464832734
| 26> C           0.66713129411178     -1.18242862965134     -0.00001675195059
| 27> H           1.14787115207094     -2.16374838611022     -0.00001833432844
| 28> C           2.87923367476782     -0.13303827989769     -0.00003947759998
| 29> C           4.09817372516796     -0.24492334399421     -0.00000244744274
| 30> H           5.17420938419188     -0.34031758843355     -0.00000256865577
| 31> H           1.50568477881681      2.17231925078041     -0.00004562485067
| 32> H          -0.99220253079888      2.35905562684180     -0.00001378344560
| 33> O          -2.58101948918323      0.42008257874155      0.00003691245038
| 34> C          -3.53711041258472     -0.64087278516494      0.00007811011347
| 35> H          -4.51842922650600     -0.15013878054896      0.00011237958636
| 36> H          -3.42139067434806     -1.25399713854605     -0.90847216906212
| 37> H          -3.42131652654994     -1.25398175148381      0.90862972609483
| 38> H          -1.31361454637877     -1.98259848638256      0.00002453310588
| 39> *
| 40>
| 41>                          ****END OF INPUT****

CARTESIAN COORDINATES (ANGSTROEM)
---------------------------------
  C     -0.698069   -1.081308    0.000005
  C     -1.299959    0.212210    0.000007
  C     -0.487135    1.390076   -0.000016
  C      0.874072    1.280976   -0.000030
  C      1.489615   -0.009884   -0.000035
  C      0.667131   -1.182429   -0.000017
  H      1.147871   -2.163748   -0.000018
  C      2.879234   -0.133038   -0.000039
  C      4.098174   -0.244923   -0.000002
  H      5.174209   -0.340318   -0.000003
  H      1.505685    2.172319   -0.000046
  H     -0.992203    2.359056   -0.000014
  O     -2.581019    0.420083    0.000037
  C     -3.537110   -0.640873    0.000078
  H     -4.518429   -0.150139    0.000112
  H     -3.421391   -1.253997   -0.908472
  H     -3.421317   -1.253982    0.908630
  H     -1.313615   -1.982598    0.000025

 Total Charge           Charge          ....    1
 Multiplicity           Mult            ....    2
 Number of Electrons    NEL             ....   69
 Basis Dimension        Dim             ....  644

ORBITAL ENERGIES
----------------
                 SPIN UP ORBITALS
  NO   OCC          E(Eh)            E(eV)
   0   1.0000     -19.160793      -521.3917
   1   1.0000     -10.247973      -278.8615
   2   1.0000     -10.204038      -277.6660
   3   1.0000     -10.185910      -277.1727
   4   1.0000     -10.171582      -276.7828
   5   1.0000     -10.169783      -276.7339
   6   1.0000     -10.166985      -276.6577
   7   1.0000     -10.165483      -276.6168
   8   1.0000     -10.165282      -276.6114
   9   1.0000     -10.161923      -276.5200
  10   1.0000      -1.125711       -30.6321
  11   1.0000      -0.889538       -24.2055
  12   1.0000      -0.814511       -22.1640
  13   1.0000      -0.782036       -21.2803
  14   1.0000      -0.762784       -20.7564
  15   1.0000      -0.720467       -19.6049
  16   1.0000      -0.643506       -17.5107
  17   1.0000      -0.627116       -17.0647
  18   1.0000      -0.568919       -15.4811
  19   1.0000      -0.551833       -15.0161
  20   1.0000      -0.517099       -14.0710
  21   1.0000      -0.515889       -14.0381
  22   1.0000      -0.502504       -13.6738
  23   1.0000      -0.461243       -12.5511
  24   1.0000      -0.447667       -12.1816
  25   1.0000      -0.435417       -11.8483
  26   1.0000      -0.417897       -11.3715
  27   1.0000      -0.417238       -11.3536
  28   1.0000      -0.384499       -10.4628
  29   1.0000      -0.380944       -10.3660
  30   1.0000      -0.347634        -9.4596
  31   1.0000      -0.325808        -8.8657
  32   1.0000      -0.305356        -8.3092
  33   1.0000      -0.295725        -8.0471
  34   1.0000      -0.257700        -7.0124
  35   0.0000      -0.093876        -2.5545
  36   0.0000      -0.062940        -1.7127
  37   0.0000      -0.013058        -0.3553
  38   0.0000      -0.008105        -0.2206
  39   0.0000       0.003337         0.0908

                 SPIN DOWN ORBITALS
  NO   OCC          E(Eh)            E(eV)
   0   1.0000     -19.155502      -521.2477
   1   1.0000     -10.245715      -278.8001
   2   1.0000     -10.199073      -277.5309
   3   1.0000     -10.186081      -277.1774
   4   1.0000     -10.171811      -276.7890
   5   1.0000     -10.167783      -276.6795
   6   1.0000     -10.164808      -276.5985
   7   1.0000     -10.164141      -276.5803
   8   1.0000     -10.163487      -276.5625
   9   1.0000     -10.162857      -276.5454
  10   1.0000      -1.116957       -30.3939
  11   1.0000      -0.883434       -24.0395
  12   1.0000      -0.807525       -21.9739
  13   1.0000      -0.780079       -21.2270
  14   1.0000      -0.756618       -20.5886
  15   1.0000      -0.713215       -19.4076
  16   1.0000      -0.639642       -17.4055
  17   1.0000      -0.623635       -16.9700
  18   1.0000      -0.566223       -15.4077
  19   1.0000      -0.548885       -14.9359
  20   1.0000      -0.515019       -14.0144
  21   1.0000      -0.513327       -13.9684
  22   1.0000      -0.485792       -13.2191
  23   1.0000      -0.458918       -12.4878
  24   1.0000      -0.446928       -12.1615
  25   1.0000      -0.433960       -11.8086
  26   1.0000      -0.416275       -11.3274
  27   1.0000      -0.403774       -10.9872
  28   1.0000      -0.383210       -10.4277
  29   1.0000      -0.364354        -9.9146
  30   1.0000      -0.345099        -9.3906
  31   1.0000      -0.304049        -8.2736
  32   1.0000      -0.301888        -8.2148
  33   1.0000      -0.290268        -7.8986
  34   0.0000      -0.205278        -5.5859
  35   0.0000      -0.071488        -1.9453
  36   0.0000      -0.052835        -1.4377
  37   0.0000      -0.010777        -0.2933
  38   0.0000      -0.007427        -0.2021

MULLIKEN ATOMIC CHARGES AND SPIN POPULATIONS
--------------------------------------------
   0 C :   -0.105680    0.076202
   1 C :    1.131335    0.160651
   2 C :   -0.506996    0.087146
   3 C :   -0.840223   -0.071385
   4 C :    1.203128    0.361704
   5 C :   -0.860291   -0.025927
   6 H :   -0.206743   -0.000037
   7 C :    1.257101   -0.117868
   8 C :   -0.554507    0.354226
   9 H :    0.112370   -0.007476
  10 H :   -0.200443    0.000005
  11 H :    0.476870    0.001394
  12 O :   -0.647808    0.167567
  13 C :   -0.241299   -0.014518
  14 H :    0.064895    0.001419
  15 H :    0.230978    0.010132
  16 H :    0.230782    0.010187
  17 H :    0.456532    0.006577
Sum of atomic charges         :    1.0000000

LOEWDIN ATOMIC CHARGES AND SPIN POPULATIONS
-------------------------------------------
   0 C :    0.283892    0.071160
   1 C :   -0.333270    0.126948
   2 C :    0.277700    0.075926
   3 C :    0.255759    0.031768
   4 C :   -0.155937    0.141255
   5 C :    0.264008    0.046841
   6 H :   -0.135423   -0.000030
   7 C :    0.053041    0.071722
   8 C :    0.506803    0.195727
   9 H :   -0.233091    0.044138
  10 H :   -0.138190   -0.003690
  11 H :   -0.141977    0.010805
  12 O :    0.660363    0.149344
  13 C :    0.432866    0.018366
  14 H :   -0.154010   -0.000222
  15 H :   -0.143650    0.005184
  16 H :   -0.143596    0.005184
  17 H :   -0.155287    0.009575

  Mayer bond orders larger than 0.100000
B(  0-C ,  1-C ) :   0.9728 B(  0-C ,  2-C ) :   0.1131 B(  0-C ,  4-C ) :   0.4315
B(  0-C ,  5-C ) :   1.5156 B(  0-C ,  7-C ) :  -0.1226 B(  0-C ,  8-C ) :  -0.1324
B(  0-C , 17-H ) :   0.4067 B(  1-C ,  2-C ) :   0.8886 B(  1-C ,  3-C ) :  -0.3391
B(  1-C ,  4-C ) :  -0.2045 B(  1-C ,  5-C ) :  -0.3183 B(  1-C ,  7-C ) :   0.2799
B(  1-C , 11-H ) :   0.1877 B(  1-C , 12-O ) :   0.2617 B(  1-C , 17-H ) :   0.1517
B(  2-C ,  3-C ) :   1.7034 B(  2-C ,  4-C ) :   0.3726 B(  2-C ,  8-C ) :  -0.1080
B(  2-C , 11-H ) :   0.3543 B(  2-C , 12-O ) :   0.3649 B(  3-C ,  4-C ) :   0.5580
B(  3-C ,  5-C ) :  -0.4061 B(  3-C ,  6-H ) :   0.1256 B(  3-C ,  7-C ) :   0.2586
B(  3-C , 10-H ) :   1.5672 B(  4-C ,  5-C ) :   0.5197 B(  4-C ,  7-C ) :   0.1512
B(  4-C ,  8-C ) :   0.5251 B(  4-C , 10-H ) :   0.2105 B(  4-C , 12-O ) :   0.1269
B(  5-C ,  6-H ) :   1.6494 B(  5-C ,  7-C ) :   0.2114 B(  5-C , 10-H ) :   0.1151
B(  6-H ,  7-C ) :  -0.2165 B(  6-H ,  8-C ) :  -0.2087 B(  6-H , 10-H ) :   0.3452
B(  7-C ,  8-C ) :   1.5385 B(  7-C ,  9-H ) :  -0.3953 B(  7-C , 10-H ) :  -0.2956
B(  8-C ,  9-H ) :   1.4388 B(  8-C , 10-H ) :  -0.1983 B(  8-C , 11-H ) :   0.1022
B(  8-C , 17-H ) :   0.1643 B( 12-O , 13-C ) :   0.9525 B( 13-C , 14-H ) :   1.0588
B( 13-C , 15-H ) :   0.9012 B( 13-C , 16-H ) :   0.9015

Dispersion correction           -0.021279694
FINAL SINGLE POINT ENERGY      -422.918024045605

DIPOLE MOMENT
-------------

Method             : SCF
Type of density    : Electron Density
Multiplicity       :   2
Irrep              :   0
Energy             :  -422.8967443515458626 Eh
Relativity type    :
Basis              : AO
                                X                 Y                 Z
Electronic contribution:      5.224919540       1.748267633       0.000014445
Nuclear contribution   :     -5.555943012      -2.398496713       0.000189114
                        -----------------------------------------
Total Dipole Moment    :     -0.331023472      -0.650229080       0.000203560
                        -----------------------------------------
Magnitude (a.u.)       :      0.729639936
Magnitude (Debye)      :      1.854597331

Rotational constants in cm-1:             0.157571             0.023827             0.020782
Rotational constants in MHz :          4723.848433           714.307245           623.028150

                             ****ORCA TERMINATED NORMALLY****
TOTAL RUN TIME: 0 days 0 hours 8 minutes 4 seconds 763 msec
