                         Program Version 6.0.0  -   RELEASE  -
|  1> !r2SCAN aug-cc-pVTZ d3 TightSCF SlowConv RIJCOSX defgrid2
|  2>
|  3> %pal
|  4> nprocs 4
|  5> end
|  6>
|  7> %scf
|  8> MaxIter 1500
|  9> end
| 10>
| 11> %maxcore 3000
| 12>
| 13> !CPCM
| 14> %cpcm smd true
| 15> SMDsolvent "MeCN"
| 16> surfacetype gepol_ses
| 17> rsolv 2.19
| 18> end
| 19>
| 20> * xyz 0 1
| 21> C           0.42903816797988     -1.14370342260353     -0.19375133840947
| 22> N           1.23090536349830     -0.00018108549555      0.21241157549017
| 23> H           1.32661660064153     -0.00085078462932      1.22885627448115
| 24> C           0.42918767964663      1.14398838233565     -0.19235272832111
| 25> C          -1.04960974603338      0.77261574951429      0.06492785280490
| 26> C          -1.04906283726916     -0.77294678133786      0.06683505909787
| 27> H          -1.38035607535846     -1.16390392177494      1.04420027054079
| 28> H          -1.72458244369567     -1.20024957174541     -0.69292350481507
| 29> H          -1.38487048878375      1.16593613289024      1.03994785440171
| 30> H          -1.72261217593395      1.19722636930467     -0.69855684493278
| 31> H           0.59041632586080      1.31476098653939     -1.27323726969509
| 32> H           0.75473592936517      2.05790809606369      0.33083351670359
| 33> H           0.58863701367587     -1.31196075363090     -1.27529624277050
| 34> H           0.75559928640620     -2.05873729543043      0.32686602542384
| 35> *
| 36>
| 37>                          ****END OF INPUT****

CARTESIAN COORDINATES (ANGSTROEM)
---------------------------------
  C      0.429038   -1.143703   -0.193751
  N      1.230905   -0.000181    0.212412
  H      1.326617   -0.000851    1.228856
  C      0.429188    1.143988   -0.192353
  C     -1.049610    0.772616    0.064928
  C     -1.049063   -0.772947    0.066835
  H     -1.380356   -1.163904    1.044200
  H     -1.724582   -1.200250   -0.692924
  H     -1.384870    1.165936    1.039948
  H     -1.722612    1.197226   -0.698557
  H      0.590416    1.314761   -1.273237
  H      0.754736    2.057908    0.330834
  H      0.588637   -1.311961   -1.275296
  H      0.755599   -2.058737    0.326866

 Total Charge           Charge          ....    0
 Multiplicity           Mult            ....    1
 Number of Electrons    NEL             ....   40
 Basis Dimension        Dim             ....  437

ORBITAL ENERGIES
----------------

  NO   OCC          E(Eh)            E(eV)
   0   2.0000     -14.143777      -384.8717
   1   2.0000     -10.045985      -273.3652
   2   2.0000     -10.045979      -273.3650
   3   2.0000     -10.021477      -272.6983
   4   2.0000     -10.021377      -272.6955
   5   2.0000      -0.880729       -23.9659
   6   2.0000      -0.712722       -19.3941
   7   2.0000      -0.675795       -18.3893
   8   2.0000      -0.558532       -15.1984
   9   2.0000      -0.532715       -14.4959
  10   2.0000      -0.464976       -12.6526
  11   2.0000      -0.427001       -11.6193
  12   2.0000      -0.390494       -10.6259
  13   2.0000      -0.387095       -10.5334
  14   2.0000      -0.334583        -9.1045
  15   2.0000      -0.314402        -8.5553
  16   2.0000      -0.301852        -8.2138
  17   2.0000      -0.301595        -8.2068
  18   2.0000      -0.275803        -7.5050
  19   2.0000      -0.202746        -5.5170
  20   0.0000       0.009453         0.2572
  21   0.0000       0.026083         0.7098
  22   0.0000       0.032849         0.8939
  23   0.0000       0.033002         0.8980
  24   0.0000       0.052212         1.4208

MULLIKEN ATOMIC CHARGES
-----------------------
   0 C :   -0.253364
   1 N :   -0.348734
   2 H :   -0.000646
   3 C :   -0.251608
   4 C :   -0.286708
   5 C :   -0.285020
   6 H :    0.116485
   7 H :    0.194038
   8 H :    0.118664
   9 H :    0.191013
  10 H :    0.148861
  11 H :    0.254662
  12 H :    0.147681
  13 H :    0.254676
Sum of atomic charges:   -0.0000000

LOEWDIN ATOMIC CHARGES
----------------------
   0 C :    0.149895
   1 N :    0.536752
   2 H :   -0.293827
   3 C :    0.150113
   4 C :    0.301458
   5 C :    0.301286
   6 H :   -0.147499
   7 H :   -0.145480
   8 H :   -0.147546
   9 H :   -0.145573
  10 H :   -0.143915
  11 H :   -0.135965
  12 H :   -0.143788
  13 H :   -0.135911

  Mayer bond orders larger than 0.100000
B(  0-C ,  1-N ) :   0.8349 B(  0-C ,  5-C ) :   0.8915 B(  0-C , 12-H ) :   1.0363
B(  0-C , 13-H ) :   0.9165 B(  1-N ,  2-H ) :   0.9524 B(  1-N ,  3-C ) :   0.8330
B(  3-C ,  4-C ) :   0.8918 B(  3-C , 10-H ) :   1.0360 B(  3-C , 11-H ) :   0.9161
B(  4-C ,  5-C ) :   0.8888 B(  4-C ,  8-H ) :   1.0435 B(  4-C ,  9-H ) :   0.9202
B(  5-C ,  6-H ) :   1.0454 B(  5-C ,  7-H ) :   0.9170

Dispersion correction           -0.002923789
FINAL SINGLE POINT ENERGY      -212.540320545774

DIPOLE MOMENT
-------------

Method             : SCF
Type of density    : Electron Density
Multiplicity       :   1
Irrep              :   0
Energy             :  -212.5373967565715532 Eh
Relativity type    :
Basis              : AO
                                X                 Y                 Z
Electronic contribution:      1.477252044      -0.000988056       0.341962067
Nuclear contribution   :     -2.069088816       0.000471850       0.035748568
                        -----------------------------------------
Total Dipole Moment    :     -0.591836772      -0.000516206       0.377710635
                        -----------------------------------------
Magnitude (a.u.)       :      0.702094263
Magnitude (Debye)      :      1.784581794

Rotational constants in cm-1:             0.230180             0.223654             0.130688
Rotational constants in MHz :          6900.610800          6704.969164          3917.942142

                             ****ORCA TERMINATED NORMALLY****
TOTAL RUN TIME: 0 days 0 hours 1 minutes 35 seconds 368 msec
