                         Program Version 6.0.0  -   RELEASE  -
|  1> !PBE0 freq def2-SV(p) d3 TightSCF SlowConv RIJCOSX defgrid2
|  2>
|  3> %pal
|  4> nprocs 12
|  5> end
|  6>
|  7> %scf
|  8> MaxIter 1500
|  9> end
| 10>
| 11> %maxcore 5000
| 12>
| 13> !CPCM
| 14> %cpcm smd true
| 15> SMDsolvent "MeCN"
| 16> surfacetype gepol_ses
| 17> rsolv 2.19
| 18> end
| 19>
| 20> * xyz 1 2
| 21> C           1.35096177798411      0.00320483975435     -0.00077043806995
| 22> C           0.74991554549849      1.29205730990985     -0.00326316713181
| 23> C          -0.61239222511307      1.40236297263298     -0.00218894393609
| 24> C          -1.42820401063555      0.23266251158990     -0.00064112642261
| 25> C          -0.83078920919429     -1.05705124878037     -0.00284947186734
| 26> C           0.53522191143777     -1.16408187441327     -0.00214210673003
| 27> H           0.99967502961865     -2.15411473024710     -0.00254118738187
| 28> H          -1.44427635392271     -1.95880709959699     -0.00323723450668
| 29> O          -2.71583135401087      0.44037501797413      0.00262110065184
| 30> C          -3.64221689770630     -0.64449170269812      0.00218398372153
| 31> H          -4.63774139172710     -0.18237897304930      0.00455169489209
| 32> H          -3.51297985973266     -1.25523005197385     -0.90561438106253
| 33> H          -3.51056030369750     -1.25900120889395      0.90722705232160
| 34> H          -1.10345122199402      2.37801101235680     -0.00181265167161
| 35> H           1.37439302548376      2.18898027058616     -0.00607399004073
| 36> S           3.04525763454257     -0.23129685277232      0.00655256311453
| 37> H           3.40811340316874      1.08138020762109      0.00808500411966
| 38> *
| 39>
| 40>                          ****END OF INPUT****

CARTESIAN COORDINATES (ANGSTROEM)
---------------------------------
  C      1.350962    0.003205   -0.000770
  C      0.749916    1.292057   -0.003263
  C     -0.612392    1.402363   -0.002189
  C     -1.428204    0.232663   -0.000641
  C     -0.830789   -1.057051   -0.002849
  C      0.535222   -1.164082   -0.002142
  H      0.999675   -2.154115   -0.002541
  H     -1.444276   -1.958807   -0.003237
  O     -2.715831    0.440375    0.002621
  C     -3.642217   -0.644492    0.002184
  H     -4.637741   -0.182379    0.004552
  H     -3.512980   -1.255230   -0.905614
  H     -3.510560   -1.259001    0.907227
  H     -1.103451    2.378011   -0.001813
  H      1.374393    2.188980   -0.006074
  S      3.045258   -0.231297    0.006553
  H      3.408113    1.081380    0.008085

 Total Charge           Charge          ....    1
 Multiplicity           Mult            ....    2
 Number of Electrons    NEL             ....   73
 Basis Dimension        Dim             ....  146

ORBITAL ENERGIES
----------------
                 SPIN UP ORBITALS
  NO   OCC          E(Eh)            E(eV)
   0   1.0000     -89.080351     -2423.9996
   1   1.0000     -19.311539      -525.4937
   2   1.0000     -10.365404      -282.0570
   3   1.0000     -10.336657      -281.2747
   4   1.0000     -10.294340      -280.1232
   5   1.0000     -10.292356      -280.0692
   6   1.0000     -10.288003      -279.9508
   7   1.0000     -10.281873      -279.7840
   8   1.0000     -10.281746      -279.7805
   9   1.0000      -8.082897      -219.9468
  10   1.0000      -6.023540      -163.9089
  11   1.0000      -6.020153      -163.8167
  12   1.0000      -6.019390      -163.7959
  13   1.0000      -1.161907       -31.6171
  14   1.0000      -0.941907       -25.6306
  15   1.0000      -0.871233       -23.7075
  16   1.0000      -0.822092       -22.3703
  17   1.0000      -0.794969       -21.6322
  18   1.0000      -0.735001       -20.0004
  19   1.0000      -0.677851       -18.4453
  20   1.0000      -0.642416       -17.4810
  21   1.0000      -0.592864       -16.1327
  22   1.0000      -0.564045       -15.3484
  23   1.0000      -0.535936       -14.5836
  24   1.0000      -0.535666       -14.5762
  25   1.0000      -0.495296       -13.4777
  26   1.0000      -0.484741       -13.1905
  27   1.0000      -0.474545       -12.9130
  28   1.0000      -0.453611       -12.3434
  29   1.0000      -0.449624       -12.2349
  30   1.0000      -0.416922       -11.3450
  31   1.0000      -0.410197       -11.1620
  32   1.0000      -0.406020       -11.0484
  33   1.0000      -0.377919       -10.2837
  34   1.0000      -0.347916        -9.4673
  35   1.0000      -0.321659        -8.7528
  36   1.0000      -0.268317        -7.3013
  37   0.0000      -0.056011        -1.5241
  38   0.0000      -0.047351        -1.2885
  39   0.0000      -0.003486        -0.0949
  40   0.0000       0.055801         1.5184
  41   0.0000       0.086184         2.3452

                 SPIN DOWN ORBITALS
  NO   OCC          E(Eh)            E(eV)
   0   1.0000     -89.078470     -2423.9484
   1   1.0000     -19.306432      -525.3547
   2   1.0000     -10.362449      -281.9766
   3   1.0000     -10.332627      -281.1651
   4   1.0000     -10.294549      -280.1289
   5   1.0000     -10.291615      -280.0491
   6   1.0000     -10.288031      -279.9516
   7   1.0000     -10.281133      -279.7638
   8   1.0000     -10.280724      -279.7527
   9   1.0000      -8.081016      -219.8956
  10   1.0000      -6.022438      -163.8789
  11   1.0000      -6.018363      -163.7680
  12   1.0000      -6.013682      -163.6406
  13   1.0000      -1.152567       -31.3629
  14   1.0000      -0.934295       -25.4235
  15   1.0000      -0.862645       -23.4738
  16   1.0000      -0.819798       -22.3078
  17   1.0000      -0.789998       -21.4969
  18   1.0000      -0.726261       -19.7626
  19   1.0000      -0.673410       -18.3244
  20   1.0000      -0.637962       -17.3598
  21   1.0000      -0.589957       -16.0535
  22   1.0000      -0.561903       -15.2902
  23   1.0000      -0.532011       -14.4768
  24   1.0000      -0.517297       -14.0764
  25   1.0000      -0.492943       -13.4137
  26   1.0000      -0.483663       -13.1611
  27   1.0000      -0.472073       -12.8457
  28   1.0000      -0.447680       -12.1820
  29   1.0000      -0.435744       -11.8572
  30   1.0000      -0.414949       -11.2913
  31   1.0000      -0.401044       -10.9130
  32   1.0000      -0.390268       -10.6197
  33   1.0000      -0.374879       -10.2010
  34   1.0000      -0.317969        -8.6524
  35   1.0000      -0.314366        -8.5543
  36   0.0000      -0.185755        -5.0546
  37   0.0000      -0.036159        -0.9839
  38   0.0000      -0.026354        -0.7171
  39   0.0000      -0.000533        -0.0145
  40   0.0000       0.060737         1.6527

MULLIKEN ATOMIC CHARGES AND SPIN POPULATIONS
--------------------------------------------
   0 C :   -0.057505    0.232480
   1 C :   -0.074275   -0.017496
   2 C :   -0.100651    0.070223
   3 C :    0.285316    0.192051
   4 C :   -0.171680    0.034937
   5 C :   -0.046640    0.038446
   6 H :    0.174107   -0.003294
   7 H :    0.175876   -0.003135
   8 O :   -0.251098    0.150130
   9 C :   -0.198009   -0.012870
  10 H :    0.192456   -0.000024
  11 H :    0.192345    0.011033
  12 H :    0.192364    0.011026
  13 H :    0.165716   -0.004775
  14 H :    0.172176   -0.000805
  15 S :    0.080336    0.313144
  16 H :    0.269169   -0.011071
Sum of atomic charges         :    1.0000000

LOEWDIN ATOMIC CHARGES AND SPIN POPULATIONS
-------------------------------------------
   0 C :   -0.144520    0.198100
   1 C :   -0.097585    0.010227
   2 C :   -0.090110    0.070917
   3 C :    0.104309    0.162306
   4 C :   -0.120368    0.047062
   5 C :   -0.079533    0.051750
   6 H :    0.171993   -0.001853
   7 H :    0.177548   -0.001730
   8 O :   -0.009550    0.155511
   9 C :   -0.192923   -0.005176
  10 H :    0.150685   -0.000047
  11 H :    0.148541    0.007943
  12 H :    0.148554    0.007941
  13 H :    0.175558   -0.002566
  14 H :    0.172712   -0.000604
  15 S :    0.332267    0.307005
  16 H :    0.152421   -0.006786

  Mayer bond orders larger than 0.100000
B(  0-C ,  1-C ) :   1.2198 B(  0-C ,  5-C ) :   1.1995 B(  0-C , 15-S ) :   1.2758
B(  1-C ,  2-C ) :   1.5586 B(  1-C , 14-H ) :   0.9451 B(  2-C ,  3-C ) :   1.2027
B(  2-C , 13-H ) :   0.9528 B(  3-C ,  4-C ) :   1.1749 B(  3-C ,  8-O ) :   1.2992
B(  4-C ,  5-C ) :   1.5679 B(  4-C ,  7-H ) :   0.9479 B(  5-C ,  6-H ) :   0.9454
B(  8-O ,  9-C ) :   0.8697 B(  9-C , 10-H ) :   0.9452 B(  9-C , 11-H ) :   0.9328
B(  9-C , 12-H ) :   0.9328 B( 15-S , 16-H ) :   0.8733

Dispersion correction           -0.016042050
FINAL SINGLE POINT ENERGY      -743.851295983107

DIPOLE MOMENT
-------------

Method             : SCF
Type of density    : Electron Density
Multiplicity       :   2
Irrep              :   0
Energy             :  -743.8352539335862730 Eh
Relativity type    :
Basis              : AO
                                X                 Y                 Z
Electronic contribution:      7.783678116       0.948569674       0.005645579
Nuclear contribution   :     -7.986803078      -1.035363506      -0.006892957
                        -----------------------------------------
Total Dipole Moment    :     -0.203124962      -0.086793832      -0.001247378
                        -----------------------------------------
Magnitude (a.u.)       :      0.220894716
Magnitude (Debye)      :      0.561469747

VIBRATIONAL FREQUENCIES
-----------------------

Scaling factor for frequencies =  1.000000000  (already applied!)

     0:       0.00 cm**-1
     1:       0.00 cm**-1
     2:       0.00 cm**-1
     3:       0.00 cm**-1
     4:       0.00 cm**-1
     5:       0.00 cm**-1
     6:      61.16 cm**-1
     7:     140.37 cm**-1
     8:     168.96 cm**-1
     9:     199.43 cm**-1
    10:     298.26 cm**-1
    11:     302.59 cm**-1
    12:     340.36 cm**-1
    13:     366.16 cm**-1
    14:     413.46 cm**-1
    15:     510.62 cm**-1
    16:     511.75 cm**-1
    17:     612.41 cm**-1
    18:     665.90 cm**-1
    19:     737.02 cm**-1
    20:     788.78 cm**-1
    21:     827.77 cm**-1
    22:     851.98 cm**-1
    23:     946.33 cm**-1
    24:     990.93 cm**-1
    25:     994.29 cm**-1
    26:    1000.14 cm**-1
    27:    1054.71 cm**-1
    28:    1131.64 cm**-1
    29:    1159.98 cm**-1
    30:    1168.02 cm**-1
    31:    1194.37 cm**-1
    32:    1206.26 cm**-1
    33:    1308.56 cm**-1
    34:    1383.38 cm**-1
    35:    1394.06 cm**-1
    36:    1444.44 cm**-1
    37:    1456.75 cm**-1
    38:    1466.68 cm**-1
    39:    1533.89 cm**-1
    40:    1551.65 cm**-1
    41:    1557.74 cm**-1
    42:    1704.71 cm**-1
    43:    2622.91 cm**-1
    44:    3067.17 cm**-1
    45:    3174.62 cm**-1
    46:    3215.92 cm**-1
    47:    3220.95 cm**-1
    48:    3227.59 cm**-1
    49:    3244.60 cm**-1
    50:    3255.89 cm**-1

IR SPECTRUM
-----------

 Mode   freq       eps      Int      T**2         TX        TY        TZ
       cm**-1   L/(mol*cm) km/mol    a.u.
----------------------------------------------------------------------------
  6:     61.16   0.000189    0.96  0.000967  (-0.000916  0.000142  0.031076)
  7:    140.37   0.001289    6.52  0.002867  ( 0.002496  0.000159 -0.053484)
  8:    168.96   0.000210    1.06  0.000388  ( 0.002225 -0.000704  0.019558)
  9:    199.43   0.001778    8.99  0.002782  ( 0.052140 -0.007971  0.000173)
 10:    298.26   0.001252    6.33  0.001310  (-0.000698 -0.000389 -0.036188)
 11:    302.59   0.000284    1.43  0.000293  (-0.015715  0.006732 -0.000506)
 12:    340.36   0.005817   29.40  0.005333  (-0.000797 -0.000365  0.073023)
 13:    366.16   0.000283    1.43  0.000241  (-0.014266 -0.006104 -0.000847)
 14:    413.46   0.002404   12.15  0.001815  ( 0.000461 -0.000479 -0.042595)
 15:    510.62   0.001583    8.00  0.000968  ( 0.030179 -0.006787  0.003277)
 16:    511.75   0.004507   22.78  0.002748  ( 0.002685 -0.000326 -0.052356)
 17:    612.41   0.000075    0.38  0.000038  ( 0.003147 -0.005319 -0.000013)
 18:    665.90   0.021116  106.71  0.009895  ( 0.098230 -0.015696 -0.000099)
 19:    737.02   0.000049    0.25  0.000021  ( 0.000293  0.000228  0.004535)
 20:    788.78   0.000025    0.13  0.000010  ( 0.000527 -0.000262  0.003096)
 21:    827.77   0.001336    6.75  0.000504  ( 0.019345  0.011358  0.000764)
 22:    851.98   0.020359  102.89  0.007457  ( 0.001019 -0.000006 -0.086349)
 23:    946.33   0.007962   40.23  0.002625  ( 0.043738  0.026690 -0.000238)
 24:    990.93   0.000076    0.38  0.000024  ( 0.000436 -0.000055  0.004863)
 25:    994.29   0.000011    0.06  0.000004  (-0.000066  0.001568  0.001057)
 26:   1000.14   0.003146   15.90  0.000982  ( 0.030357 -0.007758  0.000034)
 27:   1054.71   0.023555  119.04  0.006970  ( 0.070631  0.044506  0.000040)
 28:   1131.64   0.004632   23.41  0.001277  (-0.003411  0.035578 -0.000092)
 29:   1159.98   0.006376   32.22  0.001715  ( 0.040297 -0.009559  0.000118)
 30:   1168.02   0.000059    0.30  0.000016  (-0.001475  0.000432 -0.003661)
 31:   1194.37   0.020987  106.06  0.005484  ( 0.073537  0.008707  0.000242)
 32:   1206.26   0.000386    1.95  0.000100  (-0.009450  0.003235 -0.000129)
 33:   1308.56   0.001238    6.26  0.000295  (-0.000214 -0.017180  0.000098)
 34:   1383.38   0.013271   67.07  0.002994  (-0.053287 -0.012420  0.000040)
 35:   1394.06   0.052592  265.78  0.011773  (-0.108338 -0.005988 -0.000003)
 36:   1444.44   0.042458  214.57  0.009173  (-0.092722  0.023972  0.000938)
 37:   1456.75   0.005119   25.87  0.001097  (-0.004800  0.000794 -0.032755)
 38:   1466.68   0.014379   72.67  0.003059  ( 0.055276  0.001038 -0.001684)
 39:   1533.89   0.016610   83.94  0.003379  ( 0.054635  0.019858 -0.000011)
 40:   1551.65   0.002451   12.38  0.000493  ( 0.006328  0.021280 -0.000053)
 41:   1557.74   0.170301  860.63  0.034116  ( 0.184571 -0.007065 -0.000055)
 42:   1704.71   0.031004  156.68  0.005676  ( 0.075323  0.001420 -0.000134)
 43:   2622.91   0.021894  110.64  0.002605  ( 0.042631  0.028061  0.000058)
 44:   3067.17   0.006619   33.45  0.000673  (-0.024423 -0.008771 -0.000193)
 45:   3174.62   0.000642    3.25  0.000063  (-0.000518 -0.000359 -0.007922)
 46:   3215.92   0.001877    9.49  0.000182  ( 0.013480  0.000654 -0.000075)
 47:   3220.95   0.000463    2.34  0.000045  ( 0.001048 -0.006613  0.000028)
 48:   3227.59   0.000126    0.64  0.000012  ( 0.001403  0.003195 -0.000165)
 49:   3244.60   0.001226    6.19  0.000118  (-0.001479 -0.010756 -0.000029)
 50:   3255.89   0.001521    7.68  0.000146  ( 0.000454 -0.012064 -0.000044)

--------------------------
THERMOCHEMISTRY AT 298.15K
--------------------------

Temperature         ...   298.15 K
Pressure            ...     1.00 atm
Total Mass          ...   140.20 AMU
Quasi RRHO          ...     True
Cut-Off Frequency   ...     1.00 cm^-1

Throughout the following assumptions are being made:
  (1) The electronic state is orbitally nondegenerate
      but the spin degeneracy is treated
  (2) There are no thermally accessible electronically excited states
  (3) Hindered rotations indicated by low frequency modes are not
      treated as such but are treated as vibrations and this may
      cause some error
  (4) All equations used are the standard statistical mechanics
      equations for an ideal gas
  (5) All vibrations are strictly harmonic

freq.      61.16  E(vib)   ...       0.51
freq.     140.37  E(vib)   ...       0.41
freq.     168.96  E(vib)   ...       0.38
freq.     199.43  E(vib)   ...       0.35
freq.     298.26  E(vib)   ...       0.27
freq.     302.59  E(vib)   ...       0.26
freq.     340.36  E(vib)   ...       0.23
freq.     366.16  E(vib)   ...       0.22
freq.     413.46  E(vib)   ...       0.19
freq.     510.62  E(vib)   ...       0.14
freq.     511.75  E(vib)   ...       0.14
freq.     612.41  E(vib)   ...       0.10
freq.     665.90  E(vib)   ...       0.08
freq.     737.02  E(vib)   ...       0.06
freq.     788.78  E(vib)   ...       0.05
freq.     827.77  E(vib)   ...       0.04
freq.     851.98  E(vib)   ...       0.04
freq.     946.33  E(vib)   ...       0.03
freq.     990.93  E(vib)   ...       0.02
freq.     994.29  E(vib)   ...       0.02
freq.    1000.14  E(vib)   ...       0.02
freq.    1054.71  E(vib)   ...       0.02
freq.    1131.64  E(vib)   ...       0.01
freq.    1159.98  E(vib)   ...       0.01
freq.    1168.02  E(vib)   ...       0.01
freq.    1194.37  E(vib)   ...       0.01
freq.    1206.26  E(vib)   ...       0.01
freq.    1308.56  E(vib)   ...       0.01
freq.    1383.38  E(vib)   ...       0.00
freq.    1394.06  E(vib)   ...       0.00
freq.    1444.44  E(vib)   ...       0.00
freq.    1456.75  E(vib)   ...       0.00
freq.    1466.68  E(vib)   ...       0.00
freq.    1533.89  E(vib)   ...       0.00
freq.    1551.65  E(vib)   ...       0.00
freq.    1557.74  E(vib)   ...       0.00
freq.    1704.71  E(vib)   ...       0.00
freq.    2622.91  E(vib)   ...       0.00
freq.    3067.17  E(vib)   ...       0.00
freq.    3174.62  E(vib)   ...       0.00
freq.    3215.92  E(vib)   ...       0.00
freq.    3220.95  E(vib)   ...       0.00
freq.    3227.59  E(vib)   ...       0.00
freq.    3244.60  E(vib)   ...       0.00
freq.    3255.89  E(vib)   ...       0.00

------------
INNER ENERGY
------------

The inner energy is: U= E(el) + E(ZPE) + E(vib) + E(rot) + E(trans)
    E(el)   - is the total energy from the electronic structure calculation
              = E(kin-el) + E(nuc-el) + E(el-el) + E(nuc-nuc)
    E(ZPE)  - the the zero temperature vibrational energy from the frequency calculation
    E(vib)  - the the finite temperature correction to E(ZPE) due to population
              of excited vibrational states
    E(rot)  - is the rotational thermal energy
    E(trans)- is the translational thermal energy

Summary of contributions to the inner energy U:
Electronic energy                ...   -743.85129598 Eh
Zero point energy                ...      0.13321620 Eh      83.59 kcal/mol
Thermal vibrational correction   ...      0.00586477 Eh       3.68 kcal/mol
Thermal rotational correction    ...      0.00141627 Eh       0.89 kcal/mol
Thermal translational correction ...      0.00141627 Eh       0.89 kcal/mol
-----------------------------------------------------------------------
Total thermal energy                   -743.70938247 Eh

Summary of corrections to the electronic energy:
(perhaps to be used in another calculation)
Total thermal correction                  0.00869732 Eh       5.46 kcal/mol
Non-thermal (ZPE) correction              0.13321620 Eh      83.59 kcal/mol
-----------------------------------------------------------------------
Total correction                          0.14191352 Eh      89.05 kcal/mol

--------
ENTHALPY
--------

The enthalpy is H = U + kB*T
                kB is Boltzmann's constant
Total thermal energy              ...   -743.70938247 Eh
Thermal Enthalpy correction       ...      0.00094421 Eh       0.59 kcal/mol
-----------------------------------------------------------------------
Total Enthalpy                    ...   -743.70843826 Eh

Note: Only C1 symmetry has been detected, increase convergence thresholds
      if your molecule has a higher symmetry. Symmetry factor of 1.0 is
      used for the rotational entropy correction.

Note: Rotational entropy computed according to Herzberg
Infrared and Raman Spectra, Chapter V,1, Van Nostrand Reinhold, 1945
Point Group:  C1, Symmetry Number:   1
Rotational constants in cm-1:     0.154729     0.023736     0.020663

Vibrational entropy computed according to the QRRHO of S. Grimme
Chem.Eur.J. 2012 18 9955 using a reference frequency of 100.0 cm-1

-------
ENTROPY
-------

The entropy contributions are T*S = T*(S(el)+S(vib)+S(rot)+S(trans))
     S(el)   - electronic entropy
     S(vib)  - vibrational entropy
     S(rot)  - rotational entropy
     S(trans)- translational entropy
The entropies will be listed as multiplied by the temperature to get
units of energy

Electronic entropy                ...      0.00065446 Eh      0.41 kcal/mol
Vibrational entropy               ...      0.00978229 Eh      6.14 kcal/mol
Rotational entropy                ...      0.01398918 Eh      8.78 kcal/mol
Translational entropy             ...      0.01934980 Eh     12.14 kcal/mol
-----------------------------------------------------------------------
Final entropy term                ...      0.04377572 Eh     27.47 kcal/mol

In case the symmetry of your molecule has not been determined correctly
or in case you have a reason to use a different symmetry number we print
out the resulting rotational entropy values for sn=1,12:

 non-linear molecules -----------------------------------
|  sn= 1 | S(rot)=       0.01398918 Eh      8.78 kcal/mol|
|  sn= 2 | S(rot)=       0.01333473 Eh      8.37 kcal/mol|
|  sn= 3 | S(rot)=       0.01295189 Eh      8.13 kcal/mol|
|  sn= 4 | S(rot)=       0.01268027 Eh      7.96 kcal/mol|
|  sn= 5 | S(rot)=       0.01246958 Eh      7.82 kcal/mol|
|  sn= 6 | S(rot)=       0.01229744 Eh      7.72 kcal/mol|
|  sn= 7 | S(rot)=       0.01215189 Eh      7.63 kcal/mol|
|  sn= 8 | S(rot)=       0.01202581 Eh      7.55 kcal/mol|
|  sn= 9 | S(rot)=       0.01191460 Eh      7.48 kcal/mol|
|  sn=10 | S(rot)=       0.01181513 Eh      7.41 kcal/mol|
|  sn=11 | S(rot)=       0.01172514 Eh      7.36 kcal/mol|
|  sn=12 | S(rot)=       0.01164298 Eh      7.31 kcal/mol|
 linear molecules ---------------------------------------
|  Dinfh | S(rot)=       0.00898868 Eh      5.64 kcal/mol|

                             ****ORCA TERMINATED NORMALLY****
TOTAL RUN TIME: 0 days 0 hours 6 minutes 33 seconds 45 msec
