                         Program Version 6.0.0  -   RELEASE  -
|  1> !TPSSh aug-cc-pVTZ d3 TightSCF SlowConv RIJCOSX defgrid2
|  2>
|  3> %pal
|  4> nprocs 4
|  5> end
|  6>
|  7> %scf
|  8> MaxIter 1500
|  9> end
| 10>
| 11> %maxcore 3000
| 12>
| 13> !CPCM
| 14> %cpcm smd true
| 15> SMDsolvent "MeCN"
| 16> surfacetype gepol_ses
| 17> rsolv 2.19
| 18> end
| 19>
| 20> * xyz 1 2
| 21> C          -0.22428548195010     -1.24213438922305     -0.03849982740281
| 22> C           1.14800811610277     -1.22870080724969      0.00227297677880
| 23> C           1.84566180598227     -0.00004019353139      0.02297012210753
| 24> C           1.14805042698559      1.22864411313713      0.00227054482980
| 25> C          -0.22424154749405      1.24212983950181     -0.03850931873892
| 26> C          -0.94084900168795      0.00001024661649     -0.05989305493678
| 27> N          -2.26985305582395      0.00003075135377     -0.09979281491323
| 28> H          -2.80165535396914      0.86997483968693     -0.11591197867223
| 29> H          -2.80167508667297     -0.86990117124685     -0.11590823438470
| 30> H          -0.77890173993705      2.18488554366972     -0.05504522287995
| 31> H           1.70373713208460      2.16980587419055      0.01885237386387
| 32> H           2.93889913121278     -0.00005967561260      0.05550059305168
| 33> H           1.70365895934134     -2.16988118368011      0.01885253182221
| 34> H          -0.77898600417414     -2.18486378761269     -0.05503389052528
| 35> *
| 36>
| 37>                          ****END OF INPUT****

CARTESIAN COORDINATES (ANGSTROEM)
---------------------------------
  C     -0.224285   -1.242134   -0.038500
  C      1.148008   -1.228701    0.002273
  C      1.845662   -0.000040    0.022970
  C      1.148050    1.228644    0.002271
  C     -0.224242    1.242130   -0.038509
  C     -0.940849    0.000010   -0.059893
  N     -2.269853    0.000031   -0.099793
  H     -2.801655    0.869975   -0.115912
  H     -2.801675   -0.869901   -0.115908
  H     -0.778902    2.184886   -0.055045
  H      1.703737    2.169806    0.018852
  H      2.938899   -0.000060    0.055501
  H      1.703659   -2.169881    0.018853
  H     -0.778986   -2.184864   -0.055034

 Total Charge           Charge          ....    1
 Multiplicity           Mult            ....    2
 Number of Electrons    NEL             ....   49
 Basis Dimension        Dim             ....  483

ORBITAL ENERGIES
----------------
                 SPIN UP ORBITALS
  NO   OCC          E(Eh)            E(eV)
   0   1.0000     -14.345455      -390.3597
   1   1.0000     -10.219154      -278.0773
   2   1.0000     -10.166591      -276.6470
   3   1.0000     -10.162150      -276.5262
   4   1.0000     -10.162148      -276.5261
   5   1.0000     -10.150389      -276.2061
   6   1.0000     -10.150387      -276.2061
   7   1.0000      -0.977281       -26.5932
   8   1.0000      -0.861580       -23.4448
   9   1.0000      -0.769107       -20.9285
  10   1.0000      -0.749370       -20.3914
  11   1.0000      -0.633964       -17.2510
  12   1.0000      -0.631344       -17.1797
  13   1.0000      -0.551862       -15.0169
  14   1.0000      -0.544784       -14.8243
  15   1.0000      -0.502183       -13.6651
  16   1.0000      -0.450423       -12.2566
  17   1.0000      -0.444595       -12.0980
  18   1.0000      -0.436618       -11.8810
  19   1.0000      -0.436143       -11.8681
  20   1.0000      -0.376294       -10.2395
  21   1.0000      -0.360521        -9.8103
  22   1.0000      -0.356181        -9.6922
  23   1.0000      -0.288217        -7.8428
  24   1.0000      -0.251714        -6.8495
  25   0.0000      -0.055940        -1.5222
  26   0.0000      -0.055577        -1.5123
  27   0.0000      -0.008177        -0.2225
  28   0.0000       0.004468         0.1216
  29   0.0000       0.010276         0.2796

                 SPIN DOWN ORBITALS
  NO   OCC          E(Eh)            E(eV)
   0   1.0000     -14.336549      -390.1173
   1   1.0000     -10.218686      -278.0646
   2   1.0000     -10.160570      -276.4832
   3   1.0000     -10.158696      -276.4322
   4   1.0000     -10.158695      -276.4322
   5   1.0000     -10.152082      -276.2522
   6   1.0000     -10.152075      -276.2520
   7   1.0000      -0.963544       -26.2194
   8   1.0000      -0.853919       -23.2363
   9   1.0000      -0.765825       -20.8392
  10   1.0000      -0.736817       -20.0498
  11   1.0000      -0.631106       -17.1733
  12   1.0000      -0.625387       -17.0177
  13   1.0000      -0.549594       -14.9552
  14   1.0000      -0.540599       -14.7104
  15   1.0000      -0.498318       -13.5599
  16   1.0000      -0.447533       -12.1780
  17   1.0000      -0.442091       -12.0299
  18   1.0000      -0.435995       -11.8640
  19   1.0000      -0.408413       -11.1135
  20   1.0000      -0.374479       -10.1901
  21   1.0000      -0.354661        -9.6508
  22   1.0000      -0.329904        -8.9772
  23   1.0000      -0.278783        -7.5861
  24   0.0000      -0.185013        -5.0345
  25   0.0000      -0.044291        -1.2052
  26   0.0000      -0.031034        -0.8445
  27   0.0000      -0.006800        -0.1851
  28   0.0000       0.005943         0.1617

MULLIKEN ATOMIC CHARGES AND SPIN POPULATIONS
--------------------------------------------
   0 C :   -0.467871    0.192854
   1 C :   -0.288499   -0.118878
   2 C :   -0.246666    0.380342
   3 C :   -0.289034   -0.118872
   4 C :   -0.467397    0.192852
   5 C :    0.880606    0.101337
   6 N :   -0.239574    0.364833
   7 H :    0.046314   -0.000599
   8 H :    0.046396   -0.000598
   9 H :    0.452623   -0.001809
  10 H :    0.333213   -0.001806
  11 H :    0.454560    0.013957
  12 H :    0.332811   -0.001810
  13 H :    0.452519   -0.001804
Sum of atomic charges         :    1.0000000

LOEWDIN ATOMIC CHARGES AND SPIN POPULATIONS
-------------------------------------------
   0 C :    0.279072    0.110394
   1 C :    0.243098    0.038963
   2 C :    0.263195    0.181487
   3 C :    0.243096    0.038963
   4 C :    0.279072    0.110394
   5 C :   -0.163174    0.129916
   6 N :    0.963016    0.255940
   7 H :   -0.191650    0.034205
   8 H :   -0.191652    0.034205
   9 H :   -0.139134    0.019296
  10 H :   -0.150479   -0.007521
  11 H :   -0.144840    0.041983
  12 H :   -0.150481   -0.007521
  13 H :   -0.139137    0.019296

  Mayer bond orders larger than 0.100000
B(  0-C ,  1-C ) :   1.6819 B(  0-C ,  2-C ) :   0.2145 B(  0-C ,  4-C ) :   0.2247
B(  0-C ,  5-C ) :   0.8726 B(  0-C ,  6-N ) :  -0.1211 B(  0-C , 12-H ) :   0.1006
B(  0-C , 13-H ) :   0.3596 B(  1-C ,  2-C ) :   1.2238 B(  1-C ,  5-C ) :  -0.2149
B(  1-C , 12-H ) :   0.7401 B(  1-C , 13-H ) :   0.1110 B(  2-C ,  3-C ) :   1.2237
B(  2-C ,  4-C ) :   0.2146 B(  2-C , 11-H ) :   0.5171 B(  3-C ,  4-C ) :   1.6812
B(  3-C ,  5-C ) :  -0.2150 B(  3-C ,  9-H ) :   0.1108 B(  3-C , 10-H ) :   0.7400
B(  4-C ,  5-C ) :   0.8715 B(  4-C ,  6-N ) :  -0.1211 B(  4-C ,  9-H ) :   0.3598
B(  4-C , 10-H ) :   0.1004 B(  5-C ,  6-N ) :   0.9556 B(  6-N ,  7-H ) :   1.1040
B(  6-N ,  8-H ) :   1.1038

Dispersion correction           -0.015269482
FINAL SINGLE POINT ENERGY      -287.566885835052

DIPOLE MOMENT
-------------

Method             : SCF
Type of density    : Electron Density
Multiplicity       :   2
Irrep              :   0
Energy             :  -287.5516163533424674 Eh
Relativity type    :
Basis              : AO
                                X                 Y                 Z
Electronic contribution:     -0.938552290       0.000021813      -0.028124363
Nuclear contribution   :     -0.808315718       0.000012771      -0.024795382
                        -----------------------------------------
Total Dipole Moment    :     -1.746868008       0.000034585      -0.052919746
                        -----------------------------------------
Magnitude (a.u.)       :      1.747669402
Magnitude (Debye)      :      4.442222590

Rotational constants in cm-1:             0.179396             0.089500             0.059711
Rotational constants in MHz :          5378.149152          2683.142053          1790.077786

                             ****ORCA TERMINATED NORMALLY****
TOTAL RUN TIME: 0 days 0 hours 3 minutes 50 seconds 815 msec
