                         Program Version 6.0.0  -   RELEASE  -
|  1> !TPSSh opt aug-cc-pVTZ d3 TightSCF SlowConv RIJCOSX defgrid2
|  2>
|  3> %pal
|  4> nprocs 8
|  5> end
|  6>
|  7> %scf
|  8> MaxIter 1500
|  9> end
| 10>
| 11> %maxcore 3500
| 12>
| 13> !CPCM
| 14> %cpcm smd true
| 15> SMDsolvent "MeCN"
| 16> surfacetype gepol_ses
| 17> rsolv 2.19
| 18> end
| 19>
| 20> * xyz 0 1
| 21> C           2.39749463161436     -0.83149819893554      0.67669387485363
| 22> C           1.27172397639116     -0.40047992295486     -0.03969915484816
| 23> C           1.38259238776027      0.76303550152059     -0.81642324820039
| 24> C           2.58576374302039      1.45963699946448     -0.89073073539891
| 25> C           3.70030483512470      1.01412413753758     -0.17987702815859
| 26> C           3.60056124987950     -0.13306932613824      0.60654243714533
| 27> H           4.46466138277505     -0.48209902986176      1.17996120108222
| 28> H           4.64383968195764      1.56540648474814     -0.23276704782048
| 29> H           2.65415437190379      2.35888092106518     -1.51038356423303
| 30> H           0.51264382726920      1.11680700092055     -1.37721808377949
| 31> C          -0.00001123541006     -1.16417502511622     -0.00002273576044
| 32> C          -0.00001884782649     -2.50996676952303     -0.00003277235160
| 33> H          -0.93225135885572     -3.07886784376654      0.08064455143521
| 34> H           0.93220419630722     -3.07888213761201     -0.08071574786352
| 35> C          -1.27174210287451     -0.40047320911747      0.03966757754902
| 36> C          -2.39750985071673     -0.83146289450512     -0.67674719863415
| 37> C          -3.60057439169967     -0.13303092760862     -0.60657919634084
| 38> C          -3.70031659242385      1.01413981080717      0.17987332068473
| 39> C          -2.58577653905984      1.45962201354211      0.89074922577948
| 40> C          -1.38260956202413      0.76301589591316      0.81642903255360
| 41> H          -0.51266418903044      1.11676009652396      1.37724534040847
| 42> H          -2.65416367308445      2.35884547498639      1.51043035509866
| 43> H          -4.64384894904450      1.56542539828851      0.23277593005599
| 44> H          -4.46467229568686     -0.48204204645132     -1.18001194866167
| 45> H          -2.31694066862491     -1.71619568559047     -1.31480317865473
| 46> H           2.31692587235889     -1.71625071813661      1.31472229405965
| 47> *
| 48>
| 49>                          ****END OF INPUT****
 Total Charge           Charge          ....    0
 Multiplicity           Mult            ....    1
 Number of Electrons    NEL             ....   96
Dispersion correction           -0.038544284
FINAL SINGLE POINT ENERGY      -540.977984846752
Dispersion correction             ... done (  0.0 sec)
Dispersion correction           -0.038660693
FINAL SINGLE POINT ENERGY      -540.978935025703
Dispersion correction             ... done (  0.0 sec)
Dispersion correction           -0.038648226
FINAL SINGLE POINT ENERGY      -540.978941457292
Dispersion correction             ... done (  0.0 sec)
                    ***********************HURRAY********************

CARTESIAN COORDINATES (ANGSTROEM)
---------------------------------
  C      2.401517   -0.847986    0.657539
  C      1.272664   -0.394817   -0.035831
  C      1.380116    0.782388   -0.787417
  C      2.583948    1.473265   -0.859793
  C      3.701311    1.008327   -0.170458
  C      3.604522   -0.154284    0.590220
  H      4.464276   -0.515937    1.141504
  H      4.637136    1.551739   -0.219318
  H      2.649487    2.376413   -1.454635
  H      0.517376    1.150503   -1.328856
  C     -0.000013   -1.156219    0.000188
  C      0.000053   -2.498407    0.000146
  H     -0.921820   -3.063147    0.067016
  H      0.921988   -3.063042   -0.066784
  C     -1.272745   -0.394913    0.036112
  C     -2.401428   -0.847932   -0.657619
  C     -3.604370   -0.154076   -0.590672
  C     -3.701286    1.008499    0.170039
  C     -2.584131    1.473205    0.859851
  C     -1.380390    0.782179    0.787800
  H     -0.517855    1.150057    1.329710
  H     -2.649770    2.376278    1.454790
  H     -4.637057    1.552038    0.218595
  H     -4.463965   -0.515565   -1.142306
  H     -2.327004   -1.740642   -1.266860
  H      2.327210   -1.740715    1.266763

 Multiplicity           Mult            ....    1
 Number of Electrons    NEL             ....   96
 Basis Dimension        Dim             ....  920

ORBITAL ENERGIES
----------------

  NO   OCC          E(Eh)            E(eV)
   0   2.0000     -10.130700      -275.6704
   1   2.0000     -10.127074      -275.5717
   2   2.0000     -10.127068      -275.5715
   3   2.0000     -10.115888      -275.2673
   4   2.0000     -10.115864      -275.2666
   5   2.0000     -10.115755      -275.2637
   6   2.0000     -10.115755      -275.2637
   7   2.0000     -10.115398      -275.2540
   8   2.0000     -10.115395      -275.2539
   9   2.0000     -10.115153      -275.2473
  10   2.0000     -10.115151      -275.2472
  11   2.0000     -10.114783      -275.2372
  12   2.0000     -10.114781      -275.2372
  13   2.0000     -10.106298      -275.0063
  14   2.0000      -0.850916       -23.1546
  15   2.0000      -0.834763       -22.7150
  16   2.0000      -0.785417       -21.3723
  17   2.0000      -0.730089       -19.8667
  18   2.0000      -0.729333       -19.8462
  19   2.0000      -0.723729       -19.6937
  20   2.0000      -0.698857       -19.0169
  21   2.0000      -0.613534       -16.6951
  22   2.0000      -0.590268       -16.0620
  23   2.0000      -0.582847       -15.8601
  24   2.0000      -0.578955       -15.7542
  25   2.0000      -0.533217       -14.5096
  26   2.0000      -0.505842       -13.7647
  27   2.0000      -0.483431       -13.1548
  28   2.0000      -0.449587       -12.2339
  29   2.0000      -0.441677       -12.0186
  30   2.0000      -0.431943       -11.7538
  31   2.0000      -0.424760       -11.5583
  32   2.0000      -0.420221       -11.4348
  33   2.0000      -0.401862       -10.9352
  34   2.0000      -0.401444       -10.9238
  35   2.0000      -0.396054       -10.7772
  36   2.0000      -0.365943        -9.9578
  37   2.0000      -0.358871        -9.7654
  38   2.0000      -0.358183        -9.7467
  39   2.0000      -0.338126        -9.2009
  40   2.0000      -0.327856        -8.9214
  41   2.0000      -0.320063        -8.7094
  42   2.0000      -0.313963        -8.5434
  43   2.0000      -0.289937        -7.8896
  44   2.0000      -0.251741        -6.8502
  45   2.0000      -0.247966        -6.7475
  46   2.0000      -0.245228        -6.6730
  47   2.0000      -0.215942        -5.8761
  48   0.0000      -0.056438        -1.5357
  49   0.0000      -0.033145        -0.9019
  50   0.0000      -0.028923        -0.7870
  51   0.0000      -0.016652        -0.4531
  52   0.0000      -0.004502        -0.1225

MULLIKEN ATOMIC CHARGES
-----------------------
   0 C :   -1.048023
   1 C :    1.818714
   2 C :   -0.584371
   3 C :   -0.702201
   4 C :   -0.065239
   5 C :   -0.609179
   6 H :    0.418089
   7 H :    0.434204
   8 H :    0.376198
   9 H :   -0.053167
  10 C :    0.899866
  11 C :   -0.959756
  12 H :    0.127523
  13 H :    0.127973
  14 C :    1.821948
  15 C :   -1.044866
  16 C :   -0.608050
  17 C :   -0.059725
  18 C :   -0.710492
  19 C :   -0.586933
  20 H :   -0.055893
  21 H :    0.372855
  22 H :    0.456864
  23 H :    0.397449
  24 H :   -0.080340
  25 H :   -0.083449
Sum of atomic charges:   -0.0000000

LOEWDIN ATOMIC CHARGES
----------------------
   0 C :    0.211030
   1 C :   -0.141169
   2 C :    0.207839
   3 C :    0.205139
   4 C :    0.195346
   5 C :    0.203021
   6 H :   -0.177938
   7 H :   -0.179801
   8 H :   -0.177286
   9 H :   -0.171197
  10 C :   -0.139259
  11 C :    0.556627
  12 H :   -0.205184
  13 H :   -0.205193
  14 C :   -0.141163
  15 C :    0.211066
  16 C :    0.203041
  17 C :    0.195388
  18 C :    0.205176
  19 C :    0.207760
  20 H :   -0.171305
  21 H :   -0.177274
  22 H :   -0.179788
  23 H :   -0.177949
  24 H :   -0.178462
  25 H :   -0.178469

  Mayer bond orders larger than 0.100000
B(  0-C ,  1-C ) :   0.3882 B(  0-C ,  2-C ) :  -0.5145 B(  0-C ,  3-C ) :   0.1396
B(  0-C ,  5-C ) :   1.6061 B(  0-C ,  6-H ) :  -0.1123 B(  0-C , 10-C ) :   0.2681
B(  0-C , 25-H ) :   1.5117 B(  1-C ,  2-C ) :   0.7540 B(  1-C ,  3-C ) :  -0.1639
B(  1-C ,  4-C ) :  -0.1734 B(  1-C ,  8-H ) :   0.1266 B(  1-C , 11-C ) :  -0.2450
B(  1-C , 14-C ) :  -0.2198 B(  2-C ,  3-C ) :   1.5121 B(  2-C ,  9-H ) :   1.3762
B(  2-C , 11-C ) :   0.1269 B(  2-C , 19-C ) :   0.1450 B(  3-C ,  4-C ) :   1.4749
B(  3-C ,  5-C ) :   0.1947 B(  3-C ,  8-H ) :   0.5563 B(  4-C ,  5-C ) :   1.3379
B(  4-C ,  6-H ) :   0.1112 B(  4-C ,  7-H ) :   0.5275 B(  4-C ,  8-H ) :   0.1028
B(  4-C , 10-C ) :   0.1892 B(  5-C ,  6-H ) :   0.5395 B(  9-H , 10-C ) :  -0.1608
B(  9-H , 25-H ) :   0.1596 B( 10-C , 11-C ) :   0.9250 B( 10-C , 15-C ) :   0.2685
B( 10-C , 17-C ) :   0.1841 B( 10-C , 20-H ) :  -0.1609 B( 10-C , 24-H ) :  -0.1639
B( 10-C , 25-H ) :  -0.1648 B( 11-C , 12-H ) :   1.0566 B( 11-C , 13-H ) :   1.0565
B( 11-C , 14-C ) :  -0.2473 B( 11-C , 19-C ) :   0.1282 B( 14-C , 15-C ) :   0.3884
B( 14-C , 17-C ) :  -0.1791 B( 14-C , 18-C ) :  -0.1647 B( 14-C , 19-C ) :   0.7538
B( 14-C , 21-H ) :   0.1269 B( 15-C , 16-C ) :   1.6028 B( 15-C , 18-C ) :   0.1389
B( 15-C , 19-C ) :  -0.5163 B( 15-C , 23-H ) :  -0.1113 B( 15-C , 24-H ) :   1.5062
B( 16-C , 17-C ) :   1.3347 B( 16-C , 18-C ) :   0.1918 B( 16-C , 23-H ) :   0.5688
B( 17-C , 18-C ) :   1.4822 B( 17-C , 21-H ) :   0.1038 B( 17-C , 22-H ) :   0.5020
B( 17-C , 23-H ) :   0.1075 B( 18-C , 19-C ) :   1.5189 B( 18-C , 21-H ) :   0.5615
B( 19-C , 20-H ) :   1.3786 B( 20-H , 24-H ) :   0.1580

Dispersion correction           -0.038647601
FINAL SINGLE POINT ENERGY      -540.978941699553

DIPOLE MOMENT
-------------

Method             : SCF
Type of density    : Electron Density
Multiplicity       :   1
Irrep              :   0
Energy             :  -540.9402940981073016 Eh
Relativity type    :
Basis              : AO
                                X                 Y                 Z
Electronic contribution:     -0.001004014       0.616782534      -0.000511949
Nuclear contribution   :      0.000176936      -0.481308459      -0.000410817
                        -----------------------------------------
Total Dipole Moment    :     -0.000827078       0.135474075      -0.000922766
                        -----------------------------------------
Magnitude (a.u.)       :      0.135479742
Magnitude (Debye)      :      0.344362138

Rotational constants in cm-1:             0.053636             0.014029             0.012180
Rotational constants in MHz :          1607.969036           420.589911           365.157917

                             ****ORCA TERMINATED NORMALLY****
TOTAL RUN TIME: 0 days 0 hours 36 minutes 44 seconds 450 msec
