                         Program Version 6.0.0  -   RELEASE  -
|  1> !TPSSh aug-cc-pVTZ d3 TightSCF SlowConv RIJCOSX defgrid2
|  2>
|  3> %pal
|  4> nprocs 15
|  5> end
|  6>
|  7> %scf
|  8> MaxIter 1500
|  9> end
| 10>
| 11> %maxcore 3500
| 12>
| 13> !CPCM
| 14> %cpcm smd true
| 15> SMDsolvent "WATER"
| 16> surfacetype gepol_ses
| 17> rsolv 1.40
| 18> end
| 19>
| 20> * xyz 0 2
| 21> O           1.86556239468452      3.66778063685740      1.41934048443660
| 22> N           2.63911006242494      2.68933162619386      1.23001507884931
| 23> C           3.73080247656957      2.90535757443730      0.24181063762861
| 24> C           4.36093762959910      1.55921653542741     -0.15336987209592
| 25> C           4.63172810194409      0.70262118274796      1.05667158740786
| 26> C           3.37344672734739      0.39530870243854      1.82691342143050
| 27> C           2.68993700964555      1.68066650325082      2.32342254966252
| 28> C           4.79147854810668      3.83582820328657      0.84153155747969
| 29> C           3.10645949127391      3.55822382808877     -0.98811835641252
| 30> C           3.44599743934561      2.26113926142754      3.52426459340538
| 31> C           1.24931104144319      1.37171748445294      2.72213530312512
| 32> H           5.29854507645140      1.73380073454675     -0.70282077300820
| 33> H           3.66072621433755      1.01505886466252     -0.81307937183032
| 34> H           3.61014563723972     -0.25605158453535      2.68210471533816
| 35> H           2.67928631607287     -0.14191365883771      1.15513451843579
| 36> H           4.29973116397687      4.72680814583179      1.26491139664203
| 37> H           5.37961996772319      3.34202382093710      1.63164483429192
| 38> H           5.49413089896826      4.16049866008557      0.05546712960242
| 39> H           2.69205521882801      4.54458266598734     -0.73348635939669
| 40> H           2.28924200187458      2.93262822416028     -1.38514477797188
| 41> H           3.87286307615791      3.67858497187703     -1.77227016899908
| 42> H           3.04871559772316      3.26304759444425      3.75501562998363
| 43> H           4.52927071669545      2.33887771005461      3.33785198450762
| 44> H           3.30430449817939      1.61369753756705      4.40621306394055
| 45> H           0.75896130686192      2.26873651212742      3.12797736173082
| 46> H           0.67080790712862      1.02777195958958      1.84800524786398
| 47> H           1.24122074344172      0.57661748497107      3.48643408439020
| 48> O           5.73186456195476      0.33572713792153      1.38978502456186
| 49> *
| 50>
| 51>                          ****END OF INPUT****

CARTESIAN COORDINATES (ANGSTROEM)
---------------------------------
  O      1.865562    3.667781    1.419340
  N      2.639110    2.689332    1.230015
  C      3.730802    2.905358    0.241811
  C      4.360938    1.559217   -0.153370
  C      4.631728    0.702621    1.056672
  C      3.373447    0.395309    1.826913
  C      2.689937    1.680667    2.323423
  C      4.791479    3.835828    0.841532
  C      3.106459    3.558224   -0.988118
  C      3.445997    2.261139    3.524265
  C      1.249311    1.371717    2.722135
  H      5.298545    1.733801   -0.702821
  H      3.660726    1.015059   -0.813079
  H      3.610146   -0.256052    2.682105
  H      2.679286   -0.141914    1.155135
  H      4.299731    4.726808    1.264911
  H      5.379620    3.342024    1.631645
  H      5.494131    4.160499    0.055467
  H      2.692055    4.544583   -0.733486
  H      2.289242    2.932628   -1.385145
  H      3.872863    3.678585   -1.772270
  H      3.048716    3.263048    3.755016
  H      4.529271    2.338878    3.337852
  H      3.304304    1.613698    4.406213
  H      0.758961    2.268737    3.127977
  H      0.670808    1.027772    1.848005
  H      1.241221    0.576617    3.486434
  O      5.731865    0.335727    1.389785

 Total Charge           Charge          ....    0
 Multiplicity           Mult            ....    2
 Number of Electrons    NEL             ....   93
 Basis Dimension        Dim             ....  920

ORBITAL ENERGIES
----------------
                 SPIN UP ORBITALS
  NO   OCC          E(Eh)            E(eV)
   0   1.0000     -19.063407      -518.7417
   1   1.0000     -19.060744      -518.6692
   2   1.0000     -14.350239      -390.4899
   3   1.0000     -10.209333      -277.8101
   4   1.0000     -10.172946      -276.8199
   5   1.0000     -10.172936      -276.8197
   6   1.0000     -10.123343      -275.4702
   7   1.0000     -10.123324      -275.4696
   8   1.0000     -10.108594      -275.0688
   9   1.0000     -10.108585      -275.0686
  10   1.0000     -10.105151      -274.9751
  11   1.0000     -10.105143      -274.9749
  12   1.0000      -1.093529       -29.7564
  13   1.0000      -1.039958       -28.2987
  14   1.0000      -0.857994       -23.3472
  15   1.0000      -0.809215       -22.0199
  16   1.0000      -0.737025       -20.0555
  17   1.0000      -0.706660       -19.2292
  18   1.0000      -0.678864       -18.4728
  19   1.0000      -0.678220       -18.4553
  20   1.0000      -0.668674       -18.1955
  21   1.0000      -0.586028       -15.9466
  22   1.0000      -0.546473       -14.8703
  23   1.0000      -0.506127       -13.7724
  24   1.0000      -0.485665       -13.2156
  25   1.0000      -0.478516       -13.0211
  26   1.0000      -0.464548       -12.6410
  27   1.0000      -0.448317       -12.1993
  28   1.0000      -0.446730       -12.1561
  29   1.0000      -0.431736       -11.7481
  30   1.0000      -0.417062       -11.3488
  31   1.0000      -0.400597       -10.9008
  32   1.0000      -0.390233       -10.6188
  33   1.0000      -0.379127       -10.3166
  34   1.0000      -0.378417       -10.2972
  35   1.0000      -0.372995       -10.1497
  36   1.0000      -0.359943        -9.7945
  37   1.0000      -0.357494        -9.7279
  38   1.0000      -0.355347        -9.6695
  39   1.0000      -0.354798        -9.6545
  40   1.0000      -0.329910        -8.9773
  41   1.0000      -0.328304        -8.9336
  42   1.0000      -0.323288        -8.7971
  43   1.0000      -0.322211        -8.7678
  44   1.0000      -0.253233        -6.8908
  45   1.0000      -0.242166        -6.5897
  46   1.0000      -0.189566        -5.1584
  47   0.0000      -0.050286        -1.3683
  48   0.0000      -0.002786        -0.0758
  49   0.0000       0.010050         0.2735
  50   0.0000       0.012452         0.3388
  51   0.0000       0.014213         0.3867

                 SPIN DOWN ORBITALS
  NO   OCC          E(Eh)            E(eV)
   0   1.0000     -19.060708      -518.6682
   1   1.0000     -19.050394      -518.3876
   2   1.0000     -14.337602      -390.1460
   3   1.0000     -10.209336      -277.8102
   4   1.0000     -10.173305      -276.8297
   5   1.0000     -10.173293      -276.8294
   6   1.0000     -10.123297      -275.4689
   7   1.0000     -10.123277      -275.4684
   8   1.0000     -10.107892      -275.0497
   9   1.0000     -10.107885      -275.0495
  10   1.0000     -10.104931      -274.9692
  11   1.0000     -10.104921      -274.9689
  12   1.0000      -1.072226       -29.1767
  13   1.0000      -1.039852       -28.2958
  14   1.0000      -0.849076       -23.1045
  15   1.0000      -0.808279       -21.9944
  16   1.0000      -0.731623       -19.9085
  17   1.0000      -0.694582       -18.9005
  18   1.0000      -0.678552       -18.4643
  19   1.0000      -0.675982       -18.3944
  20   1.0000      -0.667460       -18.1625
  21   1.0000      -0.583821       -15.8866
  22   1.0000      -0.544634       -14.8202
  23   1.0000      -0.497822       -13.5464
  24   1.0000      -0.484283       -13.1780
  25   1.0000      -0.471852       -12.8397
  26   1.0000      -0.448968       -12.2170
  27   1.0000      -0.446001       -12.1363
  28   1.0000      -0.437505       -11.9051
  29   1.0000      -0.427446       -11.6314
  30   1.0000      -0.416801       -11.3417
  31   1.0000      -0.391848       -10.6627
  32   1.0000      -0.387863       -10.5543
  33   1.0000      -0.377511       -10.2726
  34   1.0000      -0.376475       -10.2444
  35   1.0000      -0.372299       -10.1308
  36   1.0000      -0.356739        -9.7074
  37   1.0000      -0.356451        -9.6995
  38   1.0000      -0.353867        -9.6292
  39   1.0000      -0.343746        -9.3538
  40   1.0000      -0.327524        -8.9124
  41   1.0000      -0.325957        -8.8697
  42   1.0000      -0.320886        -8.7317
  43   1.0000      -0.304286        -8.2800
  44   1.0000      -0.247378        -6.7315
  45   1.0000      -0.240191        -6.5359
  46   0.0000      -0.081922        -2.2292
  47   0.0000      -0.049120        -1.3366
  48   0.0000      -0.002139        -0.0582
  49   0.0000       0.010276         0.2796
  50   0.0000       0.013259         0.3608

MULLIKEN ATOMIC CHARGES AND SPIN POPULATIONS
--------------------------------------------
   0 O :   -1.217411    0.494535
   1 N :    0.468091    0.457281
   2 C :    1.696850   -0.028550
   3 C :   -0.124435    0.005936
   4 C :    1.359111    0.001112
   5 C :   -0.132771    0.005699
   6 C :    1.678433   -0.028162
   7 C :   -0.537906    0.034454
   8 C :   -0.733363    0.011448
   9 C :   -0.531435    0.034440
  10 C :   -0.733139    0.011206
  11 H :   -0.116679   -0.003582
  12 H :    0.042923    0.004490
  13 H :   -0.125551   -0.003611
  14 H :    0.050303    0.004286
  15 H :    0.041568    0.000783
  16 H :    0.122812   -0.001209
  17 H :   -0.152430    0.006433
  18 H :    0.040921   -0.005484
  19 H :    0.078382   -0.000443
  20 H :    0.006269   -0.001679
  21 H :    0.043579    0.000916
  22 H :    0.116791   -0.001160
  23 H :   -0.149185    0.006384
  24 H :    0.037790   -0.005441
  25 H :    0.075063   -0.000388
  26 H :    0.011170   -0.001668
  27 O :   -1.315754    0.001972
Sum of atomic charges         :   -0.0000000

LOEWDIN ATOMIC CHARGES AND SPIN POPULATIONS
-------------------------------------------
   0 O :    0.398165    0.436389
   1 N :   -0.108229    0.397481
   2 C :   -0.444490    0.042562
   3 C :    0.303195    0.002827
   4 C :   -0.520683    0.000924
   5 C :    0.303330    0.002798
   6 C :   -0.444052    0.042494
   7 C :    0.595828    0.020544
   8 C :    0.571893    0.004163
   9 C :    0.595588    0.020518
  10 C :    0.571787    0.004233
  11 H :   -0.126081   -0.000239
  12 H :   -0.118362    0.001011
  13 H :   -0.125749   -0.000242
  14 H :   -0.118573    0.001006
  15 H :   -0.147608    0.002022
  16 H :   -0.168029    0.001823
  17 H :   -0.136298    0.005988
  18 H :   -0.173321   -0.000007
  19 H :   -0.143923    0.001041
  20 H :   -0.139544    0.000361
  21 H :   -0.148371    0.002037
  22 H :   -0.167423    0.001831
  23 H :   -0.136427    0.005966
  24 H :   -0.172736    0.000006
  25 H :   -0.143862    0.001049
  26 H :   -0.139926    0.000374
  27 O :    0.483902    0.001039

  Mayer bond orders larger than 0.100000
B(  0-O ,  1-N ) :   0.2639 B(  0-O ,  2-C ) :  -0.1170 B(  0-O ,  6-C ) :  -0.1050
B(  1-N ,  2-C ) :   0.6040 B(  1-N ,  3-C ) :   0.2151 B(  1-N ,  5-C ) :   0.2141
B(  1-N ,  6-C ) :   0.5973 B(  2-C ,  3-C ) :   0.6423 B(  2-C ,  4-C ) :   0.1082
B(  2-C ,  7-C ) :   0.6039 B(  2-C ,  8-C ) :   0.4559 B(  2-C , 17-H ) :  -0.1005
B(  3-C ,  4-C ) :   0.9563 B(  3-C ,  5-C ) :   0.1284 B(  3-C ,  7-C ) :   0.1120
B(  3-C , 11-H ) :   0.9424 B(  3-C , 12-H ) :   0.9352 B(  3-C , 27-O ) :   0.3055
B(  4-C ,  5-C ) :   0.9523 B(  4-C ,  6-C ) :   0.1057 B(  4-C , 27-O ) :  -0.3816
B(  5-C ,  6-C ) :   0.6313 B(  5-C ,  9-C ) :   0.1155 B(  5-C , 13-H ) :   0.9522
B(  5-C , 14-H ) :   0.9329 B(  5-C , 27-O ) :   0.3064 B(  6-C ,  9-C ) :   0.6161
B(  6-C , 10-C ) :   0.4607 B(  6-C , 23-H ) :  -0.1015 B(  7-C ,  8-C ) :   0.1302
B(  7-C , 15-H ) :   1.0126 B(  7-C , 16-H ) :   0.9629 B(  7-C , 17-H ) :   1.1520
B(  8-C , 18-H ) :   1.0351 B(  8-C , 19-H ) :   1.0291 B(  8-C , 20-H ) :   1.0772
B(  9-C , 10-C ) :   0.1259 B(  9-C , 21-H ) :   1.0121 B(  9-C , 22-H ) :   0.9668
B(  9-C , 23-H ) :   1.1471 B( 10-C , 24-H ) :   1.0374 B( 10-C , 25-H ) :   1.0337
B( 10-C , 26-H ) :   1.0732

Dispersion correction           -0.038001655
FINAL SINGLE POINT ENERGY      -558.007079536187

DIPOLE MOMENT
-------------

Method             : SCF
Type of density    : Electron Density
Multiplicity       :   2
Irrep              :   0
Energy             :  -557.9690778811169594 Eh
Relativity type    :
Basis              : AO
                                X                 Y                 Z
Electronic contribution:      2.013871258      -3.547067463      -1.087756942
Nuclear contribution   :     -2.339550433       2.955416228       0.579005487
                        -----------------------------------------
Total Dipole Moment    :     -0.325679175      -0.591651235      -0.508751455
                        -----------------------------------------
Magnitude (a.u.)       :      0.845544885
Magnitude (Debye)      :      2.149204297

Rotational constants in cm-1:             0.036094             0.035779             0.023697
Rotational constants in MHz :          1082.069740          1072.621338           710.415750

                             ****ORCA TERMINATED NORMALLY****
TOTAL RUN TIME: 0 days 0 hours 8 minutes 45 seconds 641 msec
