                         Program Version 6.0.0  -   RELEASE  -
|  1> !r2SCAN aug-cc-pVTZ d3 TightSCF SlowConv RIJCOSX defgrid2
|  2>
|  3> %pal
|  4> nprocs 4
|  5> end
|  6>
|  7> %scf
|  8> MaxIter 1500
|  9> end
| 10>
| 11> %maxcore 3000
| 12>
| 13> !CPCM
| 14> %cpcm smd true
| 15> SMDsolvent "MeCN"
| 16> surfacetype gepol_ses
| 17> rsolv 2.19
| 18> end
| 19>
| 20> * xyz 0 1
| 21> C           1.70794904224376      1.04467574002160     -0.00082115823630
| 22> C           0.54506091843343      1.80041636987342      0.00092727542514
| 23> C          -0.71995737134675      1.20789382518015      0.00266725175734
| 24> C          -0.79928034034382     -0.18958869725345      0.00203404950996
| 25> C           0.36555187029785     -0.96292788679972     -0.00127682462626
| 26> C           1.62853570763603     -0.36210788791669     -0.00033727635058
| 27> N           2.77536570496609     -1.13072452733301      0.04605337906448
| 28> H           2.68782736481958     -2.09774939602609     -0.24334837672475
| 29> H           3.63153622370525     -0.68698285577236     -0.26446400959356
| 30> H           0.26012985099536     -2.05117646749275      0.00119199205899
| 31> O          -1.95887797909201     -0.88292631196206      0.00111465750073
| 32> C          -3.16473217214371     -0.17733625608172      0.00517658162857
| 33> H          -3.96763161416444     -0.93012200833219      0.00565020749220
| 34> H          -3.27146637162925      0.46046835612956     -0.89370073464759
| 35> H          -3.26716187551626      0.45698983325543      0.90693586054833
| 36> H          -1.61360225529630      1.83287965977611      0.00353042246975
| 37> H           0.61871381842504      2.89254399544489      0.00007743154790
| 38> H           2.68668417801016      1.53365321528886      0.00373907117562
| 39> *
| 40>
| 41>                          ****END OF INPUT****

CARTESIAN COORDINATES (ANGSTROEM)
---------------------------------
  C      1.707949    1.044676   -0.000821
  C      0.545061    1.800416    0.000927
  C     -0.719957    1.207894    0.002667
  C     -0.799280   -0.189589    0.002034
  C      0.365552   -0.962928   -0.001277
  C      1.628536   -0.362108   -0.000337
  N      2.775366   -1.130725    0.046053
  H      2.687827   -2.097749   -0.243348
  H      3.631536   -0.686983   -0.264464
  H      0.260130   -2.051176    0.001192
  O     -1.958878   -0.882926    0.001115
  C     -3.164732   -0.177336    0.005177
  H     -3.967632   -0.930122    0.005650
  H     -3.271466    0.460468   -0.893701
  H     -3.267162    0.456990    0.906936
  H     -1.613602    1.832880    0.003530
  H      0.618714    2.892544    0.000077
  H      2.686684    1.533653    0.003739

 Total Charge           Charge          ....    0
 Multiplicity           Mult            ....    1
 Number of Electrons    NEL             ....   66
 Basis Dimension        Dim             ....  621

ORBITAL ENERGIES
----------------

  NO   OCC          E(Eh)            E(eV)
   0   2.0000     -18.988477      -516.7027
   1   2.0000     -14.164138      -385.4258
   2   2.0000     -10.096796      -274.7478
   3   2.0000     -10.080034      -274.2917
   4   2.0000     -10.076479      -274.1949
   5   2.0000     -10.038531      -273.1623
   6   2.0000     -10.024803      -272.7888
   7   2.0000     -10.024784      -272.7882
   8   2.0000     -10.024632      -272.7841
   9   2.0000      -1.038495       -28.2589
  10   2.0000      -0.882805       -24.0224
  11   2.0000      -0.800214       -21.7749
  12   2.0000      -0.721281       -19.6270
  13   2.0000      -0.691306       -18.8114
  14   2.0000      -0.654629       -17.8134
  15   2.0000      -0.576399       -15.6846
  16   2.0000      -0.555008       -15.1025
  17   2.0000      -0.502238       -13.6666
  18   2.0000      -0.479691       -13.0531
  19   2.0000      -0.449280       -12.2255
  20   2.0000      -0.434175       -11.8145
  21   2.0000      -0.431482       -11.7412
  22   2.0000      -0.423549       -11.5254
  23   2.0000      -0.384892       -10.4734
  24   2.0000      -0.369519       -10.0551
  25   2.0000      -0.361331        -9.8323
  26   2.0000      -0.334536        -9.1032
  27   2.0000      -0.326739        -8.8910
  28   2.0000      -0.311207        -8.4684
  29   2.0000      -0.291092        -7.9210
  30   2.0000      -0.273109        -7.4317
  31   2.0000      -0.205785        -5.5997
  32   2.0000      -0.185964        -5.0603
  33   0.0000      -0.028798        -0.7836
  34   0.0000      -0.008160        -0.2220
  35   0.0000       0.005933         0.1614
  36   0.0000       0.018667         0.5079
  37   0.0000       0.023213         0.6316

MULLIKEN ATOMIC CHARGES
-----------------------
   0 C :   -0.875161
   1 C :   -0.357142
   2 C :   -0.456017
   3 C :    1.218509
   4 C :   -1.281969
   5 C :    1.254970
   6 N :   -0.598138
   7 H :    0.035977
   8 H :    0.036647
   9 H :    0.359109
  10 O :   -0.626335
  11 C :   -0.633237
  12 H :    0.227645
  13 H :    0.240859
  14 H :    0.242934
  15 H :    0.405925
  16 H :    0.365876
  17 H :    0.439547
Sum of atomic charges:    0.0000000

LOEWDIN ATOMIC CHARGES
----------------------
   0 C :    0.192342
   1 C :    0.156245
   2 C :    0.179016
   3 C :   -0.425570
   4 C :    0.207822
   5 C :   -0.283930
   6 N :    0.856918
   7 H :   -0.283191
   8 H :   -0.283959
   9 H :   -0.173754
  10 O :    0.590282
  11 C :    0.316559
  12 H :   -0.170863
  13 H :   -0.162868
  14 H :   -0.162870
  15 H :   -0.202409
  16 H :   -0.173217
  17 H :   -0.176552

  Mayer bond orders larger than 0.100000
B(  0-C ,  1-C ) :   1.0451 B(  0-C ,  2-C ) :   0.4569 B(  0-C ,  3-C ) :  -0.3069
B(  0-C ,  4-C ) :   0.7058 B(  0-C ,  5-C ) :   0.4255 B(  0-C ,  6-N ) :  -0.1102
B(  0-C ,  9-H ) :  -0.1040 B(  0-C , 15-H ) :  -0.1148 B(  0-C , 17-H ) :   0.4319
B(  1-C ,  2-C ) :   0.6795 B(  1-C ,  3-C ) :  -0.2919 B(  1-C ,  4-C ) :  -0.2664
B(  1-C ,  5-C ) :  -0.2156 B(  1-C ,  9-H ) :   0.1119 B(  1-C , 15-H ) :   0.1244
B(  1-C , 16-H ) :   0.7425 B(  2-C ,  3-C ) :   0.6715 B(  2-C ,  4-C ) :   0.6420
B(  2-C ,  5-C ) :  -0.2681 B(  2-C ,  9-H ) :  -0.1277 B(  2-C , 10-O ) :  -0.1553
B(  2-C , 11-C ) :  -0.1099 B(  2-C , 15-H ) :   0.4729 B(  3-C ,  4-C ) :   0.2096
B(  3-C , 10-O ) :   0.3469 B(  4-C ,  5-C ) :   0.3865 B(  4-C ,  9-H ) :   0.4365
B(  4-C , 10-O ) :   0.2811 B(  5-C ,  6-N ) :   0.4878 B(  5-C ,  9-H ) :   0.1924
B(  5-C , 15-H ) :   0.1244 B(  5-C , 17-H ) :   0.1253 B(  6-N ,  7-H ) :   1.1052
B(  6-N ,  8-H ) :   1.1105 B( 10-O , 11-C ) :   1.0185 B( 11-C , 12-H ) :   0.9735
B( 11-C , 13-H ) :   0.9282 B( 11-C , 14-H ) :   0.9273 B( 11-C , 15-H ) :  -0.1181

Dispersion correction           -0.005173214
FINAL SINGLE POINT ENERGY      -402.073825432843

DIPOLE MOMENT
-------------

Method             : SCF
Type of density    : Electron Density
Multiplicity       :   1
Irrep              :   0
Energy             :  -402.0686522185581566 Eh
Relativity type    :
Basis              : AO
                                X                 Y                 Z
Electronic contribution:      2.287578051      -1.381976538       0.034520952
Nuclear contribution   :     -2.112843888       1.316658506      -0.469607068
                        -----------------------------------------
Total Dipole Moment    :      0.174734163      -0.065318032      -0.435086116
                        -----------------------------------------
Magnitude (a.u.)       :      0.473390327
Magnitude (Debye)      :      1.203262586

Rotational constants in cm-1:             0.120502             0.037824             0.028965
Rotational constants in MHz :          3612.547947          1133.927652           868.354096

                             ****ORCA TERMINATED NORMALLY****
TOTAL RUN TIME: 0 days 0 hours 2 minutes 59 seconds 886 msec
