                         Program Version 6.0.0  -   RELEASE  -
|  1> !TPSSh aug-cc-pVTZ d3 TightSCF SlowConv RIJCOSX defgrid2
|  2>
|  3> %pal
|  4> nprocs 4
|  5> end
|  6>
|  7> %scf
|  8> MaxIter 1500
|  9> end
| 10>
| 11> %maxcore 3000
| 12>
| 13> !CPCM
| 14> %cpcm smd true
| 15> SMDsolvent "MeCN"
| 16> surfacetype gepol_ses
| 17> rsolv 2.19
| 18> end
| 19>
| 20> * xyz 0 1
| 21> C          -0.01157783641881      1.20352898199244      0.00001890353025
| 22> C           1.37990540430455      1.22191450811359      0.00011854591947
| 23> C           2.06592899516975      0.01252414866139      0.00007181753194
| 24> C           1.39794249050432     -1.20933071970230     -0.00006681343243
| 25> C           0.01016197626576     -1.21076373795935     -0.00015906863819
| 26> C          -0.71228022521915     -0.00932565619212     -0.00012281102354
| 27> C          -2.20544538942687     -0.09111368239076     -0.00023883939795
| 28> O          -2.76237956084169     -1.16697560386648     -0.00031741607190
| 29> C          -2.99637020201978      1.19627311334720     -0.00027997588088
| 30> H          -2.76201741553525      1.80607989056811      0.88981335524989
| 31> H          -2.76168147330890      1.80627685436038     -0.89014621124470
| 32> H          -4.06823478710533      0.95066483560844     -0.00049545748797
| 33> H          -0.55378818786793     -2.14712022161097     -0.00026564570615
| 34> H           1.97664868381534     -2.13630478054762     -0.00010007290271
| 35> F           3.39392859180167      0.02324511926514      0.00015796253828
| 36> H           1.94353444532030      2.15785345098842      0.00023004641097
| 37> H          -0.54990740943796      2.15466559936447      0.00005528060562
| 38> *
| 39>
| 40>                          ****END OF INPUT****

CARTESIAN COORDINATES (ANGSTROEM)
---------------------------------
  C     -0.011578    1.203529    0.000019
  C      1.379905    1.221915    0.000119
  C      2.065929    0.012524    0.000072
  C      1.397942   -1.209331   -0.000067
  C      0.010162   -1.210764   -0.000159
  C     -0.712280   -0.009326   -0.000123
  C     -2.205445   -0.091114   -0.000239
  O     -2.762380   -1.166976   -0.000317
  C     -2.996370    1.196273   -0.000280
  H     -2.762017    1.806080    0.889813
  H     -2.761681    1.806277   -0.890146
  H     -4.068235    0.950665   -0.000495
  H     -0.553788   -2.147120   -0.000266
  H      1.976649   -2.136305   -0.000100
  F      3.393929    0.023245    0.000158
  H      1.943534    2.157853    0.000230
  H     -0.549907    2.154666    0.000055

 Total Charge           Charge          ....    0
 Multiplicity           Mult            ....    1
 Number of Electrons    NEL             ....   72
 Basis Dimension        Dim             ....  621

ORBITAL ENERGIES
----------------

  NO   OCC          E(Eh)            E(eV)
   0   2.0000     -24.627811      -670.1568
   1   2.0000     -19.042464      -518.1718
   2   2.0000     -10.210014      -277.8286
   3   2.0000     -10.200598      -277.5724
   4   2.0000     -10.135237      -275.7938
   5   2.0000     -10.131404      -275.6895
   6   2.0000     -10.128962      -275.6231
   7   2.0000     -10.128903      -275.6215
   8   2.0000     -10.128305      -275.6052
   9   2.0000     -10.109996      -275.1070
  10   2.0000      -1.223352       -33.2891
  11   2.0000      -1.023017       -27.8377
  12   2.0000      -0.851246       -23.1636
  13   2.0000      -0.755919       -20.5696
  14   2.0000      -0.743868       -20.2417
  15   2.0000      -0.708035       -19.2666
  16   2.0000      -0.618910       -16.8414
  17   2.0000      -0.609666       -16.5899
  18   2.0000      -0.538128       -14.6432
  19   2.0000      -0.535402       -14.5690
  20   2.0000      -0.483181       -13.1480
  21   2.0000      -0.464011       -12.6264
  22   2.0000      -0.463329       -12.6078
  23   2.0000      -0.435832       -11.8596
  24   2.0000      -0.423859       -11.5338
  25   2.0000      -0.415835       -11.3154
  26   2.0000      -0.413791       -11.2598
  27   2.0000      -0.391956       -10.6657
  28   2.0000      -0.381428       -10.3792
  29   2.0000      -0.362166        -9.8550
  30   2.0000      -0.358196        -9.7470
  31   2.0000      -0.339864        -9.2482
  32   2.0000      -0.329458        -8.9650
  33   2.0000      -0.260391        -7.0856
  34   2.0000      -0.246927        -6.7192
  35   2.0000      -0.238461        -6.4889
  36   0.0000      -0.072276        -1.9667
  37   0.0000      -0.036299        -0.9878
  38   0.0000      -0.003686        -0.1003
  39   0.0000       0.009354         0.2545
  40   0.0000       0.013779         0.3749

MULLIKEN ATOMIC CHARGES
-----------------------
   0 C :   -0.312921
   1 C :   -0.667909
   2 C :    0.589717
   3 C :   -0.489695
   4 C :   -0.583876
   5 C :    0.989576
   6 C :    0.858105
   7 O :   -1.000907
   8 C :   -0.232705
   9 H :    0.190291
  10 H :    0.190748
  11 H :   -0.029390
  12 H :    0.160435
  13 H :    0.317956
  14 F :   -0.510205
  15 H :    0.285163
  16 H :    0.245617
Sum of atomic charges:    0.0000000

LOEWDIN ATOMIC CHARGES
----------------------
   0 C :    0.201417
   1 C :    0.208361
   2 C :   -0.547342
   3 C :    0.205349
   4 C :    0.187504
   5 C :   -0.135729
   6 C :   -0.552494
   7 O :    0.488877
   8 C :    0.566682
   9 H :   -0.157895
  10 H :   -0.157938
  11 H :   -0.177601
  12 H :   -0.184031
  13 H :   -0.166694
  14 F :    0.558099
  15 H :   -0.165596
  16 H :   -0.170969

  Mayer bond orders larger than 0.100000
B(  0-C ,  1-C ) :   1.1831 B(  0-C ,  2-C ) :  -0.1405 B(  0-C ,  4-C ) :  -0.1763
B(  0-C ,  5-C ) :   0.7494 B(  0-C , 16-H ) :   0.8583 B(  1-C ,  2-C ) :   1.4147
B(  1-C ,  3-C ) :   0.2540 B(  1-C , 14-F ) :   0.2297 B(  1-C , 15-H ) :   0.6146
B(  2-C ,  3-C ) :   1.4096 B(  2-C ,  4-C ) :  -0.2092 B(  2-C , 14-F ) :   0.1330
B(  3-C ,  4-C ) :   1.4452 B(  3-C ,  5-C ) :  -0.1396 B(  3-C , 13-H ) :   0.5859
B(  3-C , 14-F ) :   0.2254 B(  4-C ,  5-C ) :   0.6775 B(  4-C ,  6-C ) :   0.1061
B(  4-C , 12-H ) :   0.8299 B(  5-C ,  6-C ) :   0.5176 B(  5-C ,  7-O ) :   0.2240
B(  6-C ,  7-O ) :   0.4838 B(  6-C ,  8-C ) :   1.0614 B(  7-O , 12-H ) :   0.1588
B(  8-C ,  9-H ) :   0.9351 B(  8-C , 10-H ) :   0.9351 B(  8-C , 11-H ) :   1.0339
B( 13-H , 14-F ) :   0.1576 B( 14-F , 15-H ) :   0.1437

Dispersion correction           -0.020457048
FINAL SINGLE POINT ENERGY      -484.360883951829

DIPOLE MOMENT
-------------

Method             : SCF
Type of density    : Electron Density
Multiplicity       :   1
Irrep              :   0
Energy             :  -484.3404269036926735 Eh
Relativity type    :
Basis              : AO
                                X                 Y                 Z
Electronic contribution:      9.933401148      -2.969602750       0.000955851
Nuclear contribution   :     -9.565763920       4.278558097      -0.000557353
                        -----------------------------------------
Total Dipole Moment    :      0.367637228       1.308955347       0.000398498
                        -----------------------------------------
Magnitude (a.u.)       :      1.359603395
Magnitude (Debye)      :      3.455837189

Rotational constants in cm-1:             0.122785             0.025820             0.021420
Rotational constants in MHz :          3680.997761           774.054545           642.159761

                             ****ORCA TERMINATED NORMALLY****
TOTAL RUN TIME: 0 days 0 hours 5 minutes 34 seconds 222 msec
