                         Program Version 6.0.0  -   RELEASE  -
|  1> !TPSSh aug-cc-pVTZ d3 TightSCF SlowConv RIJCOSX defgrid2
|  2>
|  3> %pal
|  4> nprocs 4
|  5> end
|  6>
|  7> %scf
|  8> MaxIter 1500
|  9> end
| 10>
| 11> %maxcore 3000
| 12>
| 13> !CPCM
| 14> %cpcm smd true
| 15> SMDsolvent "MeCN"
| 16> surfacetype gepol_ses
| 17> rsolv 2.19
| 18> end
| 19>
| 20> * xyz 0 1
| 21> C          -0.69471715027891      1.20160424367180      0.00254330764544
| 22> C           0.69612063581105      1.19291899288814      0.00968566042107
| 23> C           1.42778733631965      0.00018404946816      0.01007822944484
| 24> C           2.93063058367763     -0.00027863689039     -0.01829178119376
| 25> H           3.34402418608942      0.90078695962724      0.46603728071123
| 26> H           3.31730142827762     -0.02014085009214     -1.05503454463859
| 27> H           3.34459568522108     -0.88206330588670      0.50008328858434
| 28> C           0.69618993551697     -1.19280776592252      0.00927470210724
| 29> C          -0.69448057691314     -1.20162515498911      0.00211243242400
| 30> C          -1.42112887903605      0.00001156196422     -0.00389874102897
| 31> N          -2.80457629708089     -0.00021726257641     -0.05900293362540
| 32> H          -3.26571318600359     -0.84658941152166      0.25460910629618
| 33> H          -3.26597866165769      0.84602614670405      0.25456635083211
| 34> H          -1.23244316710201     -2.15552812692684      0.00133757208656
| 35> H           1.23001055078301     -2.14947021386169      0.01854947119546
| 36> H           1.22985485991374      2.14960675922401      0.01926471808220
| 37> H          -1.23272228353791      2.15547551511983      0.00212038065604
| 38> *
| 39>
| 40>                          ****END OF INPUT****

CARTESIAN COORDINATES (ANGSTROEM)
---------------------------------
  C     -0.694717    1.201604    0.002543
  C      0.696121    1.192919    0.009686
  C      1.427787    0.000184    0.010078
  C      2.930631   -0.000279   -0.018292
  H      3.344024    0.900787    0.466037
  H      3.317301   -0.020141   -1.055035
  H      3.344596   -0.882063    0.500083
  C      0.696190   -1.192808    0.009275
  C     -0.694481   -1.201625    0.002112
  C     -1.421129    0.000012   -0.003899
  N     -2.804576   -0.000217   -0.059003
  H     -3.265713   -0.846589    0.254609
  H     -3.265979    0.846026    0.254566
  H     -1.232443   -2.155528    0.001338
  H      1.230011   -2.149470    0.018549
  H      1.229855    2.149607    0.019265
  H     -1.232722    2.155476    0.002120

 Total Charge           Charge          ....    0
 Multiplicity           Mult            ....    1
 Number of Electrons    NEL             ....   58
 Basis Dimension        Dim             ....  575

ORBITAL ENERGIES
----------------

  NO   OCC          E(Eh)            E(eV)
   0   2.0000     -14.248474      -387.7207
   1   2.0000     -10.149735      -276.1883
   2   2.0000     -10.109934      -275.1053
   3   2.0000     -10.109375      -275.0901
   4   2.0000     -10.109172      -275.0846
   5   2.0000     -10.106145      -275.0022
   6   2.0000     -10.106086      -275.0006
   7   2.0000     -10.103277      -274.9241
   8   2.0000      -0.892731       -24.2924
   9   2.0000      -0.817505       -22.2454
  10   2.0000      -0.730570       -19.8798
  11   2.0000      -0.719645       -19.5825
  12   2.0000      -0.648685       -17.6516
  13   2.0000      -0.589027       -16.0282
  14   2.0000      -0.558210       -15.1897
  15   2.0000      -0.494840       -13.4653
  16   2.0000      -0.484890       -13.1945
  17   2.0000      -0.437598       -11.9077
  18   2.0000      -0.414161       -11.2699
  19   2.0000      -0.403057       -10.9677
  20   2.0000      -0.393859       -10.7175
  21   2.0000      -0.391799       -10.6614
  22   2.0000      -0.361194        -9.8286
  23   2.0000      -0.354406        -9.6439
  24   2.0000      -0.329669        -8.9708
  25   2.0000      -0.311268        -8.4700
  26   2.0000      -0.288173        -7.8416
  27   2.0000      -0.241595        -6.5741
  28   2.0000      -0.189164        -5.1474
  29   0.0000      -0.021485        -0.5846
  30   0.0000      -0.006347        -0.1727
  31   0.0000      -0.003197        -0.0870
  32   0.0000       0.006459         0.1757
  33   0.0000       0.013749         0.3741

MULLIKEN ATOMIC CHARGES
-----------------------
   0 C :   -0.599934
   1 C :   -0.580715
   2 C :    0.864197
   3 C :   -0.291019
   4 H :    0.123361
   5 H :    0.143935
   6 H :    0.124195
   7 C :   -0.591359
   8 C :   -0.603255
   9 C :    1.070819
  10 N :   -0.631046
  11 H :    0.007575
  12 H :    0.007167
  13 H :    0.357355
  14 H :    0.119576
  15 H :    0.118532
  16 H :    0.360614
Sum of atomic charges:   -0.0000000

LOEWDIN ATOMIC CHARGES
----------------------
   0 C :    0.203241
   1 C :    0.184730
   2 C :   -0.159098
   3 C :    0.556479
   4 H :   -0.169426
   5 H :   -0.157224
   6 H :   -0.168801
   7 C :    0.184720
   8 C :    0.203247
   9 C :   -0.272925
  10 N :    0.848163
  11 H :   -0.287136
  12 H :   -0.287125
  13 H :   -0.170854
  14 H :   -0.168362
  15 H :   -0.168744
  16 H :   -0.170885

  Mayer bond orders larger than 0.100000
B(  0-C ,  1-C ) :   1.4391 B(  0-C ,  8-C ) :   0.2799 B(  0-C ,  9-C ) :   1.0104
B(  0-C , 16-H ) :   0.4560 B(  1-C ,  2-C ) :   0.7706 B(  1-C ,  9-C ) :  -0.2359
B(  1-C , 15-H ) :   0.9778 B(  2-C ,  3-C ) :   0.6596 B(  2-C ,  7-C ) :   0.7711
B(  2-C ,  9-C ) :   0.1459 B(  3-C ,  4-H ) :   0.9653 B(  3-C ,  5-H ) :   0.9658
B(  3-C ,  6-H ) :   0.9671 B(  3-C ,  7-C ) :   0.1020 B(  7-C ,  8-C ) :   1.4412
B(  7-C ,  9-C ) :  -0.2341 B(  7-C , 14-H ) :   0.9741 B(  8-C ,  9-C ) :   1.0148
B(  8-C , 13-H ) :   0.4612 B(  9-C , 10-N ) :   0.2079 B(  9-C , 13-H ) :   0.1744
B(  9-C , 16-H ) :   0.1753 B( 10-N , 11-H ) :   1.1170 B( 10-N , 12-H ) :   1.1174

Dispersion correction           -0.018998152
FINAL SINGLE POINT ENERGY      -327.092180785836

DIPOLE MOMENT
-------------

Method             : SCF
Type of density    : Electron Density
Multiplicity       :   1
Irrep              :   0
Energy             :  -327.0731826336797781 Eh
Relativity type    :
Basis              : AO
                                X                 Y                 Z
Electronic contribution:     -3.904250350      -0.000284854      -0.011139502
Nuclear contribution   :      3.276071104      -0.001396692       0.450262688
                        -----------------------------------------
Total Dipole Moment    :     -0.628179246      -0.001681546       0.439123186
                        -----------------------------------------
Magnitude (a.u.)       :      0.766447106
Magnitude (Debye)      :      1.948153720

Rotational constants in cm-1:             0.182492             0.048394             0.038562
Rotational constants in MHz :          5470.963839          1450.824170          1156.068201

                             ****ORCA TERMINATED NORMALLY****
TOTAL RUN TIME: 0 days 0 hours 3 minutes 52 seconds 275 msec
