                         Program Version 6.0.0  -   RELEASE  -
|  1> !PBE0 aug-cc-pVTZ d3 TightSCF SlowConv RIJCOSX defgrid2
|  2>
|  3> %pal
|  4> nprocs 4
|  5> end
|  6>
|  7> %scf
|  8> MaxIter 1500
|  9> end
| 10>
| 11> %maxcore 3000
| 12>
| 13> !CPCM
| 14> %cpcm smd true
| 15> SMDsolvent "MeCN"
| 16> surfacetype gepol_ses
| 17> rsolv 2.19
| 18> end
| 19>
| 20> * xyz -1 2
| 21> C          -1.65840506329252      1.23315632851947      0.02601526537403
| 22> C          -2.42578649114951      0.03281585518203      0.08528804223097
| 23> C          -1.67500855485910     -1.17845195322716      0.12036686377485
| 24> C          -0.29808583706699     -1.18487448797938      0.09449761529292
| 25> C           0.47768362470154      0.01218058376897      0.03640458659712
| 26> C          -0.28519866523432      1.22292049595471      0.00549364199425
| 27> H           0.23475594749759      2.18352828017466     -0.06045863687846
| 28> C           1.92437178707837      0.00115458002986      0.01100117558003
| 29> C           2.67883904782948     -1.19675573826742     -0.15101120804037
| 30> C           4.06549110019082     -1.20386096938929     -0.17390692614329
| 31> C           4.80148582635897     -0.01911609182057     -0.03832527138067
| 32> C           4.08714619159076      1.17581153913523      0.12162078849715
| 33> C           2.70053896682853      1.18836482105812      0.14598455531242
| 34> H           2.19415808930578      2.14532112879358      0.29368951522032
| 35> H           4.62811245028724      2.12283575750504      0.23701258282278
| 36> H           5.89571186828997     -0.02674525345583     -0.05713878250098
| 37> H           4.58896204524971     -2.15823787143737     -0.30821999533445
| 38> H           2.15467602469528     -2.14659846493838     -0.28283079681457
| 39> H           0.20917374243606     -2.15301705967323      0.14488479784911
| 40> H          -2.19771917366060     -2.13934491080503      0.17750905700078
| 41> C          -3.86642076140458      0.10366572155671      0.10496388365322
| 42> O          -4.50000624052699      1.17092445235144      0.07778084872509
| 43> C          -4.64653285281065     -1.20806217086235      0.16034754144994
| 44> H          -5.72082859909169     -0.96357086012156      0.16151446988558
| 45> H          -4.42797764815507     -1.85931891363364     -0.70698861916337
| 46> H          -4.41233005196803     -1.79426891356283      1.06923738121782
| 47> H          -2.21281117312006      2.17574341514422     -0.01014627622221
| 48> *
| 49>
| 50>                          ****END OF INPUT****

CARTESIAN COORDINATES (ANGSTROEM)
---------------------------------
  C     -1.658405    1.233156    0.026015
  C     -2.425786    0.032816    0.085288
  C     -1.675009   -1.178452    0.120367
  C     -0.298086   -1.184874    0.094498
  C      0.477684    0.012181    0.036405
  C     -0.285199    1.222920    0.005494
  H      0.234756    2.183528   -0.060459
  C      1.924372    0.001155    0.011001
  C      2.678839   -1.196756   -0.151011
  C      4.065491   -1.203861   -0.173907
  C      4.801486   -0.019116   -0.038325
  C      4.087146    1.175812    0.121621
  C      2.700539    1.188365    0.145985
  H      2.194158    2.145321    0.293690
  H      4.628112    2.122836    0.237013
  H      5.895712   -0.026745   -0.057139
  H      4.588962   -2.158238   -0.308220
  H      2.154676   -2.146598   -0.282831
  H      0.209174   -2.153017    0.144885
  H     -2.197719   -2.139345    0.177509
  C     -3.866421    0.103666    0.104964
  O     -4.500006    1.170924    0.077781
  C     -4.646533   -1.208062    0.160348
  H     -5.720829   -0.963571    0.161514
  H     -4.427978   -1.859319   -0.706989
  H     -4.412330   -1.794269    1.069237
  H     -2.212811    2.175743   -0.010146

 Total Charge           Charge          ....   -1
 Multiplicity           Mult            ....    2
 Number of Electrons    NEL             ....  105
 Basis Dimension        Dim             ....  966

ORBITAL ENERGIES
----------------
                 SPIN UP ORBITALS
  NO   OCC          E(Eh)            E(eV)
   0   1.0000     -19.146604      -521.0056
   1   1.0000     -10.261984      -279.2428
   2   1.0000     -10.229571      -278.3608
   3   1.0000     -10.219605      -278.0896
   4   1.0000     -10.219517      -278.0872
   5   1.0000     -10.215463      -277.9769
   6   1.0000     -10.215413      -277.9755
   7   1.0000     -10.215167      -277.9688
   8   1.0000     -10.214010      -277.9373
   9   1.0000     -10.210994      -277.8553
  10   1.0000     -10.209745      -277.8213
  11   1.0000     -10.209325      -277.8099
  12   1.0000     -10.206158      -277.7237
  13   1.0000     -10.199861      -277.5523
  14   1.0000     -10.199689      -277.5477
  15   1.0000      -1.017693       -27.6928
  16   1.0000      -0.877384       -23.8748
  17   1.0000      -0.854014       -23.2389
  18   1.0000      -0.790616       -21.5137
  19   1.0000      -0.759373       -20.6636
  20   1.0000      -0.750748       -20.4289
  21   1.0000      -0.742763       -20.2116
  22   1.0000      -0.712025       -19.3752
  23   1.0000      -0.645765       -17.5722
  24   1.0000      -0.618558       -16.8318
  25   1.0000      -0.590417       -16.0661
  26   1.0000      -0.581149       -15.8139
  27   1.0000      -0.544717       -14.8225
  28   1.0000      -0.525610       -14.3026
  29   1.0000      -0.484152       -13.1745
  30   1.0000      -0.467880       -12.7317
  31   1.0000      -0.461078       -12.5466
  32   1.0000      -0.431546       -11.7430
  33   1.0000      -0.429281       -11.6813
  34   1.0000      -0.428059       -11.6481
  35   1.0000      -0.427631       -11.6364
  36   1.0000      -0.420563       -11.4441
  37   1.0000      -0.404880       -11.0174
  38   1.0000      -0.394148       -10.7253
  39   1.0000      -0.390544       -10.6272
  40   1.0000      -0.381863       -10.3910
  41   1.0000      -0.365669        -9.9503
  42   1.0000      -0.358726        -9.7614
  43   1.0000      -0.344046        -9.3620
  44   1.0000      -0.342917        -9.3312
  45   1.0000      -0.340378        -9.2621
  46   1.0000      -0.308966        -8.4074
  47   1.0000      -0.289296        -7.8721
  48   1.0000      -0.264788        -7.2052
  49   1.0000      -0.258182        -7.0255
  50   1.0000      -0.232994        -6.3401
  51   1.0000      -0.224764        -6.1161
  52   1.0000      -0.110643        -3.0107
  53   0.0000      -0.008160        -0.2220
  54   0.0000      -0.007688        -0.2092
  55   0.0000       0.001327         0.0361
  56   0.0000       0.009418         0.2563
  57   0.0000       0.016069         0.4373

                 SPIN DOWN ORBITALS
  NO   OCC          E(Eh)            E(eV)
   0   1.0000     -19.142181      -520.8852
   1   1.0000     -10.259762      -279.1823
   2   1.0000     -10.230016      -278.3729
   3   1.0000     -10.220455      -278.1127
   4   1.0000     -10.220363      -278.1102
   5   1.0000     -10.213884      -277.9339
   6   1.0000     -10.213847      -277.9329
   7   1.0000     -10.211805      -277.8773
   8   1.0000     -10.211355      -277.8651
   9   1.0000     -10.210180      -277.8331
  10   1.0000     -10.210078      -277.8304
  11   1.0000     -10.209398      -277.8118
  12   1.0000     -10.204941      -277.6906
  13   1.0000     -10.199900      -277.5534
  14   1.0000     -10.197934      -277.4999
  15   1.0000      -1.009400       -27.4672
  16   1.0000      -0.874402       -23.7937
  17   1.0000      -0.851009       -23.1571
  18   1.0000      -0.785284       -21.3687
  19   1.0000      -0.757275       -20.6065
  20   1.0000      -0.747912       -20.3517
  21   1.0000      -0.738814       -20.1042
  22   1.0000      -0.709684       -19.3115
  23   1.0000      -0.638559       -17.3761
  24   1.0000      -0.617882       -16.8134
  25   1.0000      -0.586875       -15.9697
  26   1.0000      -0.580333       -15.7917
  27   1.0000      -0.541714       -14.7408
  28   1.0000      -0.523745       -14.2518
  29   1.0000      -0.481437       -13.1006
  30   1.0000      -0.466341       -12.6898
  31   1.0000      -0.458637       -12.4801
  32   1.0000      -0.430550       -11.7159
  33   1.0000      -0.427442       -11.6313
  34   1.0000      -0.426056       -11.5936
  35   1.0000      -0.419940       -11.4272
  36   1.0000      -0.418593       -11.3905
  37   1.0000      -0.404122       -10.9967
  38   1.0000      -0.389698       -10.6042
  39   1.0000      -0.384429       -10.4608
  40   1.0000      -0.380811       -10.3624
  41   1.0000      -0.357732        -9.7344
  42   1.0000      -0.357244        -9.7211
  43   1.0000      -0.342278        -9.3139
  44   1.0000      -0.339842        -9.2476
  45   1.0000      -0.324922        -8.8416
  46   1.0000      -0.308136        -8.3848
  47   1.0000      -0.274366        -7.4659
  48   1.0000      -0.258395        -7.0313
  49   1.0000      -0.249863        -6.7991
  50   1.0000      -0.229031        -6.2323
  51   1.0000      -0.208358        -5.6697
  52   0.0000      -0.044431        -1.2090
  53   0.0000      -0.005962        -0.1622
  54   0.0000       0.002964         0.0807
  55   0.0000       0.010474         0.2850
  56   0.0000       0.012407         0.3376

MULLIKEN ATOMIC CHARGES AND SPIN POPULATIONS
--------------------------------------------
   0 C :   -1.337384    0.095807
   1 C :    1.487095    0.138183
   2 C :   -0.954794    0.097443
   3 C :   -1.067670    0.003021
   4 C :    1.653702    0.246959
   5 C :   -1.006101   -0.002065
   6 H :    0.333289   -0.015326
   7 C :    2.034797   -0.043366
   8 C :   -0.880020    0.118937
   9 C :   -1.044773   -0.052169
  10 C :   -0.462735    0.141232
  11 C :   -1.003275   -0.051997
  12 C :   -0.866669    0.115616
  13 H :    0.284112   -0.007950
  14 H :    0.494763   -0.000407
  15 H :    0.578878   -0.006138
  16 H :    0.463033    0.000219
  17 H :    0.267379   -0.008234
  18 H :    0.349460   -0.012004
  19 H :   -0.060644   -0.017202
  20 C :    0.740855    0.103308
  21 O :   -1.061401    0.167924
  22 C :   -0.735524   -0.010913
  23 H :    0.196113   -0.001256
  24 H :    0.270734    0.007053
  25 H :    0.275125    0.006498
  26 H :    0.051654   -0.013173
Sum of atomic charges         :   -1.0000000

LOEWDIN ATOMIC CHARGES AND SPIN POPULATIONS
-------------------------------------------
   0 C :    0.152944    0.060186
   1 C :   -0.196382    0.108288
   2 C :    0.163808    0.060970
   3 C :    0.178057    0.038178
   4 C :   -0.140363    0.117494
   5 C :    0.175856    0.035291
   6 H :   -0.204139    0.001234
   7 C :   -0.139090    0.048251
   8 C :    0.183752    0.046275
   9 C :    0.155689    0.010557
  10 C :    0.158388    0.063150
  11 C :    0.155812    0.010646
  12 C :    0.183706    0.046038
  13 H :   -0.203046    0.010819
  14 H :   -0.174701   -0.003820
  15 H :   -0.185264    0.017349
  16 H :   -0.174667   -0.003865
  17 H :   -0.202726    0.010954
  18 H :   -0.203053    0.002137
  19 H :   -0.191724    0.010743
  20 C :   -0.651003    0.122260
  21 O :    0.382827    0.145373
  22 C :    0.514519    0.020797
  23 H :   -0.194862   -0.000445
  24 H :   -0.171977    0.005063
  25 H :   -0.171683    0.005108
  26 H :   -0.200678    0.010968

  Mayer bond orders larger than 0.100000
B(  0-C ,  1-C ) :   0.3238 B(  0-C ,  2-C ) :  -0.3633 B(  0-C ,  4-C ) :  -0.3179
B(  0-C ,  5-C ) :   1.6583 B(  0-C , 15-H ) :   0.1063 B(  0-C , 18-H ) :  -0.1375
B(  0-C , 19-H ) :   0.1194 B(  0-C , 26-H ) :   1.2781 B(  1-C ,  2-C ) :   0.2068
B(  1-C ,  3-C ) :   0.1999 B(  1-C ,  4-C ) :  -0.2542 B(  1-C ,  5-C ) :   0.1943
B(  1-C ,  7-C ) :   0.1413 B(  1-C , 19-H ) :  -0.2829 B(  1-C , 20-C ) :   0.5507
B(  1-C , 21-O ) :   0.3640 B(  1-C , 26-H ) :  -0.1753 B(  2-C ,  3-C ) :   1.2833
B(  2-C ,  4-C ) :  -0.2798 B(  2-C ,  5-C ) :  -0.1550 B(  2-C ,  7-C ) :   0.1546
B(  2-C , 19-H ) :   1.6857 B(  2-C , 20-C ) :   0.1606 B(  2-C , 26-H ) :   0.1726
B(  3-C ,  4-C ) :  -0.1452 B(  3-C ,  5-C ) :  -0.5735 B(  3-C ,  7-C ) :   0.1531
B(  3-C ,  9-C ) :  -0.1067 B(  3-C , 17-H ) :   0.1655 B(  3-C , 18-H ) :   0.8265
B(  4-C ,  7-C ) :   0.3413 B(  4-C ,  8-C ) :   0.4707 B(  4-C ,  9-C ) :   0.1583
B(  4-C , 10-C ) :   0.1799 B(  4-C , 11-C ) :   0.1989 B(  4-C , 12-C ) :   0.3057
B(  4-C , 13-H ) :  -0.1528 B(  4-C , 17-H ) :  -0.1602 B(  4-C , 20-C ) :   0.2954
B(  5-C ,  6-H ) :   0.9765 B(  5-C ,  7-C ) :   0.1028 B(  5-C , 19-H ) :  -0.1125
B(  6-H ,  7-C ) :  -0.2102 B(  6-H , 12-C ) :   0.1473 B(  7-C ,  8-C ) :  -0.1199
B(  7-C ,  9-C ) :  -0.2009 B(  7-C , 10-C ) :  -0.2053 B(  7-C , 11-C ) :  -0.1790
B(  7-C , 18-H ) :  -0.1625 B(  8-C ,  9-C ) :   1.2460 B(  8-C , 12-C ) :  -0.5510
B(  8-C , 17-H ) :   1.0829 B(  8-C , 18-H ) :   0.1036 B(  9-C , 10-C ) :   1.3323
B(  9-C , 11-C ) :   0.2612 B(  9-C , 16-H ) :   0.5204 B(  9-C , 17-H ) :  -0.1489
B( 10-C , 11-C ) :   1.3327 B( 10-C , 15-H ) :   0.5100 B( 11-C , 12-C ) :   1.2724
B( 11-C , 13-H ) :  -0.1388 B( 11-C , 14-H ) :   0.4825 B( 12-C , 13-H ) :   1.0329
B( 12-C , 20-C ) :   0.1053 B( 13-H , 19-H ) :  -0.1733 B( 13-H , 20-C ) :   0.1206
B( 13-H , 26-H ) :  -0.1152 B( 15-H , 20-C ) :  -0.1324 B( 17-H , 19-H ) :  -0.1716
B( 19-H , 20-C ) :  -0.1270 B( 19-H , 26-H ) :   0.2004 B( 20-C , 21-O ) :   0.5177
B( 20-C , 22-C ) :   0.9619 B( 20-C , 26-H ) :  -0.1157 B( 21-O , 26-H ) :   0.1621
B( 22-C , 23-H ) :   0.9389 B( 22-C , 24-H ) :   0.9420 B( 22-C , 25-H ) :   0.9355

Dispersion correction           -0.028801205
FINAL SINGLE POINT ENERGY      -615.568737989419

DIPOLE MOMENT
-------------

Method             : SCF
Type of density    : Electron Density
Multiplicity       :   2
Irrep              :   0
Energy             :  -615.5399367846621317 Eh
Relativity type    :
Basis              : AO
                                X                 Y                 Z
Electronic contribution:      2.085295343       3.016191408      -0.131455218
Nuclear contribution   :      0.834188955      -4.415620198       0.130351873
                        -----------------------------------------
Total Dipole Moment    :      2.919484299      -1.399428790      -0.001103346
                        -----------------------------------------
Magnitude (a.u.)       :      3.237559378
Magnitude (Debye)      :      8.229221951

Rotational constants in cm-1:             0.074676             0.008546             0.007689
Rotational constants in MHz :          2238.715412           256.196904           230.518012

                             ****ORCA TERMINATED NORMALLY****
TOTAL RUN TIME: 0 days 0 hours 16 minutes 43 seconds 210 msec
