                         Program Version 6.0.0  -   RELEASE  -
|  1> !TPSSh aug-cc-pVTZ d3 TightSCF SlowConv RIJCOSX defgrid2
|  2>
|  3> %pal
|  4> nprocs 15
|  5> end
|  6>
|  7> %scf
|  8> MaxIter 1500
|  9> end
| 10>
| 11> %maxcore 3500
| 12>
| 13> !CPCM
| 14> %cpcm smd true
| 15> SMDsolvent "WATER"
| 16> surfacetype gepol_ses
| 17> rsolv 1.40
| 18> end
| 19>
| 20> * xyz 0 2
| 21> O           1.91470638718140      3.68438074947034      1.42427791228666
| 22> N           2.68096308945993      2.69375168448893      1.26769968685529
| 23> C           3.77391580515862      2.86611617790763      0.27680202232567
| 24> C           4.43155802114185      1.51994211991304     -0.03530115296342
| 25> C           4.73340248947632      0.69829774992947      1.21810391563609
| 26> C           3.42519309826840      0.42580302914814      1.94119980726915
| 27> C           2.70579217610673      1.70523956651208      2.37690104523736
| 28> C           4.79322172800676      3.87508980195447      0.82020172066500
| 29> C           3.14425995359759      3.42149633811360     -0.99940045320580
| 30> C           3.37488386456858      2.34129799708755      3.60196963848657
| 31> C           1.25335355183061      1.37175446215543      2.71392471745753
| 32> H           5.35765292922926      1.70556085241930     -0.60472877121535
| 33> H           3.75876551381861      0.92933792835036     -0.68368429967338
| 34> H           5.42888308378114      1.26691647113913      1.85777249757383
| 35> H           3.58597216229996     -0.20127854132091      2.83446428065128
| 36> H           2.76741452667512     -0.15000338556619      1.26812064668017
| 37> H           4.26369527400293      4.78489567317599      1.14666574670165
| 38> H           5.36148593564960      3.47818359531948      1.67676804635832
| 39> H           5.51454614342091      4.14822445029490      0.03143381287120
| 40> H           2.68677781882656      4.40345192403324     -0.80882149057439
| 41> H           2.35856298596588      2.74147992136098     -1.37017141185833
| 42> H           3.91629839859089      3.52710620200660     -1.78046613000472
| 43> H           2.90751365674073      3.31881435496866      3.80391606383020
| 44> H           4.45686105296294      2.49742578329982      3.46040550353472
| 45> H           3.23836167981079      1.69582567705536      4.48654381685627
| 46> H           0.71883159023383      2.26983495660360      3.05695397631866
| 47> H           0.73234928593055      0.97814208936524      1.82472152714422
| 48> H           1.22257422130559      0.60584599485455      3.50731645957130
| 49> C           5.50980399137963     -0.53351097116185      0.81636396333535
| 50> O           6.67868338961729     -0.53392563796249      0.53412674849617
| 51> O           4.75697757690545     -1.64256703152170      0.76161649704885
| 52> H           5.34368613905548     -2.36501696039479      0.46736191230387
| 53> *
| 54>
| 55>                          ****END OF INPUT****

CARTESIAN COORDINATES (ANGSTROEM)
---------------------------------
  O      1.914706    3.684381    1.424278
  N      2.680963    2.693752    1.267700
  C      3.773916    2.866116    0.276802
  C      4.431558    1.519942   -0.035301
  C      4.733402    0.698298    1.218104
  C      3.425193    0.425803    1.941200
  C      2.705792    1.705240    2.376901
  C      4.793222    3.875090    0.820202
  C      3.144260    3.421496   -0.999400
  C      3.374884    2.341298    3.601970
  C      1.253354    1.371754    2.713925
  H      5.357653    1.705561   -0.604729
  H      3.758766    0.929338   -0.683684
  H      5.428883    1.266916    1.857772
  H      3.585972   -0.201279    2.834464
  H      2.767415   -0.150003    1.268121
  H      4.263695    4.784896    1.146666
  H      5.361486    3.478184    1.676768
  H      5.514546    4.148224    0.031434
  H      2.686778    4.403452   -0.808821
  H      2.358563    2.741480   -1.370171
  H      3.916298    3.527106   -1.780466
  H      2.907514    3.318814    3.803916
  H      4.456861    2.497426    3.460406
  H      3.238362    1.695826    4.486544
  H      0.718832    2.269835    3.056954
  H      0.732349    0.978142    1.824722
  H      1.222574    0.605846    3.507316
  C      5.509804   -0.533511    0.816364
  O      6.678683   -0.533926    0.534127
  O      4.756978   -1.642567    0.761616
  H      5.343686   -2.365017    0.467362

 Total Charge           Charge          ....    0
 Multiplicity           Mult            ....    2
 Number of Electrons    NEL             ....  109
 Basis Dimension        Dim             .... 1058

ORBITAL ENERGIES
----------------
                 SPIN UP ORBITALS
  NO   OCC          E(Eh)            E(eV)
   0   1.0000     -19.104805      -519.8682
   1   1.0000     -19.058521      -518.6087
   2   1.0000     -19.053019      -518.4590
   3   1.0000     -14.344752      -390.3405
   4   1.0000     -10.248311      -278.8707
   5   1.0000     -10.163668      -276.5675
   6   1.0000     -10.162651      -276.5398
   7   1.0000     -10.134482      -275.7733
   8   1.0000     -10.121881      -275.4304
   9   1.0000     -10.116926      -275.2956
  10   1.0000     -10.105499      -274.9846
  11   1.0000     -10.105127      -274.9745
  12   1.0000     -10.102746      -274.9097
  13   1.0000     -10.102163      -274.8938
  14   1.0000      -1.093755       -29.7626
  15   1.0000      -1.088531       -29.6204
  16   1.0000      -1.005791       -27.3690
  17   1.0000      -0.857224       -23.3262
  18   1.0000      -0.803153       -21.8549
  19   1.0000      -0.775356       -21.0985
  20   1.0000      -0.702719       -19.1220
  21   1.0000      -0.675373       -18.3778
  22   1.0000      -0.667296       -18.1580
  23   1.0000      -0.665062       -18.0973
  24   1.0000      -0.641102       -17.4453
  25   1.0000      -0.582015       -15.8374
  26   1.0000      -0.573511       -15.6060
  27   1.0000      -0.508837       -13.8462
  28   1.0000      -0.488531       -13.2936
  29   1.0000      -0.481482       -13.1018
  30   1.0000      -0.474445       -12.9103
  31   1.0000      -0.464707       -12.6453
  32   1.0000      -0.459976       -12.5166
  33   1.0000      -0.440027       -11.9737
  34   1.0000      -0.434051       -11.8111
  35   1.0000      -0.417583       -11.3630
  36   1.0000      -0.410089       -11.1591
  37   1.0000      -0.400315       -10.8931
  38   1.0000      -0.390246       -10.6191
  39   1.0000      -0.386701       -10.5227
  40   1.0000      -0.371602       -10.1118
  41   1.0000      -0.370636       -10.0855
  42   1.0000      -0.356227        -9.6934
  43   1.0000      -0.354212        -9.6386
  44   1.0000      -0.349521        -9.5110
  45   1.0000      -0.340932        -9.2772
  46   1.0000      -0.337675        -9.1886
  47   1.0000      -0.323634        -8.8065
  48   1.0000      -0.320051        -8.7090
  49   1.0000      -0.318092        -8.6557
  50   1.0000      -0.312620        -8.5068
  51   1.0000      -0.305090        -8.3019
  52   1.0000      -0.268770        -7.3136
  53   1.0000      -0.246782        -6.7153
  54   1.0000      -0.184543        -5.0217
  55   0.0000      -0.019102        -0.5198
  56   0.0000      -0.005065        -0.1378
  57   0.0000       0.005559         0.1513
  58   0.0000       0.009335         0.2540
  59   0.0000       0.010905         0.2967

                 SPIN DOWN ORBITALS
  NO   OCC          E(Eh)            E(eV)
   0   1.0000     -19.104805      -519.8682
   1   1.0000     -19.053019      -518.4590
   2   1.0000     -19.045772      -518.2618
   3   1.0000     -14.331875      -389.9901
   4   1.0000     -10.248303      -278.8705
   5   1.0000     -10.164053      -276.5779
   6   1.0000     -10.163034      -276.5502
   7   1.0000     -10.134500      -275.7738
   8   1.0000     -10.121845      -275.4294
   9   1.0000     -10.116891      -275.2946
  10   1.0000     -10.104780      -274.9651
  11   1.0000     -10.104409      -274.9549
  12   1.0000     -10.102490      -274.9027
  13   1.0000     -10.101906      -274.8868
  14   1.0000      -1.093745       -29.7623
  15   1.0000      -1.067270       -29.0419
  16   1.0000      -1.005791       -27.3690
  17   1.0000      -0.849861       -23.1259
  18   1.0000      -0.802179       -21.8284
  19   1.0000      -0.770030       -20.9536
  20   1.0000      -0.690378       -18.7861
  21   1.0000      -0.673090       -18.3157
  22   1.0000      -0.666857       -18.1461
  23   1.0000      -0.663986       -18.0680
  24   1.0000      -0.639148       -17.3921
  25   1.0000      -0.579869       -15.7790
  26   1.0000      -0.572896       -15.5893
  27   1.0000      -0.503454       -13.6997
  28   1.0000      -0.486962       -13.2509
  29   1.0000      -0.480108       -13.0644
  30   1.0000      -0.469826       -12.7846
  31   1.0000      -0.457774       -12.4567
  32   1.0000      -0.443912       -12.0795
  33   1.0000      -0.434063       -11.8114
  34   1.0000      -0.427450       -11.6315
  35   1.0000      -0.417162       -11.3516
  36   1.0000      -0.409582       -11.1453
  37   1.0000      -0.397113       -10.8060
  38   1.0000      -0.385654       -10.4942
  39   1.0000      -0.383838       -10.4448
  40   1.0000      -0.370074       -10.0702
  41   1.0000      -0.368576       -10.0295
  42   1.0000      -0.352673        -9.5967
  43   1.0000      -0.349273        -9.5042
  44   1.0000      -0.347938        -9.4679
  45   1.0000      -0.337403        -9.1812
  46   1.0000      -0.330350        -8.9893
  47   1.0000      -0.322710        -8.7814
  48   1.0000      -0.316678        -8.6172
  49   1.0000      -0.315474        -8.5845
  50   1.0000      -0.308372        -8.3912
  51   1.0000      -0.294894        -8.0245
  52   1.0000      -0.268637        -7.3100
  53   1.0000      -0.239419        -6.5149
  54   0.0000      -0.076300        -2.0762
  55   0.0000      -0.019053        -0.5185
  56   0.0000      -0.004709        -0.1281
  57   0.0000       0.006261         0.1704
  58   0.0000       0.009564         0.2603

MULLIKEN ATOMIC CHARGES AND SPIN POPULATIONS
--------------------------------------------
   0 O :   -1.243913    0.493345
   1 N :    0.494033    0.450543
   2 C :    1.982581   -0.017065
   3 C :   -0.465075    0.000228
   4 C :    1.086685   -0.004668
   5 C :    0.010390   -0.001463
   6 C :    1.828192   -0.022235
   7 C :   -0.700366    0.034884
   8 C :   -0.816880    0.011134
   9 C :   -0.698089    0.036537
  10 C :   -0.809445    0.012399
  11 H :    0.008156   -0.004114
  12 H :    0.011065    0.002358
  13 H :    0.013897    0.009509
  14 H :    0.166079   -0.004231
  15 H :   -0.093625    0.006428
  16 H :    0.010515    0.002989
  17 H :    0.108988   -0.004004
  18 H :   -0.133820    0.006167
  19 H :    0.041907   -0.005415
  20 H :    0.060903    0.000242
  21 H :   -0.012866   -0.001306
  22 H :    0.000934    0.003627
  23 H :    0.129269   -0.004397
  24 H :   -0.137479    0.006291
  25 H :    0.044643   -0.005473
  26 H :    0.063594    0.000267
  27 H :   -0.022815   -0.001230
  28 C :    0.453901   -0.001365
  29 O :   -1.106026    0.000076
  30 O :   -0.492224   -0.000050
  31 H :    0.216891   -0.000006
Sum of atomic charges         :   -0.0000000

LOEWDIN ATOMIC CHARGES AND SPIN POPULATIONS
-------------------------------------------
   0 O :    0.392864    0.429752
   1 N :   -0.103814    0.401470
   2 C :   -0.429152    0.043119
   3 C :    0.303599    0.002447
   4 C :   -0.030556    0.000388
   5 C :    0.292123    0.002401
   6 C :   -0.428979    0.043040
   7 C :    0.599094    0.020823
   8 C :    0.572112    0.005260
   9 C :    0.598449    0.020807
  10 C :    0.571235    0.005276
  11 H :   -0.113382   -0.000279
  12 H :   -0.114506    0.000916
  13 H :   -0.145000    0.000091
  14 H :   -0.109736   -0.000284
  15 H :   -0.135443    0.000899
  16 H :   -0.153427    0.002223
  17 H :   -0.167369    0.001916
  18 H :   -0.135990    0.005846
  19 H :   -0.174796    0.000017
  20 H :   -0.144520    0.001224
  21 H :   -0.139600    0.000645
  22 H :   -0.154565    0.002223
  23 H :   -0.166231    0.001915
  24 H :   -0.136593    0.005842
  25 H :   -0.175123    0.000021
  26 H :   -0.144860    0.001230
  27 H :   -0.140294    0.000647
  28 C :   -0.798517    0.000108
  29 O :    0.462543    0.000017
  30 O :    0.879304    0.000002
  31 H :   -0.428869   -0.000002

  Mayer bond orders larger than 0.100000
B(  0-O ,  1-N ) :   0.1725 B(  0-O ,  2-C ) :  -0.1609 B(  0-O ,  6-C ) :  -0.1548
B(  0-O ,  7-C ) :   0.1084 B(  0-O ,  9-C ) :   0.1060 B(  1-N ,  2-C ) :   0.6056
B(  1-N ,  3-C ) :   0.1620 B(  1-N ,  5-C ) :   0.1867 B(  1-N ,  6-C ) :   0.5096
B(  1-N ,  8-C ) :   0.1605 B(  1-N , 10-C ) :   0.1751 B(  2-C ,  3-C ) :   0.3718
B(  2-C ,  7-C ) :   0.5372 B(  2-C ,  8-C ) :   0.3307 B(  2-C , 18-H ) :  -0.1109
B(  2-C , 21-H ) :  -0.1132 B(  3-C ,  4-C ) :   0.9247 B(  3-C ,  5-C ) :   0.2168
B(  3-C , 11-H ) :   0.7677 B(  3-C , 12-H ) :   0.9753 B(  3-C , 28-C ) :   0.2678
B(  3-C , 29-O ) :   0.2029 B(  3-C , 30-O ) :   0.1444 B(  4-C ,  5-C ) :   1.2889
B(  4-C , 13-H ) :   0.7727 B(  4-C , 28-C ) :  -0.2370 B(  4-C , 29-O ) :  -0.1275
B(  5-C ,  6-C ) :   0.3909 B(  5-C , 14-H ) :   0.7695 B(  5-C , 15-H ) :   0.9746
B(  5-C , 28-C ) :  -0.2035 B(  5-C , 30-O ) :  -0.2291 B(  6-C ,  9-C ) :   0.5457
B(  6-C , 10-C ) :   0.3468 B(  6-C , 24-H ) :  -0.1204 B(  6-C , 27-H ) :  -0.1062
B(  7-C ,  8-C ) :   0.1413 B(  7-C , 16-H ) :   1.0609 B(  7-C , 17-H ) :   0.9978
B(  7-C , 18-H ) :   1.1836 B(  8-C , 19-H ) :   1.0333 B(  8-C , 20-H ) :   1.0545
B(  8-C , 21-H ) :   1.1064 B(  9-C , 10-C ) :   0.1361 B(  9-C , 22-H ) :   1.0702
B(  9-C , 23-H ) :   0.9888 B(  9-C , 24-H ) :   1.1871 B( 10-C , 25-H ) :   1.0261
B( 10-C , 26-H ) :   1.0497 B( 10-C , 27-H ) :   1.1152 B( 11-H , 29-O ) :   0.1512
B( 13-H , 28-C ) :  -0.1481 B( 13-H , 29-O ) :   0.1005 B( 14-H , 15-H ) :  -0.1109
B( 14-H , 30-O ) :  -0.1064 B( 28-C , 29-O ) :   0.4970 B( 28-C , 30-O ) :   0.9177
B( 29-O , 30-O ) :   0.1433 B( 30-O , 31-H ) :   0.8983

Dispersion correction           -0.044026903
FINAL SINGLE POINT ENERGY      -672.623014763622

DIPOLE MOMENT
-------------

Method             : SCF
Type of density    : Electron Density
Multiplicity       :   2
Irrep              :   0
Energy             :  -672.5789878605017975 Eh
Relativity type    :
Basis              : AO
                                X                 Y                 Z
Electronic contribution:      4.817335797      -8.555436518      -2.457652372
Nuclear contribution   :     -4.499370341       7.227471368       2.551456631
                        -----------------------------------------
Total Dipole Moment    :      0.317965455      -1.327965150       0.093804260
                        -----------------------------------------
Magnitude (a.u.)       :      1.368719368
Magnitude (Debye)      :      3.479008152

Rotational constants in cm-1:             0.032861             0.018000             0.014315
Rotational constants in MHz :           985.137825           539.637510           429.167318

                             ****ORCA TERMINATED NORMALLY****
TOTAL RUN TIME: 0 days 0 hours 10 minutes 40 seconds 18 msec
