                         Program Version 6.0.0  -   RELEASE  -
|  1> !B3LYP aug-cc-pVTZ d3 TightSCF SlowConv RIJCOSX defgrid2
|  2>
|  3> %pal
|  4> nprocs 15
|  5> end
|  6>
|  7> %scf
|  8> MaxIter 1500
|  9> end
| 10>
| 11> %maxcore 3500
| 12>
| 13> !CPCM
| 14> %cpcm smd true
| 15> SMDsolvent "WATER"
| 16> surfacetype gepol_ses
| 17> rsolv 1.40
| 18> end
| 19>
| 20> * xyz 0 1
| 21> C          -0.70221578029714     -1.27137338689409     -1.64597061061339
| 22> C          -0.84845136777775     -1.37115966451546      2.54973958440251
| 23> C           0.15259783512686     -0.68335711742679      3.28861563215234
| 24> C           0.07599304676575     -0.73632666977901      4.69600426690252
| 25> C          -0.94794284945570     -1.44026936179531      5.29150860970573
| 26> C          -1.88482068115033     -2.08384823172722      4.45797199169649
| 27> N          -1.84062401823598     -2.05300130163141      3.14506781946973
| 28> H           0.83076678593274     -0.21756410750992      5.29593236316618
| 29> H          -1.03983766734326     -1.50382384093195      6.37916241782430
| 30> H          -2.71147090586821     -2.65207963836198      4.90545942856367
| 31> C          -0.79700541461204     -1.33574559017925      1.09594053855288
| 32> C           0.25272338782719     -0.61458983536816      0.46402567600272
| 33> C           0.27592476493802     -0.59903395891095     -0.94615465995929
| 34> C          -1.69468523511231     -1.95299131995214     -0.91309590762066
| 35> N          -1.74344800729213     -1.98614929368638      0.39960781073108
| 36> H           1.07040887752629     -0.05329454733419     -1.46544045359095
| 37> H          -0.71690094151293     -1.28186330233680     -2.73919465539259
| 38> H          -2.48671429614632     -2.49728707022392     -1.44500129727560
| 39> C           1.19105099618849      0.03039450570530      2.60874274845559
| 40> C           1.23921917155320      0.06350156660395      1.24952954829313
| 41> H           1.94654977095063      0.54952317690862      3.20655609141936
| 42> H           2.03412974399493      0.60974382634704      0.73244528911423
| 43> *
| 44>
| 45>                          ****END OF INPUT****

CARTESIAN COORDINATES (ANGSTROEM)
---------------------------------
  C     -0.702216   -1.271373   -1.645971
  C     -0.848451   -1.371160    2.549740
  C      0.152598   -0.683357    3.288616
  C      0.075993   -0.736327    4.696004
  C     -0.947943   -1.440269    5.291509
  C     -1.884821   -2.083848    4.457972
  N     -1.840624   -2.053001    3.145068
  H      0.830767   -0.217564    5.295932
  H     -1.039838   -1.503824    6.379162
  H     -2.711471   -2.652080    4.905459
  C     -0.797005   -1.335746    1.095941
  C      0.252723   -0.614590    0.464026
  C      0.275925   -0.599034   -0.946155
  C     -1.694685   -1.952991   -0.913096
  N     -1.743448   -1.986149    0.399608
  H      1.070409   -0.053295   -1.465440
  H     -0.716901   -1.281863   -2.739195
  H     -2.486714   -2.497287   -1.445001
  C      1.191051    0.030395    2.608743
  C      1.239219    0.063502    1.249530
  H      1.946550    0.549523    3.206556
  H      2.034130    0.609744    0.732445

 Total Charge           Charge          ....    0
 Multiplicity           Mult            ....    1
 Number of Electrons    NEL             ....   94
 Basis Dimension        Dim             ....  828

ORBITAL ENERGIES
----------------

  NO   OCC          E(Eh)            E(eV)
   0   2.0000     -14.316913      -389.5830
   1   2.0000     -14.316880      -389.5821
   2   2.0000     -10.218326      -278.0548
   3   2.0000     -10.217929      -278.0440
   4   2.0000     -10.211540      -277.8701
   5   2.0000     -10.211511      -277.8693
   6   2.0000     -10.196447      -277.4594
   7   2.0000     -10.196410      -277.4584
   8   2.0000     -10.193330      -277.3746
   9   2.0000     -10.193321      -277.3744
  10   2.0000     -10.184948      -277.1465
  11   2.0000     -10.184171      -277.1254
  12   2.0000     -10.183835      -277.1162
  13   2.0000     -10.183823      -277.1159
  14   2.0000      -0.964464       -26.2444
  15   2.0000      -0.941473       -25.6188
  16   2.0000      -0.851568       -23.1723
  17   2.0000      -0.810282       -22.0489
  18   2.0000      -0.802568       -21.8390
  19   2.0000      -0.749554       -20.3964
  20   2.0000      -0.746390       -20.3103
  21   2.0000      -0.657117       -17.8811
  22   2.0000      -0.647315       -17.6143
  23   2.0000      -0.633321       -17.2335
  24   2.0000      -0.601551       -16.3690
  25   2.0000      -0.553614       -15.0646
  26   2.0000      -0.534923       -14.5560
  27   2.0000      -0.516181       -14.0460
  28   2.0000      -0.484798       -13.1920
  29   2.0000      -0.480896       -13.0859
  30   2.0000      -0.469050       -12.7635
  31   2.0000      -0.436423       -11.8757
  32   2.0000      -0.435243       -11.8436
  33   2.0000      -0.421447       -11.4682
  34   2.0000      -0.406345       -11.0572
  35   2.0000      -0.405362       -11.0305
  36   2.0000      -0.396871       -10.7994
  37   2.0000      -0.395516       -10.7625
  38   2.0000      -0.368848       -10.0369
  39   2.0000      -0.354631        -9.6500
  40   2.0000      -0.345147        -9.3919
  41   2.0000      -0.305138        -8.3032
  42   2.0000      -0.301092        -8.1931
  43   2.0000      -0.273712        -7.4481
  44   2.0000      -0.255328        -6.9478
  45   2.0000      -0.249534        -6.7902
  46   2.0000      -0.235886        -6.4188
  47   0.0000      -0.061185        -1.6649
  48   0.0000      -0.060060        -1.6343
  49   0.0000      -0.019408        -0.5281
  50   0.0000      -0.003301        -0.0898
  51   0.0000       0.005937         0.1616

MULLIKEN ATOMIC CHARGES
-----------------------
   0 C :   -0.324934
   1 C :    1.175539
   2 C :    1.793463
   3 C :   -1.180621
   4 C :   -0.328753
   5 C :   -0.788696
   6 N :   -0.873510
   7 H :    0.379910
   8 H :    0.309616
   9 H :    0.599328
  10 C :    1.169279
  11 C :    1.787364
  12 C :   -1.186247
  13 C :   -0.784854
  14 N :   -0.867139
  15 H :    0.389094
  16 H :    0.309976
  17 H :    0.597198
  18 C :   -1.232152
  19 C :   -1.233727
  20 H :    0.142897
  21 H :    0.146969
Sum of atomic charges:    0.0000000

LOEWDIN ATOMIC CHARGES
----------------------
   0 C :    0.217586
   1 C :   -0.285036
   2 C :   -0.117588
   3 C :    0.224633
   4 C :    0.217620
   5 C :    0.007968
   6 N :    0.368083
   7 H :   -0.146707
   8 H :   -0.163780
   9 H :   -0.178545
  10 C :   -0.285014
  11 C :   -0.117531
  12 C :    0.224661
  13 C :    0.008049
  14 N :    0.368144
  15 H :   -0.146727
  16 H :   -0.163810
  17 H :   -0.178528
  18 C :    0.229231
  19 C :    0.229201
  20 H :   -0.155946
  21 H :   -0.155964

  Mayer bond orders larger than 0.100000
B(  0-C , 11-C ) :  -0.2293 B(  0-C , 12-C ) :   1.3575 B(  0-C , 13-C ) :   0.7373
B(  0-C , 14-N ) :  -0.2103 B(  0-C , 16-H ) :   0.9198 B(  1-C ,  2-C ) :   0.7306
B(  1-C ,  3-C ) :   0.5118 B(  1-C ,  5-C ) :  -0.1806 B(  1-C ,  6-N ) :  -0.9177
B(  1-C ,  9-H ) :   0.2004 B(  1-C , 10-C ) :   0.5328 B(  1-C , 11-C ) :   0.3819
B(  1-C , 12-C ) :  -0.1060 B(  1-C , 13-C ) :   0.1284 B(  1-C , 14-N ) :   0.3177
B(  1-C , 18-C ) :  -0.5028 B(  1-C , 21-H ) :  -0.1084 B(  2-C ,  3-C ) :  -0.2828
B(  2-C ,  4-C ) :  -0.2352 B(  2-C ,  5-C ) :  -0.5428 B(  2-C ,  9-H ) :   0.1394
B(  2-C , 10-C ) :   0.3830 B(  2-C , 11-C ) :  -0.3619 B(  2-C , 13-C ) :  -0.1050
B(  2-C , 18-C ) :  -0.1629 B(  2-C , 20-H ) :  -0.1118 B(  3-C ,  4-C ) :   1.3624
B(  3-C ,  5-C ) :   0.4263 B(  3-C ,  6-N ) :   0.1194 B(  3-C ,  7-H ) :   0.7965
B(  3-C ,  9-H ) :  -0.1126 B(  3-C , 10-C ) :  -0.1056 B(  3-C , 18-C ) :   0.5030
B(  4-C ,  5-C ) :   0.7347 B(  4-C ,  6-N ) :  -0.2107 B(  4-C ,  8-H ) :   0.9216
B(  5-C ,  6-N ) :   2.0829 B(  5-C ,  9-H ) :   0.3315 B(  5-C , 10-C ) :   0.1275
B(  5-C , 11-C ) :  -0.1032 B(  5-C , 19-C ) :   0.1472 B(  6-N , 10-C ) :   0.3140
B(  6-N , 14-N ) :  -0.3352 B( 10-C , 11-C ) :   0.7296 B( 10-C , 12-C ) :   0.5135
B( 10-C , 13-C ) :  -0.1867 B( 10-C , 14-N ) :  -0.9184 B( 10-C , 17-H ) :   0.2027
B( 10-C , 19-C ) :  -0.5051 B( 10-C , 20-H ) :  -0.1038 B( 11-C , 12-C ) :  -0.2556
B( 11-C , 13-C ) :  -0.5407 B( 11-C , 17-H ) :   0.1364 B( 11-C , 19-C ) :  -0.1752
B( 11-C , 21-H ) :  -0.1118 B( 12-C , 13-C ) :   0.4280 B( 12-C , 14-N ) :   0.1181
B( 12-C , 15-H ) :   0.7771 B( 12-C , 17-H ) :  -0.1102 B( 12-C , 19-C ) :   0.4978
B( 13-C , 14-N ) :   2.0700 B( 13-C , 17-H ) :   0.3347 B( 13-C , 18-C ) :   0.1481
B( 18-C , 19-C ) :   1.6018 B( 18-C , 20-H ) :   1.3364 B( 19-C , 21-H ) :   1.3318

Dispersion correction           -0.050229841
FINAL SINGLE POINT ENERGY      -571.523095108631

DIPOLE MOMENT
-------------

Method             : SCF
Type of density    : Electron Density
Multiplicity       :   1
Irrep              :   0
Energy             :  -571.4728652673593388 Eh
Relativity type    :
Basis              : AO
                                X                 Y                 Z
Electronic contribution:     -1.209087778      -0.829714727      -0.062969371
Nuclear contribution   :      2.959925509       2.031814141       0.154119783
                        -----------------------------------------
Total Dipole Moment    :      1.750837731       1.202099414       0.091150411
                        -----------------------------------------
Magnitude (a.u.)       :      2.125743202
Magnitude (Debye)      :      5.403209819

Rotational constants in cm-1:             0.054161             0.019423             0.014296
Rotational constants in MHz :          1623.694457           582.293820           428.591246

                             ****ORCA TERMINATED NORMALLY****
TOTAL RUN TIME: 0 days 0 hours 4 minutes 52 seconds 48 msec
