                         Program Version 6.0.0  -   RELEASE  -
|  1> !PBE0 freq aug-cc-pVTZ d3 TightSCF SlowConv RIJCOSX defgrid2
|  2>
|  3> %pal
|  4> nprocs 12
|  5> end
|  6>
|  7> %scf
|  8> MaxIter 1500
|  9> end
| 10>
| 11> %maxcore 5000
| 12>
| 13> !CPCM
| 14> %cpcm smd true
| 15> SMDsolvent "MeCN"
| 16> surfacetype gepol_ses
| 17> rsolv 2.19
| 18> end
| 19>
| 20> * xyz 0 1
| 21> C          -0.72844113336504     -1.01988648432858      0.00072322180101
| 22> C          -1.30909376605483      0.24683216303840      0.00063082242142
| 23> C          -0.49365301220367      1.38098855261362      0.00018314688568
| 24> C           0.87711594591759      1.25088400620168     -0.00015803208382
| 25> C           1.47485444635133     -0.01665685280687      0.00000810841790
| 26> C           0.65098246038618     -1.14221616945282      0.00047386585397
| 27> H           1.09554970674678     -2.12957770638801      0.00012674149531
| 28> C           2.89085909393876     -0.15122894132289     -0.00076409296374
| 29> C           4.09006162513541     -0.26398198326605      0.00048251410395
| 30> H           5.15245743310837     -0.36299626304204     -0.00086313376933
| 31> H           1.50088864011991      2.13581206596647     -0.00075630781266
| 32> H          -0.95587216539042      2.36030606713226      0.00032696852625
| 33> O          -2.63572955084796      0.47019259515968      0.00095274886337
| 34> C          -3.49742715918133     -0.65546584927745     -0.00034886957812
| 35> H          -4.51030419136153     -0.25898599122552     -0.00068100875977
| 36> H          -3.34841710589783     -1.26665311092626     -0.89411578937733
| 37> H          -3.34970254733187     -1.26805821035966      0.89268309950975
| 38> H          -1.33837062006984     -1.91184908771595      0.00127819646616
| 39> *
| 40>
| 41>                          ****END OF INPUT****

CARTESIAN COORDINATES (ANGSTROEM)
---------------------------------
  C     -0.728441   -1.019886    0.000723
  C     -1.309094    0.246832    0.000631
  C     -0.493653    1.380989    0.000183
  C      0.877116    1.250884   -0.000158
  C      1.474854   -0.016657    0.000008
  C      0.650982   -1.142216    0.000474
  H      1.095550   -2.129578    0.000127
  C      2.890859   -0.151229   -0.000764
  C      4.090062   -0.263982    0.000483
  H      5.152457   -0.362996   -0.000863
  H      1.500889    2.135812   -0.000756
  H     -0.955872    2.360306    0.000327
  O     -2.635730    0.470193    0.000953
  C     -3.497427   -0.655466   -0.000349
  H     -4.510304   -0.258986   -0.000681
  H     -3.348417   -1.266653   -0.894116
  H     -3.349703   -1.268058    0.892683
  H     -1.338371   -1.911849    0.001278

 Total Charge           Charge          ....    0
 Multiplicity           Mult            ....    1
 Number of Electrons    NEL             ....   70
 Basis Dimension        Dim             ....  644

ORBITAL ENERGIES
----------------

  NO   OCC          E(Eh)            E(eV)
   0   2.0000     -19.249286      -523.7997
   1   2.0000     -10.296716      -280.1879
   2   2.0000     -10.264940      -279.3232
   3   2.0000     -10.253385      -279.0088
   4   2.0000     -10.240395      -278.6553
   5   2.0000     -10.239654      -278.6351
   6   2.0000     -10.237494      -278.5764
   7   2.0000     -10.231111      -278.4027
   8   2.0000     -10.229984      -278.3720
   9   2.0000     -10.224173      -278.2139
  10   2.0000      -1.108729       -30.1701
  11   2.0000      -0.898031       -24.4367
  12   2.0000      -0.815511       -22.1912
  13   2.0000      -0.784689       -21.3525
  14   2.0000      -0.763498       -20.7758
  15   2.0000      -0.720557       -19.6073
  16   2.0000      -0.643540       -17.5116
  17   2.0000      -0.628458       -17.1012
  18   2.0000      -0.570737       -15.5305
  19   2.0000      -0.546813       -14.8795
  20   2.0000      -0.513602       -13.9758
  21   2.0000      -0.510306       -13.8861
  22   2.0000      -0.487026       -13.2526
  23   2.0000      -0.462941       -12.5973
  24   2.0000      -0.442917       -12.0524
  25   2.0000      -0.430863       -11.7244
  26   2.0000      -0.409865       -11.1530
  27   2.0000      -0.406840       -11.0707
  28   2.0000      -0.379275       -10.3206
  29   2.0000      -0.363031        -9.8786
  30   2.0000      -0.344218        -9.3666
  31   2.0000      -0.309429        -8.4200
  32   2.0000      -0.300747        -8.1837
  33   2.0000      -0.279298        -7.6001
  34   2.0000      -0.233074        -6.3423
  35   0.0000      -0.029380        -0.7995
  36   0.0000      -0.016170        -0.4400
  37   0.0000       0.001441         0.0392
  38   0.0000       0.011945         0.3250
  39   0.0000       0.016964         0.4616

MULLIKEN ATOMIC CHARGES
-----------------------
   0 C :   -0.376943
   1 C :    1.188348
   2 C :   -0.873251
   3 C :   -1.159433
   4 C :    1.391335
   5 C :   -1.356242
   6 H :   -0.163162
   7 C :    1.183220
   8 C :   -0.894947
   9 H :    0.326397
  10 H :   -0.115360
  11 H :    0.665693
  12 O :   -0.656448
  13 C :   -0.739463
  14 H :    0.258774
  15 H :    0.316888
  16 H :    0.316507
  17 H :    0.688088
Sum of atomic charges:   -0.0000000

LOEWDIN ATOMIC CHARGES
----------------------
   0 C :    0.213880
   1 C :   -0.405208
   2 C :    0.208848
   3 C :    0.187420
   4 C :   -0.238679
   5 C :    0.193924
   6 H :   -0.162417
   7 C :   -0.029633
   8 C :    0.395971
   9 H :   -0.288594
  10 H :   -0.163892
  11 H :   -0.170409
  12 O :    0.605976
  13 C :    0.349733
  14 H :   -0.173383
  15 H :   -0.165888
  16 H :   -0.165847
  17 H :   -0.191803

  Mayer bond orders larger than 0.100000
B(  0-C ,  1-C ) :   1.0749 B(  0-C ,  2-C ) :   0.1965 B(  0-C ,  3-C ) :   0.1004
B(  0-C ,  4-C ) :   0.6055 B(  0-C ,  5-C ) :   1.1427 B(  0-C ,  6-H ) :  -0.1522
B(  0-C ,  7-C ) :  -0.2216 B(  0-C ,  8-C ) :  -0.1388 B(  0-C , 11-H ) :  -0.1006
B(  1-C ,  2-C ) :   0.8074 B(  1-C ,  3-C ) :  -0.5601 B(  1-C ,  4-C ) :  -0.1032
B(  1-C ,  5-C ) :  -0.4953 B(  1-C ,  7-C ) :   0.2561 B(  1-C , 10-H ) :  -0.1134
B(  1-C , 11-H ) :   0.1982 B(  1-C , 12-O ) :   0.3549 B(  1-C , 17-H ) :   0.2047
B(  2-C ,  3-C ) :   1.4627 B(  2-C ,  4-C ) :   0.4525 B(  2-C ,  7-C ) :  -0.1119
B(  2-C , 11-H ) :   0.1047 B(  2-C , 12-O ) :   0.3003 B(  3-C ,  4-C ) :   0.3133
B(  3-C ,  5-C ) :  -0.5445 B(  3-C ,  6-H ) :   0.2040 B(  3-C ,  7-C ) :   0.4300
B(  3-C , 10-H ) :   1.8613 B(  4-C ,  5-C ) :   0.3628 B(  4-C ,  6-H ) :  -0.1031
B(  4-C ,  8-C ) :   0.7623 B(  4-C , 12-O ) :   0.1178 B(  5-C ,  6-H ) :   2.0517
B(  5-C ,  7-C ) :   0.3279 B(  5-C ,  8-C ) :  -0.1634 B(  5-C , 10-H ) :   0.2020
B(  6-H ,  7-C ) :  -0.2640 B(  6-H ,  8-C ) :  -0.3640 B(  6-H , 10-H ) :   0.5215
B(  6-H , 17-H ) :  -0.1078 B(  7-C ,  8-C ) :   1.7794 B(  7-C ,  9-H ) :  -0.2623
B(  7-C , 10-H ) :  -0.3148 B(  8-C ,  9-H ) :   1.1944 B(  8-C , 10-H ) :  -0.3742
B(  8-C , 11-H ) :   0.1158 B(  8-C , 17-H ) :   0.1912 B( 12-O , 13-C ) :   1.0145
B( 13-C , 14-H ) :   0.9752 B( 13-C , 15-H ) :   0.8746 B( 13-C , 16-H ) :   0.8748

Dispersion correction           -0.016030173
FINAL SINGLE POINT ENERGY      -422.593029670560

DIPOLE MOMENT
-------------

Method             : SCF
Type of density    : Electron Density
Multiplicity       :   1
Irrep              :   0
Energy             :  -422.5769994975297550 Eh
Relativity type    :
Basis              : AO
                                X                 Y                 Z
Electronic contribution:      4.374369869       1.948115241       0.002435044
Nuclear contribution   :     -5.410731279      -2.547696593      -0.003457088
                        -----------------------------------------
Total Dipole Moment    :     -1.036361410      -0.599581352      -0.001022044
                        -----------------------------------------
Magnitude (a.u.)       :      1.197306901
Magnitude (Debye)      :      3.043312285

VIBRATIONAL FREQUENCIES
-----------------------

Scaling factor for frequencies =  1.000000000  (already applied!)

     0:       0.00 cm**-1
     1:       0.00 cm**-1
     2:       0.00 cm**-1
     3:       0.00 cm**-1
     4:       0.00 cm**-1
     5:       0.00 cm**-1
     6:      69.48 cm**-1
     7:     122.79 cm**-1
     8:     127.75 cm**-1
     9:     210.25 cm**-1
    10:     253.60 cm**-1
    11:     274.13 cm**-1
    12:     386.93 cm**-1
    13:     422.28 cm**-1
    14:     469.42 cm**-1
    15:     499.33 cm**-1
    16:     539.27 cm**-1
    17:     553.20 cm**-1
    18:     618.29 cm**-1
    19:     646.01 cm**-1
    20:     691.72 cm**-1
    21:     705.49 cm**-1
    22:     752.43 cm**-1
    23:     826.85 cm**-1
    24:     839.61 cm**-1
    25:     856.78 cm**-1
    26:     971.23 cm**-1
    27:     988.40 cm**-1
    28:    1017.06 cm**-1
    29:    1064.05 cm**-1
    30:    1118.21 cm**-1
    31:    1167.90 cm**-1
    32:    1176.43 cm**-1
    33:    1203.55 cm**-1
    34:    1233.00 cm**-1
    35:    1302.22 cm**-1
    36:    1314.07 cm**-1
    37:    1353.48 cm**-1
    38:    1452.97 cm**-1
    39:    1464.32 cm**-1
    40:    1468.67 cm**-1
    41:    1477.94 cm**-1
    42:    1543.06 cm**-1
    43:    1620.15 cm**-1
    44:    1664.25 cm**-1
    45:    2207.25 cm**-1
    46:    3035.75 cm**-1
    47:    3107.03 cm**-1
    48:    3160.80 cm**-1
    49:    3198.48 cm**-1
    50:    3202.74 cm**-1
    51:    3213.47 cm**-1
    52:    3228.58 cm**-1
    53:    3441.48 cm**-1

IR SPECTRUM
-----------

 Mode   freq       eps      Int      T**2         TX        TY        TZ
       cm**-1   L/(mol*cm) km/mol    a.u.
----------------------------------------------------------------------------
  6:     69.48   0.000578    2.92  0.002596  (-0.000170 -0.000620  0.050944)
  7:    122.79   0.000323    1.63  0.000821  ( 0.001101 -0.003301 -0.028435)
  8:    127.75   0.000493    2.49  0.001205  (-0.007801  0.033697 -0.002904)
  9:    210.25   0.000278    1.41  0.000413  (-0.000781 -0.000078  0.020306)
 10:    253.60   0.000549    2.77  0.000675  ( 0.025905  0.000838  0.001927)
 11:    274.13   0.002159   10.91  0.002458  ( 0.000429 -0.000029 -0.049572)
 12:    386.93   0.000465    2.35  0.000375  ( 0.018330 -0.006260  0.000038)
 13:    422.28   0.000004    0.02  0.000003  ( 0.000111 -0.000142  0.001648)
 14:    469.42   0.002726   13.78  0.001812  ( 0.000129 -0.000172  0.042568)
 15:    499.33   0.002890   14.61  0.001806  (-0.032307  0.027614 -0.000150)
 16:    539.27   0.001605    8.11  0.000929  ( 0.014468  0.026813 -0.000649)
 17:    553.20   0.004732   23.91  0.002669  ( 0.000104 -0.000318 -0.051664)
 18:    618.29   0.017400   87.93  0.008782  (-0.000023  0.002812 -0.093670)
 19:    646.01   0.002221   11.22  0.001073  (-0.003062 -0.032577 -0.001434)
 20:    691.72   0.013146   66.43  0.005931  (-0.011434 -0.076114 -0.002571)
 21:    705.49   0.007055   35.65  0.003121  (-0.052299  0.019638  0.000163)
 22:    752.43   0.000053    0.27  0.000022  ( 0.000072  0.000110  0.004682)
 23:    826.85   0.000958    4.84  0.000361  ( 0.000108  0.000081 -0.019011)
 24:    839.61   0.000919    4.64  0.000341  (-0.014286  0.011720  0.000111)
 25:    856.78   0.025427  128.50  0.009261  (-0.000034  0.000115  0.096234)
 26:    971.23   0.000114    0.58  0.000037  (-0.000127 -0.000170 -0.006045)
 27:    988.40   0.000002    0.01  0.000001  (-0.000015  0.000470 -0.000542)
 28:   1017.06   0.000133    0.67  0.000041  (-0.006366 -0.000589  0.000209)
 29:   1064.05   0.023166  117.07  0.006794  ( 0.063768  0.052226  0.000009)
 30:   1118.21   0.004885   24.69  0.001363  (-0.008983  0.035814  0.000010)
 31:   1167.90   0.000187    0.95  0.000050  (-0.001821  0.000129 -0.006833)
 32:   1176.43   0.014570   73.63  0.003865  ( 0.061628  0.008187 -0.000180)
 33:   1203.55   0.001624    8.21  0.000421  ( 0.017788  0.010226 -0.000028)
 34:   1233.00   0.000067    0.34  0.000017  ( 0.001994  0.003605  0.000032)
 35:   1302.22   0.095896  484.62  0.022981  (-0.150965 -0.013786 -0.000071)
 36:   1314.07   0.001243    6.28  0.000295  (-0.013493 -0.010635 -0.000024)
 37:   1353.48   0.015076   76.19  0.003476  ( 0.058399  0.008095  0.000052)
 38:   1452.97   0.003785   19.13  0.000813  ( 0.028481 -0.001354 -0.000073)
 39:   1464.32   0.006355   32.12  0.001354  ( 0.034793 -0.011964  0.000834)
 40:   1468.67   0.003294   16.65  0.000700  (-0.003590  0.000593  0.026204)
 41:   1477.94   0.004674   23.62  0.000987  (-0.031156  0.003588 -0.001857)
 42:   1543.06   0.062531  316.01  0.012646  ( 0.112427  0.002515 -0.000019)
 43:   1620.15   0.005670   28.65  0.001092  (-0.025102  0.021493  0.000006)
 44:   1664.25   0.045398  229.42  0.008513  ( 0.092226  0.002636 -0.000015)
 45:   2207.25   0.021198  107.13  0.002997  ( 0.054643 -0.003332 -0.000003)
 46:   3035.75   0.014561   73.59  0.001497  (-0.029803 -0.024669 -0.000274)
 47:   3107.03   0.008180   41.34  0.000822  ( 0.000119  0.000174  0.028662)
 48:   3160.80   0.004429   22.38  0.000437  (-0.018766  0.009227 -0.000012)
 49:   3198.48   0.001319    6.66  0.000129  (-0.011232 -0.001576 -0.000066)
 50:   3202.74   0.001143    5.78  0.000111  (-0.005947  0.008717 -0.000079)
 51:   3213.47   0.001041    5.26  0.000101  (-0.002424  0.009759 -0.000034)
 52:   3228.58   0.000554    2.80  0.000054  (-0.006627 -0.003103  0.000043)
 53:   3441.48   0.045356  229.21  0.004113  ( 0.063921 -0.005188 -0.000091)

--------------------------
THERMOCHEMISTRY AT 298.15K
--------------------------

Temperature         ...   298.15 K
Pressure            ...     1.00 atm
Total Mass          ...   132.16 AMU
Quasi RRHO          ...     True
Cut-Off Frequency   ...     1.00 cm^-1

Throughout the following assumptions are being made:
  (1) The electronic state is orbitally nondegenerate
  (2) There are no thermally accessible electronically excited states
  (3) Hindered rotations indicated by low frequency modes are not
      treated as such but are treated as vibrations and this may
      cause some error
  (4) All equations used are the standard statistical mechanics
      equations for an ideal gas
  (5) All vibrations are strictly harmonic

freq.      69.48  E(vib)   ...       0.50
freq.     122.79  E(vib)   ...       0.43
freq.     127.75  E(vib)   ...       0.43
freq.     210.25  E(vib)   ...       0.34
freq.     253.60  E(vib)   ...       0.30
freq.     274.13  E(vib)   ...       0.28
freq.     386.93  E(vib)   ...       0.20
freq.     422.28  E(vib)   ...       0.18
freq.     469.42  E(vib)   ...       0.16
freq.     499.33  E(vib)   ...       0.14
freq.     539.27  E(vib)   ...       0.12
freq.     553.20  E(vib)   ...       0.12
freq.     618.29  E(vib)   ...       0.09
freq.     646.01  E(vib)   ...       0.09
freq.     691.72  E(vib)   ...       0.07
freq.     705.49  E(vib)   ...       0.07
freq.     752.43  E(vib)   ...       0.06
freq.     826.85  E(vib)   ...       0.04
freq.     839.61  E(vib)   ...       0.04
freq.     856.78  E(vib)   ...       0.04
freq.     971.23  E(vib)   ...       0.03
freq.     988.40  E(vib)   ...       0.02
freq.    1017.06  E(vib)   ...       0.02
freq.    1064.05  E(vib)   ...       0.02
freq.    1118.21  E(vib)   ...       0.01
freq.    1167.90  E(vib)   ...       0.01
freq.    1176.43  E(vib)   ...       0.01
freq.    1203.55  E(vib)   ...       0.01
freq.    1233.00  E(vib)   ...       0.01
freq.    1302.22  E(vib)   ...       0.01
freq.    1314.07  E(vib)   ...       0.01
freq.    1353.48  E(vib)   ...       0.01
freq.    1452.97  E(vib)   ...       0.00
freq.    1464.32  E(vib)   ...       0.00
freq.    1468.67  E(vib)   ...       0.00
freq.    1477.94  E(vib)   ...       0.00
freq.    1543.06  E(vib)   ...       0.00
freq.    1620.15  E(vib)   ...       0.00
freq.    1664.25  E(vib)   ...       0.00
freq.    2207.25  E(vib)   ...       0.00
freq.    3035.75  E(vib)   ...       0.00
freq.    3107.03  E(vib)   ...       0.00
freq.    3160.80  E(vib)   ...       0.00
freq.    3198.48  E(vib)   ...       0.00
freq.    3202.74  E(vib)   ...       0.00
freq.    3213.47  E(vib)   ...       0.00
freq.    3228.58  E(vib)   ...       0.00
freq.    3441.48  E(vib)   ...       0.00

------------
INNER ENERGY
------------

The inner energy is: U= E(el) + E(ZPE) + E(vib) + E(rot) + E(trans)
    E(el)   - is the total energy from the electronic structure calculation
              = E(kin-el) + E(nuc-el) + E(el-el) + E(nuc-nuc)
    E(ZPE)  - the the zero temperature vibrational energy from the frequency calculation
    E(vib)  - the the finite temperature correction to E(ZPE) due to population
              of excited vibrational states
    E(rot)  - is the rotational thermal energy
    E(trans)- is the translational thermal energy

Summary of contributions to the inner energy U:
Electronic energy                ...   -422.59302967 Eh
Zero point energy                ...      0.14184359 Eh      89.01 kcal/mol
Thermal vibrational correction   ...      0.00622325 Eh       3.91 kcal/mol
Thermal rotational correction    ...      0.00141627 Eh       0.89 kcal/mol
Thermal translational correction ...      0.00141627 Eh       0.89 kcal/mol
-----------------------------------------------------------------------
Total thermal energy                   -422.44213029 Eh

Summary of corrections to the electronic energy:
(perhaps to be used in another calculation)
Total thermal correction                  0.00905579 Eh       5.68 kcal/mol
Non-thermal (ZPE) correction              0.14184359 Eh      89.01 kcal/mol
-----------------------------------------------------------------------
Total correction                          0.15089938 Eh      94.69 kcal/mol

--------
ENTHALPY
--------

The enthalpy is H = U + kB*T
                kB is Boltzmann's constant
Total thermal energy              ...   -422.44213029 Eh
Thermal Enthalpy correction       ...      0.00094421 Eh       0.59 kcal/mol
-----------------------------------------------------------------------
Total Enthalpy                    ...   -422.44118608 Eh

Note: Only C1 symmetry has been detected, increase convergence thresholds
      if your molecule has a higher symmetry. Symmetry factor of 1.0 is
      used for the rotational entropy correction.

Note: Rotational entropy computed according to Herzberg
Infrared and Raman Spectra, Chapter V,1, Van Nostrand Reinhold, 1945
Point Group:  C1, Symmetry Number:   1
Rotational constants in cm-1:     0.162212     0.023830     0.020861

Vibrational entropy computed according to the QRRHO of S. Grimme
Chem.Eur.J. 2012 18 9955 using a reference frequency of 100.0 cm-1

-------
ENTROPY
-------

The entropy contributions are T*S = T*(S(el)+S(vib)+S(rot)+S(trans))
     S(el)   - electronic entropy
     S(vib)  - vibrational entropy
     S(rot)  - rotational entropy
     S(trans)- translational entropy
The entropies will be listed as multiplied by the temperature to get
units of energy

Electronic entropy                ...      0.00000000 Eh      0.00 kcal/mol
Vibrational entropy               ...      0.01039687 Eh      6.52 kcal/mol
Rotational entropy                ...      0.01396052 Eh      8.76 kcal/mol
Translational entropy             ...      0.01926618 Eh     12.09 kcal/mol
-----------------------------------------------------------------------
Final entropy term                ...      0.04362357 Eh     27.37 kcal/mol

In case the symmetry of your molecule has not been determined correctly
or in case you have a reason to use a different symmetry number we print
out the resulting rotational entropy values for sn=1,12:

 non-linear molecules -----------------------------------
|  sn= 1 | S(rot)=       0.01396052 Eh      8.76 kcal/mol|
|  sn= 2 | S(rot)=       0.01330606 Eh      8.35 kcal/mol|
|  sn= 3 | S(rot)=       0.01292323 Eh      8.11 kcal/mol|
|  sn= 4 | S(rot)=       0.01265161 Eh      7.94 kcal/mol|
|  sn= 5 | S(rot)=       0.01244092 Eh      7.81 kcal/mol|
|  sn= 6 | S(rot)=       0.01226877 Eh      7.70 kcal/mol|
|  sn= 7 | S(rot)=       0.01212323 Eh      7.61 kcal/mol|
|  sn= 8 | S(rot)=       0.01199715 Eh      7.53 kcal/mol|
|  sn= 9 | S(rot)=       0.01188594 Eh      7.46 kcal/mol|
|  sn=10 | S(rot)=       0.01178646 Eh      7.40 kcal/mol|
|  sn=11 | S(rot)=       0.01169647 Eh      7.34 kcal/mol|
|  sn=12 | S(rot)=       0.01161432 Eh      7.29 kcal/mol|

                             ****ORCA TERMINATED NORMALLY****
TOTAL RUN TIME: 0 days 0 hours 33 minutes 19 seconds 322 msec
