                         Program Version 6.0.0  -   RELEASE  -
|  1> !B3LYP freq aug-cc-pVTZ d3 TightSCF SlowConv RIJCOSX defgrid2
|  2>
|  3> %pal
|  4> nprocs 12
|  5>
|  6> end
|  7>
|  8> %scf
|  9> MaxIter 1500
| 10> end
| 11>
| 12> %maxcore 5000
| 13>
| 14> !CPCM
| 15> %cpcm smd true
| 16> SMDsolvent "MeCN"
| 17> surfacetype gepol_ses
| 18> rsolv 2.19
| 19> end
| 20>
| 21> * xyz 0 1
| 22> C          -0.32949817947928      0.79135784429113      0.00038008397024
| 23> C          -1.61979361309541      0.25705847545570     -0.00038479618658
| 24> C          -1.80001763216589     -1.12377956448797      0.00025286616540
| 25> C          -0.67284981638706     -1.94697972115458      0.00205020153974
| 26> C           0.60662121406795     -1.42276341341531      0.00286557058958
| 27> C           0.79655056589439     -0.03026996449283      0.00169939374749
| 28> C           2.12045461953209      0.60318773599433      0.00202407111278
| 29> C           3.30612364724157     -0.01118931231997     -0.00195094461850
| 30> C           4.62247951150395      0.69242190274814     -0.00114634100934
| 31> H           5.21357508906182      0.41610915445610     -0.87935781886430
| 32> H           5.21747645009128      0.40581457405433      0.87112473697016
| 33> H           4.50256165822911      1.77627400840530      0.00538701662321
| 34> H           3.35153542373865     -1.09567389949906     -0.00642889459009
| 35> H           2.10608712725969      1.68944046165513      0.00547748248442
| 36> H           1.45446931686678     -2.09216033412214      0.00496199492329
| 37> H          -0.81020233800371     -3.02038139090384      0.00314243414756
| 38> H          -2.78517942757283     -1.56277744317736     -0.00090220273966
| 39> O          -2.63521496624351      1.16300713442978     -0.00193498234272
| 40> C          -3.97431563922540      0.67002999334253     -0.00141574848025
| 41> H          -4.61561453989735      1.54727948537357     -0.00195235271329
| 42> H          -4.17561172673808      0.07424767439065      0.89115744541169
| 43> H          -4.17582708813834      0.07328376178871     -0.89323819080421
| 44> H          -0.21664545654040      1.86782583718766     -0.00055642533661
| 45> *
| 46>
| 47>                          ****END OF INPUT****

CARTESIAN COORDINATES (ANGSTROEM)
---------------------------------
  C     -0.329498    0.791358    0.000380
  C     -1.619794    0.257058   -0.000385
  C     -1.800018   -1.123780    0.000253
  C     -0.672850   -1.946980    0.002050
  C      0.606621   -1.422763    0.002866
  C      0.796551   -0.030270    0.001699
  C      2.120455    0.603188    0.002024
  C      3.306124   -0.011189   -0.001951
  C      4.622480    0.692422   -0.001146
  H      5.213575    0.416109   -0.879358
  H      5.217476    0.405815    0.871125
  H      4.502562    1.776274    0.005387
  H      3.351535   -1.095674   -0.006429
  H      2.106087    1.689440    0.005477
  H      1.454469   -2.092160    0.004962
  H     -0.810202   -3.020381    0.003142
  H     -2.785179   -1.562777   -0.000902
  O     -2.635215    1.163007   -0.001935
  C     -3.974316    0.670030   -0.001416
  H     -4.615615    1.547279   -0.001952
  H     -4.175612    0.074248    0.891157
  H     -4.175827    0.073284   -0.893238
  H     -0.216645    1.867826   -0.000556

 Total Charge           Charge          ....    0
 Multiplicity           Mult            ....    1
 Number of Electrons    NEL             ....   80
 Basis Dimension        Dim             ....  782

ORBITAL ENERGIES
----------------

  NO   OCC          E(Eh)            E(eV)
   0   2.0000     -19.157335      -521.2976
   1   2.0000     -10.233443      -278.4661
   2   2.0000     -10.210991      -277.8552
   3   2.0000     -10.185710      -277.1673
   4   2.0000     -10.174041      -276.8497
   5   2.0000     -10.172422      -276.8057
   6   2.0000     -10.168003      -276.6854
   7   2.0000     -10.167446      -276.6703
   8   2.0000     -10.167223      -276.6642
   9   2.0000     -10.164309      -276.5849
  10   2.0000     -10.158781      -276.4345
  11   2.0000      -1.063571       -28.9412
  12   2.0000      -0.858304       -23.3556
  13   2.0000      -0.798329       -21.7236
  14   2.0000      -0.754901       -20.5419
  15   2.0000      -0.747956       -20.3529
  16   2.0000      -0.690519       -18.7900
  17   2.0000      -0.677649       -18.4398
  18   2.0000      -0.604359       -16.4454
  19   2.0000      -0.597956       -16.2712
  20   2.0000      -0.547103       -14.8874
  21   2.0000      -0.521358       -14.1869
  22   2.0000      -0.484761       -13.1910
  23   2.0000      -0.478150       -13.0111
  24   2.0000      -0.462878       -12.5955
  25   2.0000      -0.458031       -12.4637
  26   2.0000      -0.430117       -11.7041
  27   2.0000      -0.416997       -11.3471
  28   2.0000      -0.407080       -11.0772
  29   2.0000      -0.397827       -10.8254
  30   2.0000      -0.383320       -10.4307
  31   2.0000      -0.383256       -10.4289
  32   2.0000      -0.367057        -9.9881
  33   2.0000      -0.351772        -9.5722
  34   2.0000      -0.342516        -9.3203
  35   2.0000      -0.331455        -9.0193
  36   2.0000      -0.324356        -8.8262
  37   2.0000      -0.290361        -7.9011
  38   2.0000      -0.232083        -6.3153
  39   2.0000      -0.217608        -5.9214
  40   0.0000      -0.034719        -0.9447
  41   0.0000      -0.008156        -0.2219
  42   0.0000      -0.002456        -0.0668
  43   0.0000       0.004945         0.1345
  44   0.0000       0.010662         0.2901

MULLIKEN ATOMIC CHARGES
-----------------------
   0 C :   -1.046181
   1 C :    0.885426
   2 C :   -0.038427
   3 C :   -0.976582
   4 C :   -0.514987
   5 C :    1.812089
   6 C :   -0.227541
   7 C :   -0.302741
   8 C :   -0.808535
   9 H :    0.194619
  10 H :    0.195299
  11 H :    0.252692
  12 H :    0.147678
  13 H :   -0.026867
  14 H :    0.147001
  15 H :    0.509398
  16 H :    0.173815
  17 O :   -0.656864
  18 C :   -0.627133
  19 H :    0.244574
  20 H :    0.269568
  21 H :    0.268536
  22 H :    0.125162
Sum of atomic charges:    0.0000000

LOEWDIN ATOMIC CHARGES
----------------------
   0 C :    0.206083
   1 C :   -0.398347
   2 C :    0.200777
   3 C :    0.189552
   4 C :    0.199602
   5 C :   -0.153422
   6 C :    0.205466
   7 C :    0.208248
   8 C :    0.558356
   9 H :   -0.169133
  10 H :   -0.169206
  11 H :   -0.178011
  12 H :   -0.188873
  13 H :   -0.189507
  14 H :   -0.194390
  15 H :   -0.175250
  16 H :   -0.199888
  17 O :    0.595750
  18 C :    0.348370
  19 H :   -0.178731
  20 H :   -0.170263
  21 H :   -0.170312
  22 H :   -0.176870

  Mayer bond orders larger than 0.100000
B(  0-C ,  1-C ) :   0.5777 B(  0-C ,  2-C ) :  -0.1356 B(  0-C ,  3-C ) :   0.1251
B(  0-C ,  4-C ) :  -0.2919 B(  0-C ,  5-C ) :   0.1481 B(  0-C ,  6-C ) :  -0.1455
B(  0-C ,  7-C ) :   0.1778 B(  0-C , 17-O ) :   0.3411 B(  0-C , 18-C ) :   0.1045
B(  0-C , 22-H ) :   1.2423 B(  1-C ,  2-C ) :   1.0731 B(  1-C ,  4-C ) :  -0.1786
B(  1-C , 17-O ) :   0.1431 B(  1-C , 22-H ) :  -0.1449 B(  2-C ,  3-C ) :   0.9227
B(  2-C , 16-H ) :   1.1738 B(  2-C , 17-O ) :  -0.1781 B(  2-C , 18-C ) :  -0.1658
B(  3-C ,  4-C ) :   0.9488 B(  3-C ,  5-C ) :  -0.1060 B(  3-C ,  6-C ) :   0.1087
B(  3-C ,  7-C ) :  -0.1134 B(  3-C , 14-H ) :  -0.1610 B(  3-C , 15-H ) :   0.4368
B(  3-C , 16-H ) :  -0.1134 B(  4-C ,  5-C ) :   0.4893 B(  4-C ,  6-C ) :   0.1173
B(  4-C ,  7-C ) :   0.1131 B(  4-C , 14-H ) :   1.1792 B(  5-C ,  7-C ) :  -0.1526
B(  5-C , 12-H ) :  -0.1507 B(  5-C , 13-H ) :  -0.1295 B(  5-C , 14-H ) :  -0.1407
B(  5-C , 17-O ) :   0.1300 B(  5-C , 22-H ) :  -0.1557 B(  6-C ,  7-C ) :   0.9568
B(  6-C , 13-H ) :   1.3680 B(  7-C ,  8-C ) :   0.5958 B(  7-C , 12-H ) :   1.3437
B(  7-C , 13-H ) :  -0.1332 B(  8-C ,  9-H ) :   1.0343 B(  8-C , 10-H ) :   1.0333
B(  8-C , 11-H ) :   0.9525 B(  8-C , 12-H ) :  -0.1226 B( 16-H , 18-C ) :  -0.1080
B( 17-O , 18-C ) :   0.9664 B( 18-C , 19-H ) :   0.9628 B( 18-C , 20-H ) :   0.9344
B( 18-C , 21-H ) :   0.9345

Dispersion correction           -0.038936356
FINAL SINGLE POINT ENERGY      -463.421598223661

DIPOLE MOMENT
-------------

Method             : SCF
Type of density    : Electron Density
Multiplicity       :   1
Irrep              :   0
Energy             :  -463.3826618678346563 Eh
Relativity type    :
Basis              : AO
                                X                 Y                 Z
Electronic contribution:     -5.068848374      -0.433115294       0.001970657
Nuclear contribution   :      4.741110989       0.059708204      -0.002690943
                        -----------------------------------------
Total Dipole Moment    :     -0.327737384      -0.373407091      -0.000720286
                        -----------------------------------------
Magnitude (a.u.)       :      0.496835151
Magnitude (Debye)      :      1.262854593

VIBRATIONAL FREQUENCIES
-----------------------

Scaling factor for frequencies =  1.000000000  (already applied!)

     0:       0.00 cm**-1
     1:       0.00 cm**-1
     2:       0.00 cm**-1
     3:       0.00 cm**-1
     4:       0.00 cm**-1
     5:       0.00 cm**-1
     6:      21.03 cm**-1
     7:      76.41 cm**-1
     8:     117.44 cm**-1
     9:     128.80 cm**-1
    10:     193.87 cm**-1
    11:     199.19 cm**-1
    12:     250.47 cm**-1
    13:     259.09 cm**-1
    14:     296.11 cm**-1
    15:     331.45 cm**-1
    16:     362.61 cm**-1
    17:     466.93 cm**-1
    18:     478.67 cm**-1
    19:     578.87 cm**-1
    20:     612.71 cm**-1
    21:     631.86 cm**-1
    22:     702.50 cm**-1
    23:     766.62 cm**-1
    24:     786.13 cm**-1
    25:     830.47 cm**-1
    26:     889.69 cm**-1
    27:     893.98 cm**-1
    28:     904.31 cm**-1
    29:     966.42 cm**-1
    30:     993.76 cm**-1
    31:    1001.05 cm**-1
    32:    1007.37 cm**-1
    33:    1060.08 cm**-1
    34:    1068.03 cm**-1
    35:    1106.94 cm**-1
    36:    1121.63 cm**-1
    37:    1167.33 cm**-1
    38:    1171.83 cm**-1
    39:    1188.08 cm**-1
    40:    1210.76 cm**-1
    41:    1285.35 cm**-1
    42:    1303.46 cm**-1
    43:    1320.75 cm**-1
    44:    1343.03 cm**-1
    45:    1358.57 cm**-1
    46:    1399.46 cm**-1
    47:    1453.13 cm**-1
    48:    1454.74 cm**-1
    49:    1467.64 cm**-1
    50:    1474.74 cm**-1
    51:    1478.77 cm**-1
    52:    1485.11 cm**-1
    53:    1518.62 cm**-1
    54:    1607.37 cm**-1
    55:    1637.49 cm**-1
    56:    1704.69 cm**-1
    57:    3005.86 cm**-1
    58:    3017.25 cm**-1
    59:    3043.59 cm**-1
    60:    3077.12 cm**-1
    61:    3085.84 cm**-1
    62:    3118.86 cm**-1
    63:    3133.10 cm**-1
    64:    3133.75 cm**-1
    65:    3167.49 cm**-1
    66:    3171.07 cm**-1
    67:    3188.14 cm**-1
    68:    3213.39 cm**-1

IR SPECTRUM
-----------

 Mode   freq       eps      Int      T**2         TX        TY        TZ
       cm**-1   L/(mol*cm) km/mol    a.u.
----------------------------------------------------------------------------
  6:     21.03   0.000316    1.60  0.004693  ( 0.000373  0.000262  0.068504)
  7:     76.41   0.001524    7.70  0.006223  (-0.000444 -0.000463 -0.078880)
  8:    117.44   0.000436    2.21  0.001160  (-0.024165  0.023992 -0.000050)
  9:    128.80   0.000152    0.77  0.000368  (-0.000319  0.000148 -0.019186)
 10:    193.87   0.000094    0.47  0.000151  (-0.000272  0.000007  0.012278)
 11:    199.19   0.000255    1.29  0.000399  (-0.000349  0.000430 -0.019973)
 12:    250.47   0.000622    3.14  0.000775  (-0.004743 -0.027420 -0.000800)
 13:    259.09   0.000207    1.04  0.000249  ( 0.000180  0.001311 -0.015721)
 14:    296.11   0.000030    0.15  0.000032  (-0.000148 -0.000061  0.005652)
 15:    331.45   0.000079    0.40  0.000074  ( 0.007594  0.004099 -0.000015)
 16:    362.61   0.000251    1.27  0.000216  ( 0.014460 -0.002648  0.000126)
 17:    466.93   0.001326    6.70  0.000886  ( 0.000049  0.000183 -0.029769)
 18:    478.67   0.000275    1.39  0.000179  (-0.007851 -0.010842  0.000185)
 19:    578.87   0.003204   16.19  0.001727  ( 0.025521 -0.032798 -0.000159)
 20:    612.71   0.000077    0.39  0.000039  ( 0.000107  0.000058  0.006278)
 21:    631.86   0.000319    1.61  0.000158  (-0.007606 -0.009994 -0.000077)
 22:    702.50   0.009348   47.24  0.004153  ( 0.000201  0.000034  0.064441)
 23:    766.62   0.002766   13.98  0.001126  (-0.030046  0.014928 -0.000458)
 24:    786.13   0.016063   81.18  0.006376  (-0.000011  0.000373  0.079852)
 25:    830.47   0.000486    2.46  0.000183  (-0.000085 -0.000115  0.013514)
 26:    889.69   0.001871    9.46  0.000656  ( 0.000570  0.000079  0.025611)
 27:    893.98   0.008382   42.36  0.002926  ( 0.043005 -0.032812  0.000147)
 28:    904.31   0.004494   22.71  0.001551  ( 0.000280  0.000291 -0.039378)
 29:    966.42   0.008969   45.33  0.002896  (-0.053514 -0.005694  0.000346)
 30:    993.76   0.004604   23.26  0.001446  (-0.000359 -0.000352  0.038018)
 31:   1001.05   0.012907   65.22  0.004023  ( 0.000447 -0.000322  0.063428)
 32:   1007.37   0.000549    2.77  0.000170  ( 0.003021 -0.012683 -0.000223)
 33:   1060.08   0.024949  126.08  0.007345  ( 0.085296  0.008318 -0.000036)
 34:   1068.03   0.000100    0.50  0.000029  (-0.000107  0.000174  0.005390)
 35:   1106.94   0.002503   12.65  0.000706  ( 0.006745  0.025691  0.000138)
 36:   1121.63   0.000877    4.43  0.000244  ( 0.014253 -0.006391  0.000117)
 37:   1167.33   0.000320    1.62  0.000085  ( 0.004022 -0.001441  0.008200)
 38:   1171.83   0.020527  103.74  0.005466  (-0.070554  0.022099  0.000481)
 39:   1188.08   0.002897   14.64  0.000761  ( 0.025451 -0.010640 -0.000047)
 40:   1210.76   0.003175   16.05  0.000818  ( 0.023711 -0.016006  0.000085)
 41:   1285.35   0.067162  339.41  0.016306  ( 0.114465 -0.056602  0.000057)
 42:   1303.46   0.000319    1.61  0.000076  (-0.008541  0.001839 -0.000103)
 43:   1320.75   0.001666    8.42  0.000394  (-0.014842  0.013168 -0.000059)
 44:   1343.03   0.000116    0.59  0.000027  (-0.000376  0.005180  0.000012)
 45:   1358.57   0.009779   49.42  0.002246  (-0.046463  0.009354 -0.000041)
 46:   1399.46   0.000377    1.91  0.000084  ( 0.005475 -0.007354  0.000345)
 47:   1453.13   0.018252   92.24  0.003920  (-0.052876  0.033282 -0.004003)
 48:   1454.74   0.003333   16.84  0.000715  (-0.009639  0.005484  0.024329)
 49:   1467.64   0.000030    0.15  0.000006  (-0.001307 -0.002132  0.000333)
 50:   1474.74   0.002650   13.39  0.000561  ( 0.002112 -0.000287  0.023585)
 51:   1478.77   0.000226    1.14  0.000048  ( 0.005140  0.002994 -0.003523)
 52:   1485.11   0.003568   18.03  0.000750  (-0.018113  0.020534  0.000251)
 53:   1518.62   0.018793   94.97  0.003862  (-0.058374  0.021315  0.000049)
 54:   1607.37   0.030761  155.45  0.005972  ( 0.050383 -0.058598  0.000009)
 55:   1637.49   0.034108  172.37  0.006500  (-0.080614  0.001200 -0.000003)
 56:   1704.69   0.003976   20.09  0.000728  (-0.026874 -0.002375  0.000004)
 57:   3005.86   0.010254   51.82  0.001065  ( 0.032076  0.005969  0.000081)
 58:   3017.25   0.014648   74.03  0.001515  (-0.037765 -0.009426  0.000088)
 59:   3043.59   0.005577   28.19  0.000572  (-0.000096  0.000064 -0.023913)
 60:   3077.12   0.010437   52.75  0.001059  (-0.000098 -0.000180 -0.032534)
 61:   3085.84   0.005468   27.63  0.000553  (-0.004869  0.023005  0.000149)
 62:   3118.86   0.003831   19.36  0.000383  ( 0.010141  0.016746  0.000083)
 63:   3133.10   0.005537   27.98  0.000551  ( 0.012984 -0.019568  0.000013)
 64:   3133.75   0.009234   46.66  0.000919  ( 0.002931  0.030181  0.000088)
 65:   3167.49   0.002971   15.01  0.000293  ( 0.006690  0.015746  0.000019)
 66:   3171.07   0.001864    9.42  0.000183  ( 0.003770 -0.013008 -0.000063)
 67:   3188.14   0.004077   20.60  0.000399  ( 0.008479 -0.018087 -0.000014)
 68:   3213.39   0.000658    3.32  0.000064  ( 0.007398  0.003022 -0.000050)

--------------------------
THERMOCHEMISTRY AT 298.15K
--------------------------

Temperature         ...   298.15 K
Pressure            ...     1.00 atm
Total Mass          ...   148.21 AMU
Quasi RRHO          ...     True
Cut-Off Frequency   ...     1.00 cm^-1

Throughout the following assumptions are being made:
  (1) The electronic state is orbitally nondegenerate
  (2) There are no thermally accessible electronically excited states
  (3) Hindered rotations indicated by low frequency modes are not
      treated as such but are treated as vibrations and this may
      cause some error
  (4) All equations used are the standard statistical mechanics
      equations for an ideal gas
  (5) All vibrations are strictly harmonic

freq.      21.03  E(vib)   ...       0.56
freq.      76.41  E(vib)   ...       0.49
freq.     117.44  E(vib)   ...       0.44
freq.     128.80  E(vib)   ...       0.43
freq.     193.87  E(vib)   ...       0.36
freq.     199.19  E(vib)   ...       0.35
freq.     250.47  E(vib)   ...       0.30
freq.     259.09  E(vib)   ...       0.30
freq.     296.11  E(vib)   ...       0.27
freq.     331.45  E(vib)   ...       0.24
freq.     362.61  E(vib)   ...       0.22
freq.     466.93  E(vib)   ...       0.16
freq.     478.67  E(vib)   ...       0.15
freq.     578.87  E(vib)   ...       0.11
freq.     612.71  E(vib)   ...       0.10
freq.     631.86  E(vib)   ...       0.09
freq.     702.50  E(vib)   ...       0.07
freq.     766.62  E(vib)   ...       0.06
freq.     786.13  E(vib)   ...       0.05
freq.     830.47  E(vib)   ...       0.04
freq.     889.69  E(vib)   ...       0.04
freq.     893.98  E(vib)   ...       0.03
freq.     904.31  E(vib)   ...       0.03
freq.     966.42  E(vib)   ...       0.03
freq.     993.76  E(vib)   ...       0.02
freq.    1001.05  E(vib)   ...       0.02
freq.    1007.37  E(vib)   ...       0.02
freq.    1060.08  E(vib)   ...       0.02
freq.    1068.03  E(vib)   ...       0.02
freq.    1106.94  E(vib)   ...       0.02
freq.    1121.63  E(vib)   ...       0.01
freq.    1167.33  E(vib)   ...       0.01
freq.    1171.83  E(vib)   ...       0.01
freq.    1188.08  E(vib)   ...       0.01
freq.    1210.76  E(vib)   ...       0.01
freq.    1285.35  E(vib)   ...       0.01
freq.    1303.46  E(vib)   ...       0.01
freq.    1320.75  E(vib)   ...       0.01
freq.    1343.03  E(vib)   ...       0.01
freq.    1358.57  E(vib)   ...       0.01
freq.    1399.46  E(vib)   ...       0.00
freq.    1453.13  E(vib)   ...       0.00
freq.    1454.74  E(vib)   ...       0.00
freq.    1467.64  E(vib)   ...       0.00
freq.    1474.74  E(vib)   ...       0.00
freq.    1478.77  E(vib)   ...       0.00
freq.    1485.11  E(vib)   ...       0.00
freq.    1518.62  E(vib)   ...       0.00
freq.    1607.37  E(vib)   ...       0.00
freq.    1637.49  E(vib)   ...       0.00
freq.    1704.69  E(vib)   ...       0.00
freq.    3005.86  E(vib)   ...       0.00
freq.    3017.25  E(vib)   ...       0.00
freq.    3043.59  E(vib)   ...       0.00
freq.    3077.12  E(vib)   ...       0.00
freq.    3085.84  E(vib)   ...       0.00
freq.    3118.86  E(vib)   ...       0.00
freq.    3133.10  E(vib)   ...       0.00
freq.    3133.75  E(vib)   ...       0.00
freq.    3167.49  E(vib)   ...       0.00
freq.    3171.07  E(vib)   ...       0.00
freq.    3188.14  E(vib)   ...       0.00
freq.    3213.39  E(vib)   ...       0.00

------------
INNER ENERGY
------------

The inner energy is: U= E(el) + E(ZPE) + E(vib) + E(rot) + E(trans)
    E(el)   - is the total energy from the electronic structure calculation
              = E(kin-el) + E(nuc-el) + E(el-el) + E(nuc-nuc)
    E(ZPE)  - the the zero temperature vibrational energy from the frequency calculation
    E(vib)  - the the finite temperature correction to E(ZPE) due to population
              of excited vibrational states
    E(rot)  - is the rotational thermal energy
    E(trans)- is the translational thermal energy

Summary of contributions to the inner energy U:
Electronic energy                ...   -463.42159822 Eh
Zero point energy                ...      0.19248431 Eh     120.79 kcal/mol
Thermal vibrational correction   ...      0.00821694 Eh       5.16 kcal/mol
Thermal rotational correction    ...      0.00141627 Eh       0.89 kcal/mol
Thermal translational correction ...      0.00141627 Eh       0.89 kcal/mol
-----------------------------------------------------------------------
Total thermal energy                   -463.21806443 Eh

Summary of corrections to the electronic energy:
(perhaps to be used in another calculation)
Total thermal correction                  0.01104949 Eh       6.93 kcal/mol
Non-thermal (ZPE) correction              0.19248431 Eh     120.79 kcal/mol
-----------------------------------------------------------------------
Total correction                          0.20353380 Eh     127.72 kcal/mol

--------
ENTHALPY
--------

The enthalpy is H = U + kB*T
                kB is Boltzmann's constant
Total thermal energy              ...   -463.21806443 Eh
Thermal Enthalpy correction       ...      0.00094421 Eh       0.59 kcal/mol
-----------------------------------------------------------------------
Total Enthalpy                    ...   -463.21712022 Eh

Note: Only C1 symmetry has been detected, increase convergence thresholds
      if your molecule has a higher symmetry. Symmetry factor of 1.0 is
      used for the rotational entropy correction.

Note: Rotational entropy computed according to Herzberg
Infrared and Raman Spectra, Chapter V,1, Van Nostrand Reinhold, 1945
Point Group:  C1, Symmetry Number:   1
Rotational constants in cm-1:     0.103253     0.016968     0.014653

Vibrational entropy computed according to the QRRHO of S. Grimme
Chem.Eur.J. 2012 18 9955 using a reference frequency of 100.0 cm-1

-------
ENTROPY
-------

The entropy contributions are T*S = T*(S(el)+S(vib)+S(rot)+S(trans))
     S(el)   - electronic entropy
     S(vib)  - vibrational entropy
     S(rot)  - rotational entropy
     S(trans)- translational entropy
The entropies will be listed as multiplied by the temperature to get
units of energy

Electronic entropy                ...      0.00000000 Eh      0.00 kcal/mol
Vibrational entropy               ...      0.01443602 Eh      9.06 kcal/mol
Rotational entropy                ...      0.01450084 Eh      9.10 kcal/mol
Translational entropy             ...      0.01942844 Eh     12.19 kcal/mol
-----------------------------------------------------------------------
Final entropy term                ...      0.04836530 Eh     30.35 kcal/mol

In case the symmetry of your molecule has not been determined correctly
or in case you have a reason to use a different symmetry number we print

                             ****ORCA TERMINATED NORMALLY****
TOTAL RUN TIME: 0 days 0 hours 51 minutes 2 seconds 9 msec
