                         Program Version 6.0.0  -   RELEASE  -
|  1> !r2SCAN freq aug-cc-pVTZ d3 TightSCF SlowConv RIJCOSX defgrid2
|  2>
|  3> %pal
|  4> nprocs 12
|  5> end
|  6>
|  7> %scf
|  8> MaxIter 1500
|  9> end
| 10>
| 11> %maxcore 5000
| 12>
| 13> !CPCM
| 14> %cpcm smd true
| 15> SMDsolvent "MeCN"
| 16> surfacetype gepol_ses
| 17> rsolv 2.19
| 18> end
| 19>
| 20> * xyz 0 1
| 21>   C           0.86911166626811     -1.20146305169343      0.05448905614831
| 22>   C           1.23459459182618      0.14976708737521      0.03108679621103
| 23>   C           0.20820438270680      1.10295735239134      0.01426181783355
| 24>   C          -1.13984033009891      0.75292535426996      0.01915349241687
| 25>   C          -1.49058769949704     -0.60876527194169      0.04242908800636
| 26>   C          -0.46884652988111     -1.56258341446363      0.05989523990069
| 27>   H          -0.73474424547334     -2.61459797893066      0.07862687362671
| 28>   C          -2.92787843339762     -1.03001173986761      0.04826777021969
| 29>   H          -3.01910574602652     -2.11592665808399      0.06675369631387
| 30>   H          -3.45681947783106     -0.65950408980154     -0.83489591891708
| 31>   H          -3.45863989802008     -0.62977508898212      0.91723768348781
| 32>   C          -2.19876637989110      1.81386784235153     -0.00112822495141
| 33>   H          -2.84995315115896      1.74621161880816      0.87522736698532
| 34>   H          -2.84620767883523      1.71528801959209     -0.87730796432166
| 35>   H          -1.75665011914069      2.80991763316895     -0.01793046637770
| 36>   H           0.47619052135688      2.15551608335118     -0.00408587639095
| 37>   C           2.62397206349957      0.60885703150513      0.02308245356749
| 38>   C           3.72507434484171     -0.14855354487146      0.02975499314191
| 39>   H           3.69105218469342     -1.23226058107101      0.04230777602430
| 40>   H           4.70684726769383      0.30897973641216      0.02260042235222
| 41>   H           2.74286065154265      1.69022218004721      0.00942971665652
| 42>   H           1.62721621482252     -1.97558251956578      0.06884760806612
| 43> *
| 44>
| 45>                          ****END OF INPUT****

CARTESIAN COORDINATES (ANGSTROEM)
---------------------------------
  C      0.869112   -1.201463    0.054489
  C      1.234595    0.149767    0.031087
  C      0.208204    1.102957    0.014262
  C     -1.139840    0.752925    0.019153
  C     -1.490588   -0.608765    0.042429
  C     -0.468847   -1.562583    0.059895
  H     -0.734744   -2.614598    0.078627
  C     -2.927878   -1.030012    0.048268
  H     -3.019106   -2.115927    0.066754
  H     -3.456819   -0.659504   -0.834896
  H     -3.458640   -0.629775    0.917238
  C     -2.198766    1.813868   -0.001128
  H     -2.849953    1.746212    0.875227
  H     -2.846208    1.715288   -0.877308
  H     -1.756650    2.809918   -0.017930
  H      0.476191    2.155516   -0.004086
  C      2.623972    0.608857    0.023082
  C      3.725074   -0.148554    0.029755
  H      3.691052   -1.232261    0.042308
  H      4.706847    0.308980    0.022600
  H      2.742861    1.690222    0.009430
  H      1.627216   -1.975583    0.068848

 Total Charge           Charge          ....    0
 Multiplicity           Mult            ....    1
 Number of Electrons    NEL             ....   72
 Basis Dimension        Dim             ....  736

ORBITAL ENERGIES
----------------

  NO   OCC          E(Eh)            E(eV)
   0   2.0000     -10.045837      -273.3611
   1   2.0000     -10.045264      -273.3455
   2   2.0000     -10.044858      -273.3345
   3   2.0000     -10.041487      -273.2427
   4   2.0000     -10.034093      -273.0415
   5   2.0000     -10.033576      -273.0275
   6   2.0000     -10.033209      -273.0175
   7   2.0000     -10.026704      -272.8405
   8   2.0000     -10.023232      -272.7460
   9   2.0000     -10.023074      -272.7417
  10   2.0000      -0.831742       -22.6329
  11   2.0000      -0.769352       -20.9351
  12   2.0000      -0.731893       -19.9158
  13   2.0000      -0.713504       -19.4154
  14   2.0000      -0.663711       -18.0605
  15   2.0000      -0.635830       -17.3018
  16   2.0000      -0.570499       -15.5241
  17   2.0000      -0.564104       -15.3501
  18   2.0000      -0.508458       -13.8358
  19   2.0000      -0.464554       -12.6411
  20   2.0000      -0.446994       -12.1633
  21   2.0000      -0.416641       -11.3374
  22   2.0000      -0.401861       -10.9352
  23   2.0000      -0.396259       -10.7828
  24   2.0000      -0.380507       -10.3541
  25   2.0000      -0.374134       -10.1807
  26   2.0000      -0.363058        -9.8793
  27   2.0000      -0.349081        -9.4990
  28   2.0000      -0.346541        -9.4299
  29   2.0000      -0.340775        -9.2730
  30   2.0000      -0.326136        -8.8746
  31   2.0000      -0.302480        -8.2309
  32   2.0000      -0.296808        -8.0766
  33   2.0000      -0.273400        -7.4396
  34   2.0000      -0.231002        -6.2859
  35   2.0000      -0.204303        -5.5594
  36   0.0000      -0.064291        -1.7495
  37   0.0000      -0.032106        -0.8737
  38   0.0000       0.006799         0.1850
  39   0.0000       0.017845         0.4856
  40   0.0000       0.020681         0.5627

MULLIKEN ATOMIC CHARGES
-----------------------
   0 C :   -0.252062
   1 C :    2.227273
   2 C :   -1.298516
   3 C :    0.817669
   4 C :    1.060200
   5 C :   -1.281457
   6 H :   -0.074103
   7 C :   -0.705350
   8 H :    0.067808
   9 H :    0.195076
  10 H :    0.194454
  11 C :   -0.699824
  12 H :    0.189663
  13 H :    0.189005
  14 H :    0.082976
  15 H :   -0.422793
  16 C :    0.099744
  17 C :   -0.958071
  18 H :    0.148952
  19 H :    0.302390
  20 H :    0.038355
  21 H :    0.078611
Sum of atomic charges:   -0.0000000

LOEWDIN ATOMIC CHARGES
----------------------
   0 C :    0.210244
   1 C :   -0.152714
   2 C :    0.225355
   3 C :   -0.102976
   4 C :   -0.107138
   5 C :    0.221618
   6 H :   -0.174679
   7 C :    0.588167
   8 H :   -0.172736
   9 H :   -0.160059
  10 H :   -0.160016
  11 C :    0.590063
  12 H :   -0.159937
  13 H :   -0.159979
  14 H :   -0.172313
  15 H :   -0.174184
  16 C :    0.165372
  17 C :    0.529203
  18 H :   -0.227653
  19 H :   -0.222591
  20 H :   -0.194840
  21 H :   -0.188206

  Mayer bond orders larger than 0.100000
B(  0-C ,  2-C ) :  -0.8930 B(  0-C ,  3-C ) :  -0.2571 B(  0-C ,  4-C ) :   0.1330
B(  0-C ,  5-C ) :   0.4804 B(  0-C ,  6-H ) :  -0.1542 B(  0-C , 16-C ) :   0.2267
B(  0-C , 18-H ) :  -0.1464 B(  0-C , 21-H ) :   1.5825 B(  1-C ,  2-C ) :  -0.7485
B(  1-C ,  3-C ) :   0.5266 B(  1-C ,  4-C ) :  -0.2874 B(  1-C ,  7-C ) :   0.1013
B(  1-C , 15-H ) :  -0.5743 B(  1-C , 16-C ) :  -0.1266 B(  1-C , 21-H ) :  -0.1669
B(  2-C ,  3-C ) :   0.4978 B(  2-C ,  4-C ) :  -0.3549 B(  2-C ,  5-C ) :   0.2013
B(  2-C , 11-C ) :  -0.1921 B(  2-C , 15-H ) :   2.4691 B(  2-C , 16-C ) :   0.2353
B(  2-C , 17-C ) :   0.1282 B(  2-C , 20-H ) :  -0.1347 B(  3-C ,  4-C ) :   1.1933
B(  3-C ,  5-C ) :   0.1736 B(  3-C ,  7-C ) :   0.1670 B(  3-C , 11-C ) :  -0.1578
B(  3-C , 12-H ) :  -0.1123 B(  3-C , 13-H ) :  -0.1121 B(  3-C , 15-H ) :  -0.2836
B(  3-C , 20-H ) :   0.1159 B(  3-C , 21-H ) :  -0.2493 B(  4-C ,  5-C ) :   0.4292
B(  4-C ,  7-C ) :   0.1367 B(  4-C , 11-C ) :   0.4376 B(  4-C , 15-H ) :  -0.1048
B(  4-C , 16-C ) :   0.1122 B(  4-C , 21-H ) :  -0.1297 B(  5-C ,  6-H ) :   1.4072
B(  5-C ,  7-C ) :  -0.1720 B(  5-C , 17-C ) :  -0.1433 B(  5-C , 21-H ) :  -0.1668
B(  7-C ,  8-H ) :   1.0821 B(  7-C ,  9-H ) :   1.0211 B(  7-C , 10-H ) :   1.0211
B( 11-C , 12-H ) :   1.0333 B( 11-C , 13-H ) :   1.0339 B( 11-C , 14-H ) :   1.0462
B( 15-H , 16-C ) :  -0.1968 B( 16-C , 17-C ) :   0.7816 B( 16-C , 18-H ) :  -0.1157
B( 16-C , 20-H ) :   1.1333 B( 17-C , 18-H ) :   1.2501 B( 17-C , 19-H ) :   0.7932
B( 17-C , 20-H ) :  -0.2097

Dispersion correction           -0.007091638
FINAL SINGLE POINT ENERGY      -388.199175578668

DIPOLE MOMENT
-------------

Method             : SCF
Type of density    : Electron Density
Multiplicity       :   1
Irrep              :   0
Energy             :  -388.1920839404095318 Eh
Relativity type    :
Basis              : AO
                                X                 Y                 Z
Electronic contribution:      3.946814240      -1.049256520       0.030326088
Nuclear contribution   :     -4.602631096       1.147326414      -0.033019677
                        -----------------------------------------
Total Dipole Moment    :     -0.655816856       0.098069893      -0.002693589
                        -----------------------------------------
Magnitude (a.u.)       :      0.663114401
Magnitude (Debye)      :      1.685502858

VIBRATIONAL FREQUENCIES
-----------------------

Scaling factor for frequencies =  1.000000000  (already applied!)

     0:       0.00 cm**-1
     1:       0.00 cm**-1
     2:       0.00 cm**-1
     3:       0.00 cm**-1
     4:       0.00 cm**-1
     5:       0.00 cm**-1
     6:       9.48 cm**-1
     7:     121.53 cm**-1
     8:     130.95 cm**-1
     9:     171.28 cm**-1
    10:     200.73 cm**-1
    11:     210.37 cm**-1
    12:     301.43 cm**-1
    13:     306.07 cm**-1
    14:     376.76 cm**-1
    15:     431.34 cm**-1
    16:     440.86 cm**-1
    17:     515.03 cm**-1
    18:     539.14 cm**-1
    19:     575.19 cm**-1
    20:     680.20 cm**-1
    21:     720.89 cm**-1
    22:     749.26 cm**-1
    23:     759.87 cm**-1
    24:     834.95 cm**-1
    25:     901.22 cm**-1
    26:     916.53 cm**-1
    27:     935.94 cm**-1
    28:     968.02 cm**-1
    29:    1005.78 cm**-1
    30:    1008.66 cm**-1
    31:    1030.26 cm**-1
    32:    1033.04 cm**-1
    33:    1059.39 cm**-1
    34:    1061.25 cm**-1
    35:    1137.52 cm**-1
    36:    1188.12 cm**-1
    37:    1228.97 cm**-1
    38:    1260.65 cm**-1
    39:    1308.05 cm**-1
    40:    1323.28 cm**-1
    41:    1355.76 cm**-1
    42:    1386.95 cm**-1
    43:    1392.10 cm**-1
    44:    1411.44 cm**-1
    45:    1449.03 cm**-1
    46:    1451.82 cm**-1
    47:    1461.35 cm**-1
    48:    1466.35 cm**-1
    49:    1474.49 cm**-1
    50:    1525.32 cm**-1
    51:    1595.16 cm**-1
    52:    1637.20 cm**-1
    53:    1670.59 cm**-1
    54:    3012.83 cm**-1
    55:    3015.14 cm**-1
    56:    3063.49 cm**-1
    57:    3068.80 cm**-1
    58:    3110.74 cm**-1
    59:    3111.36 cm**-1
    60:    3118.95 cm**-1
    61:    3132.48 cm**-1
    62:    3139.50 cm**-1
    63:    3149.30 cm**-1
    64:    3173.81 cm**-1
    65:    3218.17 cm**-1

IR SPECTRUM
-----------

 Mode   freq       eps      Int      T**2         TX        TY        TZ
       cm**-1   L/(mol*cm) km/mol    a.u.
----------------------------------------------------------------------------
  6:      9.48   0.000013    0.06  0.000417  ( 0.000815 -0.000059 -0.020404)
  7:    121.53   0.000170    0.86  0.000437  (-0.000108  0.000282  0.020901)
  8:    130.95   0.000289    1.46  0.000688  (-0.000026  0.000636  0.026230)
  9:    171.28   0.000504    2.55  0.000918  (-0.000085  0.000894  0.030293)
 10:    200.73   0.000197    1.00  0.000306  (-0.013382  0.011274  0.000261)
 11:    210.37   0.001001    5.06  0.001484  ( 0.000297  0.000402  0.038525)
 12:    301.43   0.000256    1.30  0.000266  ( 0.016155 -0.002132  0.000085)
 13:    306.07   0.000067    0.34  0.000068  ( 0.000091 -0.000316 -0.008263)
 14:    376.76   0.000390    1.97  0.000323  (-0.013126 -0.012275  0.000224)
 15:    431.34   0.000699    3.53  0.000505  ( 0.022474 -0.000491  0.000307)
 16:    440.86   0.003220   16.27  0.002279  ( 0.000351 -0.000743 -0.047732)
 17:    515.03   0.002275   11.50  0.001379  ( 0.000398 -0.000698 -0.037121)
 18:    539.14   0.000502    2.54  0.000291  (-0.015988  0.005872 -0.000728)
 19:    575.19   0.000644    3.25  0.000349  (-0.017600 -0.006278 -0.000133)
 20:    680.20   0.000205    1.04  0.000094  ( 0.000179 -0.000011 -0.009697)
 21:    720.89   0.000228    1.15  0.000099  ( 0.009889 -0.000909  0.000135)
 22:    749.26   0.001099    5.55  0.000458  (-0.000060 -0.000587 -0.021384)
 23:    759.87   0.000172    0.87  0.000071  ( 0.008359  0.000979 -0.000031)
 24:    834.95   0.008703   43.98  0.003253  (-0.000317  0.001023  0.057022)
 25:    901.22   0.007245   36.61  0.002509  ( 0.000169 -0.000715 -0.050083)
 26:    916.53   0.015286   77.25  0.005204  (-0.000163 -0.000861 -0.072136)
 27:    935.94   0.000225    1.14  0.000075  ( 0.001666 -0.008501 -0.000086)
 28:    968.02   0.000060    0.31  0.000019  ( 0.000257 -0.000252 -0.004397)
 29:   1005.78   0.007913   39.99  0.002455  (-0.049038  0.007083  0.000294)
 30:   1008.66   0.000502    2.54  0.000155  (-0.009230  0.008347 -0.000671)
 31:   1030.26   0.007405   37.42  0.002243  ( 0.000117  0.000190  0.047360)
 32:   1033.04   0.003135   15.84  0.000947  (-0.000127 -0.000577 -0.030768)
 33:   1059.39   0.000642    3.24  0.000189  ( 0.011166  0.008026  0.000219)
 34:   1061.25   0.000002    0.01  0.000001  (-0.000192 -0.000386 -0.000720)
 35:   1137.52   0.001848    9.34  0.000507  ( 0.013271  0.018188 -0.000335)
 36:   1188.12   0.000612    3.09  0.000161  ( 0.009481 -0.008415  0.000153)
 37:   1228.97   0.000001    0.01  0.000000  ( 0.000491 -0.000307  0.000057)
 38:   1260.65   0.006152   31.09  0.001523  (-0.038258  0.007693 -0.000178)
 39:   1308.05   0.000738    3.73  0.000176  (-0.013183  0.001511  0.000005)
 40:   1323.28   0.000079    0.40  0.000019  ( 0.001863 -0.003891  0.000055)
 41:   1355.76   0.001963    9.92  0.000452  (-0.020974 -0.003456 -0.000006)
 42:   1386.95   0.000054    0.27  0.000012  ( 0.002667 -0.002222  0.000353)
 43:   1392.10   0.000401    2.03  0.000090  ( 0.004873 -0.008133  0.000188)
 44:   1411.44   0.001385    7.00  0.000306  ( 0.014513  0.009780 -0.000199)
 45:   1449.03   0.001940    9.80  0.000418  (-0.002421 -0.020293  0.000226)
 46:   1451.82   0.000024    0.12  0.000005  (-0.000051 -0.000316 -0.002249)
 47:   1461.35   0.005930   29.97  0.001266  (-0.000070 -0.000314 -0.035584)
 48:   1466.35   0.000669    3.38  0.000142  ( 0.007799 -0.009018 -0.000440)
 49:   1474.49   0.004051   20.47  0.000857  (-0.010714 -0.027242  0.000621)
 50:   1525.32   0.010951   55.34  0.002240  ( 0.047226 -0.003191  0.000059)
 51:   1595.16   0.002858   14.44  0.000559  (-0.019109  0.013922 -0.000254)
 52:   1637.20   0.002050   10.36  0.000391  (-0.005997 -0.018831  0.000327)
 53:   1670.59   0.011439   57.81  0.002137  ( 0.045418 -0.008603  0.000010)
 54:   3012.83   0.014378   72.66  0.001489  (-0.038487  0.002822 -0.000184)
 55:   3015.14   0.003969   20.06  0.000411  (-0.010043  0.017601 -0.000285)
 56:   3063.49   0.009077   45.87  0.000925  ( 0.000034 -0.000670 -0.030401)
 57:   3068.80   0.000659    3.33  0.000067  ( 0.000039 -0.000164 -0.008185)
 58:   3110.74   0.011628   58.76  0.001166  (-0.007962 -0.033209  0.000516)
 59:   3111.36   0.000558    2.82  0.000056  (-0.006928 -0.002819  0.000024)
 60:   3118.95   0.005298   26.77  0.000530  ( 0.007494  0.021769 -0.000192)
 61:   3132.48   0.001229    6.21  0.000122  ( 0.009325 -0.005958  0.000052)
 62:   3139.50   0.008808   44.51  0.000875  (-0.007751 -0.028553  0.000353)
 63:   3149.30   0.004433   22.40  0.000439  (-0.014329 -0.015295  0.000184)
 64:   3173.81   0.004525   22.87  0.000445  ( 0.008683 -0.019220  0.000343)
 65:   3218.17   0.003380   17.08  0.000328  ( 0.009545  0.015383 -0.000214)

--------------------------
THERMOCHEMISTRY AT 298.15K
--------------------------

Temperature         ...   298.15 K
Pressure            ...     1.00 atm
Total Mass          ...   132.21 AMU
Quasi RRHO          ...     True
Cut-Off Frequency   ...     1.00 cm^-1

Throughout the following assumptions are being made:
  (1) The electronic state is orbitally nondegenerate
  (2) There are no thermally accessible electronically excited states
  (3) Hindered rotations indicated by low frequency modes are not
      treated as such but are treated as vibrations and this may
      cause some error
  (4) All equations used are the standard statistical mechanics
      equations for an ideal gas
  (5) All vibrations are strictly harmonic

freq.       9.48  E(vib)   ...       0.58
freq.     121.53  E(vib)   ...       0.44
freq.     130.95  E(vib)   ...       0.42
freq.     171.28  E(vib)   ...       0.38
freq.     200.73  E(vib)   ...       0.35
freq.     210.37  E(vib)   ...       0.34
freq.     301.43  E(vib)   ...       0.26
freq.     306.07  E(vib)   ...       0.26
freq.     376.76  E(vib)   ...       0.21
freq.     431.34  E(vib)   ...       0.18
freq.     440.86  E(vib)   ...       0.17
freq.     515.03  E(vib)   ...       0.13
freq.     539.14  E(vib)   ...       0.12
freq.     575.19  E(vib)   ...       0.11
freq.     680.20  E(vib)   ...       0.08
freq.     720.89  E(vib)   ...       0.07
freq.     749.26  E(vib)   ...       0.06
freq.     759.87  E(vib)   ...       0.06
freq.     834.95  E(vib)   ...       0.04
freq.     901.22  E(vib)   ...       0.03
freq.     916.53  E(vib)   ...       0.03
freq.     935.94  E(vib)   ...       0.03
freq.     968.02  E(vib)   ...       0.03
freq.    1005.78  E(vib)   ...       0.02
freq.    1008.66  E(vib)   ...       0.02
freq.    1030.26  E(vib)   ...       0.02
freq.    1033.04  E(vib)   ...       0.02
freq.    1059.39  E(vib)   ...       0.02
freq.    1061.25  E(vib)   ...       0.02
freq.    1137.52  E(vib)   ...       0.01
freq.    1188.12  E(vib)   ...       0.01
freq.    1228.97  E(vib)   ...       0.01
freq.    1260.65  E(vib)   ...       0.01
freq.    1308.05  E(vib)   ...       0.01
freq.    1323.28  E(vib)   ...       0.01
freq.    1355.76  E(vib)   ...       0.01
freq.    1386.95  E(vib)   ...       0.00
freq.    1392.10  E(vib)   ...       0.00
freq.    1411.44  E(vib)   ...       0.00
freq.    1449.03  E(vib)   ...       0.00
freq.    1451.82  E(vib)   ...       0.00
freq.    1461.35  E(vib)   ...       0.00
freq.    1466.35  E(vib)   ...       0.00
freq.    1474.49  E(vib)   ...       0.00
freq.    1525.32  E(vib)   ...       0.00
freq.    1595.16  E(vib)   ...       0.00
freq.    1637.20  E(vib)   ...       0.00
freq.    1670.59  E(vib)   ...       0.00
freq.    3012.83  E(vib)   ...       0.00
freq.    3015.14  E(vib)   ...       0.00
freq.    3063.49  E(vib)   ...       0.00
freq.    3068.80  E(vib)   ...       0.00
freq.    3110.74  E(vib)   ...       0.00
freq.    3111.36  E(vib)   ...       0.00
freq.    3118.95  E(vib)   ...       0.00
freq.    3132.48  E(vib)   ...       0.00
freq.    3139.50  E(vib)   ...       0.00
freq.    3149.30  E(vib)   ...       0.00
freq.    3173.81  E(vib)   ...       0.00
freq.    3218.17  E(vib)   ...       0.00

------------
INNER ENERGY
------------

The inner energy is: U= E(el) + E(ZPE) + E(vib) + E(rot) + E(trans)
    E(el)   - is the total energy from the electronic structure calculation
              = E(kin-el) + E(nuc-el) + E(el-el) + E(nuc-nuc)
    E(ZPE)  - the the zero temperature vibrational energy from the frequency calculation
    E(vib)  - the the finite temperature correction to E(ZPE) due to population
              of excited vibrational states
    E(rot)  - is the rotational thermal energy
    E(trans)- is the translational thermal energy

Summary of contributions to the inner energy U:
Electronic energy                ...   -388.19917558 Eh
Zero point energy                ...      0.18688754 Eh     117.27 kcal/mol
Thermal vibrational correction   ...      0.00733470 Eh       4.60 kcal/mol
Thermal rotational correction    ...      0.00141627 Eh       0.89 kcal/mol
Thermal translational correction ...      0.00141627 Eh       0.89 kcal/mol
-----------------------------------------------------------------------
Total thermal energy                   -388.00212079 Eh

Summary of corrections to the electronic energy:
(perhaps to be used in another calculation)
Total thermal correction                  0.01016724 Eh       6.38 kcal/mol
Non-thermal (ZPE) correction              0.18688754 Eh     117.27 kcal/mol
-----------------------------------------------------------------------
Total correction                          0.19705478 Eh     123.65 kcal/mol

--------
ENTHALPY
--------

The enthalpy is H = U + kB*T
                kB is Boltzmann's constant
Total thermal energy              ...   -388.00212079 Eh
Thermal Enthalpy correction       ...      0.00094421 Eh       0.59 kcal/mol
-----------------------------------------------------------------------
Total Enthalpy                    ...   -388.00117659 Eh

Note: Only C1 symmetry has been detected, increase convergence thresholds
      if your molecule has a higher symmetry. Symmetry factor of 1.0 is
      used for the rotational entropy correction.

Note: Rotational entropy computed according to Herzberg
Infrared and Raman Spectra, Chapter V,1, Van Nostrand Reinhold, 1945
Point Group:  C1, Symmetry Number:   1
Rotational constants in cm-1:     0.097842     0.028759     0.022409

Vibrational entropy computed according to the QRRHO of S. Grimme
Chem.Eur.J. 2012 18 9955 using a reference frequency of 100.0 cm-1

-------
ENTROPY
-------

The entropy contributions are T*S = T*(S(el)+S(vib)+S(rot)+S(trans))
     S(el)   - electronic entropy
     S(vib)  - vibrational entropy
     S(rot)  - rotational entropy
     S(trans)- translational entropy
The entropies will be listed as multiplied by the temperature to get
units of energy

Electronic entropy                ...      0.00000000 Eh      0.00 kcal/mol
Vibrational entropy               ...      0.01304822 Eh      8.19 kcal/mol
Rotational entropy                ...      0.01407663 Eh      8.83 kcal/mol
Translational entropy             ...      0.01926665 Eh     12.09 kcal/mol
-----------------------------------------------------------------------
Final entropy term                ...      0.04639151 Eh     29.11 kcal/mol

In case the symmetry of your molecule has not been determined correctly
or in case you have a reason to use a different symmetry number we print
out the resulting rotational entropy values for sn=1,12:

 non-linear molecules -----------------------------------

                             ****ORCA TERMINATED NORMALLY****
TOTAL RUN TIME: 0 days 0 hours 32 minutes 21 seconds 607 msec
