                         Program Version 6.0.0  -   RELEASE  -
|  1> !r2SCANh aug-cc-pVTZ d3 TightSCF SlowConv RIJCOSX defgrid2
|  2>
|  3> %pal
|  4> nprocs 4
|  5> end
|  6>
|  7> %scf
|  8> MaxIter 1500
|  9> end
| 10>
| 11> %maxcore 3000
| 12>
| 13> !CPCM
| 14> %cpcm smd true
| 15> SMDsolvent "MeCN"
| 16> surfacetype gepol_ses
| 17> rsolv 2.19
| 18> end
| 19>
| 20> * xyz 1 2
| 21> C           0.86770061929664     -1.42689432299132      0.00000897101558
| 22> C           2.10468085183811     -0.72689058389273     -0.00000825447661
| 23> C           2.18067581844409      0.67999913600521     -0.00001076122154
| 24> C           1.03283927538202      1.45145343690800      0.00000700381243
| 25> C          -0.22537653673213      0.77678989280940      0.00001343275561
| 26> C          -0.25105693451531     -0.64408759720608      0.00001506224490
| 27> O          -1.55281870061497     -1.07751154880539      0.00002630462179
| 28> C          -2.31401480280601     -0.00668804123383      0.00001929043081
| 29> C          -1.56234358562406      1.18487206630760      0.00001231970991
| 30> H          -1.97074260676972      2.19593761753153      0.00001018835187
| 31> H          -3.39348512015147     -0.17364143845796      0.00002005021122
| 32> H           1.07805269996545      2.54351477894486     -0.00000377489980
| 33> H           3.16218666325774      1.15998906195145     -0.00002790877216
| 34> H           3.03083245792013     -1.30967197800346     -0.00002115939682
| 35> H           0.82193140110952     -2.51820987986727      0.00000983561282
| 36> *
| 37>
| 38>                          ****END OF INPUT****

CARTESIAN COORDINATES (ANGSTROEM)
---------------------------------
  C      0.867701   -1.426894    0.000009
  C      2.104681   -0.726891   -0.000008
  C      2.180676    0.679999   -0.000011
  C      1.032839    1.451453    0.000007
  C     -0.225377    0.776790    0.000013
  C     -0.251057   -0.644088    0.000015
  O     -1.552819   -1.077512    0.000026
  C     -2.314015   -0.006688    0.000019
  C     -1.562344    1.184872    0.000012
  H     -1.970743    2.195938    0.000010
  H     -3.393485   -0.173641    0.000020
  H      1.078053    2.543515   -0.000004
  H      3.162187    1.159989   -0.000028
  H      3.030832   -1.309672   -0.000021
  H      0.821931   -2.518210    0.000010

 Total Charge           Charge          ....    1
 Multiplicity           Mult            ....    2
 Number of Electrons    NEL             ....   61
 Basis Dimension        Dim             ....  552

ORBITAL ENERGIES
----------------
                 SPIN UP ORBITALS
  NO   OCC          E(Eh)            E(eV)
   0   1.0000     -19.247435      -523.7493
   1   1.0000     -10.297452      -280.2079
   2   1.0000     -10.269571      -279.4492
   3   1.0000     -10.228458      -278.3305
   4   1.0000     -10.224780      -278.2304
   5   1.0000     -10.223261      -278.1891
   6   1.0000     -10.217701      -278.0378
   7   1.0000     -10.212424      -277.8942
   8   1.0000     -10.193162      -277.3700
   9   1.0000      -1.192116       -32.4391
  10   1.0000      -0.909462       -24.7477
  11   1.0000      -0.856035       -23.2939
  12   1.0000      -0.802494       -21.8370
  13   1.0000      -0.776385       -21.1265
  14   1.0000      -0.680832       -18.5264
  15   1.0000      -0.642785       -17.4911
  16   1.0000      -0.626034       -17.0353
  17   1.0000      -0.557384       -15.1672
  18   1.0000      -0.536000       -14.5853
  19   1.0000      -0.520891       -14.1742
  20   1.0000      -0.508109       -13.8264
  21   1.0000      -0.469047       -12.7634
  22   1.0000      -0.457754       -12.4561
  23   1.0000      -0.444697       -12.1008
  24   1.0000      -0.419661       -11.4196
  25   1.0000      -0.402103       -10.9418
  26   1.0000      -0.390104       -10.6153
  27   1.0000      -0.370370       -10.0783
  28   1.0000      -0.348963        -9.4958
  29   1.0000      -0.289778        -7.8853
  30   1.0000      -0.275750        -7.5035
  31   0.0000      -0.100855        -2.7444
  32   0.0000      -0.049021        -1.3339
  33   0.0000      -0.023578        -0.6416
  34   0.0000       0.008544         0.2325
  35   0.0000       0.020671         0.5625

                 SPIN DOWN ORBITALS
  NO   OCC          E(Eh)            E(eV)
   0   1.0000     -19.246865      -523.7338
   1   1.0000     -10.291080      -280.0345
   2   1.0000     -10.267483      -279.3924
   3   1.0000     -10.225576      -278.2521
   4   1.0000     -10.224615      -278.2259
   5   1.0000     -10.217406      -278.0297
   6   1.0000     -10.213244      -277.9165
   7   1.0000     -10.213226      -277.9160
   8   1.0000     -10.195773      -277.4411
   9   1.0000      -1.188619       -32.3440
  10   1.0000      -0.903789       -24.5933
  11   1.0000      -0.846479       -23.0339
  12   1.0000      -0.798607       -21.7312
  13   1.0000      -0.761112       -20.7109
  14   1.0000      -0.676291       -18.4028
  15   1.0000      -0.636495       -17.3199
  16   1.0000      -0.620608       -16.8876
  17   1.0000      -0.555311       -15.1108
  18   1.0000      -0.531558       -14.4644
  19   1.0000      -0.506252       -13.7758
  20   1.0000      -0.503838       -13.7101
  21   1.0000      -0.467834       -12.7304
  22   1.0000      -0.455501       -12.3948
  23   1.0000      -0.443106       -12.0575
  24   1.0000      -0.417144       -11.3511
  25   1.0000      -0.388768       -10.5789
  26   1.0000      -0.384767       -10.4700
  27   1.0000      -0.369200       -10.0464
  28   1.0000      -0.321761        -8.7556
  29   1.0000      -0.283717        -7.7203
  30   0.0000      -0.208554        -5.6750
  31   0.0000      -0.063781        -1.7356
  32   0.0000      -0.035583        -0.9683
  33   0.0000       0.004520         0.1230
  34   0.0000       0.010147         0.2761

MULLIKEN ATOMIC CHARGES AND SPIN POPULATIONS
--------------------------------------------
   0 C :   -0.868359   -0.045482
   1 C :   -0.092357    0.324065
   2 C :   -0.541557   -0.185433
   3 C :   -0.543823    0.266102
   4 C :    1.132755   -0.035075
   5 C :    0.416949    0.125236
   6 O :   -0.473189    0.006904
   7 C :   -0.361417    0.279903
   8 C :   -0.552840    0.208718
   9 H :    0.447679   -0.005690
  10 H :    0.626275    0.015991
  11 H :    0.158002    0.023399
  12 H :    0.649484   -0.000957
  13 H :    0.381033    0.023607
  14 H :    0.621367   -0.001288
Sum of atomic charges         :    1.0000000

LOEWDIN ATOMIC CHARGES AND SPIN POPULATIONS
-------------------------------------------
   0 C :    0.303532    0.041162
   1 C :    0.273585    0.155750
   2 C :    0.250490    0.011182
   3 C :    0.296267    0.118961
   4 C :   -0.104156    0.077710
   5 C :   -0.330074    0.059786
   6 O :    0.663777    0.058237
   7 C :    0.100168    0.222078
   8 C :    0.346191    0.150692
   9 H :   -0.121343    0.020349
  10 H :   -0.115869    0.037157
  11 H :   -0.134056    0.025318
  12 H :   -0.154593   -0.013170
  13 H :   -0.138539    0.036827
  14 H :   -0.135380   -0.002039

  Mayer bond orders larger than 0.100000
B(  0-C ,  1-C ) :   1.0868 B(  0-C ,  2-C ) :   0.3777 B(  0-C ,  4-C ) :   0.1110
B(  0-C ,  5-C ) :   1.2741 B(  0-C , 14-H ) :   0.1155 B(  1-C ,  2-C ) :   1.0433
B(  1-C ,  3-C ) :  -0.3682 B(  1-C ,  5-C ) :  -0.6416 B(  1-C ,  8-C ) :   0.1173
B(  1-C , 12-H ) :   0.1623 B(  1-C , 13-H ) :   0.7746 B(  1-C , 14-H ) :   0.1527
B(  2-C ,  3-C ) :   1.1534 B(  2-C ,  5-C ) :   0.1155 B(  2-C ,  8-C ) :   0.1979
B(  2-C , 12-H ) :   0.2162 B(  3-C ,  4-C ) :   0.6600 B(  3-C ,  5-C ) :  -0.6922
B(  3-C ,  9-H ) :   0.1291 B(  3-C , 11-H ) :   1.3265 B(  4-C ,  5-C ) :   1.1701
B(  4-C ,  7-C ) :  -0.3276 B(  4-C ,  8-C ) :   0.6457 B(  4-C , 13-H ) :  -0.1057
B(  5-C ,  6-O ) :   0.4886 B(  5-C ,  8-C ) :   0.2904 B(  5-C , 11-H ) :   0.1780
B(  5-C , 13-H ) :   0.1274 B(  6-O ,  7-C ) :   1.3684 B(  7-C ,  8-C ) :   0.8973
B(  7-C , 10-H ) :   0.4946 B(  8-C ,  9-H ) :   0.7142 B(  8-C , 11-H ) :  -0.1073

Dispersion correction           -0.004771429
FINAL SINGLE POINT ENERGY      -383.376018565201

DIPOLE MOMENT
-------------

Method             : SCF
Type of density    : Electron Density
Multiplicity       :   2
Irrep              :   0
Energy             :  -383.3712471357197273 Eh
Relativity type    :
Basis              : AO
                                X                 Y                 Z
Electronic contribution:     -3.076113921      -1.162073245      -0.000431713
Nuclear contribution   :      2.540715655       1.757441244      -0.000063826
                        -----------------------------------------
Total Dipole Moment    :     -0.535398265       0.595367999      -0.000495539
                        -----------------------------------------
Magnitude (a.u.)       :      0.800696324
Magnitude (Debye)      :      2.035208314

Rotational constants in cm-1:             0.129539             0.055719             0.038960
Rotational constants in MHz :          3883.478039          1670.401185          1168.006371

                             ****ORCA TERMINATED NORMALLY****
TOTAL RUN TIME: 0 days 0 hours 6 minutes 59 seconds 122 msec
