                         Program Version 6.0.0  -   RELEASE  -
|  1> !r2SCANh opt aug-cc-pVTZ d3 TightSCF SlowConv RIJCOSX defgrid2
|  2>
|  3> %pal
|  4> nprocs 8
|  5> end
|  6>
|  7> %scf
|  8> MaxIter 1500
|  9> end
| 10>
| 11> %maxcore 3500
| 12>
| 13> !CPCM
| 14> %cpcm smd true
| 15> SMDsolvent "MeCN"
| 16> surfacetype gepol_ses
| 17> rsolv 2.19
| 18> end
| 19>
| 20> * xyz -1 2
| 21> C          -1.22535307927293     -0.03882807002799     -0.00002255469277
| 22> C          -1.22206264378164      1.41582015720061     -0.00002423880206
| 23> C           0.00004637420421      2.08121905033007     -0.00000415463824
| 24> C           1.22212161683371      1.41575862792076      0.00002170232485
| 25> C           1.22534433396412     -0.03888819251674      0.00002507087618
| 26> C          -0.00002135567409     -0.71608207495025      0.00000157424078
| 27> H          -0.00004774645346     -1.81053735349218      0.00000261550832
| 28> C           2.43402384370652     -0.77080587803239      0.00007579493229
| 29> N           3.44413671726320     -1.36247120639636      0.00011250089172
| 30> H           2.16848850432676      1.96074544120089      0.00003301965359
| 31> H           0.00007494156619      3.17901522614598     -0.00000842096167
| 32> H          -2.16840192148197      1.96085605610510     -0.00003754989011
| 33> C          -2.43406244869294     -0.77069683887805     -0.00005052688718
| 34> N          -3.44419623650770     -1.36232524460946     -0.00007393255569
| 35> *
| 36>
| 37>                          ****END OF INPUT****
 Total Charge           Charge          ....   -1
 Multiplicity           Mult            ....    2
 Number of Electrons    NEL             ....   67
Dispersion correction           -0.005021697
FINAL SINGLE POINT ENERGY      -416.731709383661
Dispersion correction             ... done (  0.1 sec)
Dispersion correction           -0.005041847
FINAL SINGLE POINT ENERGY      -416.732898073622
Dispersion correction             ... done (  0.1 sec)
Dispersion correction           -0.005045584
FINAL SINGLE POINT ENERGY      -416.732934803485
Dispersion correction             ... done (  0.1 sec)
Dispersion correction           -0.005046048
FINAL SINGLE POINT ENERGY      -416.732939945462
Dispersion correction             ... done (  0.1 sec)
                    ***********************HURRAY********************

CARTESIAN COORDINATES (ANGSTROEM)
---------------------------------
  C     -1.212336   -0.038208    0.000013
  C     -1.215750    1.411197   -0.000207
  C      0.000045    2.075982   -0.000002
  C      1.215810    1.411142    0.000206
  C      1.212331   -0.038262    0.000020
  C     -0.000018   -0.724448    0.000028
  H     -0.000041   -1.806495    0.000019
  C      2.410660   -0.760643   -0.000163
  N      3.419510   -1.342592   -0.000322
  H      2.151833    1.949156    0.000844
  H      0.000073    3.159662   -0.000011
  H     -2.151749    1.949253   -0.000862
  C     -2.410699   -0.760533    0.000175
  N     -3.419577   -1.342432    0.000312

 Multiplicity           Mult            ....    2
 Number of Electrons    NEL             ....   67
 Basis Dimension        Dim             ....  552

ORBITAL ENERGIES
----------------
                 SPIN UP ORBITALS
  NO   OCC          E(Eh)            E(eV)
   0   1.0000     -14.282990      -388.6599
   1   1.0000     -14.282989      -388.6599
   2   1.0000     -10.182809      -277.0883
   3   1.0000     -10.182804      -277.0882
   4   1.0000     -10.171585      -276.7829
   5   1.0000     -10.169672      -276.7308
   6   1.0000     -10.169603      -276.7290
   7   1.0000     -10.147942      -276.1396
   8   1.0000     -10.142989      -276.0048
   9   1.0000     -10.142961      -276.0040
  10   1.0000      -0.899354       -24.4727
  11   1.0000      -0.895655       -24.3720
  12   1.0000      -0.850904       -23.1543
  13   1.0000      -0.764708       -20.8088
  14   1.0000      -0.753915       -20.5151
  15   1.0000      -0.637700       -17.3527
  16   1.0000      -0.622231       -16.9318
  17   1.0000      -0.554181       -15.0800
  18   1.0000      -0.475407       -12.9365
  19   1.0000      -0.463101       -12.6016
  20   1.0000      -0.441096       -12.0028
  21   1.0000      -0.412781       -11.2323
  22   1.0000      -0.394837       -10.7441
  23   1.0000      -0.362582        -9.8664
  24   1.0000      -0.360402        -9.8070
  25   1.0000      -0.360277        -9.8036
  26   1.0000      -0.344451        -9.3730
  27   1.0000      -0.344085        -9.3630
  28   1.0000      -0.321081        -8.7370
  29   1.0000      -0.313449        -8.5294
  30   1.0000      -0.308313        -8.3896
  31   1.0000      -0.255292        -6.9468
  32   1.0000      -0.249082        -6.7779
  33   1.0000      -0.102406        -2.7866
  34   0.0000      -0.042439        -1.1548
  35   0.0000       0.008271         0.2251
  36   0.0000       0.018502         0.5035
  37   0.0000       0.025499         0.6939
  38   0.0000       0.027997         0.7618

                 SPIN DOWN ORBITALS
  NO   OCC          E(Eh)            E(eV)
   0   1.0000     -14.280593      -388.5947
   1   1.0000     -14.280591      -388.5946
   2   1.0000     -10.182747      -277.0866
   3   1.0000     -10.182743      -277.0865
   4   1.0000     -10.172324      -276.8030
   5   1.0000     -10.167893      -276.6824
   6   1.0000     -10.167867      -276.6817
   7   1.0000     -10.150722      -276.2152
   8   1.0000     -10.136055      -275.8161
   9   1.0000     -10.136051      -275.8160
  10   1.0000      -0.895734       -24.3741
  11   1.0000      -0.892231       -24.2788
  12   1.0000      -0.845797       -23.0153
  13   1.0000      -0.755463       -20.5572
  14   1.0000      -0.749858       -20.4047
  15   1.0000      -0.622082       -16.9277
  16   1.0000      -0.620473       -16.8839
  17   1.0000      -0.553792       -15.0695
  18   1.0000      -0.469700       -12.7812
  19   1.0000      -0.461079       -12.5466
  20   1.0000      -0.438661       -11.9366
  21   1.0000      -0.412281       -11.2187
  22   1.0000      -0.381674       -10.3859
  23   1.0000      -0.359047        -9.7702
  24   1.0000      -0.356967        -9.7136
  25   1.0000      -0.348788        -9.4910
  26   1.0000      -0.342928        -9.3315
  27   1.0000      -0.341013        -9.2794
  28   1.0000      -0.312204        -8.4955
  29   1.0000      -0.307644        -8.3714
  30   1.0000      -0.306997        -8.3538
  31   1.0000      -0.246699        -6.7130
  32   1.0000      -0.218002        -5.9321
  33   0.0000      -0.038847        -1.0571
  34   0.0000      -0.038725        -1.0538
  35   0.0000       0.010405         0.2831
  36   0.0000       0.020170         0.5488
  37   0.0000       0.028407         0.7730

MULLIKEN ATOMIC CHARGES AND SPIN POPULATIONS
--------------------------------------------
   0 C :    1.446178    0.107081
   1 C :   -0.949004    0.477333
   2 C :   -0.496098   -0.221440
   3 C :   -0.949288    0.477341
   4 C :    1.445931    0.107109
   5 C :   -1.149511   -0.050044
   6 H :   -0.194826    0.005234
   7 C :    0.451637   -0.021833
   8 N :   -0.912083    0.100694
   9 H :    0.124788   -0.014515
  10 H :    0.518017   -0.031309
  11 H :    0.125104   -0.014507
  12 C :    0.450938   -0.021831
  13 N :   -0.911783    0.100689
Sum of atomic charges         :   -1.0000000

LOEWDIN ATOMIC CHARGES AND SPIN POPULATIONS
-------------------------------------------
   0 C :   -0.260699    0.101873
   1 C :    0.163597    0.203758
   2 C :    0.133997    0.047518
   3 C :    0.163594    0.203757
   4 C :   -0.260702    0.101874
   5 C :    0.146826    0.015220
   6 H :   -0.171435   -0.000395
   7 C :   -0.329085    0.043881
   8 N :    0.172364    0.075896
   9 H :   -0.205985    0.048364
  10 H :   -0.189770   -0.009884
  11 H :   -0.205983    0.048364
  12 C :   -0.329083    0.043880
  13 N :    0.172364    0.075894

  Mayer bond orders larger than 0.100000
B(  0-C ,  1-C ) :  -0.1592 B(  0-C ,  2-C ) :   0.2258 B(  0-C ,  4-C ) :   0.4667
B(  0-C ,  5-C ) :   0.3091 B(  0-C ,  6-H ) :  -0.2549 B(  0-C , 11-H ) :  -0.2019
B(  0-C , 12-C ) :   0.7491 B(  0-C , 13-N ) :   0.1238 B(  1-C ,  2-C ) :   1.0959
B(  1-C ,  3-C ) :  -0.1328 B(  1-C ,  5-C ) :  -0.2429 B(  1-C , 11-H ) :   1.2804
B(  1-C , 12-C ) :   0.3825 B(  2-C ,  3-C ) :   1.0966 B(  2-C ,  4-C ) :   0.2259
B(  2-C ,  6-H ) :  -0.1051 B(  2-C ,  9-H ) :  -0.1425 B(  2-C , 10-H ) :   0.6253
B(  2-C , 11-H ) :  -0.1424 B(  3-C ,  4-C ) :  -0.1591 B(  3-C ,  5-C ) :  -0.2431
B(  3-C ,  7-C ) :   0.3826 B(  3-C ,  9-H ) :   1.2809 B(  4-C ,  5-C ) :   0.3096
B(  4-C ,  6-H ) :  -0.2549 B(  4-C ,  7-C ) :   0.7491 B(  4-C ,  8-N ) :   0.1239
B(  4-C ,  9-H ) :  -0.2018 B(  5-C ,  6-H ) :   1.7069 B(  5-C ,  7-C ) :   0.1362
B(  5-C ,  8-N ) :   0.1118 B(  5-C ,  9-H ) :   0.1361 B(  5-C , 11-H ) :   0.1365
B(  5-C , 12-C ) :   0.1364 B(  5-C , 13-N ) :   0.1121 B(  6-H ,  9-H ) :   0.1099
B(  6-H , 11-H ) :   0.1098 B(  7-C ,  8-N ) :   1.5933 B(  7-C , 12-C ) :   0.2872
B( 12-C , 13-N ) :   1.5947

Dispersion correction           -0.005045928
FINAL SINGLE POINT ENERGY      -416.732940981788

DIPOLE MOMENT
-------------

Method             : SCF
Type of density    : Electron Density
Multiplicity       :   2
Irrep              :   0
Energy             :  -416.7278950539879361 Eh
Relativity type    :
Basis              : AO
                                X                 Y                 Z
Electronic contribution:     -0.000104392      -3.075894051       0.000037505
Nuclear contribution   :      0.000116803       4.952433895      -0.000030101
                        -----------------------------------------
Total Dipole Moment    :      0.000012411       1.876539844       0.000007404
                        -----------------------------------------
Magnitude (a.u.)       :      1.876539844
Magnitude (Debye)      :      4.769785222

Rotational constants in cm-1:             0.088110             0.030800             0.022822
Rotational constants in MHz :          2641.470202           923.363176           684.193645

                             ****ORCA TERMINATED NORMALLY****
TOTAL RUN TIME: 0 days 0 hours 21 minutes 10 seconds 899 msec
