                         Program Version 6.0.0  -   RELEASE  -
|  1> !r2SCAN freq aug-cc-pVTZ d3 TightSCF SlowConv RIJCOSX defgrid2
|  2>
|  3> %pal
|  4> nprocs 12
|  5> end
|  6>
|  7> %scf
|  8> MaxIter 1500
|  9> end
| 10>
| 11> %maxcore 5000
| 12>
| 13> !CPCM
| 14> %cpcm smd true
| 15> SMDsolvent "MeCN"
| 16> surfacetype gepol_ses
| 17> rsolv 2.19
| 18> end
| 19>
| 20> * xyz 1 2
| 21> C          -0.70961589920319     -1.06464191676674     -0.00250127633074
| 22> C          -1.29126136870814      0.22984836906446     -0.00038631824999
| 23> C          -0.48166301074634      1.40147979518884     -0.00119291507185
| 24> C           0.87343420948874      1.28346653192672     -0.00139231070149
| 25> C           1.47185538890512     -0.00917114809331     -0.00130014077984
| 26> C           0.64907912504216     -1.17477626818003     -0.00272405501776
| 27> H           1.12009524239652     -2.14826755957659     -0.00346780952303
| 28> C           2.85517285854173     -0.14047245684187      0.00080612035728
| 29> C           4.06432301284664     -0.25770506964200      0.00279341508800
| 30> H           5.12747920720439     -0.35747702711399      0.00410676821935
| 31> H           1.50706264945291      2.15946316717968     -0.00178831949465
| 32> H          -0.97130872643858      2.36631946906837     -0.00078355323863
| 33> O          -2.58229742772840      0.44953078071245      0.00260698216981
| 34> C          -3.51196004488051     -0.66411065047995      0.00201414046661
| 35> H          -4.49431429796707     -0.20521632452530      0.00098402796491
| 36> H          -3.36424516489346     -1.26128332121901     -0.89600487415869
| 37> H          -3.36614425469046     -1.26113841847923      0.90059004361545
| 38> H          -1.32994689862203     -1.94836585222250     -0.00215792531473
| 39> *
| 40>
| 41>                          ****END OF INPUT****

CARTESIAN COORDINATES (ANGSTROEM)
---------------------------------
  C     -0.709616   -1.064642   -0.002501
  C     -1.291261    0.229848   -0.000386
  C     -0.481663    1.401480   -0.001193
  C      0.873434    1.283467   -0.001392
  C      1.471855   -0.009171   -0.001300
  C      0.649079   -1.174776   -0.002724
  H      1.120095   -2.148268   -0.003468
  C      2.855173   -0.140472    0.000806
  C      4.064323   -0.257705    0.002793
  H      5.127479   -0.357477    0.004107
  H      1.507063    2.159463   -0.001788
  H     -0.971309    2.366319   -0.000784
  O     -2.582297    0.449531    0.002607
  C     -3.511960   -0.664111    0.002014
  H     -4.494314   -0.205216    0.000984
  H     -3.364245   -1.261283   -0.896005
  H     -3.366144   -1.261138    0.900590
  H     -1.329947   -1.948366   -0.002158

 Total Charge           Charge          ....    1
 Multiplicity           Mult            ....    2
 Number of Electrons    NEL             ....   69
 Basis Dimension        Dim             ....  644

ORBITAL ENERGIES
----------------
                 SPIN UP ORBITALS
  NO   OCC          E(Eh)            E(eV)
   0   1.0000     -19.065114      -518.7881
   1   1.0000     -10.170893      -276.7641
   2   1.0000     -10.127440      -275.5816
   3   1.0000     -10.102766      -274.9102
   4   1.0000     -10.093265      -274.6517
   5   1.0000     -10.089684      -274.5542
   6   1.0000     -10.088129      -274.5119
   7   1.0000     -10.086499      -274.4676
   8   1.0000     -10.086436      -274.4659
   9   1.0000     -10.084752      -274.4201
  10   1.0000      -1.106064       -30.0975
  11   1.0000      -0.880433       -23.9578
  12   1.0000      -0.803280       -21.8584
  13   1.0000      -0.772316       -21.0158
  14   1.0000      -0.750034       -20.4095
  15   1.0000      -0.707778       -19.2596
  16   1.0000      -0.632671       -17.2158
  17   1.0000      -0.615989       -16.7619
  18   1.0000      -0.557948       -15.1825
  19   1.0000      -0.536759       -14.6060
  20   1.0000      -0.504707       -13.7338
  21   1.0000      -0.502878       -13.6840
  22   1.0000      -0.485358       -13.2073
  23   1.0000      -0.448502       -12.2044
  24   1.0000      -0.436348       -11.8736
  25   1.0000      -0.420124       -11.4322
  26   1.0000      -0.409268       -11.1368
  27   1.0000      -0.403490       -10.9795
  28   1.0000      -0.372244       -10.1293
  29   1.0000      -0.370190       -10.0734
  30   1.0000      -0.336928        -9.1683
  31   1.0000      -0.317504        -8.6397
  32   1.0000      -0.295761        -8.0481
  33   1.0000      -0.289780        -7.8853
  34   1.0000      -0.253103        -6.8873
  35   0.0000      -0.105597        -2.8734
  36   0.0000      -0.076373        -2.0782
  37   0.0000      -0.020887        -0.5684
  38   0.0000       0.003305         0.0899
  39   0.0000       0.009303         0.2532

                 SPIN DOWN ORBITALS
  NO   OCC          E(Eh)            E(eV)
   0   1.0000     -19.058960      -518.6207
   1   1.0000     -10.168523      -276.6996
   2   1.0000     -10.122027      -275.4344
   3   1.0000     -10.102932      -274.9147
   4   1.0000     -10.093534      -274.6590
   5   1.0000     -10.089111      -274.5387
   6   1.0000     -10.087028      -274.4820
   7   1.0000     -10.084966      -274.4259
   8   1.0000     -10.084466      -274.4123
   9   1.0000     -10.082876      -274.3690
  10   1.0000      -1.097042       -29.8520
  11   1.0000      -0.873341       -23.7648
  12   1.0000      -0.795031       -21.6339
  13   1.0000      -0.770106       -20.9556
  14   1.0000      -0.741989       -20.1905
  15   1.0000      -0.700294       -19.0560
  16   1.0000      -0.628230       -17.0950
  17   1.0000      -0.612202       -16.6589
  18   1.0000      -0.555202       -15.1078
  19   1.0000      -0.533442       -14.5157
  20   1.0000      -0.502615       -13.6768
  21   1.0000      -0.499613       -13.5952
  22   1.0000      -0.469880       -12.7861
  23   1.0000      -0.446054       -12.1377
  24   1.0000      -0.435689       -11.8557
  25   1.0000      -0.418327       -11.3833
  26   1.0000      -0.402518       -10.9531
  27   1.0000      -0.394376       -10.7315
  28   1.0000      -0.370811       -10.0903
  29   1.0000      -0.354253        -9.6397
  30   1.0000      -0.333899        -9.0858
  31   1.0000      -0.298552        -8.1240
  32   1.0000      -0.293200        -7.9784
  33   1.0000      -0.284211        -7.7338
  34   0.0000      -0.215954        -5.8764
  35   0.0000      -0.080868        -2.2005
  36   0.0000      -0.066385        -1.8064
  37   0.0000      -0.020338        -0.5534
  38   0.0000       0.004224         0.1149

MULLIKEN ATOMIC CHARGES AND SPIN POPULATIONS
--------------------------------------------
   0 C :   -0.085151    0.083172
   1 C :    1.430535    0.116884
   2 C :   -0.730364    0.120976
   3 C :   -1.099255   -0.109899
   4 C :    1.656503    0.410841
   5 C :   -1.174144   -0.051157
   6 H :   -0.307659   -0.002704
   7 C :    1.262675   -0.122201
   8 C :   -0.713968    0.332711
   9 H :    0.318106    0.014444
  10 H :   -0.273774   -0.007420
  11 H :    0.603711    0.008501
  12 O :   -0.638853    0.188328
  13 C :   -0.606656   -0.016463
  14 H :    0.238864   -0.001276
  15 H :    0.291031    0.008768
  16 H :    0.290817    0.008852
  17 H :    0.537581    0.017644
Sum of atomic charges         :    1.0000000

LOEWDIN ATOMIC CHARGES AND SPIN POPULATIONS
-------------------------------------------
   0 C :    0.287280    0.070229
   1 C :   -0.329008    0.124277
   2 C :    0.281071    0.076147
   3 C :    0.261153    0.027636
   4 C :   -0.154143    0.138218
   5 C :    0.271255    0.045305
   6 H :   -0.142566   -0.000474
   7 C :    0.058653    0.074562
   8 C :    0.513020    0.199179
   9 H :   -0.242748    0.046581
  10 H :   -0.145595   -0.004922
  11 H :   -0.148921    0.011760
  12 O :    0.664388    0.155744
  13 C :    0.464967    0.016637
  14 H :   -0.163034   -0.000408
  15 H :   -0.154367    0.004647
  16 H :   -0.153861    0.004667
  17 H :   -0.167545    0.010214

  Mayer bond orders larger than 0.100000
B(  0-C ,  1-C ) :   0.7820 B(  0-C ,  2-C ) :   0.1451 B(  0-C ,  4-C ) :   0.7488
B(  0-C ,  5-C ) :   1.0998 B(  0-C ,  6-H ) :  -0.1799 B(  0-C ,  7-C ) :  -0.2306
B(  0-C , 10-H ) :  -0.1276 B(  0-C , 11-H ) :  -0.1124 B(  0-C , 17-H ) :   0.2873
B(  1-C ,  2-C ) :   0.5898 B(  1-C ,  3-C ) :  -0.5374 B(  1-C ,  4-C ) :  -0.2015
B(  1-C ,  5-C ) :  -0.5380 B(  1-C ,  7-C ) :   0.3154 B(  1-C , 11-H ) :   0.1832
B(  1-C , 12-O ) :   0.3712 B(  1-C , 17-H ) :   0.1663 B(  2-C ,  3-C ) :   1.3755
B(  2-C ,  4-C ) :   0.5746 B(  2-C ,  7-C ) :  -0.1204 B(  2-C , 11-H ) :   0.2031
B(  2-C , 12-O ) :   0.3442 B(  3-C ,  5-C ) :  -0.5890 B(  3-C ,  6-H ) :   0.2423
B(  3-C ,  7-C ) :   0.4284 B(  3-C , 10-H ) :   2.0976 B(  4-C ,  5-C ) :   0.1226
B(  4-C ,  6-H ) :  -0.1294 B(  4-C ,  8-C ) :   0.7809 B(  4-C , 12-O ) :   0.1099
B(  5-C ,  6-H ) :   2.1893 B(  5-C ,  7-C ) :   0.3515 B(  5-C ,  8-C ) :  -0.1546
B(  5-C , 10-H ) :   0.2072 B(  6-H ,  7-C ) :  -0.3346 B(  6-H ,  8-C ) :  -0.3567
B(  6-H , 10-H ) :   0.4608 B(  7-C ,  8-C ) :   1.6710 B(  7-C ,  9-H ) :  -0.2852
B(  7-C , 10-H ) :  -0.4185 B(  7-C , 11-H ) :   0.1068 B(  7-C , 17-H ) :   0.1186
B(  8-C ,  9-H ) :   1.2464 B(  8-C , 10-H ) :  -0.3518 B(  8-C , 11-H ) :   0.1481
B(  8-C , 17-H ) :   0.2045 B( 10-H , 11-H ) :  -0.1057 B( 12-O , 13-C ) :   0.9421
B( 13-C , 14-H ) :   0.9821 B( 13-C , 15-H ) :   0.8877 B( 13-C , 16-H ) :   0.8879

Dispersion correction           -0.005522374
FINAL SINGLE POINT ENERGY      -422.637107976773

DIPOLE MOMENT
-------------

Method             : SCF
Type of density    : Electron Density
Multiplicity       :   2
Irrep              :   0
Energy             :  -422.6315856022951039 Eh
Relativity type    :
Basis              : AO
                                X                 Y                 Z
Electronic contribution:      5.137093344       1.787093195      -0.001783020
Nuclear contribution   :     -5.449511776      -2.471316496       0.001621456
                        -----------------------------------------
Total Dipole Moment    :     -0.312418432      -0.684223301      -0.000161563
                        -----------------------------------------
Magnitude (a.u.)       :      0.752174733
Magnitude (Debye)      :      1.911876231

VIBRATIONAL FREQUENCIES
-----------------------

Scaling factor for frequencies =  1.000000000  (already applied!)

     0:       0.00 cm**-1
     1:       0.00 cm**-1
     2:       0.00 cm**-1
     3:       0.00 cm**-1
     4:       0.00 cm**-1
     5:       0.00 cm**-1
     6:      42.00 cm**-1
     7:     120.96 cm**-1
     8:     129.62 cm**-1
     9:     146.70 cm**-1
    10:     233.91 cm**-1
    11:     249.36 cm**-1
    12:     370.97 cm**-1
    13:     384.53 cm**-1
    14:     392.26 cm**-1
    15:     497.47 cm**-1
    16:     524.53 cm**-1
    17:     531.94 cm**-1
    18:     618.92 cm**-1
    19:     637.16 cm**-1
    20:     654.98 cm**-1
    21:     702.38 cm**-1
    22:     753.57 cm**-1
    23:     771.37 cm**-1
    24:     817.80 cm**-1
    25:     853.93 cm**-1
    26:     978.34 cm**-1
    27:     982.03 cm**-1
    28:     986.83 cm**-1
    29:     992.19 cm**-1
    30:    1126.12 cm**-1
    31:    1149.95 cm**-1
    32:    1174.86 cm**-1
    33:    1193.30 cm**-1
    34:    1255.40 cm**-1
    35:    1296.05 cm**-1
    36:    1342.07 cm**-1
    37:    1356.67 cm**-1
    38:    1440.47 cm**-1
    39:    1462.41 cm**-1
    40:    1467.19 cm**-1
    41:    1473.80 cm**-1
    42:    1509.05 cm**-1
    43:    1512.44 cm**-1
    44:    1643.19 cm**-1
    45:    2094.42 cm**-1
    46:    3057.08 cm**-1
    47:    3152.23 cm**-1
    48:    3191.55 cm**-1
    49:    3201.32 cm**-1
    50:    3206.84 cm**-1
    51:    3215.65 cm**-1
    52:    3229.34 cm**-1
    53:    3416.92 cm**-1

IR SPECTRUM
-----------

 Mode   freq       eps      Int      T**2         TX        TY        TZ
       cm**-1   L/(mol*cm) km/mol    a.u.
----------------------------------------------------------------------------
  6:     42.00   0.000245    1.24  0.001822  (-0.001237 -0.001685  0.042629)
  7:    120.96   0.000672    3.39  0.001733  ( 0.009952 -0.040344 -0.002509)
  8:    129.62   0.000196    0.99  0.000473  (-0.000713  0.003359 -0.021470)
  9:    146.70   0.000245    1.24  0.000522  (-0.002264 -0.001870  0.022649)
 10:    233.91   0.003226   16.30  0.004304  (-0.001629 -0.000059 -0.065582)
 11:    249.36   0.001729    8.74  0.002164  (-0.046377 -0.003617  0.000353)
 12:    370.97   0.000670    3.38  0.000563  ( 0.000662 -0.000156 -0.023727)
 13:    384.53   0.000003    0.02  0.000002  (-0.000023  0.001523  0.000402)
 14:    392.26   0.001140    5.76  0.000907  (-0.000427 -0.000169  0.030108)
 15:    497.47   0.004101   20.72  0.002572  ( 0.041106 -0.029707 -0.000354)
 16:    524.53   0.003087   15.60  0.001837  ( 0.000292 -0.000064 -0.042857)
 17:    531.94   0.001280    6.47  0.000751  (-0.022003 -0.016327 -0.000678)
 18:    618.92   0.002227   11.25  0.001123  (-0.011839 -0.031321  0.001306)
 19:    637.16   0.013821   69.85  0.006769  (-0.006583 -0.081329  0.010552)
 20:    654.98   0.009285   46.92  0.004424  ( 0.000432  0.013365  0.065152)
 21:    702.38   0.009431   47.66  0.004190  (-0.062516  0.016788  0.000129)
 22:    753.57   0.000102    0.52  0.000042  ( 0.000108  0.000131  0.006508)
 23:    771.37   0.000116    0.59  0.000047  (-0.000367  0.000385 -0.006838)
 24:    817.80   0.002222   11.23  0.000848  ( 0.026622  0.011800  0.000294)
 25:    853.93   0.025388  128.30  0.009278  (-0.000488  0.000181  0.096319)
 26:    978.34   0.014624   73.90  0.004665  (-0.054828 -0.040726 -0.000126)
 27:    982.03   0.000095    0.48  0.000030  (-0.003564 -0.001311  0.003978)
 28:    986.83   0.000015    0.08  0.000005  (-0.000719  0.000540 -0.001980)
 29:    992.19   0.012943   65.41  0.004071  ( 0.063574  0.005398  0.000193)
 30:   1126.12   0.005046   25.50  0.001398  (-0.005610 -0.036972 -0.000064)
 31:   1149.95   0.000044    0.22  0.000012  ( 0.000690 -0.000674  0.003336)
 32:   1174.86   0.004058   20.51  0.001078  ( 0.031845  0.007989 -0.000084)
 33:   1193.30   0.001442    7.29  0.000377  (-0.019368 -0.001371 -0.000146)
 34:   1255.40   0.016793   84.86  0.004174  (-0.064608  0.000321 -0.000077)
 35:   1296.05   0.000159    0.80  0.000038  (-0.005878  0.001944 -0.000005)
 36:   1342.07   0.053950  272.64  0.012545  ( 0.110035  0.020905  0.000029)
 37:   1356.67   0.050937  257.41  0.011717  ( 0.105939 -0.022214 -0.000031)
 38:   1440.47   0.032122  162.33  0.006959  (-0.078085  0.029353  0.000328)
 39:   1462.41   0.005107   25.81  0.001090  ( 0.009553 -0.000207  0.031599)
 40:   1467.19   0.016729   84.54  0.003558  (-0.059392 -0.000618  0.005511)
 41:   1473.80   0.004281   21.64  0.000907  ( 0.026169  0.014885 -0.000350)
 42:   1509.05   0.091446  462.13  0.018910  ( 0.137362  0.006498  0.000022)
 43:   1512.44   0.034172  172.69  0.007051  (-0.076222  0.035227  0.000071)
 44:   1643.19   0.003613   18.26  0.000686  ( 0.026050  0.002748 -0.000065)
 45:   2094.42   0.193784  979.30  0.028873  ( 0.169552 -0.011194  0.000091)
 46:   3057.08   0.002943   14.88  0.000300  (-0.015245 -0.008246 -0.000244)
 47:   3152.23   0.001058    5.35  0.000105  ( 0.000715  0.000477  0.010198)
 48:   3191.55   0.003533   17.86  0.000345  (-0.018484  0.001957  0.000068)
 49:   3201.32   0.000276    1.39  0.000027  (-0.002017 -0.004773 -0.000091)
 50:   3206.84   0.000011    0.06  0.000001  ( 0.000235  0.001024 -0.000060)
 51:   3215.65   0.000324    1.64  0.000031  (-0.004077 -0.003854 -0.000026)
 52:   3229.34   0.000905    4.57  0.000087  (-0.001090  0.009285  0.000056)
 53:   3416.92   0.016004   80.88  0.001462  ( 0.038050 -0.003716  0.000008)

--------------------------
THERMOCHEMISTRY AT 298.15K
--------------------------

Temperature         ...   298.15 K
Pressure            ...     1.00 atm
Total Mass          ...   132.16 AMU
Quasi RRHO          ...     True
Cut-Off Frequency   ...     1.00 cm^-1

Throughout the following assumptions are being made:
  (1) The electronic state is orbitally nondegenerate
      but the spin degeneracy is treated
  (2) There are no thermally accessible electronically excited states
  (3) Hindered rotations indicated by low frequency modes are not
      treated as such but are treated as vibrations and this may
      cause some error
  (4) All equations used are the standard statistical mechanics
      equations for an ideal gas
  (5) All vibrations are strictly harmonic

freq.      42.00  E(vib)   ...       0.53
freq.     120.96  E(vib)   ...       0.44
freq.     129.62  E(vib)   ...       0.43
freq.     146.70  E(vib)   ...       0.41
freq.     233.91  E(vib)   ...       0.32
freq.     249.36  E(vib)   ...       0.31
freq.     370.97  E(vib)   ...       0.21
freq.     384.53  E(vib)   ...       0.20
freq.     392.26  E(vib)   ...       0.20
freq.     497.47  E(vib)   ...       0.14
freq.     524.53  E(vib)   ...       0.13
freq.     531.94  E(vib)   ...       0.13
freq.     618.92  E(vib)   ...       0.09
freq.     637.16  E(vib)   ...       0.09
freq.     654.98  E(vib)   ...       0.08
freq.     702.38  E(vib)   ...       0.07
freq.     753.57  E(vib)   ...       0.06
freq.     771.37  E(vib)   ...       0.05
freq.     817.80  E(vib)   ...       0.05
freq.     853.93  E(vib)   ...       0.04
freq.     978.34  E(vib)   ...       0.03
freq.     982.03  E(vib)   ...       0.02
freq.     986.83  E(vib)   ...       0.02
freq.     992.19  E(vib)   ...       0.02
freq.    1126.12  E(vib)   ...       0.01
freq.    1149.95  E(vib)   ...       0.01
freq.    1174.86  E(vib)   ...       0.01
freq.    1193.30  E(vib)   ...       0.01
freq.    1255.40  E(vib)   ...       0.01
freq.    1296.05  E(vib)   ...       0.01
freq.    1342.07  E(vib)   ...       0.01
freq.    1356.67  E(vib)   ...       0.01
freq.    1440.47  E(vib)   ...       0.00
freq.    1462.41  E(vib)   ...       0.00
freq.    1467.19  E(vib)   ...       0.00
freq.    1473.80  E(vib)   ...       0.00
freq.    1509.05  E(vib)   ...       0.00
freq.    1512.44  E(vib)   ...       0.00
freq.    1643.19  E(vib)   ...       0.00
freq.    2094.42  E(vib)   ...       0.00
freq.    3057.08  E(vib)   ...       0.00
freq.    3152.23  E(vib)   ...       0.00
freq.    3191.55  E(vib)   ...       0.00
freq.    3201.32  E(vib)   ...       0.00
freq.    3206.84  E(vib)   ...       0.00
freq.    3215.65  E(vib)   ...       0.00
freq.    3229.34  E(vib)   ...       0.00
freq.    3416.92  E(vib)   ...       0.00

------------
INNER ENERGY
------------

The inner energy is: U= E(el) + E(ZPE) + E(vib) + E(rot) + E(trans)
    E(el)   - is the total energy from the electronic structure calculation
              = E(kin-el) + E(nuc-el) + E(el-el) + E(nuc-nuc)
    E(ZPE)  - the the zero temperature vibrational energy from the frequency calculation
    E(vib)  - the the finite temperature correction to E(ZPE) due to population
              of excited vibrational states
    E(rot)  - is the rotational thermal energy
    E(trans)- is the translational thermal energy

Summary of contributions to the inner energy U:
Electronic energy                ...   -422.63710798 Eh
Zero point energy                ...      0.14020310 Eh      87.98 kcal/mol
Thermal vibrational correction   ...      0.00665284 Eh       4.17 kcal/mol
Thermal rotational correction    ...      0.00141627 Eh       0.89 kcal/mol
Thermal translational correction ...      0.00141627 Eh       0.89 kcal/mol
-----------------------------------------------------------------------
Total thermal energy                   -422.48741949 Eh

Summary of corrections to the electronic energy:
(perhaps to be used in another calculation)
Total thermal correction                  0.00948538 Eh       5.95 kcal/mol
Non-thermal (ZPE) correction              0.14020310 Eh      87.98 kcal/mol
-----------------------------------------------------------------------
Total correction                          0.14968848 Eh      93.93 kcal/mol

--------
ENTHALPY
--------

The enthalpy is H = U + kB*T
                kB is Boltzmann's constant
Total thermal energy              ...   -422.48741949 Eh
Thermal Enthalpy correction       ...      0.00094421 Eh       0.59 kcal/mol
-----------------------------------------------------------------------
Total Enthalpy                    ...   -422.48647529 Eh

Note: Only C1 symmetry has been detected, increase convergence thresholds
      if your molecule has a higher symmetry. Symmetry factor of 1.0 is
      used for the rotational entropy correction.

Note: Rotational entropy computed according to Herzberg
Infrared and Raman Spectra, Chapter V,1, Van Nostrand Reinhold, 1945
Point Group:  C1, Symmetry Number:   1
Rotational constants in cm-1:     0.156689     0.024156     0.021014

Vibrational entropy computed according to the QRRHO of S. Grimme
Chem.Eur.J. 2012 18 9955 using a reference frequency of 100.0 cm-1

-------
ENTROPY
-------

The entropy contributions are T*S = T*(S(el)+S(vib)+S(rot)+S(trans))
     S(el)   - electronic entropy
     S(vib)  - vibrational entropy
     S(rot)  - rotational entropy
     S(trans)- translational entropy
The entropies will be listed as multiplied by the temperature to get
units of energy

Electronic entropy                ...      0.00065446 Eh      0.41 kcal/mol
Vibrational entropy               ...      0.01134870 Eh      7.12 kcal/mol
Rotational entropy                ...      0.01396700 Eh      8.76 kcal/mol
Translational entropy             ...      0.01926618 Eh     12.09 kcal/mol
-----------------------------------------------------------------------
Final entropy term                ...      0.04523634 Eh     28.39 kcal/mol

In case the symmetry of your molecule has not been determined correctly
or in case you have a reason to use a different symmetry number we print
out the resulting rotational entropy values for sn=1,12:

 non-linear molecules -----------------------------------
|  sn= 1 | S(rot)=       0.01396700 Eh      8.76 kcal/mol|
|  sn= 2 | S(rot)=       0.01331255 Eh      8.35 kcal/mol|
|  sn= 3 | S(rot)=       0.01292971 Eh      8.11 kcal/mol|
|  sn= 4 | S(rot)=       0.01265809 Eh      7.94 kcal/mol|
|  sn= 5 | S(rot)=       0.01244740 Eh      7.81 kcal/mol|
|  sn= 6 | S(rot)=       0.01227526 Eh      7.70 kcal/mol|
|  sn= 7 | S(rot)=       0.01212971 Eh      7.61 kcal/mol|
|  sn= 8 | S(rot)=       0.01200363 Eh      7.53 kcal/mol|
|  sn= 9 | S(rot)=       0.01189242 Eh      7.46 kcal/mol|
|  sn=10 | S(rot)=       0.01179294 Eh      7.40 kcal/mol|
|  sn=11 | S(rot)=       0.01170295 Eh      7.34 kcal/mol|

                             ****ORCA TERMINATED NORMALLY****
TOTAL RUN TIME: 0 days 1 hours 12 minutes 39 seconds 158 msec
