                         Program Version 6.0.0  -   RELEASE  -
|  1> !PBE0 freq aug-cc-pVTZ d3 TightSCF SlowConv RIJCOSX defgrid2
|  2>
|  3> %pal
|  4> nprocs 12
|  5> end
|  6>
|  7> %scf
|  8> MaxIter 1500
|  9> end
| 10>
| 11> %maxcore 5000
| 12>
| 13> !CPCM
| 14> %cpcm smd true
| 15> SMDsolvent "MeCN"
| 16> surfacetype gepol_ses
| 17> rsolv 2.19
| 18> end
| 19>
| 20> * xyz 0 1
| 21>   C           2.39075917578928     -0.83582311035521      0.66499765990718
| 22>   C           1.27006167692916     -0.39264493472046     -0.03856886143999
| 23>   C           1.38196611521030      0.77095231648524     -0.80159049136293
| 24>   C           2.58311561399557      1.45818703425694     -0.87585092262307
| 25>   C           3.69269875676281      1.00343064089749     -0.17618076583884
| 26>   C           3.59094724222557     -0.14541688213977      0.59642838324553
| 27>   H           4.44717574569255     -0.50015761425320      1.15767555901241
| 28>   H           4.62924563803725      1.54567973442254     -0.22692331430778
| 29>   H           2.65227402713889      2.35382364682031     -1.48162247083454
| 30>   H           0.52284150452882      1.13417977001978     -1.35242374216864
| 31>   C           0.00001155084007     -1.15135510874727     -0.00024760309470
| 32>   C          -0.00004725663746     -2.48859726260858     -0.00025886529787
| 33>   H          -0.92218794026990     -3.05285838915142      0.06810348430361
| 34>   H           0.92201381356633     -3.05300294842390     -0.06862496201244
| 35>   C          -1.26996893845707     -0.39252501569392      0.03814834806280
| 36>   C          -2.39089130031063     -0.83576246108085     -0.66503983828759
| 37>   C          -3.59115539470969     -0.14558111611181     -0.59593941622656
| 38>   C          -3.69272759903851      1.00331762581176      0.17660450665541
| 39>   C          -2.58288149877530      1.45835033851823      0.87569014809519
| 40>   C          -1.38176180093738      0.77113474019422      0.80106762385207
| 41>   H          -0.52260094313273      1.13427789684328      1.35190281348817
| 42>   H          -2.65177391683262      2.35403706889445      1.48145226460162
| 43>   H          -4.62932369755086      1.54537755359280      0.22772252232031
| 44>   H          -4.44760644730912     -0.50066776601837     -1.15671248532518
| 45>   H          -2.31347389448400     -1.72053890703762     -1.28556422360845
| 46>   H           2.31305966772869     -1.72061085041469      1.28547814888424
| 47> *
| 48>
| 49>                          ****END OF INPUT****

CARTESIAN COORDINATES (ANGSTROEM)
---------------------------------
  C      2.390759   -0.835823    0.664998
  C      1.270062   -0.392645   -0.038569
  C      1.381966    0.770952   -0.801590
  C      2.583116    1.458187   -0.875851
  C      3.692699    1.003431   -0.176181
  C      3.590947   -0.145417    0.596428
  H      4.447176   -0.500158    1.157676
  H      4.629246    1.545680   -0.226923
  H      2.652274    2.353824   -1.481622
  H      0.522842    1.134180   -1.352424
  C      0.000012   -1.151355   -0.000248
  C     -0.000047   -2.488597   -0.000259
  H     -0.922188   -3.052858    0.068103
  H      0.922014   -3.053003   -0.068625
  C     -1.269969   -0.392525    0.038148
  C     -2.390891   -0.835762   -0.665040
  C     -3.591155   -0.145581   -0.595939
  C     -3.692728    1.003318    0.176605
  C     -2.582881    1.458350    0.875690
  C     -1.381762    0.771135    0.801068
  H     -0.522601    1.134278    1.351903
  H     -2.651774    2.354037    1.481452
  H     -4.629324    1.545378    0.227723
  H     -4.447606   -0.500668   -1.156712
  H     -2.313474   -1.720539   -1.285564
  H      2.313060   -1.720611    1.285478

 Total Charge           Charge          ....    0
 Multiplicity           Mult            ....    1
 Number of Electrons    NEL             ....   96
 Basis Dimension        Dim             ....  920

ORBITAL ENERGIES
----------------

  NO   OCC          E(Eh)            E(eV)
   0   2.0000     -10.245323      -278.7894
   1   2.0000     -10.241675      -278.6901
   2   2.0000     -10.241659      -278.6897
   3   2.0000     -10.228913      -278.3429
   4   2.0000     -10.228890      -278.3422
   5   2.0000     -10.228774      -278.3391
   6   2.0000     -10.228769      -278.3390
   7   2.0000     -10.228330      -278.3270
   8   2.0000     -10.228328      -278.3270
   9   2.0000     -10.227973      -278.3173
  10   2.0000     -10.227971      -278.3172
  11   2.0000     -10.227538      -278.3055
  12   2.0000     -10.227535      -278.3054
  13   2.0000     -10.217754      -278.0392
  14   2.0000      -0.902146       -24.5486
  15   2.0000      -0.885419       -24.0935
  16   2.0000      -0.833715       -22.6865
  17   2.0000      -0.774745       -21.0819
  18   2.0000      -0.774515       -21.0756
  19   2.0000      -0.768781       -20.9196
  20   2.0000      -0.742558       -20.2060
  21   2.0000      -0.653332       -17.7781
  22   2.0000      -0.629822       -17.1383
  23   2.0000      -0.620769       -16.8920
  24   2.0000      -0.617752       -16.8099
  25   2.0000      -0.569984       -15.5100
  26   2.0000      -0.542468       -14.7613
  27   2.0000      -0.516747       -14.0614
  28   2.0000      -0.482451       -13.1282
  29   2.0000      -0.477990       -13.0068
  30   2.0000      -0.466316       -12.6891
  31   2.0000      -0.455489       -12.3945
  32   2.0000      -0.452941       -12.3251
  33   2.0000      -0.433052       -11.7839
  34   2.0000      -0.432607       -11.7718
  35   2.0000      -0.429862       -11.6972
  36   2.0000      -0.395968       -10.7748
  37   2.0000      -0.390160       -10.6168
  38   2.0000      -0.389328       -10.5941
  39   2.0000      -0.367279        -9.9942
  40   2.0000      -0.356152        -9.6914
  41   2.0000      -0.348452        -9.4819
  42   2.0000      -0.342676        -9.3247
  43   2.0000      -0.316741        -8.6190
  44   2.0000      -0.275558        -7.4983
  45   2.0000      -0.271395        -7.3850
  46   2.0000      -0.268552        -7.3077
  47   2.0000      -0.237935        -6.4746
  48   0.0000      -0.042547        -1.1578
  49   0.0000      -0.019662        -0.5350
  50   0.0000      -0.015044        -0.4094
  51   0.0000      -0.001597        -0.0434
  52   0.0000       0.001029         0.0280

MULLIKEN ATOMIC CHARGES
-----------------------
   0 C :   -1.329436
   1 C :    2.012932
   2 C :   -0.816827
   3 C :   -0.936690
   4 C :   -0.284940
   5 C :   -0.857916
   6 H :    0.752923
   7 H :    0.563328
   8 H :    0.585510
   9 H :    0.158856
  10 C :    0.878741
  11 C :   -1.318730
  12 H :    0.303710
  13 H :    0.303384
  14 C :    2.025888
  15 C :   -1.291340
  16 C :   -0.822678
  17 C :   -0.272253
  18 C :   -0.917030
  19 C :   -0.830217
  20 H :    0.156681
  21 H :    0.589782
  22 H :    0.589915
  23 H :    0.588820
  24 H :    0.098516
  25 H :    0.069070
Sum of atomic charges:    0.0000000

LOEWDIN ATOMIC CHARGES
----------------------
   0 C :    0.206903
   1 C :   -0.147812
   2 C :    0.204746
   3 C :    0.199965
   4 C :    0.190101
   5 C :    0.198099
   6 H :   -0.172540
   7 H :   -0.174352
   8 H :   -0.171952
   9 H :   -0.164742
  10 C :   -0.146144
  11 C :    0.554229
  12 H :   -0.199981
  13 H :   -0.199950
  14 C :   -0.147725
  15 C :    0.206912
  16 C :    0.198092
  17 C :    0.190150
  18 C :    0.200038
  19 C :    0.204670
  20 H :   -0.164860
  21 H :   -0.171920
  22 H :   -0.174391
  23 H :   -0.172529
  24 H :   -0.172501
  25 H :   -0.172506

  Mayer bond orders larger than 0.100000
B(  0-C ,  1-C ) :   0.2325 B(  0-C ,  2-C ) :  -0.6484 B(  0-C ,  3-C ) :   0.1765
B(  0-C ,  4-C ) :  -0.1834 B(  0-C ,  5-C ) :   1.5765 B(  0-C ,  6-H ) :  -0.1774
B(  0-C ,  9-H ) :   0.1225 B(  0-C , 10-C ) :   0.2837 B(  0-C , 14-C ) :  -0.1258
B(  0-C , 22-H ) :   0.1148 B(  0-C , 25-H ) :   1.5910 B(  1-C ,  2-C ) :   0.6240
B(  1-C ,  3-C ) :  -0.1087 B(  1-C ,  4-C ) :  -0.1434 B(  1-C ,  8-H ) :   0.1110
B(  1-C , 11-C ) :  -0.2578 B(  1-C , 14-C ) :  -0.2054 B(  1-C , 15-C ) :  -0.1373
B(  2-C ,  3-C ) :   1.4471 B(  2-C ,  4-C ) :  -0.1250 B(  2-C ,  9-H ) :   1.3289
B(  2-C , 10-C ) :   0.1432 B(  2-C , 11-C ) :   0.1033 B(  2-C , 19-C ) :   0.1340
B(  3-C ,  4-C ) :   1.4173 B(  3-C ,  5-C ) :   0.2732 B(  3-C ,  8-H ) :   0.3461
B(  4-C ,  5-C ) :   1.3162 B(  4-C ,  6-H ) :   0.1183 B(  4-C ,  7-H ) :   0.4785
B(  4-C ,  8-H ) :   0.1135 B(  4-C , 10-C ) :   0.2114 B(  5-C ,  9-H ) :  -0.1065
B(  9-H , 10-C ) :  -0.1328 B(  9-H , 25-H ) :   0.2162 B( 10-C , 11-C ) :   0.9731
B( 10-C , 15-C ) :   0.2963 B( 10-C , 17-C ) :   0.1948 B( 10-C , 19-C ) :   0.1353
B( 10-C , 20-H ) :  -0.1338 B( 10-C , 24-H ) :  -0.1554 B( 10-C , 25-H ) :  -0.1690
B( 11-C , 12-H ) :   0.9376 B( 11-C , 13-H ) :   0.9369 B( 11-C , 14-C ) :  -0.2618
B( 11-C , 19-C ) :   0.1114 B( 14-C , 15-C ) :   0.2419 B( 14-C , 17-C ) :  -0.1658
B( 14-C , 18-C ) :  -0.1055 B( 14-C , 19-C ) :   0.6096 B( 14-C , 21-H ) :   0.1180
B( 15-C , 16-C ) :   1.5139 B( 15-C , 17-C ) :  -0.1663 B( 15-C , 18-C ) :   0.1477
B( 15-C , 19-C ) :  -0.6438 B( 15-C , 23-H ) :  -0.1615 B( 15-C , 24-H ) :   1.5238
B( 16-C , 17-C ) :   1.2808 B( 16-C , 18-C ) :   0.2486 B( 16-C , 23-H ) :   0.3904
B( 17-C , 18-C ) :   1.4338 B( 17-C , 19-C ) :  -0.1266 B( 17-C , 22-H ) :   0.4571
B( 18-C , 19-C ) :   1.4304 B( 18-C , 21-H ) :   0.3329 B( 19-C , 20-H ) :   1.3354
B( 20-H , 24-H ) :   0.1999

Dispersion correction           -0.029068176
FINAL SINGLE POINT ENERGY      -540.272076508391

DIPOLE MOMENT
-------------

Method             : SCF
Type of density    : Electron Density
Multiplicity       :   1
Irrep              :   0
Energy             :  -540.2430083321937673 Eh
Relativity type    :
Basis              : AO
                                X                 Y                 Z
Electronic contribution:     -0.000500627       0.606521985      -0.001576666
Nuclear contribution   :     -0.000406746      -0.478772781       0.000960956
                        -----------------------------------------
Total Dipole Moment    :     -0.000907373       0.127749204      -0.000615710
                        -----------------------------------------
Magnitude (a.u.)       :      0.127753910
Magnitude (Debye)      :      0.324724633

VIBRATIONAL FREQUENCIES
-----------------------

Scaling factor for frequencies =  1.000000000  (already applied!)

     0:       0.00 cm**-1
     1:       0.00 cm**-1
     2:       0.00 cm**-1
     3:       0.00 cm**-1
     4:       0.00 cm**-1
     5:       0.00 cm**-1
     6:     -60.18 cm**-1 ***imaginary mode***
     7:     -52.02 cm**-1 ***imaginary mode***
     8:      46.51 cm**-1
     9:     117.73 cm**-1
    10:     198.52 cm**-1
    11:     209.04 cm**-1
    12:     288.27 cm**-1
    13:     333.23 cm**-1
    14:     399.26 cm**-1
    15:     407.30 cm**-1
    16:     437.99 cm**-1
    17:     450.29 cm**-1
    18:     573.91 cm**-1
    19:     589.42 cm**-1
    20:     617.93 cm**-1
    21:     623.19 cm**-1
    22:     650.88 cm**-1
    23:     698.56 cm**-1
    24:     702.70 cm**-1
    25:     714.59 cm**-1
    26:     734.89 cm**-1
    27:     792.24 cm**-1
    28:     801.37 cm**-1
    29:     845.30 cm**-1
    30:     856.61 cm**-1
    31:     859.11 cm**-1
    32:     932.12 cm**-1
    33:     940.94 cm**-1
    34:     941.89 cm**-1
    35:     995.14 cm**-1
    36:     998.74 cm**-1
    37:    1014.94 cm**-1
    38:    1015.76 cm**-1
    39:    1019.29 cm**-1
    40:    1020.10 cm**-1
    41:    1049.54 cm**-1
    42:    1052.06 cm**-1
    43:    1080.46 cm**-1
    44:    1098.83 cm**-1
    45:    1104.74 cm**-1
    46:    1157.38 cm**-1
    47:    1157.46 cm**-1
    48:    1179.04 cm**-1
    49:    1181.59 cm**-1
    50:    1186.06 cm**-1
    51:    1313.86 cm**-1
    52:    1329.12 cm**-1
    53:    1355.53 cm**-1
    54:    1361.57 cm**-1
    55:    1362.13 cm**-1
    56:    1422.49 cm**-1
    57:    1473.30 cm**-1
    58:    1474.84 cm**-1
    59:    1522.97 cm**-1
    60:    1529.98 cm**-1
    61:    1631.80 cm**-1
    62:    1633.45 cm**-1
    63:    1658.87 cm**-1
    64:    1660.96 cm**-1
    65:    1678.37 cm**-1
    66:    3156.21 cm**-1
    67:    3179.73 cm**-1
    68:    3179.94 cm**-1
    69:    3188.01 cm**-1
    70:    3188.52 cm**-1
    71:    3196.19 cm**-1
    72:    3196.35 cm**-1
    73:    3201.96 cm**-1
    74:    3202.30 cm**-1
    75:    3210.52 cm**-1
    76:    3210.74 cm**-1
    77:    3245.19 cm**-1

IR SPECTRUM
-----------

 Mode   freq       eps      Int      T**2         TX        TY        TZ
       cm**-1   L/(mol*cm) km/mol    a.u.
----------------------------------------------------------------------------
  8:     46.51   0.000064    0.32  0.000428  ( 0.000096  0.020694 -0.000028)
  9:    117.73   0.000682    3.45  0.001809  (-0.005130  0.000045 -0.042221)
 10:    198.52   0.000025    0.13  0.000039  (-0.000031  0.006244 -0.000003)
 11:    209.04   0.000151    0.76  0.000226  (-0.008166 -0.000076 -0.012604)
 12:    288.27   0.000047    0.24  0.000051  ( 0.000013 -0.007140 -0.000001)
 13:    333.23   0.000427    2.16  0.000400  (-0.019480 -0.000016 -0.004523)
 14:    399.26   0.000020    0.10  0.000016  (-0.001051  0.000227 -0.003797)
 15:    407.30   0.000084    0.43  0.000065  ( 0.000000 -0.008042 -0.000152)
 16:    437.99   0.000445    2.25  0.000317  (-0.000037 -0.017814  0.000165)
 17:    450.29   0.002797   14.14  0.001939  ( 0.011579 -0.000070 -0.042480)
 18:    573.91   0.003076   15.55  0.001673  ( 0.000125  0.040899 -0.000088)
 19:    589.42   0.005987   30.26  0.003170  (-0.050096  0.000106  0.025695)
 20:    617.93   0.000653    3.30  0.000330  (-0.015188  0.000169  0.009962)
 21:    623.19   0.000032    0.16  0.000016  ( 0.000004  0.004020 -0.000037)
 22:    650.88   0.003670   18.55  0.001759  ( 0.027601 -0.000252 -0.031584)
 23:    698.56   0.004070   20.57  0.001818  (-0.002113 -0.042355  0.004435)
 24:    702.70   0.023508  118.80  0.010440  ( 0.040006 -0.001403 -0.094007)
 25:    714.59   0.007796   39.40  0.003405  (-0.000415  0.058338  0.001069)
 26:    734.89   0.000161    0.82  0.000069  (-0.000040  0.008276  0.000133)
 27:    792.24   0.017929   90.61  0.007062  ( 0.003673  0.001228 -0.083949)
 28:    801.37   0.008738   44.16  0.003403  ( 0.000089 -0.058316 -0.001432)
 29:    845.30   0.000073    0.37  0.000027  (-0.001871 -0.000010  0.004839)
 30:    856.61   0.000006    0.03  0.000002  (-0.001488  0.000231 -0.000267)
 31:    859.11   0.000120    0.60  0.000043  ( 0.000003 -0.006589 -0.000072)
 32:    932.12   0.016120   81.46  0.005397  ( 0.015515 -0.000003  0.071805)
 33:    940.94   0.001277    6.45  0.000424  (-0.010543 -0.002017 -0.017561)
 34:    941.89   0.000993    5.02  0.000329  (-0.001144  0.018038 -0.001493)
 35:    995.14   0.000071    0.36  0.000022  (-0.003009  0.000370 -0.003602)
 36:    998.74   0.000043    0.22  0.000013  (-0.000263 -0.003632 -0.000198)
 37:   1014.94   0.000353    1.78  0.000108  ( 0.009966 -0.000045  0.003012)
 38:   1015.76   0.000069    0.35  0.000021  ( 0.000176  0.004611 -0.000010)
 39:   1019.29   0.000023    0.11  0.000007  ( 0.001565 -0.001954 -0.000809)
 40:   1020.10   0.000037    0.19  0.000011  (-0.002740 -0.000857  0.001731)
 41:   1049.54   0.006258   31.63  0.001861  ( 0.043106  0.000109 -0.001611)
 42:   1052.06   0.001311    6.62  0.000389  (-0.000209  0.019718 -0.000007)
 43:   1080.46   0.002034   10.28  0.000588  (-0.015497 -0.000046 -0.018640)
 44:   1098.83   0.002323   11.74  0.000660  ( 0.000034  0.025685  0.000025)
 45:   1104.74   0.002039   10.30  0.000576  (-0.004669  0.000034 -0.023541)
 46:   1157.38   0.000004    0.02  0.000001  ( 0.000633 -0.000865  0.000173)
 47:   1157.46   0.000013    0.07  0.000004  (-0.000324 -0.001857 -0.000071)
 48:   1179.04   0.000024    0.12  0.000006  (-0.000025  0.002518 -0.000004)
 49:   1181.59   0.000188    0.95  0.000050  ( 0.006883 -0.000022 -0.001492)
 50:   1186.06   0.000013    0.07  0.000004  (-0.000093 -0.001872  0.000012)
 51:   1313.86   0.001130    5.71  0.000268  ( 0.016021 -0.000028 -0.003412)
 52:   1329.12   0.000001    0.00  0.000000  ( 0.000060 -0.000378 -0.000014)
 53:   1355.53   0.002316   11.70  0.000533  ( 0.023084 -0.000012 -0.000523)
 54:   1361.57   0.000129    0.65  0.000030  ( 0.000658  0.005401 -0.000153)
 55:   1362.13   0.005900   29.82  0.001352  (-0.035847  0.000104  0.008168)
 56:   1422.49   0.001865    9.42  0.000409  ( 0.000040  0.020227  0.000003)
 57:   1473.30   0.003666   18.53  0.000777  ( 0.022510 -0.000451  0.016421)
 58:   1474.84   0.001302    6.58  0.000275  ( 0.000624  0.016580  0.000422)
 59:   1522.97   0.003342   16.89  0.000685  (-0.000047 -0.026167  0.000015)
 60:   1529.98   0.003969   20.06  0.000810  ( 0.028336 -0.000098 -0.002561)
 61:   1631.80   0.001688    8.53  0.000323  (-0.000019 -0.017964  0.000010)
 62:   1633.45   0.000502    2.53  0.000096  ( 0.001724 -0.000072 -0.009635)
 63:   1658.87   0.000840    4.25  0.000158  ( 0.012572  0.000084  0.000158)
 64:   1660.96   0.000531    2.68  0.000100  ( 0.000169 -0.009986  0.000013)
 65:   1678.37   0.007618   38.50  0.001416  (-0.000016 -0.037635  0.000000)
 66:   3156.21   0.000561    2.83  0.000055  ( 0.000008  0.007447 -0.000003)
 67:   3179.73   0.000507    2.56  0.000050  (-0.006113  0.003499  0.000343)
 68:   3179.94   0.000562    2.84  0.000055  (-0.006758 -0.003033  0.000521)
 69:   3188.01   0.000010    0.05  0.000001  ( 0.000056  0.000546  0.000837)
 70:   3188.52   0.000116    0.59  0.000011  (-0.000032  0.003374  0.000039)
 71:   3196.19   0.003836   19.39  0.000375  ( 0.018881  0.004228 -0.000417)
 72:   3196.35   0.001670    8.44  0.000163  ( 0.010616 -0.007099 -0.000083)
 73:   3201.96   0.007661   38.72  0.000747  (-0.014117 -0.004383 -0.022982)
 74:   3202.30   0.006259   31.63  0.000610  ( 0.002518 -0.024220  0.004121)
 75:   3210.52   0.004249   21.47  0.000413  (-0.020284 -0.001155  0.000508)
 76:   3210.74   0.001604    8.11  0.000156  (-0.002197  0.012291  0.000129)
 77:   3245.19   0.001692    8.55  0.000163  (-0.012574 -0.000015  0.002140)

--------------------------
THERMOCHEMISTRY AT 298.15K
--------------------------

Temperature         ...   298.15 K
Pressure            ...     1.00 atm
Total Mass          ...   180.25 AMU
Quasi RRHO          ...     True
Cut-Off Frequency   ...     1.00 cm^-1

Throughout the following assumptions are being made:
  (1) The electronic state is orbitally nondegenerate
  (2) There are no thermally accessible electronically excited states
  (3) Hindered rotations indicated by low frequency modes are not
      treated as such but are treated as vibrations and this may
      cause some error
  (4) All equations used are the standard statistical mechanics
      equations for an ideal gas
  (5) All vibrations are strictly harmonic

freq.      46.51  E(vib)   ...       0.53
freq.     117.73  E(vib)   ...       0.44
freq.     198.52  E(vib)   ...       0.35
freq.     209.04  E(vib)   ...       0.34
freq.     288.27  E(vib)   ...       0.27
freq.     333.23  E(vib)   ...       0.24
freq.     399.26  E(vib)   ...       0.19
freq.     407.30  E(vib)   ...       0.19
freq.     437.99  E(vib)   ...       0.17
freq.     450.29  E(vib)   ...       0.17
freq.     573.91  E(vib)   ...       0.11
freq.     589.42  E(vib)   ...       0.10
freq.     617.93  E(vib)   ...       0.09
freq.     623.19  E(vib)   ...       0.09
freq.     650.88  E(vib)   ...       0.08
freq.     698.56  E(vib)   ...       0.07
freq.     702.70  E(vib)   ...       0.07
freq.     714.59  E(vib)   ...       0.07
freq.     734.89  E(vib)   ...       0.06
freq.     792.24  E(vib)   ...       0.05
freq.     801.37  E(vib)   ...       0.05
freq.     845.30  E(vib)   ...       0.04
freq.     856.61  E(vib)   ...       0.04
freq.     859.11  E(vib)   ...       0.04
freq.     932.12  E(vib)   ...       0.03
freq.     940.94  E(vib)   ...       0.03
freq.     941.89  E(vib)   ...       0.03
freq.     995.14  E(vib)   ...       0.02
freq.     998.74  E(vib)   ...       0.02
freq.    1014.94  E(vib)   ...       0.02
freq.    1015.76  E(vib)   ...       0.02
freq.    1019.29  E(vib)   ...       0.02
freq.    1020.10  E(vib)   ...       0.02
freq.    1049.54  E(vib)   ...       0.02
freq.    1052.06  E(vib)   ...       0.02
freq.    1080.46  E(vib)   ...       0.02
freq.    1098.83  E(vib)   ...       0.02
freq.    1104.74  E(vib)   ...       0.02
freq.    1157.38  E(vib)   ...       0.01
freq.    1157.46  E(vib)   ...       0.01
freq.    1179.04  E(vib)   ...       0.01
freq.    1181.59  E(vib)   ...       0.01
freq.    1186.06  E(vib)   ...       0.01
freq.    1313.86  E(vib)   ...       0.01
freq.    1329.12  E(vib)   ...       0.01
freq.    1355.53  E(vib)   ...       0.01
freq.    1361.57  E(vib)   ...       0.01
freq.    1362.13  E(vib)   ...       0.01
freq.    1422.49  E(vib)   ...       0.00
freq.    1473.30  E(vib)   ...       0.00
freq.    1474.84  E(vib)   ...       0.00
freq.    1522.97  E(vib)   ...       0.00
freq.    1529.98  E(vib)   ...       0.00
freq.    1631.80  E(vib)   ...       0.00
freq.    1633.45  E(vib)   ...       0.00
freq.    1658.87  E(vib)   ...       0.00
freq.    1660.96  E(vib)   ...       0.00
freq.    1678.37  E(vib)   ...       0.00
freq.    3156.21  E(vib)   ...       0.00
freq.    3179.73  E(vib)   ...       0.00
freq.    3179.94  E(vib)   ...       0.00
freq.    3188.01  E(vib)   ...       0.00
freq.    3188.52  E(vib)   ...       0.00
freq.    3196.19  E(vib)   ...       0.00
freq.    3196.35  E(vib)   ...       0.00
freq.    3201.96  E(vib)   ...       0.00
freq.    3202.30  E(vib)   ...       0.00
freq.    3210.52  E(vib)   ...       0.00
freq.    3210.74  E(vib)   ...       0.00
freq.    3245.19  E(vib)   ...       0.00

------------
INNER ENERGY
------------

The inner energy is: U= E(el) + E(ZPE) + E(vib) + E(rot) + E(trans)
    E(el)   - is the total energy from the electronic structure calculation
              = E(kin-el) + E(nuc-el) + E(el-el) + E(nuc-nuc)
    E(ZPE)  - the the zero temperature vibrational energy from the frequency calculation
    E(vib)  - the the finite temperature correction to E(ZPE) due to population
              of excited vibrational states
    E(rot)  - is the rotational thermal energy
    E(trans)- is the translational thermal energy

Summary of contributions to the inner energy U:
Electronic energy                ...   -540.27207651 Eh
Zero point energy                ...      0.21378279 Eh     134.15 kcal/mol
Thermal vibrational correction   ...      0.00684384 Eh       4.29 kcal/mol
Thermal rotational correction    ...      0.00141627 Eh       0.89 kcal/mol
Thermal translational correction ...      0.00141627 Eh       0.89 kcal/mol
-----------------------------------------------------------------------
Total thermal energy                   -540.04861733 Eh

Summary of corrections to the electronic energy:
(perhaps to be used in another calculation)
Total thermal correction                  0.00967638 Eh       6.07 kcal/mol
Non-thermal (ZPE) correction              0.21378279 Eh     134.15 kcal/mol
-----------------------------------------------------------------------
Total correction                          0.22345917 Eh     140.22 kcal/mol

--------
ENTHALPY
--------

The enthalpy is H = U + kB*T
                kB is Boltzmann's constant
Total thermal energy              ...   -540.04861733 Eh
Thermal Enthalpy correction       ...      0.00094421 Eh       0.59 kcal/mol
-----------------------------------------------------------------------
Total Enthalpy                    ...   -540.04767312 Eh

Note: Only C1 symmetry has been detected, increase convergence thresholds
      if your molecule has a higher symmetry. Symmetry factor of 1.0 is
      used for the rotational entropy correction.

Note: Rotational entropy computed according to Herzberg
Infrared and Raman Spectra, Chapter V,1, Van Nostrand Reinhold, 1945
Point Group:  C1, Symmetry Number:   1
Rotational constants in cm-1:     0.053905     0.014073     0.012264

Vibrational entropy computed according to the QRRHO of S. Grimme
Chem.Eur.J. 2012 18 9955 using a reference frequency of 100.0 cm-1

-------
ENTROPY
-------

The entropy contributions are T*S = T*(S(el)+S(vib)+S(rot)+S(trans))
     S(el)   - electronic entropy
     S(vib)  - vibrational entropy
     S(rot)  - rotational entropy
     S(trans)- translational entropy
The entropies will be listed as multiplied by the temperature to get
units of energy

Electronic entropy                ...      0.00000000 Eh      0.00 kcal/mol
Vibrational entropy               ...      0.01096660 Eh      6.88 kcal/mol

                             ****ORCA TERMINATED NORMALLY****
TOTAL RUN TIME: 0 days 1 hours 34 minutes 5 seconds 380 msec
