                         Program Version 6.0.0  -   RELEASE  -
|  1> !TPSSh aug-cc-pVTZ d3 TightSCF SlowConv RIJCOSX defgrid2
|  2>
|  3> %pal
|  4> nprocs 4
|  5> end
|  6>
|  7> %scf
|  8> MaxIter 1500
|  9> end
| 10>
| 11> %maxcore 3000
| 12>
| 13> !CPCM
| 14> %cpcm smd true
| 15> SMDsolvent "MeCN"
| 16> surfacetype gepol_ses
| 17> rsolv 2.19
| 18> end
| 19>
| 20> * xyz 0 1
| 21> C           0.43295274103395     -0.56555208137454     -0.12382569822175
| 22> C           1.51815041093286     -1.44256145132370      0.03465132264486
| 23> C           2.82291605458460     -0.98131423085206      0.16263470248186
| 24> C           3.07724805433695      0.38906543613859      0.10395417081958
| 25> C           2.01798434399991      1.27254312720111     -0.06183531891651
| 26> C           0.68778075786998      0.82920111453005     -0.15098740877372
| 27> C          -0.35699948321221      1.85751329332423     -0.25045884909377
| 28> C          -1.60080927987703      1.81370681826415      0.25464129384079
| 29> C          -2.59473145726124      2.92199907643296      0.15011601671836
| 30> H          -3.51573836514016      2.58612139620194     -0.36308088945608
| 31> H          -2.90680231015057      3.27360328807964      1.15160677275170
| 32> H          -2.18833105696491      3.78355768338862     -0.40632712366609
| 33> H          -1.92003588165608      0.92155321305987      0.80823791464133
| 34> H          -0.04094477526312      2.78794694041111     -0.74417993319491
| 35> H           2.21326017353196      2.34900579584862     -0.10386391754355
| 36> H           4.10071513363350      0.76784189558933      0.18022490580490
| 37> H           3.64525794250500     -1.69329903916305      0.28019138928457
| 38> H           1.32601592423891     -2.51911318521029      0.01809993008456
| 39> C          -0.91691070467914     -1.11038869710857     -0.32534444063154
| 40> C          -1.40376577306444     -2.22814293611418      0.23571081912874
| 41> C          -2.75893884419196     -2.79406285722768     -0.03123293907509
| 42> H          -3.32366890460505     -2.17343167413791     -0.74746352614549
| 43> H          -2.69094682094056     -3.81739069188698     -0.44702594213530
| 44> H          -3.35245768734527     -2.87433845188828      0.89900228994579
| 45> H          -0.77994682614443     -2.77248476472153      0.95866929401903
| 46> H          -1.56550936617145     -0.54211921746145     -1.00577693531227
| 47> *
| 48>
| 49>                          ****END OF INPUT****

CARTESIAN COORDINATES (ANGSTROEM)
---------------------------------
  C      0.432953   -0.565552   -0.123826
  C      1.518150   -1.442561    0.034651
  C      2.822916   -0.981314    0.162635
  C      3.077248    0.389065    0.103954
  C      2.017984    1.272543   -0.061835
  C      0.687781    0.829201   -0.150987
  C     -0.356999    1.857513   -0.250459
  C     -1.600809    1.813707    0.254641
  C     -2.594731    2.921999    0.150116
  H     -3.515738    2.586121   -0.363081
  H     -2.906802    3.273603    1.151607
  H     -2.188331    3.783558   -0.406327
  H     -1.920036    0.921553    0.808238
  H     -0.040945    2.787947   -0.744180
  H      2.213260    2.349006   -0.103864
  H      4.100715    0.767842    0.180225
  H      3.645258   -1.693299    0.280191
  H      1.326016   -2.519113    0.018100
  C     -0.916911   -1.110389   -0.325344
  C     -1.403766   -2.228143    0.235711
  C     -2.758939   -2.794063   -0.031233
  H     -3.323669   -2.173432   -0.747464
  H     -2.690947   -3.817391   -0.447026
  H     -3.352458   -2.874338    0.899002
  H     -0.779947   -2.772485    0.958669
  H     -1.565509   -0.542119   -1.005777

 Total Charge           Charge          ....    0
 Multiplicity           Mult            ....    1
 Number of Electrons    NEL             ....   86
 Basis Dimension        Dim             ....  874

ORBITAL ENERGIES
----------------

  NO   OCC          E(Eh)            E(eV)
   0   2.0000     -10.126942      -275.5681
   1   2.0000     -10.126422      -275.5540
   2   2.0000     -10.116037      -275.2714
   3   2.0000     -10.114836      -275.2387
   4   2.0000     -10.114618      -275.2328
   5   2.0000     -10.114209      -275.2216
   6   2.0000     -10.113990      -275.2157
   7   2.0000     -10.112905      -275.1861
   8   2.0000     -10.111796      -275.1559
   9   2.0000     -10.109656      -275.0977
  10   2.0000     -10.106853      -275.0215
  11   2.0000     -10.105915      -274.9959
  12   2.0000      -0.843449       -22.9514
  13   2.0000      -0.779392       -21.2083
  14   2.0000      -0.775295       -21.0968
  15   2.0000      -0.729068       -19.8389
  16   2.0000      -0.725772       -19.7493
  17   2.0000      -0.666154       -18.1270
  18   2.0000      -0.649447       -17.6723
  19   2.0000      -0.590235       -16.0611
  20   2.0000      -0.577171       -15.7056
  21   2.0000      -0.531673       -14.4676
  22   2.0000      -0.525675       -14.3044
  23   2.0000      -0.486203       -13.2303
  24   2.0000      -0.451054       -12.2738
  25   2.0000      -0.441145       -12.0042
  26   2.0000      -0.422568       -11.4987
  27   2.0000      -0.406999       -11.0750
  28   2.0000      -0.405017       -11.0211
  29   2.0000      -0.389618       -10.6020
  30   2.0000      -0.388928       -10.5833
  31   2.0000      -0.385262       -10.4835
  32   2.0000      -0.368508       -10.0276
  33   2.0000      -0.358095        -9.7443
  34   2.0000      -0.354847        -9.6559
  35   2.0000      -0.336495        -9.1565
  36   2.0000      -0.334887        -9.1127
  37   2.0000      -0.319908        -8.7052
  38   2.0000      -0.313156        -8.5214
  39   2.0000      -0.276070        -7.5122
  40   2.0000      -0.271683        -7.3929
  41   2.0000      -0.226774        -6.1708
  42   2.0000      -0.205000        -5.5783
  43   0.0000      -0.048437        -1.3180
  44   0.0000      -0.035248        -0.9592
  45   0.0000      -0.003736        -0.1017
  46   0.0000       0.004656         0.1267
  47   0.0000       0.006435         0.1751

MULLIKEN ATOMIC CHARGES
-----------------------
   0 C :    0.760660
   1 C :   -0.823328
   2 C :   -0.434703
   3 C :   -0.145503
   4 C :   -0.861133
   5 C :    0.999738
   6 C :   -0.075813
   7 C :   -0.338132
   8 C :   -0.368389
   9 H :    0.133804
  10 H :    0.110583
  11 H :    0.121631
  12 H :    0.183350
  13 H :    0.107512
  14 H :   -0.021548
  15 H :    0.497066
  16 H :    0.382671
  17 H :    0.002049
  18 C :    0.135589
  19 C :   -0.616539
  20 C :   -0.338114
  21 H :    0.122042
  22 H :    0.114342
  23 H :    0.123986
  24 H :    0.118332
  25 H :    0.109847
Sum of atomic charges:   -0.0000000

LOEWDIN ATOMIC CHARGES
----------------------
   0 C :   -0.123869
   1 C :    0.198378
   2 C :    0.192005
   3 C :    0.189234
   4 C :    0.196284
   5 C :   -0.126368
   6 C :    0.201814
   7 C :    0.196177
   8 C :    0.555421
   9 H :   -0.163207
  10 H :   -0.163511
  11 H :   -0.172779
  12 H :   -0.184029
  13 H :   -0.175795
  14 H :   -0.167552
  15 H :   -0.171901
  16 H :   -0.171454
  17 H :   -0.175695
  18 C :    0.175102
  19 C :    0.200607
  20 C :    0.550443
  21 H :   -0.172648
  22 H :   -0.165209
  23 H :   -0.165388
  24 H :   -0.171971
  25 H :   -0.184090

  Mayer bond orders larger than 0.100000
B(  0-C ,  1-C ) :   0.9351 B(  0-C ,  2-C ) :   0.1054 B(  0-C ,  3-C ) :  -0.2288
B(  0-C ,  5-C ) :   0.9306 B(  0-C ,  6-C ) :   0.2642 B(  0-C , 17-H ) :   0.1072
B(  0-C , 24-H ) :  -0.1094 B(  1-C ,  2-C ) :   1.3167 B(  1-C ,  5-C ) :  -0.1236
B(  1-C , 17-H ) :   1.2192 B(  1-C , 18-C ) :   0.2255 B(  1-C , 19-C ) :   0.1054
B(  2-C ,  3-C ) :   1.3072 B(  2-C ,  5-C ) :  -0.1022 B(  2-C , 16-H ) :   0.5939
B(  3-C ,  4-C ) :   1.1842 B(  3-C ,  5-C ) :   0.1455 B(  3-C , 15-H ) :   0.4286
B(  4-C ,  5-C ) :   0.7483 B(  4-C , 14-H ) :   1.1881 B(  5-C ,  6-C ) :   0.1278
B(  5-C , 12-H ) :  -0.1162 B(  5-C , 14-H ) :   0.2186 B(  6-C ,  7-C ) :   1.2442
B(  6-C , 13-H ) :   0.9469 B(  7-C ,  8-C ) :   1.1043 B(  7-C , 12-H ) :   1.0471
B(  8-C ,  9-H ) :   0.9648 B(  8-C , 10-H ) :   0.9744 B(  8-C , 11-H ) :   0.9478
B( 18-C , 19-C ) :   1.2434 B( 18-C , 25-H ) :   1.0184 B( 19-C , 20-C ) :   1.0728
B( 19-C , 24-H ) :   1.0033 B( 20-C , 21-H ) :   0.9689 B( 20-C , 22-H ) :   0.9702
B( 20-C , 23-H ) :   0.9758

Dispersion correction           -0.032749579
FINAL SINGLE POINT ENERGY      -465.920125075245

DIPOLE MOMENT
-------------

Method             : SCF
Type of density    : Electron Density
Multiplicity       :   1
Irrep              :   0
Energy             :  -465.8873754962888256 Eh
Relativity type    :
Basis              : AO
                                X                 Y                 Z
Electronic contribution:      9.859400345      -0.099860685      -0.321390131
Nuclear contribution   :    -10.320917319       0.104061334       0.410695045
                        -----------------------------------------
Total Dipole Moment    :     -0.461516974       0.004200649       0.089304914
                        -----------------------------------------
Magnitude (a.u.)       :      0.470096725
Magnitude (Debye)      :      1.194890915

Rotational constants in cm-1:             0.032124             0.026217             0.014718
Rotational constants in MHz :           963.065643           785.959094           441.247217

                             ****ORCA TERMINATED NORMALLY****
TOTAL RUN TIME: 0 days 0 hours 10 minutes 12 seconds 553 msec
