                         Program Version 6.0.0  -   RELEASE  -
|  1> !PBE0 freq aug-cc-pVTZ d3 TightSCF SlowConv RIJCOSX defgrid2
|  2>
|  3> %pal
|  4> nprocs 12
|  5> end
|  6>
|  7> %scf
|  8> MaxIter 1500
|  9> end
| 10>
| 11> %maxcore 5000
| 12>
| 13> !CPCM
| 14> %cpcm smd true
| 15> SMDsolvent "MeCN"
| 16> surfacetype gepol_ses
| 17> rsolv 2.19
| 18> end
| 19>
| 20> * xyz 1 2
| 21> C           1.33229301766793      0.00044527198073     -0.00137577048951
| 22> C           0.74342991092902      1.28667337397483     -0.00398845095629
| 23> C          -0.60945514956531      1.40268437665037     -0.00297946972195
| 24> C          -1.42196193086586      0.23954706443983     -0.00107347901934
| 25> C          -0.83720157036608     -1.04753549992445     -0.00347534271068
| 26> C           0.51994111089584     -1.15943566972122     -0.00297970177505
| 27> H           0.98136327012338     -2.13904787716329     -0.00347171059132
| 28> H          -1.45355612193092     -1.93404161957637     -0.00381760365303
| 29> O          -2.71050599582301      0.45438137505686      0.00275649650958
| 30> C          -3.62370108139036     -0.65244445471271      0.00287050775066
| 31> H          -4.61368081376191     -0.20756805571954      0.00574501686968
| 32> H          -3.48350689879627     -1.25241736768670     -0.89572385518243
| 33> H          -3.48002228412546     -1.25602510022073      0.89861934548940
| 34> H          -1.09211291541685      2.37098116389652     -0.00274736532991
| 35> H           1.37024842716595      2.16859281915883     -0.00705831658169
| 36> S           3.02330531887701     -0.23305766216015      0.00645522282199
| 37> H           3.38021920638290      1.07084826172718      0.01233117656988
| 38> *
| 39>
| 40>                          ****END OF INPUT****

CARTESIAN COORDINATES (ANGSTROEM)
---------------------------------
  C      1.332293    0.000445   -0.001376
  C      0.743430    1.286673   -0.003988
  C     -0.609455    1.402684   -0.002979
  C     -1.421962    0.239547   -0.001073
  C     -0.837202   -1.047535   -0.003475
  C      0.519941   -1.159436   -0.002980
  H      0.981363   -2.139048   -0.003472
  H     -1.453556   -1.934042   -0.003818
  O     -2.710506    0.454381    0.002756
  C     -3.623701   -0.652444    0.002871
  H     -4.613681   -0.207568    0.005745
  H     -3.483507   -1.252417   -0.895724
  H     -3.480022   -1.256025    0.898619
  H     -1.092113    2.370981   -0.002747
  H      1.370248    2.168593   -0.007058
  S      3.023305   -0.233058    0.006455
  H      3.380219    1.070848    0.012331

 Total Charge           Charge          ....    1
 Multiplicity           Mult            ....    2
 Number of Electrons    NEL             ....   73
 Basis Dimension        Dim             ....  602

ORBITAL ENERGIES
----------------
                 SPIN UP ORBITALS
  NO   OCC          E(Eh)            E(eV)
   0   1.0000     -89.124453     -2425.1997
   1   1.0000     -19.308058      -525.3990
   2   1.0000     -10.354175      -281.7514
   3   1.0000     -10.329540      -281.0811
   4   1.0000     -10.286658      -279.9142
   5   1.0000     -10.282448      -279.7996
   6   1.0000     -10.278133      -279.6822
   7   1.0000     -10.272809      -279.5374
   8   1.0000     -10.272627      -279.5324
   9   1.0000      -8.082036      -219.9234
  10   1.0000      -6.018027      -163.7589
  11   1.0000      -6.016127      -163.7071
  12   1.0000      -6.014058      -163.6508
  13   1.0000      -1.168825       -31.8054
  14   1.0000      -0.947462       -25.7817
  15   1.0000      -0.871867       -23.7247
  16   1.0000      -0.829228       -22.5644
  17   1.0000      -0.795079       -21.6352
  18   1.0000      -0.738458       -20.0945
  19   1.0000      -0.680422       -18.5152
  20   1.0000      -0.646370       -17.5886
  21   1.0000      -0.591947       -16.1077
  22   1.0000      -0.560677       -15.2568
  23   1.0000      -0.532799       -14.4982
  24   1.0000      -0.532700       -14.4955
  25   1.0000      -0.494589       -13.4584
  26   1.0000      -0.482837       -13.1387
  27   1.0000      -0.471290       -12.8245
  28   1.0000      -0.452718       -12.3191
  29   1.0000      -0.444890       -12.1061
  30   1.0000      -0.414229       -11.2717
  31   1.0000      -0.408126       -11.1057
  32   1.0000      -0.402766       -10.9598
  33   1.0000      -0.377089       -10.2611
  34   1.0000      -0.347025        -9.4430
  35   1.0000      -0.320156        -8.7119
  36   1.0000      -0.266493        -7.2516
  37   0.0000      -0.056136        -1.5275
  38   0.0000      -0.048988        -1.3330
  39   0.0000      -0.017077        -0.4647
  40   0.0000       0.001860         0.0506
  41   0.0000       0.005835         0.1588

                 SPIN DOWN ORBITALS
  NO   OCC          E(Eh)            E(eV)
   0   1.0000     -89.122614     -2425.1496
   1   1.0000     -19.303132      -525.2649
   2   1.0000     -10.351303      -281.6733
   3   1.0000     -10.325563      -280.9729
   4   1.0000     -10.286831      -279.9189
   5   1.0000     -10.281738      -279.7803
   6   1.0000     -10.278107      -279.6815
   7   1.0000     -10.272012      -279.5156
   8   1.0000     -10.271774      -279.5092
   9   1.0000      -8.080136      -219.8717
  10   1.0000      -6.016954      -163.7296
  11   1.0000      -6.013073      -163.6240
  12   1.0000      -6.009572      -163.5288
  13   1.0000      -1.159488       -31.5513
  14   1.0000      -0.939837       -25.5743
  15   1.0000      -0.863162       -23.4878
  16   1.0000      -0.827034       -22.5047
  17   1.0000      -0.790157       -21.5013
  18   1.0000      -0.729596       -19.8533
  19   1.0000      -0.675981       -18.3944
  20   1.0000      -0.641562       -17.4578
  21   1.0000      -0.589174       -16.0322
  22   1.0000      -0.558673       -15.2023
  23   1.0000      -0.529234       -14.4012
  24   1.0000      -0.514588       -14.0027
  25   1.0000      -0.492025       -13.3887
  26   1.0000      -0.481801       -13.1105
  27   1.0000      -0.468879       -12.7588
  28   1.0000      -0.442996       -12.0545
  29   1.0000      -0.434635       -11.8270
  30   1.0000      -0.412433       -11.2229
  31   1.0000      -0.397967       -10.8292
  32   1.0000      -0.388272       -10.5654
  33   1.0000      -0.374169       -10.1817
  34   1.0000      -0.317137        -8.6297
  35   1.0000      -0.313426        -8.5288
  36   0.0000      -0.182837        -4.9753
  37   0.0000      -0.038197        -1.0394
  38   0.0000      -0.028169        -0.7665
  39   0.0000      -0.015226        -0.4143
  40   0.0000       0.003022         0.0822

MULLIKEN ATOMIC CHARGES AND SPIN POPULATIONS
--------------------------------------------
   0 C :    0.578024    0.191476
   1 C :   -0.668986   -0.008240
   2 C :   -0.834334    0.047202
   3 C :    1.039509    0.175053
   4 C :   -0.377865    0.030618
   5 C :   -0.805177    0.049585
   6 H :    0.608398   -0.002822
   7 H :    0.604703    0.012901
   8 O :   -0.560319    0.158440
   9 C :   -0.730213   -0.012688
  10 H :    0.280537    0.001096
  11 H :    0.338461    0.006684
  12 H :    0.338117    0.006703
  13 H :    0.686132    0.004875
  14 H :    0.559956    0.001028
  15 S :   -0.238732    0.365214
  16 H :    0.181789   -0.027124
Sum of atomic charges         :    1.0000000

LOEWDIN ATOMIC CHARGES AND SPIN POPULATIONS
-------------------------------------------
   0 C :   -0.545629    0.166524
   1 C :    0.177184    0.044395
   2 C :    0.262726    0.063593
   3 C :   -0.348317    0.132282
   4 C :    0.263959    0.061755
   5 C :    0.163167    0.061044
   6 H :   -0.161725    0.003656
   7 H :   -0.165874    0.005928
   8 O :    0.658394    0.142470
   9 C :    0.430400    0.013993
  10 H :   -0.161124   -0.000400
  11 H :   -0.153024    0.003528
  12 H :   -0.152827    0.003520
  13 H :   -0.145717    0.006768
  14 H :   -0.164807    0.000049
  15 S :    1.508766    0.253171
  16 H :   -0.465551    0.037724

  Mayer bond orders larger than 0.100000
B(  0-C ,  1-C ) :   0.9755 B(  0-C ,  5-C ) :   1.1617 B(  0-C , 15-S ) :   0.7813
B(  1-C ,  2-C ) :   1.6853 B(  1-C ,  3-C ) :  -0.2688 B(  1-C , 13-H ) :   0.1037
B(  1-C , 14-H ) :   0.4477 B(  2-C ,  3-C ) :   0.7554 B(  2-C ,  4-C ) :   0.1016
B(  2-C ,  8-O ) :   0.2824 B(  2-C , 13-H ) :   0.1560 B(  3-C ,  4-C ) :   0.9871
B(  3-C ,  5-C ) :  -0.2513 B(  3-C ,  8-O ) :   0.6345 B(  4-C ,  5-C ) :   1.2976
B(  4-C ,  7-H ) :   0.2675 B(  4-C ,  8-O ) :  -0.1170 B(  5-C ,  6-H ) :   0.4524
B(  8-O ,  9-C ) :   0.9671 B(  9-C , 10-H ) :   0.9557 B(  9-C , 11-H ) :   0.8563
B(  9-C , 12-H ) :   0.8564 B( 15-S , 16-H ) :   1.0172

Dispersion correction           -0.016120939
FINAL SINGLE POINT ENERGY      -744.385586019153

DIPOLE MOMENT
-------------

Method             : SCF
Type of density    : Electron Density
Multiplicity       :   2
Irrep              :   0
Energy             :  -744.3694650796791166 Eh
Relativity type    :
Basis              : AO
                                X                 Y                 Z
Electronic contribution:      7.676682502       0.921404723       0.001619560
Nuclear contribution   :     -7.909103735      -1.062936611      -0.001788223
                        -----------------------------------------
Total Dipole Moment    :     -0.232421232      -0.141531888      -0.000168663
                        -----------------------------------------
Magnitude (a.u.)       :      0.272123011
Magnitude (Debye)      :      0.691681724

VIBRATIONAL FREQUENCIES
-----------------------

Scaling factor for frequencies =  1.000000000  (already applied!)

     0:       0.00 cm**-1
     1:       0.00 cm**-1
     2:       0.00 cm**-1
     3:       0.00 cm**-1
     4:       0.00 cm**-1
     5:       0.00 cm**-1
     6:      57.99 cm**-1
     7:     135.65 cm**-1
     8:     159.86 cm**-1
     9:     196.14 cm**-1
    10:     290.51 cm**-1
    11:     292.58 cm**-1
    12:     337.01 cm**-1
    13:     361.51 cm**-1
    14:     406.44 cm**-1
    15:     502.82 cm**-1
    16:     505.49 cm**-1
    17:     603.58 cm**-1
    18:     659.19 cm**-1
    19:     733.01 cm**-1
    20:     785.72 cm**-1
    21:     818.92 cm**-1
    22:     852.23 cm**-1
    23:     928.90 cm**-1
    24:     986.52 cm**-1
    25:     990.70 cm**-1
    26:     997.01 cm**-1
    27:    1029.37 cm**-1
    28:    1132.32 cm**-1
    29:    1151.39 cm**-1
    30:    1165.64 cm**-1
    31:    1191.81 cm**-1
    32:    1200.92 cm**-1
    33:    1312.02 cm**-1
    34:    1361.16 cm**-1
    35:    1376.72 cm**-1
    36:    1447.74 cm**-1
    37:    1465.87 cm**-1
    38:    1468.74 cm**-1
    39:    1512.56 cm**-1
    40:    1528.13 cm**-1
    41:    1532.96 cm**-1
    42:    1675.88 cm**-1
    43:    2639.42 cm**-1
    44:    3068.98 cm**-1
    45:    3158.56 cm**-1
    46:    3196.85 cm**-1
    47:    3208.15 cm**-1
    48:    3213.58 cm**-1
    49:    3228.92 cm**-1
    50:    3244.35 cm**-1

IR SPECTRUM
-----------

 Mode   freq       eps      Int      T**2         TX        TY        TZ
       cm**-1   L/(mol*cm) km/mol    a.u.
----------------------------------------------------------------------------
  6:     57.99   0.000144    0.73  0.000775  ( 0.000744 -0.000023 -0.027820)
  7:    135.65   0.001189    6.01  0.002734  (-0.002829 -0.000140  0.052213)
  8:    159.86   0.000357    1.80  0.000696  (-0.002163  0.000826 -0.026285)
  9:    196.14   0.001592    8.05  0.002533  (-0.049761  0.007543 -0.000213)
 10:    290.51   0.001351    6.83  0.001451  ( 0.001914 -0.000371  0.038046)
 11:    292.58   0.000264    1.33  0.000281  ( 0.014011 -0.008683 -0.003126)
 12:    337.01   0.003995   20.19  0.003699  ( 0.001117  0.000543 -0.060806)
 13:    361.51   0.000273    1.38  0.000235  (-0.013320 -0.007527 -0.001171)
 14:    406.44   0.002207   11.15  0.001694  (-0.000816  0.000436  0.041151)
 15:    502.82   0.005650   28.55  0.003506  ( 0.000114 -0.000351  0.059215)
 16:    505.49   0.001273    6.43  0.000786  (-0.027000  0.007254  0.002063)
 17:    603.58   0.000087    0.44  0.000045  (-0.002901  0.006029  0.000092)
 18:    659.19   0.023539  118.95  0.011143  (-0.104331  0.016075  0.000068)
 19:    733.01   0.000168    0.85  0.000072  (-0.000383 -0.000304 -0.008446)
 20:    785.72   0.000017    0.08  0.000007  (-0.000471  0.000301 -0.002522)
 21:    818.92   0.001776    8.98  0.000677  (-0.022616 -0.012835 -0.000733)
 22:    852.23   0.022558  114.00  0.008260  (-0.000969  0.000158  0.090880)
 23:    928.90   0.006344   32.06  0.002131  (-0.038215 -0.025896  0.000426)
 24:    986.52   0.000008    0.04  0.000002  (-0.000835  0.000310 -0.001300)
 25:    990.70   0.000031    0.15  0.000010  ( 0.000587 -0.002029 -0.002271)
 26:    997.01   0.004004   20.23  0.001253  (-0.034006  0.009841 -0.000146)
 27:   1029.37   0.025925  131.02  0.007860  (-0.076496 -0.044809 -0.000026)
 28:   1132.32   0.003643   18.41  0.001004  ( 0.000437 -0.031682  0.000124)
 29:   1151.39   0.012048   60.89  0.003265  ( 0.056525 -0.008385  0.000262)
 30:   1165.64   0.000077    0.39  0.000020  (-0.001354  0.000438 -0.004297)
 31:   1191.81   0.022107  111.72  0.005789  (-0.075746 -0.007150 -0.000216)
 32:   1200.92   0.000750    3.79  0.000195  ( 0.013951 -0.000549  0.000167)
 33:   1312.02   0.001383    6.99  0.000329  ( 0.004080  0.017674 -0.000120)
 34:   1361.16   0.017657   89.23  0.004048  ( 0.062039  0.014117 -0.000067)
 35:   1376.72   0.072804  367.92  0.016503  ( 0.128442  0.002298 -0.000054)
 36:   1447.74   0.051146  258.47  0.011025  ( 0.102059 -0.024669 -0.000298)
 37:   1465.87   0.005343   27.00  0.001137  (-0.014176 -0.000605 -0.030595)
 38:   1468.74   0.014185   71.69  0.003014  (-0.054155 -0.003989  0.008079)
 39:   1512.56   0.018715   94.58  0.003861  ( 0.058392  0.021247  0.000018)
 40:   1528.13   0.049189  248.58  0.010045  (-0.097869  0.021603 -0.000036)
 41:   1532.96   0.109793  554.85  0.022351  ( 0.149464  0.003329 -0.000056)
 42:   1675.88   0.026943  136.16  0.005017  (-0.070820 -0.001264  0.000172)
 43:   2639.42   0.027441  138.67  0.003244  ( 0.049354  0.028433  0.000340)
 44:   3068.98   0.006338   32.03  0.000645  ( 0.022740  0.011283  0.000262)
 45:   3158.56   0.001557    7.87  0.000154  ( 0.000553  0.000423  0.012382)
 46:   3196.85   0.002497   12.62  0.000244  (-0.015348  0.002864  0.000085)
 47:   3208.15   0.000291    1.47  0.000028  ( 0.000016  0.005322 -0.000030)
 48:   3213.58   0.000014    0.07  0.000001  (-0.000135 -0.001114  0.000284)
 49:   3228.92   0.000859    4.34  0.000083  ( 0.002569  0.008742  0.000016)
 50:   3244.35   0.001136    5.74  0.000109  ( 0.000032  0.010452  0.000052)

--------------------------
THERMOCHEMISTRY AT 298.15K
--------------------------

Temperature         ...   298.15 K
Pressure            ...     1.00 atm
Total Mass          ...   140.20 AMU
Quasi RRHO          ...     True
Cut-Off Frequency   ...     1.00 cm^-1

Throughout the following assumptions are being made:
  (1) The electronic state is orbitally nondegenerate
      but the spin degeneracy is treated
  (2) There are no thermally accessible electronically excited states
  (3) Hindered rotations indicated by low frequency modes are not
      treated as such but are treated as vibrations and this may
      cause some error
  (4) All equations used are the standard statistical mechanics
      equations for an ideal gas
  (5) All vibrations are strictly harmonic

freq.      57.99  E(vib)   ...       0.51
freq.     135.65  E(vib)   ...       0.42
freq.     159.86  E(vib)   ...       0.39
freq.     196.14  E(vib)   ...       0.36
freq.     290.51  E(vib)   ...       0.27
freq.     292.58  E(vib)   ...       0.27
freq.     337.01  E(vib)   ...       0.24
freq.     361.51  E(vib)   ...       0.22
freq.     406.44  E(vib)   ...       0.19
freq.     502.82  E(vib)   ...       0.14
freq.     505.49  E(vib)   ...       0.14
freq.     603.58  E(vib)   ...       0.10
freq.     659.19  E(vib)   ...       0.08
freq.     733.01  E(vib)   ...       0.06
freq.     785.72  E(vib)   ...       0.05
freq.     818.92  E(vib)   ...       0.05
freq.     852.23  E(vib)   ...       0.04
freq.     928.90  E(vib)   ...       0.03
freq.     986.52  E(vib)   ...       0.02
freq.     990.70  E(vib)   ...       0.02
freq.     997.01  E(vib)   ...       0.02
freq.    1029.37  E(vib)   ...       0.02
freq.    1132.32  E(vib)   ...       0.01
freq.    1151.39  E(vib)   ...       0.01
freq.    1165.64  E(vib)   ...       0.01
freq.    1191.81  E(vib)   ...       0.01
freq.    1200.92  E(vib)   ...       0.01
freq.    1312.02  E(vib)   ...       0.01
freq.    1361.16  E(vib)   ...       0.01
freq.    1376.72  E(vib)   ...       0.01
freq.    1447.74  E(vib)   ...       0.00
freq.    1465.87  E(vib)   ...       0.00
freq.    1468.74  E(vib)   ...       0.00
freq.    1512.56  E(vib)   ...       0.00
freq.    1528.13  E(vib)   ...       0.00
freq.    1532.96  E(vib)   ...       0.00
freq.    1675.88  E(vib)   ...       0.00
freq.    2639.42  E(vib)   ...       0.00
freq.    3068.98  E(vib)   ...       0.00
freq.    3158.56  E(vib)   ...       0.00
freq.    3196.85  E(vib)   ...       0.00
freq.    3208.15  E(vib)   ...       0.00
freq.    3213.58  E(vib)   ...       0.00
freq.    3228.92  E(vib)   ...       0.00
freq.    3244.35  E(vib)   ...       0.00

------------
INNER ENERGY
------------

The inner energy is: U= E(el) + E(ZPE) + E(vib) + E(rot) + E(trans)
    E(el)   - is the total energy from the electronic structure calculation
              = E(kin-el) + E(nuc-el) + E(el-el) + E(nuc-nuc)
    E(ZPE)  - the the zero temperature vibrational energy from the frequency calculation
    E(vib)  - the the finite temperature correction to E(ZPE) due to population
              of excited vibrational states
    E(rot)  - is the rotational thermal energy
    E(trans)- is the translational thermal energy

Summary of contributions to the inner energy U:
Electronic energy                ...   -744.38558602 Eh
Zero point energy                ...      0.13239305 Eh      83.08 kcal/mol
Thermal vibrational correction   ...      0.00597220 Eh       3.75 kcal/mol
Thermal rotational correction    ...      0.00141627 Eh       0.89 kcal/mol
Thermal translational correction ...      0.00141627 Eh       0.89 kcal/mol
-----------------------------------------------------------------------
Total thermal energy                   -744.24438823 Eh

Summary of corrections to the electronic energy:
(perhaps to be used in another calculation)
Total thermal correction                  0.00880474 Eh       5.53 kcal/mol
Non-thermal (ZPE) correction              0.13239305 Eh      83.08 kcal/mol
-----------------------------------------------------------------------
Total correction                          0.14119779 Eh      88.60 kcal/mol

--------
ENTHALPY
--------

The enthalpy is H = U + kB*T
                kB is Boltzmann's constant
Total thermal energy              ...   -744.24438823 Eh
Thermal Enthalpy correction       ...      0.00094421 Eh       0.59 kcal/mol
-----------------------------------------------------------------------
Total Enthalpy                    ...   -744.24344402 Eh

Note: Only C1 symmetry has been detected, increase convergence thresholds
      if your molecule has a higher symmetry. Symmetry factor of 1.0 is
      used for the rotational entropy correction.

Note: Rotational entropy computed according to Herzberg
Infrared and Raman Spectra, Chapter V,1, Van Nostrand Reinhold, 1945
Point Group:  C1, Symmetry Number:   1
Rotational constants in cm-1:     0.155412     0.024018     0.020886

Vibrational entropy computed according to the QRRHO of S. Grimme
Chem.Eur.J. 2012 18 9955 using a reference frequency of 100.0 cm-1

-------
ENTROPY
-------

The entropy contributions are T*S = T*(S(el)+S(vib)+S(rot)+S(trans))
     S(el)   - electronic entropy
     S(vib)  - vibrational entropy
     S(rot)  - rotational entropy
     S(trans)- translational entropy
The entropies will be listed as multiplied by the temperature to get
units of energy

Electronic entropy                ...      0.00065446 Eh      0.41 kcal/mol
Vibrational entropy               ...      0.01000825 Eh      6.28 kcal/mol
Rotational entropy                ...      0.01397645 Eh      8.77 kcal/mol
Translational entropy             ...      0.01934980 Eh     12.14 kcal/mol
-----------------------------------------------------------------------
Final entropy term                ...      0.04398896 Eh     27.60 kcal/mol

In case the symmetry of your molecule has not been determined correctly
or in case you have a reason to use a different symmetry number we print
out the resulting rotational entropy values for sn=1,12:

 non-linear molecules -----------------------------------
|  sn= 1 | S(rot)=       0.01397645 Eh      8.77 kcal/mol|
|  sn= 2 | S(rot)=       0.01332200 Eh      8.36 kcal/mol|
|  sn= 3 | S(rot)=       0.01293916 Eh      8.12 kcal/mol|
|  sn= 4 | S(rot)=       0.01266754 Eh      7.95 kcal/mol|
|  sn= 5 | S(rot)=       0.01245685 Eh      7.82 kcal/mol|
|  sn= 6 | S(rot)=       0.01228471 Eh      7.71 kcal/mol|
|  sn= 7 | S(rot)=       0.01213916 Eh      7.62 kcal/mol|
|  sn= 8 | S(rot)=       0.01201308 Eh      7.54 kcal/mol|
|  sn= 9 | S(rot)=       0.01190188 Eh      7.47 kcal/mol|
|  sn=10 | S(rot)=       0.01180240 Eh      7.41 kcal/mol|
|  sn=11 | S(rot)=       0.01171241 Eh      7.35 kcal/mol|
|  sn=12 | S(rot)=       0.01163025 Eh      7.30 kcal/mol|
 linear molecules ---------------------------------------
|  Dinfh | S(rot)=       0.00897851 Eh      5.63 kcal/mol|

                             ****ORCA TERMINATED NORMALLY****
TOTAL RUN TIME: 0 days 1 hours 0 minutes 1 seconds 226 msec
