                         Program Version 6.0.0  -   RELEASE  -
|  1> !B3LYP aug-cc-pVTZ d3 TightSCF SlowConv RIJCOSX defgrid2
|  2>
|  3> %pal
|  4> nprocs 4
|  5> end
|  6>
|  7> %scf
|  8> MaxIter 1500
|  9> end
| 10>
| 11> %maxcore 3000
| 12>
| 13> !CPCM
| 14> %cpcm smd true
| 15> SMDsolvent "MeCN"
| 16> surfacetype gepol_ses
| 17> rsolv 2.19
| 18> end
| 19>
| 20> * xyz 0 1
| 21> C          -0.45962349392076      1.19930168964946      0.00062202556794
| 22> C           0.93187577371451      1.21292315738455      0.00021003045593
| 23> C           1.62461355579551      0.00264447710890     -0.00023259743760
| 24> C           0.94147031950354     -1.21572927971146     -0.00024754015947
| 25> C          -0.44629067380136     -1.21277951487668      0.00019404075702
| 26> C          -1.16457141606032     -0.01003943569872      0.00066278241731
| 27> C          -2.65943474979432     -0.08619562751851      0.00125896770752
| 28> O          -3.21849789447990     -1.16065283026292     -0.00068065256956
| 29> C          -3.44514706371262      1.20360842703596     -0.00042582391608
| 30> H          -3.20900994320141      1.81348807306859      0.88908099447108
| 31> H          -3.20722570566812      1.81245947226407     -0.89017014718689
| 32> H          -4.51791848417965      0.96213295731483     -0.00129821423503
| 33> H          -1.01178782473404     -2.14828242074604      0.00023169281017
| 34> H           1.50422972929259     -2.15194601130068     -0.00059587432262
| 35> Cl          3.35241439280556      0.01090662049481     -0.00078466924471
| 36> H           1.48532961925900      2.15441464352816      0.00021462148241
| 37> H          -0.99337054081820      2.15308200226567      0.00096246340259
| 38> *
| 39>
| 40>                          ****END OF INPUT****

CARTESIAN COORDINATES (ANGSTROEM)
---------------------------------
  C     -0.459623    1.199302    0.000622
  C      0.931876    1.212923    0.000210
  C      1.624614    0.002644   -0.000233
  C      0.941470   -1.215729   -0.000248
  C     -0.446291   -1.212780    0.000194
  C     -1.164571   -0.010039    0.000663
  C     -2.659435   -0.086196    0.001259
  O     -3.218498   -1.160653   -0.000681
  C     -3.445147    1.203608   -0.000426
  H     -3.209010    1.813488    0.889081
  H     -3.207226    1.812459   -0.890170
  H     -4.517918    0.962133   -0.001298
  H     -1.011788   -2.148282    0.000232
  H      1.504230   -2.151946   -0.000596
  Cl     3.352414    0.010907   -0.000785
  H      1.485330    2.154415    0.000215
  H     -0.993371    2.153082    0.000962

 Total Charge           Charge          ....    0
 Multiplicity           Mult            ....    1
 Number of Electrons    NEL             ....   80
 Basis Dimension        Dim             ....  625

ORBITAL ENERGIES
----------------

  NO   OCC          E(Eh)            E(eV)
   0   2.0000    -101.571164     -2763.8919
   1   2.0000     -19.119123      -520.2578
   2   2.0000     -10.265788      -279.3463
   3   2.0000     -10.247924      -278.8602
   4   2.0000     -10.194455      -277.4052
   5   2.0000     -10.192255      -277.3453
   6   2.0000     -10.192151      -277.3425
   7   2.0000     -10.191808      -277.3332
   8   2.0000     -10.190404      -277.2950
   9   2.0000     -10.167560      -276.6734
  10   2.0000      -9.475915      -257.8528
  11   2.0000      -7.238654      -196.9738
  12   2.0000      -7.230619      -196.7552
  13   2.0000      -7.230071      -196.7402
  14   2.0000      -1.050005       -28.5721
  15   2.0000      -0.902602       -24.5611
  16   2.0000      -0.848782       -23.0965
  17   2.0000      -0.766860       -20.8673
  18   2.0000      -0.759625       -20.6705
  19   2.0000      -0.722168       -19.6512
  20   2.0000      -0.625946       -17.0329
  21   2.0000      -0.619719       -16.8634
  22   2.0000      -0.556845       -15.1525
  23   2.0000      -0.508854       -13.8466
  24   2.0000      -0.484078       -13.1724
  25   2.0000      -0.465820       -12.6756
  26   2.0000      -0.450699       -12.2641
  27   2.0000      -0.442457       -12.0399
  28   2.0000      -0.433358       -11.7923
  29   2.0000      -0.426923       -11.6172
  30   2.0000      -0.405078       -11.0227
  31   2.0000      -0.393974       -10.7206
  32   2.0000      -0.373385       -10.1603
  33   2.0000      -0.367488        -9.9999
  34   2.0000      -0.358777        -9.7628
  35   2.0000      -0.339572        -9.2402
  36   2.0000      -0.322089        -8.7645
  37   2.0000      -0.271701        -7.3933
  38   2.0000      -0.260282        -7.0826
  39   2.0000      -0.256247        -6.9728
  40   0.0000      -0.067082        -1.8254
  41   0.0000      -0.027346        -0.7441
  42   0.0000      -0.005071        -0.1380
  43   0.0000       0.005466         0.1487
  44   0.0000       0.012411         0.3377

MULLIKEN ATOMIC CHARGES
-----------------------
   0 C :   -0.323681
   1 C :   -0.848600
   2 C :    0.466777
   3 C :   -0.680231
   4 C :   -0.871990
   5 C :    1.500800
   6 C :    0.600617
   7 O :   -0.908041
   8 C :   -0.589632
   9 H :    0.249478
  10 H :    0.250136
  11 H :    0.166022
  12 H :    0.270708
  13 H :    0.460452
  14 Cl:   -0.377231
  15 H :    0.430534
  16 H :    0.203881
Sum of atomic charges:   -0.0000000

LOEWDIN ATOMIC CHARGES
----------------------
   0 C :    0.201748
   1 C :    0.120586
   2 C :   -0.793706
   3 C :    0.117871
   4 C :    0.187008
   5 C :   -0.131580
   6 C :   -0.547953
   7 O :    0.488422
   8 C :    0.562601
   9 H :   -0.154552
  10 H :   -0.154498
  11 H :   -0.174964
  12 H :   -0.181108
  13 H :   -0.183253
  14 Cl:    0.993286
  15 H :   -0.182068
  16 H :   -0.167842

  Mayer bond orders larger than 0.100000
B(  0-C ,  1-C ) :   1.0176 B(  0-C ,  4-C ) :  -0.3329 B(  0-C ,  5-C ) :   0.4838
B(  0-C , 16-H ) :   1.1096 B(  1-C ,  2-C ) :   1.2494 B(  1-C ,  3-C ) :   0.1409
B(  1-C , 14-Cl) :   0.1038 B(  1-C , 15-H ) :   0.6676 B(  2-C ,  3-C ) :   1.2289
B(  2-C ,  4-C ) :  -0.1029 B(  2-C , 14-Cl) :   0.5323 B(  3-C ,  4-C ) :   1.3569
B(  3-C ,  5-C ) :  -0.1014 B(  3-C , 13-H ) :   0.6573 B(  3-C , 14-Cl) :   0.1113
B(  4-C ,  5-C ) :   0.3901 B(  4-C ,  6-C ) :   0.2876 B(  4-C , 12-H ) :   0.8989
B(  5-C ,  6-C ) :   0.2305 B(  5-C ,  7-O ) :   0.1430 B(  5-C , 16-H ) :  -0.1194
B(  6-C ,  7-O ) :   0.9125 B(  6-C ,  8-C ) :   0.9458 B(  8-C ,  9-H ) :   0.9565
B(  8-C , 10-H ) :   0.9553 B(  8-C , 11-H ) :   0.9760

Dispersion correction           -0.033637674
FINAL SINGLE POINT ENERGY      -844.420476890432

DIPOLE MOMENT
-------------

Method             : SCF
Type of density    : Electron Density
Multiplicity       :   1
Irrep              :   0
Energy             :  -844.3868392163573162 Eh
Relativity type    :
Basis              : AO
                                X                 Y                 Z
Electronic contribution:     14.092143806      -2.949394837       0.001192300
Nuclear contribution   :    -13.920982286       4.293464133       0.000100521
                        -----------------------------------------
Total Dipole Moment    :      0.171161520       1.344069296       0.001292821
                        -----------------------------------------
Magnitude (a.u.)       :      1.354924429
Magnitude (Debye)      :      3.443944204

Rotational constants in cm-1:             0.122841             0.018421             0.016068
Rotational constants in MHz :          3682.693671           552.250394           481.695849

                             ****ORCA TERMINATED NORMALLY****
TOTAL RUN TIME: 0 days 0 hours 4 minutes 42 seconds 580 msec
