                         Program Version 6.0.0  -   RELEASE  -
|  1> !B3LYP aug-cc-pVTZ d3 TightSCF SlowConv RIJCOSX defgrid2
|  2>
|  3> %pal
|  4> nprocs 4
|  5> end
|  6>
|  7> %scf
|  8> MaxIter 1500
|  9> end
| 10>
| 11> %maxcore 3000
| 12>
| 13> !CPCM
| 14> %cpcm smd true
| 15> SMDsolvent "MeCN"
| 16> surfacetype gepol_ses
| 17> rsolv 2.19
| 18> end
| 19>
| 20> * xyz 0 1
| 21>   C           1.35661311001034      0.08242353673381     -0.04830147992154
| 22>   C           0.72528734400678      1.33237499260851      0.02931980589731
| 23>   C          -0.65716684626784      1.42571283843268      0.04302512633637
| 24>   C          -1.44754625606451      0.26653460954742      0.00874339988909
| 25>   C          -0.82552870874395     -0.98502153376474     -0.04770168852446
| 26>   C           0.56772235704198     -1.06633130194090     -0.08313298846277
| 27>   H           1.05006188676245     -2.04577688056741     -0.14354433447971
| 28>   H          -1.41135553820799     -1.90566385705075     -0.07389044457674
| 29>   O          -2.78063858244739      0.45554290336633      0.03645550634804
| 30>   C          -3.62283453444167     -0.66142074230683      0.01078196288993
| 31>   H          -4.65283077190408     -0.27592428677814      0.04102787975267
| 32>   H          -3.48787720923621     -1.25466269618222     -0.91406269819965
| 33>   H          -3.45860421924221     -1.31813897835911      0.88673287617431
| 34>   H          -1.16047233306293      2.39441311771435      0.09515969980486
| 35>   H           1.33361129819119      2.23967992641979      0.08145593960365
| 36>   S           3.13145786803727     -0.06127748319567     -0.01892864657318
| 37>   H           3.36519883556877      0.49010163532289     -1.23773021595817
| 38> *
| 39>
| 40>                          ****END OF INPUT****

CARTESIAN COORDINATES (ANGSTROEM)
---------------------------------
  C      1.356613    0.082424   -0.048301
  C      0.725287    1.332375    0.029320
  C     -0.657167    1.425713    0.043025
  C     -1.447546    0.266535    0.008743
  C     -0.825529   -0.985022   -0.047702
  C      0.567722   -1.066331   -0.083133
  H      1.050062   -2.045777   -0.143544
  H     -1.411356   -1.905664   -0.073890
  O     -2.780639    0.455543    0.036456
  C     -3.622835   -0.661421    0.010782
  H     -4.652831   -0.275924    0.041028
  H     -3.487877   -1.254663   -0.914063
  H     -3.458604   -1.318139    0.886733
  H     -1.160472    2.394413    0.095160
  H      1.333611    2.239680    0.081456
  S      3.131458   -0.061277   -0.018929
  H      3.365199    0.490102   -1.237730

 Total Charge           Charge          ....    0
 Multiplicity           Mult            ....    1
 Number of Electrons    NEL             ....   74
 Basis Dimension        Dim             ....  602

ORBITAL ENERGIES
----------------

  NO   OCC          E(Eh)            E(eV)
   0   2.0000     -88.889225     -2418.7988
   1   2.0000     -19.163911      -521.4765
   2   2.0000     -10.241116      -278.6749
   3   2.0000     -10.215818      -277.9865
   4   2.0000     -10.203934      -277.6632
   5   2.0000     -10.184257      -277.1277
   6   2.0000     -10.184047      -277.1220
   7   2.0000     -10.177660      -276.9482
   8   2.0000     -10.177059      -276.9319
   9   2.0000      -7.940878      -216.0823
  10   2.0000      -5.905010      -160.6835
  11   2.0000      -5.901707      -160.5936
  12   2.0000      -5.896999      -160.4655
  13   2.0000      -1.079846       -29.3841
  14   2.0000      -0.864324       -23.5194
  15   2.0000      -0.785470       -21.3737
  16   2.0000      -0.754303       -20.5256
  17   2.0000      -0.723468       -19.6866
  18   2.0000      -0.672725       -18.3058
  19   2.0000      -0.615250       -16.7418
  20   2.0000      -0.581722       -15.8295
  21   2.0000      -0.535758       -14.5787
  22   2.0000      -0.491308       -13.3692
  23   2.0000      -0.470779       -12.8105
  24   2.0000      -0.469167       -12.7667
  25   2.0000      -0.444666       -12.1000
  26   2.0000      -0.424746       -11.5579
  27   2.0000      -0.416248       -11.3267
  28   2.0000      -0.405901       -11.0451
  29   2.0000      -0.378125       -10.2893
  30   2.0000      -0.361578        -9.8390
  31   2.0000      -0.347221        -9.4484
  32   2.0000      -0.328364        -8.9352
  33   2.0000      -0.320342        -8.7170
  34   2.0000      -0.263574        -7.1722
  35   2.0000      -0.256283        -6.9738
  36   2.0000      -0.223276        -6.0756
  37   0.0000      -0.022053        -0.6001
  38   0.0000      -0.018409        -0.5009
  39   0.0000      -0.005641        -0.1535
  40   0.0000       0.003595         0.0978
  41   0.0000       0.011992         0.3263

MULLIKEN ATOMIC CHARGES
-----------------------
   0 C :    0.642686
   1 C :   -0.633145
   2 C :   -0.865526
   3 C :    1.150331
   4 C :   -0.357659
   5 C :   -0.823816
   6 H :    0.401434
   7 H :    0.471119
   8 O :   -0.668695
   9 C :   -0.674141
  10 H :    0.251912
  11 H :    0.278084
  12 H :    0.277383
  13 H :    0.485182
  14 H :    0.422457
  15 S :   -0.438678
  16 H :    0.081073
Sum of atomic charges:    0.0000000

LOEWDIN ATOMIC CHARGES
----------------------
   0 C :   -0.598204
   1 C :    0.101670
   2 C :    0.191352
   3 C :   -0.406094
   4 C :    0.195512
   5 C :    0.099605
   6 H :   -0.188896
   7 H :   -0.186244
   8 O :    0.594301
   9 C :    0.315623
  10 H :   -0.167721
  11 H :   -0.158235
  12 H :   -0.158037
  13 H :   -0.168441
  14 H :   -0.183463
  15 S :    1.257160
  16 H :   -0.539888

  Mayer bond orders larger than 0.100000
B(  0-C ,  1-C ) :   1.0324 B(  0-C ,  5-C ) :   1.0448 B(  0-C , 15-S ) :   0.6929
B(  1-C ,  2-C ) :   1.2425 B(  1-C ,  3-C ) :  -0.3285 B(  1-C , 14-H ) :   0.8056
B(  2-C ,  3-C ) :   0.7145 B(  2-C ,  4-C ) :   0.1777 B(  2-C ,  8-O ) :   0.2948
B(  2-C , 13-H ) :   0.4873 B(  3-C ,  4-C ) :   1.0169 B(  3-C ,  5-C ) :  -0.2812
B(  3-C ,  8-O ) :   0.3508 B(  4-C ,  5-C ) :   1.0727 B(  4-C ,  7-H ) :   0.4215
B(  5-C ,  6-H ) :   0.8059 B(  6-H , 15-S ) :  -0.1152 B(  8-O ,  9-C ) :   1.0137
B(  9-C , 10-H ) :   0.9685 B(  9-C , 11-H ) :   0.9111 B(  9-C , 12-H ) :   0.9129
B( 14-H , 15-S ) :  -0.1281 B( 15-S , 16-H ) :   1.1003

Dispersion correction           -0.031489015
FINAL SINGLE POINT ENERGY      -744.892577842345

DIPOLE MOMENT
-------------

Method             : SCF
Type of density    : Electron Density
Multiplicity       :   1
Irrep              :   0
Energy             :  -744.8610888276759852 Eh
Relativity type    :
Basis              : AO
                                X                 Y                 Z
Electronic contribution:      6.907056807       1.614216956       0.693362406
Nuclear contribution   :     -8.061833988      -2.011071937      -1.060175110
                        -----------------------------------------
Total Dipole Moment    :     -1.154777181      -0.396854981      -0.366812704
                        -----------------------------------------
Magnitude (a.u.)       :      1.274972852
Magnitude (Debye)      :      3.240723447

Rotational constants in cm-1:             0.159819             0.022967             0.020233
Rotational constants in MHz :          4791.258551           688.540294           606.561125

                             ****ORCA TERMINATED NORMALLY****
TOTAL RUN TIME: 0 days 0 hours 3 minutes 42 seconds 42 msec
