                         Program Version 6.0.0  -   RELEASE  -
|  1> !PBE0 aug-cc-pVTZ d3 TightSCF SlowConv RIJCOSX defgrid2
|  2>
|  3> %pal
|  4> nprocs 4
|  5> end
|  6>
|  7> %scf
|  8> MaxIter 1500
|  9> end
| 10>
| 11> %maxcore 3000
| 12>
| 13> !CPCM
| 14> %cpcm smd true
| 15> SMDsolvent "MeCN"
| 16> surfacetype gepol_ses
| 17> rsolv 2.19
| 18> end
| 19>
| 20> * xyz 1 2
| 21> C           4.10305459754862      1.22314281313599      0.00027521208978
| 22> C           4.79422039490347      0.00010404925663      0.00001474520982
| 23> C           4.10316750393443     -1.22299872812941     -0.00027809333468
| 24> C           2.72290951060849     -1.23322125226980     -0.00030728966902
| 25> C           2.00889918594533     -0.00002719804681     -0.00003028315102
| 26> C           2.72279658019783      1.23323312421706      0.00025720757138
| 27> H           2.16604305248318      2.17317802213121      0.00045841677356
| 28> C           0.61901432200333     -0.00007429013767     -0.00003574573307
| 29> C          -0.61901896459109     -0.00007733941421     -0.00002817694639
| 30> C          -2.00890183862324     -0.00001737756946      0.00000366265820
| 31> C          -2.72291439835066     -1.23320607784155      0.00031293455070
| 32> C          -4.10317069141964     -1.22298169255025      0.00034320554116
| 33> C          -4.79421968584138      0.00012496763477      0.00007504669623
| 34> C          -4.10304842490867      1.22316147289229     -0.00022860923121
| 35> C          -2.72279167353165      1.23324700039037     -0.00027265723971
| 36> H          -2.16603414552242      2.17318982303946     -0.00050220004345
| 37> H          -4.65909006495211      2.16415224923801     -0.00043329601508
| 38> H          -5.88829015885600      0.00017960004272      0.00010113825142
| 39> H          -4.65930720000531     -2.16391674544739      0.00057854154628
| 40> H          -2.16624983163931     -2.17320454462336      0.00052121598527
| 41> H           2.16624496851568     -2.17322025060010     -0.00052876061055
| 42> H           4.65930013671208     -2.16393287374248     -0.00048580415313
| 43> H           5.88829198918564      0.00015431021773      0.00003862697270
| 44> H           4.65910043620338      2.16413103817623      0.00049636228080
| 45> *
| 46>
| 47>                          ****END OF INPUT****

CARTESIAN COORDINATES (ANGSTROEM)
---------------------------------
  C      4.103055    1.223143    0.000275
  C      4.794220    0.000104    0.000015
  C      4.103168   -1.222999   -0.000278
  C      2.722910   -1.233221   -0.000307
  C      2.008899   -0.000027   -0.000030
  C      2.722797    1.233233    0.000257
  H      2.166043    2.173178    0.000458
  C      0.619014   -0.000074   -0.000036
  C     -0.619019   -0.000077   -0.000028
  C     -2.008902   -0.000017    0.000004
  C     -2.722914   -1.233206    0.000313
  C     -4.103171   -1.222982    0.000343
  C     -4.794220    0.000125    0.000075
  C     -4.103048    1.223161   -0.000229
  C     -2.722792    1.233247   -0.000273
  H     -2.166034    2.173190   -0.000502
  H     -4.659090    2.164152   -0.000433
  H     -5.888290    0.000180    0.000101
  H     -4.659307   -2.163917    0.000579
  H     -2.166250   -2.173205    0.000521
  H      2.166245   -2.173220   -0.000529
  H      4.659300   -2.163933   -0.000486
  H      5.888292    0.000154    0.000039
  H      4.659100    2.164131    0.000496

 Total Charge           Charge          ....    1
 Multiplicity           Mult            ....    2
 Number of Electrons    NEL             ....   93
 Basis Dimension        Dim             ....  874

ORBITAL ENERGIES
----------------
                 SPIN UP ORBITALS
  NO   OCC          E(Eh)            E(eV)
   0   1.0000     -10.302237      -280.3381
   1   1.0000     -10.302227      -280.3379
   2   1.0000     -10.300229      -280.2835
   3   1.0000     -10.298231      -280.2291
   4   1.0000     -10.275957      -279.6230
   5   1.0000     -10.275944      -279.6227
   6   1.0000     -10.274564      -279.5851
   7   1.0000     -10.274547      -279.5846
   8   1.0000     -10.274544      -279.5846
   9   1.0000     -10.274538      -279.5844
  10   1.0000     -10.258765      -279.1552
  11   1.0000     -10.258756      -279.1549
  12   1.0000     -10.258748      -279.1547
  13   1.0000     -10.258739      -279.1545
  14   1.0000      -0.930371       -25.3167
  15   1.0000      -0.924103       -25.1461
  16   1.0000      -0.865138       -23.5416
  17   1.0000      -0.828771       -22.5520
  18   1.0000      -0.805265       -21.9124
  19   1.0000      -0.805060       -21.9068
  20   1.0000      -0.782217       -21.2852
  21   1.0000      -0.695256       -18.9189
  22   1.0000      -0.664690       -18.0871
  23   1.0000      -0.655662       -17.8415
  24   1.0000      -0.653800       -17.7908
  25   1.0000      -0.591420       -16.0933
  26   1.0000      -0.575670       -15.6648
  27   1.0000      -0.527792       -14.3620
  28   1.0000      -0.518562       -14.1108
  29   1.0000      -0.509257       -13.8576
  30   1.0000      -0.502955       -13.6861
  31   1.0000      -0.471875       -12.8404
  32   1.0000      -0.468202       -12.7404
  33   1.0000      -0.462803       -12.5935
  34   1.0000      -0.462445       -12.5838
  35   1.0000      -0.450186       -12.2502
  36   1.0000      -0.428335       -11.6556
  37   1.0000      -0.397657       -10.8208
  38   1.0000      -0.394777       -10.7424
  39   1.0000      -0.389636       -10.6025
  40   1.0000      -0.383084       -10.4242
  41   1.0000      -0.380876       -10.3642
  42   1.0000      -0.329646        -8.9701
  43   1.0000      -0.324010        -8.8168
  44   1.0000      -0.303010        -8.2453
  45   1.0000      -0.302842        -8.2408
  46   1.0000      -0.268729        -7.3125
  47   0.0000      -0.100755        -2.7417
  48   0.0000      -0.037877        -1.0307
  49   0.0000      -0.036240        -0.9861
  50   0.0000      -0.036131        -0.9832
  51   0.0000      -0.004806        -0.1308

                 SPIN DOWN ORBITALS
  NO   OCC          E(Eh)            E(eV)
   0   1.0000     -10.301603      -280.3209
   1   1.0000     -10.301597      -280.3207
   2   1.0000     -10.297513      -280.2096
   3   1.0000     -10.295559      -280.1564
   4   1.0000     -10.272837      -279.5381
   5   1.0000     -10.272821      -279.5377
   6   1.0000     -10.272819      -279.5376
   7   1.0000     -10.272813      -279.5375
   8   1.0000     -10.272721      -279.5350
   9   1.0000     -10.272704      -279.5345
  10   1.0000     -10.259729      -279.1814
  11   1.0000     -10.259720      -279.1812
  12   1.0000     -10.259709      -279.1809
  13   1.0000     -10.259701      -279.1806
  14   1.0000      -0.925356       -25.1802
  15   1.0000      -0.919915       -25.0322
  16   1.0000      -0.856793       -23.3145
  17   1.0000      -0.824359       -22.4320
  18   1.0000      -0.803659       -21.8687
  19   1.0000      -0.803469       -21.8635
  20   1.0000      -0.770453       -20.9651
  21   1.0000      -0.690775       -18.7969
  22   1.0000      -0.660648       -17.9771
  23   1.0000      -0.653438       -17.7809
  24   1.0000      -0.651521       -17.7288
  25   1.0000      -0.590079       -16.0569
  26   1.0000      -0.574694       -15.6382
  27   1.0000      -0.525182       -14.2909
  28   1.0000      -0.516405       -14.0521
  29   1.0000      -0.507770       -13.8171
  30   1.0000      -0.501511       -13.6468
  31   1.0000      -0.470326       -12.7982
  32   1.0000      -0.466581       -12.6963
  33   1.0000      -0.462439       -12.5836
  34   1.0000      -0.462109       -12.5746
  35   1.0000      -0.433170       -11.7871
  36   1.0000      -0.415740       -11.3129
  37   1.0000      -0.396439       -10.7877
  38   1.0000      -0.393765       -10.7149
  39   1.0000      -0.388346       -10.5674
  40   1.0000      -0.382055       -10.3963
  41   1.0000      -0.357238        -9.7209
  42   1.0000      -0.325653        -8.8615
  43   1.0000      -0.302730        -8.2377
  44   1.0000      -0.298670        -8.1272
  45   1.0000      -0.298593        -8.1251
  46   0.0000      -0.198243        -5.3945
  47   0.0000      -0.081703        -2.2233
  48   0.0000      -0.031064        -0.8453
  49   0.0000      -0.029109        -0.7921
  50   0.0000      -0.020629        -0.5613

MULLIKEN ATOMIC CHARGES AND SPIN POPULATIONS
--------------------------------------------
   0 C :   -0.831788   -0.056570
   1 C :   -0.047968    0.201018
   2 C :   -0.878080   -0.056685
   3 C :   -0.913961    0.090236
   4 C :    1.507589    0.061443
   5 C :   -0.969539    0.090588
   6 H :   -0.357968   -0.007169
   7 C :    1.344008    0.186770
   8 C :    1.274917    0.186055
   9 C :    1.554644    0.058806
  10 C :   -0.942239    0.091066
  11 C :   -0.969854   -0.054223
  12 C :   -0.057605    0.199563
  13 C :   -0.929459   -0.055273
  14 C :   -0.961031    0.091313
  15 H :   -0.411725   -0.006454
  16 H :    0.714771    0.002099
  17 H :    0.798747   -0.007486
  18 H :    0.760705    0.002876
  19 H :   -0.393533   -0.008089
  20 H :   -0.136664   -0.009700
  21 H :    0.589427    0.000996
  22 H :    0.585708   -0.001928
  23 H :    0.670897    0.000750
Sum of atomic charges         :    1.0000000

LOEWDIN ATOMIC CHARGES AND SPIN POPULATIONS
-------------------------------------------
   0 C :    0.239305    0.018761
   1 C :    0.249606    0.096617
   2 C :    0.239306    0.018762
   3 C :    0.240781    0.055931
   4 C :   -0.161690    0.076771
   5 C :    0.240772    0.055931
   6 H :   -0.140699    0.009859
   7 C :    0.175139    0.143500
   8 C :    0.175147    0.143509
   9 C :   -0.161723    0.076760
  10 C :    0.240759    0.055925
  11 C :    0.239268    0.018761
  12 C :    0.249597    0.096607
  13 C :    0.239285    0.018759
  14 C :    0.240753    0.055928
  15 H :   -0.140710    0.009859
  16 H :   -0.150266   -0.004544
  17 H :   -0.141198    0.023109
  18 H :   -0.150246   -0.004543
  19 H :   -0.140706    0.009858
  20 H :   -0.140635    0.009858
  21 H :   -0.150303   -0.004544
  22 H :   -0.141254    0.023113
  23 H :   -0.150288   -0.004544

  Mayer bond orders larger than 0.100000
B(  0-C ,  1-C ) :   1.3073 B(  0-C ,  2-C ) :   0.3949 B(  0-C ,  3-C ) :   0.1149
B(  0-C ,  4-C ) :   0.2694 B(  0-C ,  5-C ) :   1.3020 B(  0-C ,  7-C ) :   0.1056
B(  0-C ,  8-C ) :  -0.3342 B(  0-C , 11-C ) :   0.1178 B(  0-C , 16-H ) :  -0.1396
B(  0-C , 17-H ) :   0.1190 B(  0-C , 23-H ) :   0.1738 B(  1-C ,  2-C ) :   1.2277
B(  1-C ,  3-C ) :  -0.4376 B(  1-C ,  4-C ) :  -0.3701 B(  1-C ,  5-C ) :  -0.4787
B(  1-C ,  6-H ) :  -0.2385 B(  1-C ,  8-C ) :   0.8675 B(  1-C ,  9-C ) :  -0.1799
B(  1-C , 11-C ) :   0.1703 B(  1-C , 12-C ) :   0.2495 B(  1-C , 13-C ) :   0.1078
B(  1-C , 14-C ) :  -0.1498 B(  1-C , 15-H ) :  -0.1789 B(  1-C , 17-H ) :   0.1130
B(  1-C , 19-H ) :  -0.1512 B(  1-C , 20-H ) :  -0.1712 B(  1-C , 21-H ) :   0.1527
B(  1-C , 22-H ) :   0.5037 B(  1-C , 23-H ) :   0.1915 B(  2-C ,  3-C ) :   1.3358
B(  2-C ,  4-C ) :   0.2789 B(  2-C ,  5-C ) :   0.2406 B(  2-C ,  7-C ) :   0.2035
B(  2-C ,  8-C ) :  -0.5402 B(  2-C , 10-C ) :  -0.1032 B(  2-C , 11-C ) :  -0.1019
B(  2-C , 13-C ) :   0.2300 B(  2-C , 19-H ) :   0.1005 B(  2-C , 21-H ) :   0.3024
B(  3-C ,  4-C ) :   0.2600 B(  3-C ,  5-C ) :  -0.8210 B(  3-C ,  6-H ) :   0.3338
B(  3-C ,  7-C ) :   0.1431 B(  3-C ,  9-C ) :   0.2800 B(  3-C , 10-C ) :   0.1598
B(  3-C , 13-C ) :  -0.1622 B(  3-C , 17-H ) :   0.1107 B(  3-C , 20-H ) :   1.9944
B(  3-C , 21-H ) :  -0.1967 B(  4-C ,  6-H ) :   0.1441 B(  4-C ,  7-C ) :   0.1441
B(  4-C ,  8-C ) :   0.2992 B(  4-C ,  9-C ) :   0.4519 B(  4-C , 10-C ) :   0.1930
B(  4-C , 11-C ) :  -0.1694 B(  4-C , 12-C ) :  -0.1750 B(  4-C , 14-C ) :   0.1862
B(  4-C , 15-H ) :  -0.3058 B(  4-C , 16-H ) :   0.2284 B(  4-C , 18-H ) :   0.2249
B(  4-C , 19-H ) :  -0.2702 B(  4-C , 20-H ) :   0.1756 B(  4-C , 21-H ) :   0.1045
B(  4-C , 22-H ) :  -0.1502 B(  4-C , 23-H ) :   0.1465 B(  5-C ,  6-H ) :   2.5261
B(  5-C ,  7-C ) :   0.2116 B(  5-C ,  8-C ) :  -0.1618 B(  5-C ,  9-C ) :   0.2192
B(  5-C , 11-C ) :  -0.2075 B(  5-C , 14-C ) :   0.2267 B(  5-C , 16-H ) :  -0.1535
B(  5-C , 17-H ) :   0.2251 B(  5-C , 20-H ) :   0.2567 B(  5-C , 23-H ) :  -0.3198
B(  6-H ,  7-C ) :  -0.2824 B(  6-H ,  8-C ) :  -1.1227 B(  6-H ,  9-C ) :  -0.3146
B(  6-H , 13-C ) :   0.2641 B(  6-H , 15-H ) :   0.1556 B(  6-H , 17-H ) :  -0.3609
B(  6-H , 18-H ) :  -0.1351 B(  6-H , 19-H ) :   0.2168 B(  6-H , 20-H ) :   0.6330
B(  6-H , 21-H ) :  -0.1120 B(  6-H , 23-H ) :  -0.1205 B(  7-C ,  8-C ) :   4.7468
B(  7-C ,  9-C ) :   0.3764 B(  7-C , 11-C ) :  -0.6613 B(  7-C , 12-C ) :   0.6944
B(  7-C , 13-C ) :  -0.6740 B(  7-C , 15-H ) :  -1.2904 B(  7-C , 17-H ) :   1.0274
B(  7-C , 18-H ) :   0.2041 B(  7-C , 19-H ) :  -1.2417 B(  7-C , 20-H ) :  -0.5461
B(  7-C , 21-H ) :   0.4319 B(  7-C , 22-H ) :  -0.2143 B(  7-C , 23-H ) :   0.2414
B(  8-C ,  9-C ) :   0.1057 B(  8-C , 10-C ) :   0.1240 B(  8-C , 11-C ) :   0.3696
B(  8-C , 13-C ) :   0.3750 B(  8-C , 14-C ) :   0.1440 B(  8-C , 15-H ) :  -0.1916
B(  8-C , 16-H ) :   0.2432 B(  8-C , 17-H ) :  -0.6180 B(  8-C , 18-H ) :   0.1844
B(  8-C , 19-H ) :  -0.2238 B(  8-C , 20-H ) :  -0.4726 B(  8-C , 21-H ) :  -0.3163
B(  8-C , 22-H ) :   0.4298 B(  9-C , 10-C ) :   0.1128 B(  9-C , 11-C ) :   0.3143
B(  9-C , 12-C ) :  -0.3275 B(  9-C , 13-C ) :   0.3105 B(  9-C , 16-H ) :   0.1394
B(  9-C , 17-H ) :  -0.1428 B(  9-C , 18-H ) :   0.1108 B(  9-C , 22-H ) :  -0.2424
B(  9-C , 23-H ) :   0.1822 B( 10-C , 11-C ) :   1.3975 B( 10-C , 12-C ) :  -0.4620
B( 10-C , 13-C ) :   0.1553 B( 10-C , 14-C ) :  -0.8859 B( 10-C , 15-H ) :   0.3544
B( 10-C , 18-H ) :  -0.2762 B( 10-C , 19-H ) :   2.5147 B( 10-C , 21-H ) :  -0.1384
B( 10-C , 22-H ) :   0.1667 B( 11-C , 12-C ) :   1.3673 B( 11-C , 13-C ) :   0.5186
B( 11-C , 14-C ) :   0.1744 B( 11-C , 21-H ) :  -0.1965 B( 11-C , 23-H ) :   0.2505
B( 12-C , 13-C ) :   1.3457 B( 12-C , 14-C ) :  -0.5100 B( 12-C , 15-H ) :  -0.1447
B( 12-C , 16-H ) :   0.2631 B( 12-C , 17-H ) :   0.2575 B( 12-C , 18-H ) :   0.2721
B( 12-C , 19-H ) :  -0.1419 B( 13-C , 14-C ) :   1.3584 B( 13-C , 20-H ) :  -0.1161
B( 13-C , 21-H ) :   0.2148 B( 13-C , 22-H ) :  -0.1733 B( 13-C , 23-H ) :  -0.3255
B( 14-C , 15-H ) :   2.6191 B( 14-C , 16-H ) :  -0.3013 B( 14-C , 19-H ) :   0.3859
B( 14-C , 22-H ) :   0.1381 B( 14-C , 23-H ) :  -0.1809 B( 15-H , 16-H ) :  -0.1564
B( 15-H , 17-H ) :  -0.2573 B( 15-H , 18-H ) :  -0.2413 B( 15-H , 19-H ) :   0.8985
B( 16-H , 19-H ) :  -0.2059 B( 17-H , 18-H ) :   0.1073 B( 17-H , 19-H ) :  -0.2335
B( 18-H , 19-H ) :  -0.1938 B( 19-H , 23-H ) :  -0.1030 B( 20-H , 23-H ) :  -0.1281

Dispersion correction           -0.024100136
FINAL SINGLE POINT ENERGY      -538.811250013921

DIPOLE MOMENT
-------------

Method             : SCF
Type of density    : Electron Density
Multiplicity       :   2
Irrep              :   0
Energy             :  -538.7871498782536719 Eh
Relativity type    :
Basis              : AO
                                X                 Y                 Z
Electronic contribution:      0.000337087      -0.000218306      -0.000135137
Nuclear contribution   :      0.000010392       0.000370111       0.000152227
                        -----------------------------------------
Total Dipole Moment    :      0.000347479       0.000151805       0.000017090
                        -----------------------------------------
Magnitude (a.u.)       :      0.000379577
Magnitude (Debye)      :      0.000964807

Rotational constants in cm-1:             0.092188             0.008430             0.007724
Rotational constants in MHz :          2763.733748           252.731480           231.556631

                             ****ORCA TERMINATED NORMALLY****
TOTAL RUN TIME: 0 days 0 hours 15 minutes 15 seconds 349 msec
