                         Program Version 6.0.0  -   RELEASE  -
|  1> !TPSSh aug-cc-pVTZ d3 TightSCF SlowConv RIJCOSX defgrid2
|  2>
|  3> %pal
|  4> nprocs 4
|  5> end
|  6>
|  7> %scf
|  8> MaxIter 1500
|  9> end
| 10>
| 11> %maxcore 3000
| 12>
| 13> !CPCM
| 14> %cpcm smd true
| 15> SMDsolvent "MeCN"
| 16> surfacetype gepol_ses
| 17> rsolv 2.19
| 18> end
| 19>
| 20> * xyz 1 2
| 21> C          -0.71556742602470      1.41147124580485      0.02484351393648
| 22> C          -1.89485758612148      0.71255037175673      0.02185452188149
| 23> C          -1.89490487228878     -0.71243606709823     -0.02184786737407
| 24> C          -0.71566014748267     -1.41143906203058     -0.02485534134414
| 25> C           0.52378178615536     -0.72580780509331      0.02738184725448
| 26> N           1.67880733273848     -1.40323460000137      0.12447426704281
| 27> H           2.54767175517770     -0.96635780966427      0.41412881989197
| 28> H           1.66526481618075     -2.41979612436391      0.15230682810719
| 29> C           0.52382964238816      0.72575250329787     -0.02740743022416
| 30> N           1.67888414838919      1.40311105146924     -0.12454542200936
| 31> H           2.54775915845719      0.96616221930099     -0.41405341714921
| 32> H           1.66540525229882      2.41967119375531     -0.15237138517056
| 33> H          -0.71326686493866     -2.50469578941709     -0.02461886159088
| 34> H          -2.84575934012086     -1.25136953209334     -0.03502634075607
| 35> H          -2.84567429105713      1.25154580034325      0.03504989002360
| 36> H          -0.71309356375136      2.50472700403386      0.02461197748042
| 37> *
| 38>
| 39>                          ****END OF INPUT****

CARTESIAN COORDINATES (ANGSTROEM)
---------------------------------
  C     -0.715567    1.411471    0.024844
  C     -1.894858    0.712550    0.021855
  C     -1.894905   -0.712436   -0.021848
  C     -0.715660   -1.411439   -0.024855
  C      0.523782   -0.725808    0.027382
  N      1.678807   -1.403235    0.124474
  H      2.547672   -0.966358    0.414129
  H      1.665265   -2.419796    0.152307
  C      0.523830    0.725753   -0.027407
  N      1.678884    1.403111   -0.124545
  H      2.547759    0.966162   -0.414053
  H      1.665405    2.419671   -0.152371
  H     -0.713267   -2.504696   -0.024619
  H     -2.845759   -1.251370   -0.035026
  H     -2.845674    1.251546    0.035050
  H     -0.713094    2.504727    0.024612

 Total Charge           Charge          ....    1
 Multiplicity           Mult            ....    2
 Number of Electrons    NEL             ....   57
 Basis Dimension        Dim             ....  552

ORBITAL ENERGIES
----------------
                 SPIN UP ORBITALS
  NO   OCC          E(Eh)            E(eV)
   0   1.0000     -14.316446      -389.5703
   1   1.0000     -14.316424      -389.5697
   2   1.0000     -10.210117      -277.8314
   3   1.0000     -10.209799      -277.8228
   4   1.0000     -10.145448      -276.0717
   5   1.0000     -10.145056      -276.0610
   6   1.0000     -10.140580      -275.9392
   7   1.0000     -10.140562      -275.9387
   8   1.0000      -0.973858       -26.5000
   9   1.0000      -0.933375       -25.3984
  10   1.0000      -0.845196       -22.9989
  11   1.0000      -0.750656       -20.4264
  12   1.0000      -0.736042       -20.0287
  13   1.0000      -0.634933       -17.2774
  14   1.0000      -0.624232       -16.9862
  15   1.0000      -0.564522       -15.3614
  16   1.0000      -0.536962       -14.6115
  17   1.0000      -0.530599       -14.4383
  18   1.0000      -0.500572       -13.6213
  19   1.0000      -0.458677       -12.4812
  20   1.0000      -0.437156       -11.8956
  21   1.0000      -0.436257       -11.8712
  22   1.0000      -0.435176       -11.8417
  23   1.0000      -0.374296       -10.1851
  24   1.0000      -0.368058       -10.0154
  25   1.0000      -0.353817        -9.6278
  26   1.0000      -0.338769        -9.2184
  27   1.0000      -0.255204        -6.9444
  28   1.0000      -0.217558        -5.9200
  29   0.0000      -0.044537        -1.2119
  30   0.0000      -0.040616        -1.1052
  31   0.0000      -0.011796        -0.3210
  32   0.0000       0.002102         0.0572
  33   0.0000       0.006169         0.1679

                 SPIN DOWN ORBITALS
  NO   OCC          E(Eh)            E(eV)
   0   1.0000     -14.310826      -389.4174
   1   1.0000     -14.310801      -389.4167
   2   1.0000     -10.207453      -277.7589
   3   1.0000     -10.207141      -277.7504
   4   1.0000     -10.143523      -276.0193
   5   1.0000     -10.143140      -276.0089
   6   1.0000     -10.140924      -275.9486
   7   1.0000     -10.140909      -275.9482
   8   1.0000      -0.964703       -26.2509
   9   1.0000      -0.923436       -25.1280
  10   1.0000      -0.839378       -22.8406
  11   1.0000      -0.748128       -20.3576
  12   1.0000      -0.725571       -19.7438
  13   1.0000      -0.631791       -17.1919
  14   1.0000      -0.619808       -16.8658
  15   1.0000      -0.561556       -15.2807
  16   1.0000      -0.534875       -14.5547
  17   1.0000      -0.528046       -14.3689
  18   1.0000      -0.497336       -13.5332
  19   1.0000      -0.456097       -12.4110
  20   1.0000      -0.434092       -11.8122
  21   1.0000      -0.433739       -11.8026
  22   1.0000      -0.414017       -11.2660
  23   1.0000      -0.372914       -10.1475
  24   1.0000      -0.355847        -9.6831
  25   1.0000      -0.338346        -9.2069
  26   1.0000      -0.319330        -8.6894
  27   1.0000      -0.243296        -6.6204
  28   0.0000      -0.162981        -4.4349
  29   0.0000      -0.032510        -0.8847
  30   0.0000      -0.016605        -0.4518
  31   0.0000      -0.009834        -0.2676
  32   0.0000       0.003436         0.0935

MULLIKEN ATOMIC CHARGES AND SPIN POPULATIONS
--------------------------------------------
   0 C :   -0.590530   -0.067082
   1 C :   -0.286743    0.130983
   2 C :   -0.286126    0.131161
   3 C :   -0.591482   -0.067253
   4 C :    1.027850    0.190222
   5 N :   -0.406855    0.243938
   6 H :    0.048815    0.003766
   7 H :    0.025815   -0.002757
   8 C :    1.029308    0.190130
   9 N :   -0.407009    0.244077
  10 H :    0.048569    0.003755
  11 H :    0.025669   -0.002756
  12 H :    0.251849   -0.003565
  13 H :    0.430089    0.004470
  14 H :    0.429781    0.004476
  15 H :    0.251000   -0.003567
Sum of atomic charges         :    1.0000000

LOEWDIN ATOMIC CHARGES AND SPIN POPULATIONS
-------------------------------------------
   0 C :    0.246849    0.035833
   1 C :    0.224865    0.087138
   2 C :    0.224857    0.087198
   3 C :    0.246811    0.035802
   4 C :   -0.151904    0.138476
   5 N :    0.934025    0.177570
   6 H :   -0.233114    0.025557
   7 H :   -0.214700    0.022729
   8 C :   -0.151837    0.138463
   9 N :    0.934121    0.177634
  10 H :   -0.233040    0.025566
  11 H :   -0.214702    0.022743
  12 H :   -0.150262   -0.002841
  13 H :   -0.155858    0.015491
  14 H :   -0.155861    0.015469
  15 H :   -0.150251   -0.002828

  Mayer bond orders larger than 0.100000
B(  0-C ,  1-C ) :   1.6337 B(  0-C ,  8-C ) :   0.9023 B(  0-C ,  9-N ) :  -0.1403
B(  0-C , 15-H ) :   0.6586 B(  1-C ,  2-C ) :   1.1752 B(  1-C ,  8-C ) :  -0.1225
B(  1-C , 14-H ) :   0.5704 B(  2-C ,  3-C ) :   1.6335 B(  2-C ,  4-C ) :  -0.1225
B(  2-C , 13-H ) :   0.5699 B(  3-C ,  4-C ) :   0.9025 B(  3-C ,  5-N ) :  -0.1403
B(  3-C , 12-H ) :   0.6577 B(  4-C ,  5-N ) :   0.5067 B(  4-C ,  8-C ) :   0.7075
B(  5-N ,  6-H ) :   1.1108 B(  5-N ,  7-H ) :   1.1429 B(  8-C ,  9-N ) :   0.5063
B(  9-N , 10-H ) :   1.1114 B(  9-N , 11-H ) :   1.1428

Dispersion correction           -0.018428773
FINAL SINGLE POINT ENERGY      -342.969638022677

DIPOLE MOMENT
-------------

Method             : SCF
Type of density    : Electron Density
Multiplicity       :   2
Irrep              :   0
Energy             :  -342.9512092497728304 Eh
Relativity type    :
Basis              : AO
                                X                 Y                 Z
Electronic contribution:      0.783656254       0.000508495      -0.000321757
Nuclear contribution   :      1.369385413      -0.000054655       0.000118438
                        -----------------------------------------
Total Dipole Moment    :      2.153041667       0.000453841      -0.000203319
                        -----------------------------------------
Magnitude (a.u.)       :      2.153041724
Magnitude (Debye)      :      5.472597149

Rotational constants in cm-1:             0.106540             0.076353             0.044639
Rotational constants in MHz :          3194.002568          2289.017521          1338.230325

                             ****ORCA TERMINATED NORMALLY****
TOTAL RUN TIME: 0 days 0 hours 4 minutes 11 seconds 883 msec
