                         Program Version 6.0.0  -   RELEASE  -
|  1> !TPSSh aug-cc-pVTZ d3 TightSCF SlowConv RIJCOSX defgrid2
|  2>
|  3> %pal
|  4> nprocs 4
|  5> end
|  6>
|  7> %scf
|  8> MaxIter 1500
|  9> end
| 10>
| 11> %maxcore 3000
| 12>
| 13> !CPCM
| 14> %cpcm smd true
| 15> SMDsolvent "MeCN"
| 16> surfacetype gepol_ses
| 17> rsolv 2.19
| 18> end
| 19>
| 20> * xyz -1 2
| 21> C          -0.04188476412109      1.20649591058260     -0.03059416435324
| 22> C          -1.42758997777244      1.20900092946328     -0.03204837740890
| 23> C          -2.18692767221781      0.02207756810286      0.00778089457379
| 24> C          -1.45245337452024     -1.19449457929778      0.04973241541109
| 25> C          -0.07593539048064     -1.21797796728122      0.05192894437349
| 26> C           0.70678686425334     -0.01719078736669      0.01222307749959
| 27> C           2.13722784115349     -0.10484845335572      0.01744599702996
| 28> O           2.77208408754572     -1.18919588733710      0.05436257040856
| 29> C           2.92761835814378      1.20197912887557     -0.02401472346093
| 30> H           3.99999527748817      0.94544780793909     -0.00555889368703
| 31> H           2.70732243738998      1.86415452535943      0.83824522074103
| 32> H           2.72299463114472      1.79839278568954     -0.93685074419013
| 33> H           0.47712353923980     -2.16170105523587      0.08479607463559
| 34> H          -2.00439456793065     -2.14494416213367      0.08164110604136
| 35> C          -3.68607504217989      0.02910769331193      0.00570061758528
| 36> H          -4.12174618431185     -0.45223229822142      0.90826315907933
| 37> H          -4.07802845542654      1.06256533456533     -0.02773326831382
| 38> H          -4.11993664787437     -0.50875039977053     -0.86531963898993
| 39> H          -1.95661019184379      2.17233863527966     -0.06580811854855
| 40> H           0.48615773232032      2.16549327083070     -0.06358124842653
| 41> *
| 42>
| 43>                          ****END OF INPUT****

CARTESIAN COORDINATES (ANGSTROEM)
---------------------------------
  C     -0.041885    1.206496   -0.030594
  C     -1.427590    1.209001   -0.032048
  C     -2.186928    0.022078    0.007781
  C     -1.452453   -1.194495    0.049732
  C     -0.075935   -1.217978    0.051929
  C      0.706787   -0.017191    0.012223
  C      2.137228   -0.104848    0.017446
  O      2.772084   -1.189196    0.054363
  C      2.927618    1.201979   -0.024015
  H      3.999995    0.945448   -0.005559
  H      2.707322    1.864155    0.838245
  H      2.722995    1.798393   -0.936851
  H      0.477124   -2.161701    0.084796
  H     -2.004395   -2.144944    0.081641
  C     -3.686075    0.029108    0.005701
  H     -4.121746   -0.452232    0.908263
  H     -4.078028    1.062565   -0.027733
  H     -4.119937   -0.508750   -0.865320
  H     -1.956610    2.172339   -0.065808
  H      0.486158    2.165493   -0.063581

 Total Charge           Charge          ....   -1
 Multiplicity           Mult            ....    2
 Number of Electrons    NEL             ....   73
 Basis Dimension        Dim             ....  690

ORBITAL ENERGIES
----------------
                 SPIN UP ORBITALS
  NO   OCC          E(Eh)            E(eV)
   0   1.0000     -18.971781      -516.2484
   1   1.0000     -10.122038      -275.4346
   2   1.0000     -10.096270      -274.7335
   3   1.0000     -10.089918      -274.5606
   4   1.0000     -10.089424      -274.5472
   5   1.0000     -10.088921      -274.5335
   6   1.0000     -10.087257      -274.4882
   7   1.0000     -10.084029      -274.4004
   8   1.0000     -10.083839      -274.3952
   9   1.0000     -10.077235      -274.2155
  10   1.0000      -0.938674       -25.5426
  11   1.0000      -0.804913       -21.9028
  12   1.0000      -0.731028       -19.8923
  13   1.0000      -0.699784       -19.0421
  14   1.0000      -0.680701       -18.5228
  15   1.0000      -0.640876       -17.4391
  16   1.0000      -0.560949       -15.2642
  17   1.0000      -0.552286       -15.0285
  18   1.0000      -0.497416       -13.5354
  19   1.0000      -0.440182       -11.9780
  20   1.0000      -0.417491       -11.3605
  21   1.0000      -0.402409       -10.9501
  22   1.0000      -0.388319       -10.5667
  23   1.0000      -0.384999       -10.4764
  24   1.0000      -0.381410       -10.3787
  25   1.0000      -0.371013       -10.0958
  26   1.0000      -0.357103        -9.7173
  27   1.0000      -0.333767        -9.0823
  28   1.0000      -0.331349        -9.0165
  29   1.0000      -0.326444        -8.8830
  30   1.0000      -0.307214        -8.3597
  31   1.0000      -0.294258        -8.0072
  32   1.0000      -0.281608        -7.6630
  33   1.0000      -0.229124        -6.2348
  34   1.0000      -0.213540        -5.8107
  35   1.0000      -0.186072        -5.0633
  36   1.0000      -0.080184        -2.1819
  37   0.0000      -0.003219        -0.0876
  38   0.0000      -0.002730        -0.0743
  39   0.0000       0.007085         0.1928
  40   0.0000       0.013765         0.3746
  41   0.0000       0.021527         0.5858

                 SPIN DOWN ORBITALS
  NO   OCC          E(Eh)            E(eV)
   0   1.0000     -18.966155      -516.0953
   1   1.0000     -10.117703      -275.3167
   2   1.0000     -10.096688      -274.7449
   3   1.0000     -10.091137      -274.5938
   4   1.0000     -10.090523      -274.5771
   5   1.0000     -10.084628      -274.4167
   6   1.0000     -10.084265      -274.4068
   7   1.0000     -10.084234      -274.4060
   8   1.0000     -10.081862      -274.3414
   9   1.0000     -10.076104      -274.1847
  10   1.0000      -0.928899       -25.2766
  11   1.0000      -0.801032       -21.7972
  12   1.0000      -0.725156       -19.7325
  13   1.0000      -0.697054       -18.9678
  14   1.0000      -0.677454       -18.4345
  15   1.0000      -0.639879       -17.4120
  16   1.0000      -0.554008       -15.0753
  17   1.0000      -0.549827       -14.9616
  18   1.0000      -0.493709       -13.4345
  19   1.0000      -0.436234       -11.8705
  20   1.0000      -0.415706       -11.3119
  21   1.0000      -0.399192       -10.8626
  22   1.0000      -0.383885       -10.4461
  23   1.0000      -0.379470       -10.3259
  24   1.0000      -0.374631       -10.1942
  25   1.0000      -0.370333       -10.0773
  26   1.0000      -0.354926        -9.6580
  27   1.0000      -0.331801        -9.0288
  28   1.0000      -0.329697        -8.9715
  29   1.0000      -0.317058        -8.6276
  30   1.0000      -0.305303        -8.3077
  31   1.0000      -0.280621        -7.6361
  32   1.0000      -0.272788        -7.4229
  33   1.0000      -0.220845        -6.0095
  34   1.0000      -0.194379        -5.2893
  35   1.0000      -0.182311        -4.9609
  36   0.0000      -0.028291        -0.7698
  37   0.0000      -0.000915        -0.0249
  38   0.0000       0.001861         0.0506
  39   0.0000       0.008983         0.2444
  40   0.0000       0.016153         0.4395

MULLIKEN ATOMIC CHARGES AND SPIN POPULATIONS
--------------------------------------------
   0 C :   -0.517915    0.239349
   1 C :   -0.716303   -0.084845
   2 C :    1.105390    0.287034
   3 C :   -0.792731   -0.065115
   4 C :   -1.223262    0.205046
   5 C :    1.500956    0.021424
   6 C :    0.853733    0.223533
   7 O :   -1.218599    0.216924
   8 C :   -0.306842   -0.029123
   9 H :   -0.057622    0.000279
  10 H :    0.174931    0.010055
  11 H :    0.172298    0.010328
  12 H :   -0.205916   -0.011421
  13 H :    0.184034   -0.003184
  14 C :   -0.376756   -0.040641
  15 H :    0.128392    0.013956
  16 H :    0.084577   -0.003778
  17 H :    0.130131    0.014071
  18 H :    0.064450   -0.001311
  19 H :    0.017053   -0.002581
Sum of atomic charges         :   -1.0000000

LOEWDIN ATOMIC CHARGES AND SPIN POPULATIONS
-------------------------------------------
   0 C :    0.150032    0.095634
   1 C :    0.152464    0.029864
   2 C :   -0.176129    0.130394
   3 C :    0.153477    0.025390
   4 C :    0.134650    0.078138
   5 C :   -0.213513    0.116854
   6 C :   -0.677600    0.186087
   7 O :    0.335294    0.195915
   8 C :    0.489960    0.034828
   9 H :   -0.205521   -0.000796
  10 H :   -0.181413    0.009172
  11 H :   -0.180673    0.009282
  12 H :   -0.217571    0.017123
  13 H :   -0.181475   -0.003553
  14 C :    0.523508    0.039057
  15 H :   -0.165615    0.009613
  16 H :   -0.181035    0.000611
  17 H :   -0.165496    0.009663
  18 H :   -0.185297   -0.004106
  19 H :   -0.208048    0.020829

  Mayer bond orders larger than 0.100000
B(  0-C ,  1-C ) :   1.4808 B(  0-C ,  3-C ) :  -0.1943 B(  0-C ,  4-C ) :  -0.4875
B(  0-C ,  5-C ) :   0.1570 B(  0-C ,  6-C ) :   0.1819 B(  0-C , 19-H ) :   1.2517
B(  1-C ,  2-C ) :   0.7076 B(  1-C ,  4-C ) :   0.2195 B(  1-C ,  6-C ) :  -0.1147
B(  1-C , 14-C ) :  -0.1466 B(  1-C , 18-H ) :   1.0824 B(  2-C ,  3-C ) :   0.8635
B(  2-C ,  6-C ) :   0.1463 B(  2-C , 14-C ) :   0.5462 B(  3-C ,  4-C ) :   1.6795
B(  3-C ,  6-C ) :   0.1377 B(  3-C , 13-H ) :   0.8668 B(  3-C , 14-C ) :   0.1579
B(  4-C ,  6-C ) :   0.2666 B(  4-C , 12-H ) :   1.4248 B(  5-C ,  6-C ) :   0.7022
B(  5-C ,  7-O ) :   0.4193 B(  5-C , 12-H ) :  -0.1055 B(  5-C , 14-C ) :   0.1166
B(  6-C ,  8-C ) :   1.0343 B(  6-C , 12-H ) :  -0.1959 B(  6-C , 13-H ) :   0.1308
B(  7-O , 12-H ) :   0.2307 B(  8-C ,  9-H ) :   1.0419 B(  8-C , 10-H ) :   0.9532
B(  8-C , 11-H ) :   0.9543 B( 12-H , 19-H ) :   0.1027 B( 14-C , 15-H ) :   1.0048
B( 14-C , 16-H ) :   0.9903 B( 14-C , 17-H ) :   1.0028

Dispersion correction           -0.023866208
FINAL SINGLE POINT ENERGY      -424.502067570771

DIPOLE MOMENT
-------------

Method             : SCF
Type of density    : Electron Density
Multiplicity       :   2
Irrep              :   0
Energy             :  -424.4782013632028566 Eh
Relativity type    :
Basis              : AO
                                X                 Y                 Z
Electronic contribution:      3.144322763      -3.079349669       0.104423928
Nuclear contribution   :     -5.565601107       4.473854075      -0.154054051
                        -----------------------------------------
Total Dipole Moment    :     -2.421278344       1.394504406      -0.049630123
                        -----------------------------------------
Magnitude (a.u.)       :      2.794583065
Magnitude (Debye)      :      7.103265646

Rotational constants in cm-1:             0.119092             0.025902             0.021447
Rotational constants in MHz :          3570.280980           776.510270           642.950997

                             ****ORCA TERMINATED NORMALLY****
TOTAL RUN TIME: 0 days 0 hours 9 minutes 8 seconds 658 msec
