                         Program Version 6.0.0  -   RELEASE  -
|  1> !PBE0 aug-cc-pVTZ d3 TightSCF SlowConv RIJCOSX defgrid2
|  2>
|  3> %pal
|  4> nprocs 4
|  5> end
|  6>
|  7> %scf
|  8> MaxIter 1500
|  9> end
| 10>
| 11> %maxcore 3000
| 12>
| 13> !CPCM
| 14> %cpcm smd true
| 15> SMDsolvent "MeCN"
| 16> surfacetype gepol_ses
| 17> rsolv 2.19
| 18> end
| 19>
| 20> * xyz -1 2
| 21> C          -0.04188476412109      1.20649591058260     -0.03059416435324
| 22> C          -1.42758997777244      1.20900092946328     -0.03204837740890
| 23> C          -2.18692767221781      0.02207756810286      0.00778089457379
| 24> C          -1.45245337452024     -1.19449457929778      0.04973241541109
| 25> C          -0.07593539048064     -1.21797796728122      0.05192894437349
| 26> C           0.70678686425334     -0.01719078736669      0.01222307749959
| 27> C           2.13722784115349     -0.10484845335572      0.01744599702996
| 28> O           2.77208408754572     -1.18919588733710      0.05436257040856
| 29> C           2.92761835814378      1.20197912887557     -0.02401472346093
| 30> H           3.99999527748817      0.94544780793909     -0.00555889368703
| 31> H           2.70732243738998      1.86415452535943      0.83824522074103
| 32> H           2.72299463114472      1.79839278568954     -0.93685074419013
| 33> H           0.47712353923980     -2.16170105523587      0.08479607463559
| 34> H          -2.00439456793065     -2.14494416213367      0.08164110604136
| 35> C          -3.68607504217989      0.02910769331193      0.00570061758528
| 36> H          -4.12174618431185     -0.45223229822142      0.90826315907933
| 37> H          -4.07802845542654      1.06256533456533     -0.02773326831382
| 38> H          -4.11993664787437     -0.50875039977053     -0.86531963898993
| 39> H          -1.95661019184379      2.17233863527966     -0.06580811854855
| 40> H           0.48615773232032      2.16549327083070     -0.06358124842653
| 41> *
| 42>
| 43>                          ****END OF INPUT****

CARTESIAN COORDINATES (ANGSTROEM)
---------------------------------
  C     -0.041885    1.206496   -0.030594
  C     -1.427590    1.209001   -0.032048
  C     -2.186928    0.022078    0.007781
  C     -1.452453   -1.194495    0.049732
  C     -0.075935   -1.217978    0.051929
  C      0.706787   -0.017191    0.012223
  C      2.137228   -0.104848    0.017446
  O      2.772084   -1.189196    0.054363
  C      2.927618    1.201979   -0.024015
  H      3.999995    0.945448   -0.005559
  H      2.707322    1.864155    0.838245
  H      2.722995    1.798393   -0.936851
  H      0.477124   -2.161701    0.084796
  H     -2.004395   -2.144944    0.081641
  C     -3.686075    0.029108    0.005701
  H     -4.121746   -0.452232    0.908263
  H     -4.078028    1.062565   -0.027733
  H     -4.119937   -0.508750   -0.865320
  H     -1.956610    2.172339   -0.065808
  H      0.486158    2.165493   -0.063581

 Total Charge           Charge          ....   -1
 Multiplicity           Mult            ....    2
 Number of Electrons    NEL             ....   73
 Basis Dimension        Dim             ....  690

ORBITAL ENERGIES
----------------
                 SPIN UP ORBITALS
  NO   OCC          E(Eh)            E(eV)
   0   1.0000     -19.127254      -520.4790
   1   1.0000     -10.238513      -278.6041
   2   1.0000     -10.205859      -277.7155
   3   1.0000     -10.205556      -277.7073
   4   1.0000     -10.204197      -277.6703
   5   1.0000     -10.203726      -277.6575
   6   1.0000     -10.201512      -277.5973
   7   1.0000     -10.198447      -277.5138
   8   1.0000     -10.193433      -277.3774
   9   1.0000     -10.192881      -277.3624
  10   1.0000      -0.992914       -27.0186
  11   1.0000      -0.853668       -23.2295
  12   1.0000      -0.776653       -21.1338
  13   1.0000      -0.743735       -20.2380
  14   1.0000      -0.722836       -19.6694
  15   1.0000      -0.681473       -18.5438
  16   1.0000      -0.600423       -16.3383
  17   1.0000      -0.590032       -16.0556
  18   1.0000      -0.534055       -14.5324
  19   1.0000      -0.475085       -12.9277
  20   1.0000      -0.453479       -12.3398
  21   1.0000      -0.434079       -11.8119
  22   1.0000      -0.419959       -11.4277
  23   1.0000      -0.417030       -11.3480
  24   1.0000      -0.411122       -11.1872
  25   1.0000      -0.402179       -10.9439
  26   1.0000      -0.389009       -10.5855
  27   1.0000      -0.365174        -9.9369
  28   1.0000      -0.360985        -9.8229
  29   1.0000      -0.355711        -9.6794
  30   1.0000      -0.338688        -9.2162
  31   1.0000      -0.326084        -8.8732
  32   1.0000      -0.309871        -8.4320
  33   1.0000      -0.254070        -6.9136
  34   1.0000      -0.239012        -6.5039
  35   1.0000      -0.219314        -5.9678
  36   1.0000      -0.099283        -2.7016
  37   0.0000       0.002353         0.0640
  38   0.0000       0.009933         0.2703
  39   0.0000       0.012496         0.3400
  40   0.0000       0.018764         0.5106
  41   0.0000       0.026817         0.7297

                 SPIN DOWN ORBITALS
  NO   OCC          E(Eh)            E(eV)
   0   1.0000     -19.121412      -520.3201
   1   1.0000     -10.234323      -278.4901
   2   1.0000     -10.206124      -277.7228
   3   1.0000     -10.205770      -277.7131
   4   1.0000     -10.205178      -277.6970
   5   1.0000     -10.200678      -277.5746
   6   1.0000     -10.198745      -277.5220
   7   1.0000     -10.196156      -277.4515
   8   1.0000     -10.193824      -277.3880
   9   1.0000     -10.191951      -277.3371
  10   1.0000      -0.981519       -26.7085
  11   1.0000      -0.849251       -23.1093
  12   1.0000      -0.769662       -20.9436
  13   1.0000      -0.740529       -20.1508
  14   1.0000      -0.718704       -19.5569
  15   1.0000      -0.680276       -18.5113
  16   1.0000      -0.592072       -16.1111
  17   1.0000      -0.587424       -15.9846
  18   1.0000      -0.530014       -14.4224
  19   1.0000      -0.470645       -12.8069
  20   1.0000      -0.451375       -12.2825
  21   1.0000      -0.430307       -11.7093
  22   1.0000      -0.415966       -11.3190
  23   1.0000      -0.409073       -11.1314
  24   1.0000      -0.403438       -10.9781
  25   1.0000      -0.401255       -10.9187
  26   1.0000      -0.386057       -10.5052
  27   1.0000      -0.362927        -9.8757
  28   1.0000      -0.359700        -9.7879
  29   1.0000      -0.345897        -9.4123
  30   1.0000      -0.336265        -9.1502
  31   1.0000      -0.308632        -8.3983
  32   1.0000      -0.301168        -8.1952
  33   1.0000      -0.244213        -6.6454
  34   1.0000      -0.215871        -5.8742
  35   1.0000      -0.214314        -5.8318
  36   0.0000      -0.014347        -0.3904
  37   0.0000       0.004538         0.1235
  38   0.0000       0.014156         0.3852
  39   0.0000       0.014241         0.3875
  40   0.0000       0.021002         0.5715

MULLIKEN ATOMIC CHARGES AND SPIN POPULATIONS
--------------------------------------------
   0 C :   -0.738861    0.231381
   1 C :   -0.983831   -0.092507
   2 C :    1.209479    0.298311
   3 C :   -1.116119   -0.069336
   4 C :   -1.440599    0.182232
   5 C :    1.664611    0.068554
   6 C :    0.635424    0.200913
   7 O :   -1.077788    0.223999
   8 C :   -0.694945   -0.018655
   9 H :    0.169481    0.000680
  10 H :    0.269794    0.010685
  11 H :    0.266365    0.010921
  12 H :    0.021273   -0.023491
  13 H :    0.409559    0.002419
  14 C :   -0.802080   -0.033727
  15 H :    0.250147    0.014869
  16 H :    0.232242   -0.003559
  17 H :    0.252014    0.014971
  18 H :    0.302232    0.006880
  19 H :    0.171603   -0.025542
Sum of atomic charges         :   -1.0000000

LOEWDIN ATOMIC CHARGES AND SPIN POPULATIONS
-------------------------------------------
   0 C :    0.146654    0.098435
   1 C :    0.149326    0.026307
   2 C :   -0.181431    0.130870
   3 C :    0.150526    0.021869
   4 C :    0.131875    0.080102
   5 C :   -0.216908    0.115743
   6 C :   -0.685047    0.182908
   7 O :    0.333577    0.200514
   8 C :    0.488528    0.035064
   9 H :   -0.202581   -0.000774
  10 H :   -0.178086    0.008966
  11 H :   -0.177320    0.009063
  12 H :   -0.213712    0.018510
  13 H :   -0.177086   -0.004919
  14 C :    0.520618    0.040548
  15 H :   -0.162444    0.009464
  16 H :   -0.178384    0.000762
  17 H :   -0.162319    0.009511
  18 H :   -0.181000   -0.005538
  19 H :   -0.204786    0.022593

  Mayer bond orders larger than 0.100000
B(  0-C ,  1-C ) :   1.4602 B(  0-C ,  3-C ) :  -0.2169 B(  0-C ,  4-C ) :  -0.5563
B(  0-C ,  5-C ) :   0.1554 B(  0-C ,  6-C ) :   0.2032 B(  0-C , 19-H ) :   1.2134
B(  1-C ,  2-C ) :   0.6665 B(  1-C ,  4-C ) :   0.2228 B(  1-C ,  6-C ) :  -0.1059
B(  1-C , 14-C ) :  -0.1691 B(  1-C , 18-H ) :   0.8942 B(  2-C ,  3-C ) :   0.8014
B(  2-C ,  6-C ) :   0.1546 B(  2-C , 14-C ) :   0.4032 B(  3-C ,  4-C ) :   1.6818
B(  3-C ,  6-C ) :   0.1038 B(  3-C , 13-H ) :   0.6924 B(  3-C , 14-C ) :   0.2107
B(  3-C , 19-H ) :  -0.1016 B(  4-C ,  6-C ) :   0.2703 B(  4-C , 12-H ) :   1.3822
B(  5-C ,  6-C ) :   0.6294 B(  5-C ,  7-O ) :   0.2787 B(  5-C , 12-H ) :  -0.1054
B(  6-C ,  7-O ) :   0.5002 B(  6-C ,  8-C ) :   0.9664 B(  6-C , 12-H ) :  -0.1439
B(  6-C , 13-H ) :   0.1175 B(  7-O , 12-H ) :   0.2006 B(  8-C ,  9-H ) :   0.9633
B(  8-C , 10-H ) :   0.9237 B(  8-C , 11-H ) :   0.9267 B( 12-H , 19-H ) :   0.1104
B( 14-C , 15-H ) :   0.9632 B( 14-C , 16-H ) :   0.9533 B( 14-C , 17-H ) :   0.9609

Dispersion correction           -0.017897034
FINAL SINGLE POINT ENERGY      -423.966655974666

DIPOLE MOMENT
-------------

Method             : SCF
Type of density    : Electron Density
Multiplicity       :   2
Irrep              :   0
Energy             :  -423.9487589401684886 Eh
Relativity type    :
Basis              : AO
                                X                 Y                 Z
Electronic contribution:      3.106763899      -3.042719721       0.103031995
Nuclear contribution   :     -5.565601107       4.473854075      -0.154054051
                        -----------------------------------------
Total Dipole Moment    :     -2.458837208       1.431134354      -0.051022056
                        -----------------------------------------
Magnitude (a.u.)       :      2.845457644
Magnitude (Debye)      :      7.232578549

Rotational constants in cm-1:             0.119092             0.025902             0.021447
Rotational constants in MHz :          3570.280980           776.510270           642.950997

                             ****ORCA TERMINATED NORMALLY****
TOTAL RUN TIME: 0 days 0 hours 8 minutes 41 seconds 879 msec
