                         Program Version 6.0.0  -   RELEASE  -
|  1> !B3LYP opt aug-cc-pVTZ d3 TightSCF SlowConv RIJCOSX defgrid2
|  2>
|  3> %pal
|  4> nprocs 8
|  5> end
|  6>
|  7> %scf
|  8> MaxIter 1500
|  9> end
| 10>
| 11> %maxcore 3500
| 12>
| 13> !CPCM
| 14> %cpcm smd true
| 15> SMDsolvent "MeCN"
| 16> surfacetype gepol_ses
| 17> rsolv 2.19
| 18> end
| 19>
| 20> * xyz 0 1
| 21> C           2.43031351008729     -0.70749139029856      0.00001403239272
| 22> C           2.43032444825569      0.70745716976960      0.00001780057511
| 23> C           1.24225650957686      1.40066986227340      0.00001298600543
| 24> C           0.00000747832604      0.71479447718917      0.00000542687051
| 25> C          -1.24223111805275      1.40068893561610      0.00000324875952
| 26> C          -2.43030983452578      0.70749421287076     -0.00000358520312
| 27> C          -2.43032103578901     -0.70745426001962     -0.00000960120256
| 28> C          -1.24225352108494     -1.40066808823521     -0.00000641420954
| 29> C          -0.00000405709778     -0.71479302978643      0.00000150500237
| 30> C           1.24223524877496     -1.40068686163162      0.00000460886950
| 31> H           1.23824372924118     -2.49527550154318      0.00000243863973
| 32> H          -1.23827753101703     -2.49525698617010     -0.00000852848414
| 33> H          -3.38175156931066     -1.24754932619836     -0.00001429910497
| 34> H          -3.38173131512848      1.24760412689582     -0.00000496639229
| 35> H          -1.23823830440863      2.49527781567030      0.00000665226192
| 36> H           1.23827983240145      2.49525951167016      0.00001366019695
| 37> H           3.38175416757919      1.24755290950869      0.00002330946105
| 38> H           3.38173466217241     -1.24760147758094      0.00001812556182
| 39> *
| 40>
| 41>                          ****END OF INPUT****
 Total Charge           Charge          ....    0
 Multiplicity           Mult            ....    1
 Number of Electrons    NEL             ....   68
Dispersion correction           -0.036481729
FINAL SINGLE POINT ENERGY      -385.826682751722
Dispersion correction             ... done (  0.0 sec)
Dispersion correction           -0.036583084
FINAL SINGLE POINT ENERGY      -385.827505213799
Dispersion correction             ... done (  0.0 sec)
                    ***********************HURRAY********************

CARTESIAN COORDINATES (ANGSTROEM)
---------------------------------
  C      2.423152   -0.706251   -0.000235
  C      2.423170    0.706223   -0.000209
  C      1.239622    1.398545   -0.000055
  C      0.000009    0.713927    0.000017
  C     -1.239591    1.398561    0.000088
  C     -2.423151    0.706255    0.000202
  C     -2.423159   -0.706221    0.000230
  C     -1.239614   -1.398547    0.000106
  C     -0.000005   -0.713924    0.000010
  C      1.239593   -1.398556   -0.000098
  H      1.237054   -2.481062    0.000029
  H     -1.237101   -2.481065   -0.000022
  H     -3.363974   -1.239907   -0.000170
  H     -3.363966    1.239959   -0.000246
  H     -1.237046    2.481070   -0.000053
  H      1.237102    2.481062    0.000119
  H      3.363987    1.239917    0.000193
  H      3.363951   -1.239965    0.000172

 Multiplicity           Mult            ....    1
 Number of Electrons    NEL             ....   68
 Basis Dimension        Dim             ....  644

ORBITAL ENERGIES
----------------

  NO   OCC          E(Eh)            E(eV)
   0   2.0000     -10.185287      -277.1558
   1   2.0000     -10.184809      -277.1428
   2   2.0000     -10.174520      -276.8628
   3   2.0000     -10.174503      -276.8623
   4   2.0000     -10.174430      -276.8603
   5   2.0000     -10.174419      -276.8600
   6   2.0000     -10.173747      -276.8417
   7   2.0000     -10.173744      -276.8416
   8   2.0000     -10.173345      -276.8308
   9   2.0000     -10.173337      -276.8306
  10   2.0000      -0.876741       -23.8573
  11   2.0000      -0.822585       -22.3837
  12   2.0000      -0.774325       -21.0704
  13   2.0000      -0.741155       -20.1679
  14   2.0000      -0.719051       -19.5664
  15   2.0000      -0.624643       -16.9974
  16   2.0000      -0.610973       -16.6254
  17   2.0000      -0.595138       -16.1945
  18   2.0000      -0.513420       -13.9709
  19   2.0000      -0.507076       -13.7982
  20   2.0000      -0.493178       -13.4201
  21   2.0000      -0.444190       -12.0870
  22   2.0000      -0.440746       -11.9933
  23   2.0000      -0.416487       -11.3332
  24   2.0000      -0.415242       -11.2993
  25   2.0000      -0.397330       -10.8119
  26   2.0000      -0.397194       -10.8082
  27   2.0000      -0.366430        -9.9711
  28   2.0000      -0.337286        -9.1780
  29   2.0000      -0.333444        -9.0735
  30   2.0000      -0.328677        -8.9438
  31   2.0000      -0.291463        -7.9311
  32   2.0000      -0.250105        -6.8057
  33   2.0000      -0.222106        -6.0438
  34   0.0000      -0.046759        -1.2724
  35   0.0000      -0.019744        -0.5373
  36   0.0000      -0.002456        -0.0668
  37   0.0000       0.008315         0.2262
  38   0.0000       0.008782         0.2390

MULLIKEN ATOMIC CHARGES
-----------------------
   0 C :   -0.404138
   1 C :   -0.402604
   2 C :   -1.162613
   3 C :    1.781383
   4 C :   -1.167722
   5 C :   -0.399999
   6 C :   -0.399042
   7 C :   -1.160197
   8 C :    1.784062
   9 C :   -1.161271
  10 H :    0.049941
  11 H :    0.049528
  12 H :    0.617287
  13 H :    0.626577
  14 H :    0.053381
  15 H :    0.044897
  16 H :    0.625074
  17 H :    0.625455
Sum of atomic charges:    0.0000000

LOEWDIN ATOMIC CHARGES
----------------------
   0 C :    0.198480
   1 C :    0.198480
   2 C :    0.214646
   3 C :   -0.127450
   4 C :    0.214645
   5 C :    0.198483
   6 C :    0.198479
   7 C :    0.214644
   8 C :   -0.127454
   9 C :    0.214650
  10 H :   -0.170916
  11 H :   -0.170906
  12 H :   -0.178492
  13 H :   -0.178483
  14 H :   -0.170915
  15 H :   -0.170909
  16 H :   -0.178488
  17 H :   -0.178494

  Mayer bond orders larger than 0.100000
B(  0-C ,  1-C ) :   1.1138 B(  0-C ,  3-C ) :  -0.2418 B(  0-C ,  9-C ) :   1.1839
B(  0-C , 17-H ) :   0.3416 B(  1-C ,  2-C ) :   1.1803 B(  1-C ,  8-C ) :  -0.2418
B(  1-C , 16-H ) :   0.3419 B(  2-C ,  3-C ) :  -0.2569 B(  2-C ,  4-C ) :   0.6631
B(  2-C ,  7-C ) :  -0.1053 B(  2-C ,  8-C ) :  -0.2508 B(  2-C , 15-H ) :   1.4095
B(  2-C , 16-H ) :  -0.2306 B(  3-C ,  4-C ) :  -0.2571 B(  3-C ,  6-C ) :  -0.2443
B(  3-C ,  7-C ) :  -0.2440 B(  3-C ,  8-C ) :   1.1932 B(  3-C ,  9-C ) :  -0.2443
B(  3-C , 14-H ) :  -0.1278 B(  3-C , 15-H ) :  -0.1314 B(  4-C ,  5-C ) :   1.1866
B(  4-C ,  8-C ) :  -0.2475 B(  4-C ,  9-C ) :  -0.1063 B(  4-C , 13-H ) :  -0.2297
B(  4-C , 14-H ) :   1.3957 B(  5-C ,  6-C ) :   1.1090 B(  5-C ,  8-C ) :  -0.2403
B(  5-C , 13-H ) :   0.3418 B(  6-C ,  7-C ) :   1.1810 B(  6-C , 12-H ) :   0.3538
B(  7-C ,  8-C ) :  -0.2516 B(  7-C ,  9-C ) :   0.6565 B(  7-C , 11-H ) :   1.3987
B(  7-C , 12-H ) :  -0.2276 B(  8-C ,  9-C ) :  -0.2560 B(  8-C , 10-H ) :  -0.1279
B(  8-C , 11-H ) :  -0.1283 B(  9-C , 10-H ) :   1.3992 B(  9-C , 17-H ) :  -0.2300

Dispersion correction           -0.036590272
FINAL SINGLE POINT ENERGY      -385.827504378347

DIPOLE MOMENT
-------------

Method             : SCF
Type of density    : Electron Density
Multiplicity       :   1
Irrep              :   0
Energy             :  -385.7909141065845233 Eh
Relativity type    :
Basis              : AO
                                X                 Y                 Z
Electronic contribution:      0.000004451      -0.000010500       0.000017768
Nuclear contribution   :     -0.000012546      -0.000000589      -0.000021495
                        -----------------------------------------
Total Dipole Moment    :     -0.000008096      -0.000011090      -0.000003728
                        -----------------------------------------
Magnitude (a.u.)       :      0.000014227
Magnitude (Debye)      :      0.000036163

Rotational constants in cm-1:             0.104578             0.041346             0.029631
Rotational constants in MHz :          3135.166901          1239.517486           888.314188

                             ****ORCA TERMINATED NORMALLY****
TOTAL RUN TIME: 0 days 0 hours 12 minutes 42 seconds 271 msec
