                         Program Version 6.0.0  -   RELEASE  -
|  1> !PBE0 aug-cc-pVTZ d3 TightSCF SlowConv RIJCOSX defgrid2
|  2>
|  3> %pal
|  4> nprocs 6
|  5> end
|  6>
|  7> %scf
|  8> MaxIter 1500
|  9> end
| 10>
| 11> %maxcore 3000
| 12>
| 13> !CPCM
| 14> %cpcm smd true
| 15> SMDsolvent "MeCN"
| 16> surfacetype gepol_ses
| 17> rsolv 2.19
| 18> end
| 19>
| 20> * xyz -1 2
| 21>   C          -3.62984747030359      2.10634854089890      0.29413366187786
| 22>   C          -4.88521656793814      1.52460279264563      0.21285194664948
| 23>   C          -2.43996070251224      1.35928996872449      0.08422922937252
| 24>   C          -2.61096888777262     -0.00171874484877     -0.27802191885602
| 25>   C          -3.87287251644746     -0.57850198655770     -0.36904469903670
| 26>   C          -5.03023873609438      0.16696438667983     -0.10988269549484
| 27>   C          -1.16948079167151      2.09256049707431      0.16164767275919
| 28>   C           0.12067423933497      1.40594735978097      0.30426152268307
| 29>   C           1.28964189965584      2.16414147627999      0.02630190894131
| 30>   C           2.56066514539573      1.62761624229261      0.15812903251074
| 31>   C           2.74361326089362      0.30916965549547      0.60191698925079
| 32>   C           1.60721306175648     -0.44185421529682      0.92902893717985
| 33>   C           0.32976744930311      0.08871154082537      0.78825579984698
| 34>   O          -1.18787359702741      3.35479483613606      0.10344354720181
| 35>   H          -3.95752568777400     -1.63142375583986     -0.66486174996515
| 36>   H          -6.02174902533034     -0.29324813226849     -0.17715643182860
| 37>   H          -3.50305728008549      3.16796655235268      0.52140925280262
| 38>   H          -5.77643532337797      2.13678032750153      0.39984091569786
| 39>   H          -1.74010174342944     -0.60523310453178     -0.54356548187453
| 40>   H          -0.52377533184004     -0.51255708549791      1.10930263672941
| 41>   H           3.74754253761040     -0.11513493690994      0.70902931502125
| 42>   H           1.72088092192766     -1.46080357442395      1.31909388538700
| 43>   H           1.13299801894373      3.19674935471579     -0.29607576485640
| 44>   H           3.43450583978311      2.24528941977158     -0.08460366299948
| 45> *
| 46>
| 47>                          ****END OF INPUT****

CARTESIAN COORDINATES (ANGSTROEM)
---------------------------------
  C     -3.629847    2.106349    0.294134
  C     -4.885217    1.524603    0.212852
  C     -2.439961    1.359290    0.084229
  C     -2.610969   -0.001719   -0.278022
  C     -3.872873   -0.578502   -0.369045
  C     -5.030239    0.166964   -0.109883
  C     -1.169481    2.092560    0.161648
  C      0.120674    1.405947    0.304262
  C      1.289642    2.164141    0.026302
  C      2.560665    1.627616    0.158129
  C      2.743613    0.309170    0.601917
  C      1.607213   -0.441854    0.929029
  C      0.329767    0.088712    0.788256
  O     -1.187874    3.354795    0.103444
  H     -3.957526   -1.631424   -0.664862
  H     -6.021749   -0.293248   -0.177156
  H     -3.503057    3.167967    0.521409
  H     -5.776435    2.136780    0.399841
  H     -1.740102   -0.605233   -0.543565
  H     -0.523775   -0.512557    1.109303
  H      3.747543   -0.115135    0.709029
  H      1.720881   -1.460804    1.319094
  H      1.132998    3.196749   -0.296076
  H      3.434506    2.245289   -0.084604

 Total Charge           Charge          ....   -1
 Multiplicity           Mult            ....    2
 Number of Electrons    NEL             ....   97
 Basis Dimension        Dim             ....  874

ORBITAL ENERGIES
----------------
                 SPIN UP ORBITALS
  NO   OCC          E(Eh)            E(eV)
   0   1.0000     -19.129454      -520.5389
   1   1.0000     -10.244433      -278.7652
   2   1.0000     -10.216487      -278.0048
   3   1.0000     -10.216467      -278.0042
   4   1.0000     -10.216332      -278.0005
   5   1.0000     -10.216321      -278.0002
   6   1.0000     -10.215608      -277.9808
   7   1.0000     -10.215574      -277.9799
   8   1.0000     -10.213992      -277.9368
   9   1.0000     -10.213987      -277.9367
  10   1.0000     -10.212728      -277.9025
  11   1.0000     -10.212687      -277.9014
  12   1.0000     -10.207726      -277.7663
  13   1.0000     -10.207700      -277.7656
  14   1.0000      -0.998046       -27.1582
  15   1.0000      -0.864722       -23.5303
  16   1.0000      -0.861316       -23.4376
  17   1.0000      -0.772561       -21.0224
  18   1.0000      -0.753453       -20.5025
  19   1.0000      -0.752281       -20.4706
  20   1.0000      -0.747376       -20.3371
  21   1.0000      -0.651837       -17.7374
  22   1.0000      -0.611294       -16.6342
  23   1.0000      -0.605638       -16.4803
  24   1.0000      -0.593680       -16.1549
  25   1.0000      -0.550988       -14.9931
  26   1.0000      -0.518743       -14.1157
  27   1.0000      -0.497778       -13.5452
  28   1.0000      -0.459098       -12.4927
  29   1.0000      -0.452082       -12.3018
  30   1.0000      -0.443210       -12.0604
  31   1.0000      -0.437178       -11.8962
  32   1.0000      -0.416859       -11.3433
  33   1.0000      -0.413818       -11.2606
  34   1.0000      -0.411129       -11.1874
  35   1.0000      -0.395960       -10.7746
  36   1.0000      -0.391323       -10.6485
  37   1.0000      -0.372682       -10.1412
  38   1.0000      -0.357379        -9.7248
  39   1.0000      -0.349715        -9.5162
  40   1.0000      -0.342699        -9.3253
  41   1.0000      -0.326137        -8.8746
  42   1.0000      -0.321959        -8.7610
  43   1.0000      -0.260636        -7.0923
  44   1.0000      -0.259646        -7.0653
  45   1.0000      -0.254734        -6.9317
  46   1.0000      -0.254114        -6.9148
  47   1.0000      -0.226428        -6.1614
  48   1.0000      -0.113211        -3.0806
  49   0.0000      -0.011559        -0.3145
  50   0.0000       0.000311         0.0085
  51   0.0000       0.003270         0.0890
  52   0.0000       0.004143         0.1127
  53   0.0000       0.011601         0.3157

                 SPIN DOWN ORBITALS
  NO   OCC          E(Eh)            E(eV)
   0   1.0000     -19.122762      -520.3568
   1   1.0000     -10.240106      -278.6475
   2   1.0000     -10.217309      -278.0271
   3   1.0000     -10.217299      -278.0268
   4   1.0000     -10.217275      -278.0262
   5   1.0000     -10.217260      -278.0258
   6   1.0000     -10.216006      -277.9917
   7   1.0000     -10.215968      -277.9906
   8   1.0000     -10.212451      -277.8949
   9   1.0000     -10.212451      -277.8949
  10   1.0000     -10.210332      -277.8372
  11   1.0000     -10.210279      -277.8358
  12   1.0000     -10.205910      -277.7169
  13   1.0000     -10.205879      -277.7161
  14   1.0000      -0.985346       -26.8126
  15   1.0000      -0.862123       -23.4596
  16   1.0000      -0.859376       -23.3848
  17   1.0000      -0.767549       -20.8861
  18   1.0000      -0.751140       -20.4396
  19   1.0000      -0.749994       -20.4084
  20   1.0000      -0.745194       -20.2777
  21   1.0000      -0.641757       -17.4631
  22   1.0000      -0.608490       -16.5578
  23   1.0000      -0.604797       -16.4574
  24   1.0000      -0.592010       -16.1094
  25   1.0000      -0.547723       -14.9043
  26   1.0000      -0.517681       -14.0868
  27   1.0000      -0.494191       -13.4476
  28   1.0000      -0.456697       -12.4274
  29   1.0000      -0.450333       -12.2542
  30   1.0000      -0.441769       -12.0211
  31   1.0000      -0.436096       -11.8668
  32   1.0000      -0.413225       -11.2444
  33   1.0000      -0.412651       -11.2288
  34   1.0000      -0.409239       -11.1359
  35   1.0000      -0.390891       -10.6367
  36   1.0000      -0.379801       -10.3349
  37   1.0000      -0.367078        -9.9887
  38   1.0000      -0.355194        -9.6653
  39   1.0000      -0.343166        -9.3380
  40   1.0000      -0.328296        -8.9334
  41   1.0000      -0.324832        -8.8391
  42   1.0000      -0.317558        -8.6412
  43   1.0000      -0.253958        -6.9106
  44   1.0000      -0.253005        -6.8846
  45   1.0000      -0.245442        -6.6788
  46   1.0000      -0.235889        -6.4189
  47   1.0000      -0.219007        -5.9595
  48   0.0000      -0.036893        -1.0039
  49   0.0000       0.000238         0.0065
  50   0.0000       0.003701         0.1007
  51   0.0000       0.006636         0.1806
  52   0.0000       0.007826         0.2130

MULLIKEN ATOMIC CHARGES AND SPIN POPULATIONS
--------------------------------------------
   0 C :   -1.273801    0.145392
   1 C :   -0.681689   -0.056461
   2 C :    1.849232   -0.027761
   3 C :   -0.705108    0.115727
   4 C :   -1.127780   -0.056512
   5 C :   -0.361925    0.157481
   6 C :    0.871886    0.226228
   7 C :    1.844137   -0.028095
   8 C :   -1.261037    0.145951
   9 C :   -0.683077   -0.056310
  10 C :   -0.370162    0.158022
  11 C :   -1.167668   -0.056632
  12 C :   -0.710424    0.116206
  13 O :   -1.171667    0.263908
  14 H :    0.492499   -0.000732
  15 H :    0.624885   -0.001117
  16 H :   -0.078007   -0.010102
  17 H :    0.596099   -0.002925
  18 H :    0.314666   -0.008338
  19 H :    0.313529   -0.008324
  20 H :    0.626455   -0.002796
  21 H :    0.507607   -0.000449
  22 H :   -0.101021   -0.010585
  23 H :    0.652368   -0.001773
Sum of atomic charges         :   -1.0000000

LOEWDIN ATOMIC CHARGES AND SPIN POPULATIONS
-------------------------------------------
   0 C :    0.148809    0.052413
   1 C :    0.148551    0.011605
   2 C :   -0.174616    0.061481
   3 C :    0.165134    0.048408
   4 C :    0.155787    0.012893
   5 C :    0.152450    0.069476
   6 C :   -0.637257    0.188498
   7 C :   -0.174702    0.061727
   8 C :    0.148862    0.052611
   9 C :    0.148385    0.011674
  10 C :    0.152499    0.069830
  11 C :    0.155582    0.012979
  12 C :    0.164945    0.048621
  13 O :    0.379977    0.227279
  14 H :   -0.176877   -0.003513
  15 H :   -0.186531    0.019110
  16 H :   -0.217539    0.012515
  17 H :   -0.178841   -0.004328
  18 H :   -0.207287    0.011387
  19 H :   -0.207390    0.011429
  20 H :   -0.186580    0.019204
  21 H :   -0.176920   -0.003520
  22 H :   -0.217587    0.012560
  23 H :   -0.178853   -0.004340

  Mayer bond orders larger than 0.100000
B(  0-C ,  1-C ) :   1.3729 B(  0-C ,  3-C ) :  -0.5610 B(  0-C ,  4-C ) :   0.1509
B(  0-C ,  5-C ) :  -0.1631 B(  0-C ,  6-C ) :   0.2234 B(  0-C , 16-H ) :   1.4991
B(  0-C , 17-H ) :  -0.2026 B(  1-C ,  4-C ) :   0.1834 B(  1-C ,  5-C ) :   1.2474
B(  1-C , 17-H ) :   0.3826 B(  1-C , 18-H ) :  -0.1462 B(  2-C ,  3-C ) :   0.4694
B(  2-C ,  4-C ) :  -0.1412 B(  2-C ,  6-C ) :   0.5745 B(  2-C , 16-H ) :  -0.1561
B(  2-C , 17-H ) :   0.1441 B(  3-C ,  4-C ) :   1.3882 B(  3-C ,  6-C ) :   0.1601
B(  3-C , 12-C ) :   0.1355 B(  3-C , 18-H ) :   1.1798 B(  3-C , 19-H ) :  -0.1141
B(  4-C ,  5-C ) :   1.3385 B(  4-C , 14-H ) :   0.4941 B(  5-C ,  6-C ) :   0.2235
B(  5-C , 14-H ) :   0.1103 B(  5-C , 15-H ) :   0.4018 B(  6-C ,  7-C ) :   0.5695
B(  6-C ,  8-C ) :   0.2039 B(  6-C , 10-C ) :   0.2129 B(  6-C , 12-C ) :   0.1638
B(  6-C , 16-H ) :  -0.3545 B(  6-C , 22-H ) :  -0.3778 B(  7-C , 11-C ) :  -0.1424
B(  7-C , 12-C ) :   0.4746 B(  7-C , 22-H ) :  -0.1770 B(  7-C , 23-H ) :   0.1572
B(  8-C ,  9-C ) :   1.3695 B(  8-C , 10-C ) :  -0.1968 B(  8-C , 11-C ) :   0.1522
B(  8-C , 12-C ) :  -0.5729 B(  8-C , 22-H ) :   1.5628 B(  8-C , 23-H ) :  -0.2088
B(  9-C , 10-C ) :   1.2683 B(  9-C , 11-C ) :   0.2228 B(  9-C , 19-H ) :  -0.1594
B(  9-C , 23-H ) :   0.2613 B( 10-C , 11-C ) :   1.3640 B( 10-C , 20-H ) :   0.4056
B( 10-C , 21-H ) :   0.1267 B( 10-C , 23-H ) :   0.1088 B( 11-C , 12-C ) :   1.3929
B( 11-C , 21-H ) :   0.4596 B( 12-C , 18-H ) :  -0.1117 B( 12-C , 19-H ) :   1.1808
B( 13-O , 16-H ) :   0.3680 B( 13-O , 22-H ) :   0.3700 B( 16-H , 18-H ) :   0.1743
B( 16-H , 22-H ) :   0.1693 B( 19-H , 22-H ) :   0.1835

Dispersion correction           -0.026024711
FINAL SINGLE POINT ENERGY      -576.280572444411

DIPOLE MOMENT
-------------

Method             : SCF
Type of density    : Electron Density
Multiplicity       :   2
Irrep              :   0
Energy             :  -576.2545477329406367 Eh
Relativity type    :
Basis              : AO
                                X                 Y                 Z
Electronic contribution:     -0.036754046       2.336388769      -0.109295404
Nuclear contribution   :      0.065380464      -4.610103580       0.211136604
                        -----------------------------------------
Total Dipole Moment    :      0.028626417      -2.273714811       0.101841200
                        -----------------------------------------
Magnitude (a.u.)       :      2.276174454
Magnitude (Debye)      :      5.785575675

Rotational constants in cm-1:             0.059016             0.013412             0.011183
Rotational constants in MHz :          1769.265782           402.071173           335.263928

                             ****ORCA TERMINATED NORMALLY****
TOTAL RUN TIME: 0 days 0 hours 10 minutes 19 seconds 79 msec
