                         Program Version 6.0.0  -   RELEASE  -
|  1> !PBE0 aug-cc-pVTZ d3 TightSCF SlowConv RIJCOSX defgrid2
|  2>
|  3> %pal
|  4> nprocs 4
|  5> end
|  6>
|  7> %scf
|  8> MaxIter 1500
|  9> end
| 10>
| 11> %maxcore 3000
| 12>
| 13> !CPCM
| 14> %cpcm smd true
| 15> SMDsolvent "MeCN"
| 16> surfacetype gepol_ses
| 17> rsolv 2.19
| 18> end
| 19>
| 20> * xyz 0 1
| 21> C           4.13966964128756      1.20735034805801      0.00018109983423
| 22> C           4.83985938717942      0.00012909944918     -0.00011080706815
| 23> C           4.13977283020272     -1.20715138721907     -0.00030540880609
| 24> C           2.74896974902717     -1.21166073629652     -0.00020947111922
| 25> C           2.03371707188302      0.00000535590610      0.00007936492405
| 26> C           2.74886648576486      1.21173557633403      0.00027305110837
| 27> H           2.19700573398250      2.15507580320245      0.00050096603306
| 28> C           0.60926575165477     -0.00003899905682      0.00017121398327
| 29> C          -0.60926677013399     -0.00011851011831      0.00032726130009
| 30> C          -2.03371710027454     -0.00005107798655      0.00019494163829
| 31> C          -2.74898416366441     -1.21170960248422      0.00036780306847
| 32> C          -4.13978643826222     -1.20718728138590      0.00021041667338
| 33> C          -4.83985863236214      0.00010214935927     -0.00011716793755
| 34> C          -4.13965447812715      1.20731478629068     -0.00028483680888
| 35> C          -2.74885097774675      1.21168640857502     -0.00012607465811
| 36> H          -2.19698244285642      2.15502223469334     -0.00025694123114
| 37> H          -4.68454348342066      2.15603211713716     -0.00054208004626
| 38> H          -5.93383287072922      0.00016036307699     -0.00023936958784
| 39> H          -4.68478251870500     -2.15584320000508      0.00034538941345
| 40> H          -2.19721645884462     -2.15510431633366      0.00062541194967
| 41> H           2.19719446528860     -2.15505107012925     -0.00036096765238
| 42> H           4.68475743011085     -2.15581340727935     -0.00053331434756
| 43> H           5.93383355030704      0.00017426906263     -0.00018342642694
| 44> H           4.68456993843861      2.15606107714988      0.00033824576380
| 45> *
| 46>
| 47>                          ****END OF INPUT****

CARTESIAN COORDINATES (ANGSTROEM)
---------------------------------
  C      4.139670    1.207350    0.000181
  C      4.839859    0.000129   -0.000111
  C      4.139773   -1.207151   -0.000305
  C      2.748970   -1.211661   -0.000209
  C      2.033717    0.000005    0.000079
  C      2.748866    1.211736    0.000273
  H      2.197006    2.155076    0.000501
  C      0.609266   -0.000039    0.000171
  C     -0.609267   -0.000119    0.000327
  C     -2.033717   -0.000051    0.000195
  C     -2.748984   -1.211710    0.000368
  C     -4.139786   -1.207187    0.000210
  C     -4.839859    0.000102   -0.000117
  C     -4.139654    1.207315   -0.000285
  C     -2.748851    1.211686   -0.000126
  H     -2.196982    2.155022   -0.000257
  H     -4.684543    2.156032   -0.000542
  H     -5.933833    0.000160   -0.000239
  H     -4.684783   -2.155843    0.000345
  H     -2.197216   -2.155104    0.000625
  H      2.197194   -2.155051   -0.000361
  H      4.684757   -2.155813   -0.000533
  H      5.933834    0.000174   -0.000183
  H      4.684570    2.156061    0.000338

 Total Charge           Charge          ....    0
 Multiplicity           Mult            ....    1
 Number of Electrons    NEL             ....   94
 Basis Dimension        Dim             ....  874

ORBITAL ENERGIES
----------------

  NO   OCC          E(Eh)            E(eV)
   0   2.0000     -10.264169      -279.3022
   1   2.0000     -10.264161      -279.3020
   2   2.0000     -10.241064      -278.6735
   3   2.0000     -10.240715      -278.6640
   4   2.0000     -10.240705      -278.6637
   5   2.0000     -10.240702      -278.6637
   6   2.0000     -10.240695      -278.6635
   7   2.0000     -10.238760      -278.6108
   8   2.0000     -10.237048      -278.5642
   9   2.0000     -10.237037      -278.5640
  10   2.0000     -10.236380      -278.5461
  11   2.0000     -10.236377      -278.5460
  12   2.0000     -10.236085      -278.5380
  13   2.0000     -10.236072      -278.5377
  14   2.0000      -0.897643       -24.4261
  15   2.0000      -0.894190       -24.3321
  16   2.0000      -0.822746       -22.3880
  17   2.0000      -0.795974       -21.6596
  18   2.0000      -0.776621       -21.1329
  19   2.0000      -0.776457       -21.1285
  20   2.0000      -0.744526       -20.2596
  21   2.0000      -0.658793       -17.9267
  22   2.0000      -0.630556       -17.1583
  23   2.0000      -0.629520       -17.1301
  24   2.0000      -0.629059       -17.1176
  25   2.0000      -0.564655       -15.3650
  26   2.0000      -0.547795       -14.9063
  27   2.0000      -0.501012       -13.6332
  28   2.0000      -0.489028       -13.3071
  29   2.0000      -0.480065       -13.0632
  30   2.0000      -0.474959       -12.9243
  31   2.0000      -0.451114       -12.2754
  32   2.0000      -0.445803       -12.1309
  33   2.0000      -0.436458       -11.8766
  34   2.0000      -0.436149       -11.8682
  35   2.0000      -0.412746       -11.2314
  36   2.0000      -0.399578       -10.8731
  37   2.0000      -0.373071       -10.1518
  38   2.0000      -0.369048       -10.0423
  39   2.0000      -0.363116        -9.8809
  40   2.0000      -0.358753        -9.7622
  41   2.0000      -0.342589        -9.3223
  42   2.0000      -0.293490        -7.9863
  43   2.0000      -0.292204        -7.9513
  44   2.0000      -0.276478        -7.5233
  45   2.0000      -0.276327        -7.5192
  46   2.0000      -0.234015        -6.3679
  47   0.0000      -0.059574        -1.6211
  48   0.0000      -0.017717        -0.4821
  49   0.0000      -0.015532        -0.4227
  50   0.0000      -0.005035        -0.1370
  51   0.0000      -0.001292        -0.0352

MULLIKEN ATOMIC CHARGES
-----------------------
   0 C :   -1.009852
   1 C :   -0.067565
   2 C :   -1.009682
   3 C :   -1.089954
   4 C :    1.556725
   5 C :   -1.057191
   6 H :   -0.269952
   7 C :    1.207694
   8 C :    1.200042
   9 C :    1.631134
  10 C :   -1.022311
  11 C :   -0.955930
  12 C :   -0.006657
  13 C :   -0.889021
  14 C :   -1.092895
  15 H :   -0.395803
  16 H :    0.533191
  17 H :    0.727047
  18 H :    0.448496
  19 H :   -0.195894
  20 H :   -0.301038
  21 H :    0.553226
  22 H :    0.890180
  23 H :    0.616011
Sum of atomic charges:    0.0000000

LOEWDIN ATOMIC CHARGES
----------------------
   0 C :    0.190380
   1 C :    0.188297
   2 C :    0.190370
   3 C :    0.192274
   4 C :   -0.221440
   5 C :    0.192287
   6 H :   -0.159901
   7 C :    0.082271
   8 C :    0.082259
   9 C :   -0.221413
  10 C :    0.192292
  11 C :    0.190402
  12 C :    0.188310
  13 C :    0.190404
  14 C :    0.192287
  15 H :   -0.159946
  16 H :   -0.164747
  17 H :   -0.165222
  18 H :   -0.164749
  19 H :   -0.159884
  20 H :   -0.159922
  21 H :   -0.164734
  22 H :   -0.165166
  23 H :   -0.164707

  Mayer bond orders larger than 0.100000
B(  0-C ,  1-C ) :   1.3789 B(  0-C ,  2-C ) :   0.4438 B(  0-C ,  3-C ) :   0.2651
B(  0-C ,  4-C ) :   0.2828 B(  0-C ,  5-C ) :   1.3500 B(  0-C ,  7-C ) :   0.4501
B(  0-C ,  8-C ) :  -0.8691 B(  0-C , 10-C ) :  -0.1066 B(  0-C , 11-C ) :   0.1494
B(  0-C , 13-C ) :  -0.2754 B(  0-C , 15-H ) :   0.1889 B(  0-C , 16-H ) :  -0.1287
B(  0-C , 17-H ) :   0.1849 B(  0-C , 23-H ) :   0.1718 B(  1-C ,  2-C ) :   1.3768
B(  1-C ,  3-C ) :  -0.4821 B(  1-C ,  4-C ) :  -0.3673 B(  1-C ,  5-C ) :  -0.4348
B(  1-C ,  6-H ) :  -0.1325 B(  1-C ,  7-C ) :  -0.1415 B(  1-C ,  8-C ) :   0.9136
B(  1-C , 11-C ) :   0.1622 B(  1-C , 12-C ) :   0.1756 B(  1-C , 20-H ) :  -0.1611
B(  1-C , 21-H ) :   0.2443 B(  1-C , 22-H ) :   0.1330 B(  1-C , 23-H ) :   0.2208
B(  2-C ,  3-C ) :   1.3623 B(  2-C ,  4-C ) :   0.2335 B(  2-C ,  5-C ) :   0.2549
B(  2-C ,  7-C ) :   0.4864 B(  2-C ,  8-C ) :  -0.9065 B(  2-C ,  9-C ) :  -0.1917
B(  2-C , 13-C ) :   0.1965 B(  2-C , 17-H ) :  -0.2761 B(  2-C , 19-H ) :   0.1175
B(  2-C , 21-H ) :   0.3001 B(  2-C , 22-H ) :  -0.1241 B(  3-C ,  4-C ) :   0.2035
B(  3-C ,  5-C ) :  -0.8137 B(  3-C ,  6-H ) :   0.3427 B(  3-C ,  7-C ) :   0.1984
B(  3-C ,  9-C ) :   0.1549 B(  3-C , 10-C ) :   0.2166 B(  3-C , 18-H ) :  -0.1674
B(  3-C , 20-H ) :   2.4135 B(  3-C , 21-H ) :  -0.2279 B(  3-C , 22-H ) :  -0.1548
B(  4-C ,  5-C ) :   0.2393 B(  4-C ,  8-C ) :   0.2182 B(  4-C ,  9-C ) :   0.4573
B(  4-C , 10-C ) :   0.1733 B(  4-C , 11-C ) :  -0.1016 B(  4-C , 14-C ) :   0.1211
B(  4-C , 15-H ) :  -0.2541 B(  4-C , 21-H ) :   0.1315 B(  4-C , 23-H ) :   0.1325
B(  5-C ,  6-H ) :   2.2579 B(  5-C ,  7-C ) :   0.2099 B(  5-C , 14-C ) :   0.1501
B(  5-C , 16-H ) :  -0.1190 B(  5-C , 20-H ) :   0.3369 B(  5-C , 22-H ) :  -0.1679
B(  5-C , 23-H ) :  -0.2158 B(  6-H ,  7-C ) :  -0.3590 B(  6-H ,  8-C ) :  -0.8578
B(  6-H ,  9-C ) :  -0.1525 B(  6-H , 13-C ) :   0.1267 B(  6-H , 17-H ) :  -0.1162
B(  6-H , 20-H ) :   0.6717 B(  6-H , 22-H ) :  -0.2882 B(  7-C ,  8-C ) :   5.5222
B(  7-C ,  9-C ) :   0.4396 B(  7-C , 11-C ) :  -0.6938 B(  7-C , 12-C ) :   1.2095
B(  7-C , 13-C ) :  -0.4861 B(  7-C , 14-C ) :  -0.2015 B(  7-C , 15-H ) :  -1.2527
B(  7-C , 16-H ) :  -0.3717 B(  7-C , 17-H ) :   0.8622 B(  7-C , 18-H ) :  -0.6666
B(  7-C , 19-H ) :  -0.6085 B(  7-C , 20-H ) :  -0.3291 B(  7-C , 21-H ) :   0.4294
B(  7-C , 22-H ) :  -0.8885 B(  7-C , 23-H ) :   0.2566 B(  8-C ,  9-C ) :  -0.1741
B(  8-C , 10-C ) :   0.1469 B(  8-C , 11-C ) :   0.2931 B(  8-C , 12-C ) :  -0.3149
B(  8-C , 13-C ) :   0.2263 B(  8-C , 14-C ) :   0.2328 B(  8-C , 15-H ) :  -0.1963
B(  8-C , 16-H ) :   0.4782 B(  8-C , 17-H ) :  -0.5331 B(  8-C , 18-H ) :   0.6064
B(  8-C , 19-H ) :  -0.4745 B(  8-C , 20-H ) :  -0.9508 B(  8-C , 21-H ) :  -0.3061
B(  8-C , 22-H ) :   1.4632 B(  9-C , 10-C ) :   0.2155 B(  9-C , 11-C ) :   0.1961
B(  9-C , 12-C ) :  -0.3049 B(  9-C , 13-C ) :   0.2327 B(  9-C , 16-H ) :   0.1435
B(  9-C , 18-H ) :   0.1237 B(  9-C , 20-H ) :  -0.1326 B(  9-C , 21-H ) :  -0.1055
B(  9-C , 22-H ) :   0.3727 B(  9-C , 23-H ) :   0.1155 B( 10-C , 11-C ) :   1.2841
B( 10-C , 12-C ) :  -0.4269 B( 10-C , 13-C ) :   0.2047 B( 10-C , 14-C ) :  -0.8525
B( 10-C , 15-H ) :   0.3393 B( 10-C , 17-H ) :  -0.1017 B( 10-C , 18-H ) :  -0.1320
B( 10-C , 19-H ) :   2.0956 B( 10-C , 21-H ) :  -0.2256 B( 10-C , 22-H ) :   0.1548
B( 11-C , 12-C ) :   1.2535 B( 11-C , 13-C ) :   0.3167 B( 11-C , 14-C ) :   0.3452
B( 11-C , 17-H ) :  -0.1255 B( 11-C , 18-H ) :   0.5811 B( 11-C , 20-H ) :   0.1137
B( 11-C , 21-H ) :  -0.1237 B( 12-C , 13-C ) :   1.2573 B( 12-C , 14-C ) :  -0.5373
B( 12-C , 15-H ) :  -0.2737 B( 12-C , 16-H ) :   0.1804 B( 12-C , 17-H ) :   0.3646
B( 12-C , 18-H ) :   0.1101 B( 12-C , 19-H ) :  -0.1898 B( 12-C , 20-H ) :  -0.1152
B( 12-C , 22-H ) :   0.1534 B( 13-C , 14-C ) :   1.2083 B( 13-C , 16-H ) :   0.3970
B( 13-C , 20-H ) :  -0.1014 B( 13-C , 21-H ) :   0.2408 B( 13-C , 23-H ) :  -0.1597
B( 14-C , 15-H ) :   2.6491 B( 14-C , 16-H ) :  -0.2650 B( 14-C , 19-H ) :   0.2885
B( 15-H , 17-H ) :  -0.1935 B( 15-H , 19-H ) :   0.6825 B( 15-H , 20-H ) :   0.1080
B( 15-H , 22-H ) :  -0.4176 B( 17-H , 19-H ) :  -0.1435 B( 17-H , 20-H ) :  -0.1411
B( 17-H , 22-H ) :   0.2737 B( 18-H , 22-H ) :  -0.1480 B( 20-H , 22-H ) :  -0.3088
B( 20-H , 23-H ) :  -0.1243

Dispersion correction           -0.024029381
FINAL SINGLE POINT ENERGY      -539.028062439142

DIPOLE MOMENT
-------------

Method             : SCF
Type of density    : Electron Density
Multiplicity       :   1
Irrep              :   0
Energy             :  -539.0040330583510695 Eh
Relativity type    :
Basis              : AO
                                X                 Y                 Z
Electronic contribution:     -0.000002608      -0.000237554       0.000469454
Nuclear contribution   :      0.000001470       0.000375094      -0.000682746
                        -----------------------------------------
Total Dipole Moment    :     -0.000001138       0.000137539      -0.000213293
                        -----------------------------------------
Magnitude (a.u.)       :      0.000253795
Magnitude (Debye)      :      0.000645096

Rotational constants in cm-1:             0.094691             0.008279             0.007613
Rotational constants in MHz :          2838.770806           248.185899           228.232190

                             ****ORCA TERMINATED NORMALLY****
TOTAL RUN TIME: 0 days 0 hours 9 minutes 30 seconds 983 msec
