                         Program Version 6.0.0  -   RELEASE  -
|  1> !B3LYP freq aug-cc-pVTZ d3 TightSCF SlowConv RIJCOSX defgrid2
|  2>
|  3> %pal
|  4> nprocs 12
|  5>
|  6> end
|  7>
|  8> %scf
|  9> MaxIter 1500
| 10> end
| 11>
| 12> %maxcore 5000
| 13>
| 14> !CPCM
| 15> %cpcm smd true
| 16> SMDsolvent "MeCN"
| 17> surfacetype gepol_ses
| 18> rsolv 2.19
| 19> end
| 20>
| 21> * xyz 1 2
| 22> C           0.95315964814709     -1.31174558165034      0.00173772632124
| 23> C           2.29716245510829     -1.05095401100247     -0.00153415863795
| 24> C           2.74516264046527      0.28181294173565     -0.00201351282069
| 25> C           1.84197152749627      1.35818457536566      0.00071057697819
| 26> C           0.49593722617564      1.11550664442805      0.00325548427247
| 27> C           0.02398395564649     -0.23365546846776      0.00353112253666
| 28> C          -1.35026149157597     -0.54319533565714      0.00312739938331
| 29> N          -2.23496899387835      0.43270305209163     -0.00033669353668
| 30> O          -3.48027377332980     -0.05609641922748     -0.00564253372985
| 31> H          -4.06600157370416      0.72684180469358     -0.00584540616838
| 32> H          -1.68099125439443     -1.57695635625673      0.00403515376454
| 33> H          -0.21623159437256      1.92583623579300      0.00533726844336
| 34> H           2.21605496313938      2.37102285600292      0.00016580913073
| 35> H           3.80745732853718      0.48165522814454     -0.00472399471553
| 36> H           3.01470795531907     -1.85759236459348     -0.00382494608930
| 37> H           0.58082388122059     -2.32599180139962      0.00221130486790
| 38> *
| 39>
| 40>                          ****END OF INPUT****

CARTESIAN COORDINATES (ANGSTROEM)
---------------------------------
  C      0.953160   -1.311746    0.001738
  C      2.297162   -1.050954   -0.001534
  C      2.745163    0.281813   -0.002014
  C      1.841972    1.358185    0.000711
  C      0.495937    1.115507    0.003255
  C      0.023984   -0.233655    0.003531
  C     -1.350261   -0.543195    0.003127
  N     -2.234969    0.432703   -0.000337
  O     -3.480274   -0.056096   -0.005643
  H     -4.066002    0.726842   -0.005845
  H     -1.680991   -1.576956    0.004035
  H     -0.216232    1.925836    0.005337
  H      2.216055    2.371023    0.000166
  H      3.807457    0.481655   -0.004724
  H      3.014708   -1.857592   -0.003825
  H      0.580824   -2.325992    0.002211

 Total Charge           Charge          ....    1
 Multiplicity           Mult            ....    2
 Number of Electrons    NEL             ....   63
 Basis Dimension        Dim             ....  575

ORBITAL ENERGIES
----------------
                 SPIN UP ORBITALS
  NO   OCC          E(Eh)            E(eV)
   0   1.0000     -19.254946      -523.9537
   1   1.0000     -14.447462      -393.1354
   2   1.0000     -10.268739      -279.4266
   3   1.0000     -10.251820      -278.9662
   4   1.0000     -10.236433      -278.5475
   5   1.0000     -10.226037      -278.2646
   6   1.0000     -10.224836      -278.2319
   7   1.0000     -10.212393      -277.8933
   8   1.0000     -10.210204      -277.8338
   9   1.0000      -1.182153       -32.1680
  10   1.0000      -0.937799       -25.5188
  11   1.0000      -0.894894       -24.3513
  12   1.0000      -0.804291       -21.8859
  13   1.0000      -0.792336       -21.5606
  14   1.0000      -0.695120       -18.9152
  15   1.0000      -0.651109       -17.7176
  16   1.0000      -0.617523       -16.8036
  17   1.0000      -0.586584       -15.9618
  18   1.0000      -0.558844       -15.2069
  19   1.0000      -0.524433       -14.2706
  20   1.0000      -0.507326       -13.8051
  21   1.0000      -0.497718       -13.5436
  22   1.0000      -0.477668       -12.9980
  23   1.0000      -0.461081       -12.5467
  24   1.0000      -0.454694       -12.3728
  25   1.0000      -0.426033       -11.5930
  26   1.0000      -0.392864       -10.6904
  27   1.0000      -0.380509       -10.3542
  28   1.0000      -0.355547        -9.6749
  29   1.0000      -0.343543        -9.3483
  30   1.0000      -0.300198        -8.1688
  31   1.0000      -0.286425        -7.7940
  32   0.0000      -0.113909        -3.0996
  33   0.0000      -0.045672        -1.2428
  34   0.0000      -0.012068        -0.3284
  35   0.0000      -0.009741        -0.2651
  36   0.0000      -0.002152        -0.0586

                 SPIN DOWN ORBITALS
  NO   OCC          E(Eh)            E(eV)
   0   1.0000     -19.248807      -523.7867
   1   1.0000     -14.440256      -392.9393
   2   1.0000     -10.269399      -279.4445
   3   1.0000     -10.249044      -278.8907
   4   1.0000     -10.232618      -278.4437
   5   1.0000     -10.224533      -278.2237
   6   1.0000     -10.223928      -278.2072
   7   1.0000     -10.212664      -277.9007
   8   1.0000     -10.210884      -277.8523
   9   1.0000      -1.169065       -31.8119
  10   1.0000      -0.927750       -25.2454
  11   1.0000      -0.886411       -24.1205
  12   1.0000      -0.795982       -21.6598
  13   1.0000      -0.789198       -21.4752
  14   1.0000      -0.690495       -18.7893
  15   1.0000      -0.648107       -17.6359
  16   1.0000      -0.613267       -16.6878
  17   1.0000      -0.581476       -15.8228
  18   1.0000      -0.556097       -15.1322
  19   1.0000      -0.520677       -14.1683
  20   1.0000      -0.495446       -13.4818
  21   1.0000      -0.475058       -12.9270
  22   1.0000      -0.471163       -12.8210
  23   1.0000      -0.460498       -12.5308
  24   1.0000      -0.452417       -12.3109
  25   1.0000      -0.407328       -11.0840
  26   1.0000      -0.391882       -10.6636
  27   1.0000      -0.378369       -10.2960
  28   1.0000      -0.336064        -9.1448
  29   1.0000      -0.327519        -8.9123
  30   1.0000      -0.296381        -8.0649
  31   0.0000      -0.208866        -5.6835
  32   0.0000      -0.086896        -2.3646
  33   0.0000      -0.037485        -1.0200
  34   0.0000      -0.009021        -0.2455
  35   0.0000      -0.001722        -0.0469

MULLIKEN ATOMIC CHARGES AND SPIN POPULATIONS
--------------------------------------------
   0 C :   -0.763777    0.043075
   1 C :   -0.540240   -0.014701
   2 C :   -0.098053    0.258682
   3 C :   -0.730206   -0.052798
   4 C :   -0.576164    0.088774
   5 C :    1.743872    0.217091
   6 C :    0.104240   -0.037438
   7 N :   -0.354858    0.318101
   8 O :   -0.215739    0.199996
   9 H :    0.224201   -0.008010
  10 H :    0.483549    0.003096
  11 H :    0.087741   -0.010954
  12 H :    0.589747    0.003305
  13 H :    0.427516   -0.002939
  14 H :    0.589185    0.002674
  15 H :    0.028986   -0.007953
Sum of atomic charges         :    1.0000000

LOEWDIN ATOMIC CHARGES AND SPIN POPULATIONS
-------------------------------------------
   0 C :    0.273161    0.057072
   1 C :    0.274805    0.043785
   2 C :    0.292026    0.132580
   3 C :    0.270353    0.035249
   4 C :    0.266101    0.070156
   5 C :   -0.098505    0.114853
   6 C :    0.086130    0.054615
   7 N :    0.218460    0.244396
   8 O :    0.750304    0.196487
   9 H :   -0.425071    0.012811
  10 H :   -0.149055   -0.005665
  11 H :   -0.169099    0.008993
  12 H :   -0.153608   -0.002766
  13 H :   -0.139322    0.030046
  14 H :   -0.152105    0.000308
  15 H :   -0.144574    0.007080

  Mayer bond orders larger than 0.100000
B(  0-C ,  1-C ) :   1.3068 B(  0-C ,  2-C ) :  -0.1359 B(  0-C ,  4-C ) :  -0.4386
B(  0-C , 11-H ) :   0.1224 B(  0-C , 14-H ) :  -0.2086 B(  0-C , 15-H ) :   1.6614
B(  1-C ,  2-C ) :   1.1679 B(  1-C ,  3-C ) :   0.1655 B(  1-C , 11-H ) :  -0.1013
B(  1-C , 14-H ) :   0.4337 B(  1-C , 15-H ) :  -0.1076 B(  2-C ,  3-C ) :   1.1092
B(  2-C ,  4-C ) :  -0.1666 B(  2-C ,  5-C ) :  -0.1951 B(  2-C ,  6-C ) :   0.1752
B(  2-C , 13-H ) :   0.7083 B(  3-C ,  4-C ) :   1.3322 B(  3-C ,  5-C ) :   0.1213
B(  3-C , 12-H ) :   0.4095 B(  4-C ,  5-C ) :   0.3356 B(  4-C ,  6-C ) :   0.2133
B(  4-C , 11-H ) :   1.3060 B(  4-C , 15-H ) :   0.1328 B(  5-C ,  6-C ) :   0.3459
B(  5-C , 11-H ) :  -0.1432 B(  5-C , 12-H ) :   0.1017 B(  5-C , 14-H ) :   0.1318
B(  5-C , 15-H ) :  -0.1844 B(  6-C ,  7-N ) :   0.8167 B(  6-C , 10-H ) :   0.5493
B(  6-C , 15-H ) :  -0.1452 B(  7-N ,  8-O ) :   0.8183 B(  7-N , 10-H ) :  -0.1063
B(  8-O ,  9-H ) :   0.9643 B( 11-H , 15-H ) :   0.1674

Dispersion correction           -0.027534885
FINAL SINGLE POINT ENERGY      -400.610693623122

DIPOLE MOMENT
-------------

Method             : SCF
Type of density    : Electron Density
Multiplicity       :   2
Irrep              :   0
Energy             :  -400.5831587384137151 Eh
Relativity type    :
Basis              : AO
                                X                 Y                 Z
Electronic contribution:     -3.189020713       0.147296597       0.003289529
Nuclear contribution   :      3.319181575      -0.253808841      -0.003013371
                        -----------------------------------------
Total Dipole Moment    :      0.130160862      -0.106512244       0.000276158
                        -----------------------------------------
Magnitude (a.u.)       :      0.168186754
Magnitude (Debye)      :      0.427496755

VIBRATIONAL FREQUENCIES
-----------------------

Scaling factor for frequencies =  1.000000000  (already applied!)

     0:       0.00 cm**-1
     1:       0.00 cm**-1
     2:       0.00 cm**-1
     3:       0.00 cm**-1
     4:       0.00 cm**-1
     5:       0.00 cm**-1
     6:      75.36 cm**-1
     7:     148.14 cm**-1
     8:     168.00 cm**-1
     9:     243.35 cm**-1
    10:     374.95 cm**-1
    11:     385.72 cm**-1
    12:     435.52 cm**-1
    13:     444.17 cm**-1
    14:     552.33 cm**-1
    15:     587.07 cm**-1
    16:     622.98 cm**-1
    17:     646.44 cm**-1
    18:     790.22 cm**-1
    19:     815.50 cm**-1
    20:     875.36 cm**-1
    21:     957.56 cm**-1
    22:     985.45 cm**-1
    23:    1005.18 cm**-1
    24:    1012.17 cm**-1
    25:    1012.75 cm**-1
    26:    1030.93 cm**-1
    27:    1093.96 cm**-1
    28:    1114.49 cm**-1
    29:    1161.02 cm**-1
    30:    1187.19 cm**-1
    31:    1246.55 cm**-1
    32:    1273.33 cm**-1
    33:    1343.32 cm**-1
    34:    1389.49 cm**-1
    35:    1439.30 cm**-1
    36:    1460.30 cm**-1
    37:    1502.69 cm**-1
    38:    1515.02 cm**-1
    39:    1538.55 cm**-1
    40:    1650.56 cm**-1
    41:    3151.98 cm**-1
    42:    3195.93 cm**-1
    43:    3200.17 cm**-1
    44:    3208.44 cm**-1
    45:    3216.24 cm**-1
    46:    3223.46 cm**-1
    47:    3559.00 cm**-1

IR SPECTRUM
-----------

 Mode   freq       eps      Int      T**2         TX        TY        TZ
       cm**-1   L/(mol*cm) km/mol    a.u.
----------------------------------------------------------------------------
  6:     75.36   0.000135    0.68  0.000560  (-0.001395 -0.000179 -0.023628)
  7:    148.14   0.000178    0.90  0.000375  (-0.008648  0.017324  0.000426)
  8:    168.00   0.000063    0.32  0.000117  (-0.001811  0.000926 -0.010635)
  9:    243.35   0.000103    0.52  0.000131  (-0.002388 -0.000248  0.011212)
 10:    374.95   0.000065    0.33  0.000054  (-0.001383 -0.000764  0.007192)
 11:    385.72   0.001655    8.36  0.001339  ( 0.035288  0.009640 -0.000710)
 12:    435.52   0.000415    2.10  0.000298  (-0.001002 -0.000331  0.017216)
 13:    444.17   0.001041    5.26  0.000732  (-0.025404 -0.008727  0.003175)
 14:    552.33   0.045140  228.12  0.025504  (-0.003724 -0.000964  0.159653)
 15:    587.07   0.000899    4.54  0.000478  ( 0.010913  0.018944  0.000214)
 16:    622.98   0.005626   28.43  0.002818  (-0.001573  0.000383 -0.053061)
 17:    646.44   0.022765  115.04  0.010989  ( 0.104047  0.012757  0.000985)
 18:    790.22   0.010802   54.59  0.004266  ( 0.000351 -0.000354  0.065312)
 19:    815.50   0.000039    0.19  0.000015  ( 0.000062  0.000296  0.003829)
 20:    875.36   0.000439    2.22  0.000157  (-0.001606  0.012405  0.000347)
 21:    957.56   0.000336    1.70  0.000110  (-0.001443  0.000155  0.010366)
 22:    985.45   0.002211   11.17  0.000700  (-0.000774 -0.000556  0.026443)
 23:   1005.18   0.009948   50.27  0.003088  ( 0.055323  0.005252  0.000237)
 24:   1012.17   0.003050   15.41  0.000940  (-0.030653 -0.000838  0.000192)
 25:   1012.75   0.000055    0.28  0.000017  ( 0.001438 -0.000551  0.003835)
 26:   1030.93   0.000266    1.34  0.000080  ( 0.000488 -0.000152  0.008953)
 27:   1093.96   0.082494  416.89  0.023532  ( 0.149193 -0.035688  0.000343)
 28:   1114.49   0.080996  409.32  0.022679  (-0.149036 -0.021623 -0.000451)
 29:   1161.02   0.006530   33.00  0.001755  (-0.035263  0.022620 -0.000056)
 30:   1187.19   0.009135   46.16  0.002401  ( 0.048615  0.006145  0.000075)
 31:   1246.55   0.085828  433.74  0.021486  (-0.141009 -0.040033 -0.000552)
 32:   1273.33   0.049626  250.79  0.012162  ( 0.110261  0.002118  0.000345)
 33:   1343.32   0.003409   17.23  0.000792  ( 0.023154  0.015993  0.000174)
 34:   1389.49   0.007652   38.67  0.001719  (-0.002577  0.041375 -0.000003)
 35:   1439.30   0.016374   82.75  0.003550  ( 0.021076 -0.055731  0.000043)
 36:   1460.30   0.001521    7.69  0.000325  ( 0.015454 -0.009272 -0.000547)
 37:   1502.69   0.045070  227.76  0.009360  (-0.096674  0.003687  0.000293)
 38:   1515.02   0.052561  265.62  0.010826  ( 0.103807  0.007109  0.000104)
 39:   1538.55   0.002912   14.72  0.000591  (-0.007512 -0.023114  0.000015)
 40:   1650.56   0.055070  278.30  0.010412  ( 0.101242  0.012724 -0.000032)
 41:   3151.98   0.000513    2.59  0.000051  ( 0.007080 -0.000784  0.000075)
 42:   3195.93   0.000106    0.53  0.000010  ( 0.003196  0.000332 -0.000086)
 43:   3200.17   0.000287    1.45  0.000028  ( 0.005199 -0.000980  0.000073)
 44:   3208.44   0.000512    2.59  0.000050  ( 0.003991  0.005821  0.000109)
 45:   3216.24   0.001045    5.28  0.000101  ( 0.010033 -0.000845 -0.000036)
 46:   3223.46   0.001375    6.95  0.000133  (-0.011395  0.001806 -0.000056)
 47:   3559.00   0.273645  1382.89  0.023994  ( 0.147880 -0.046103  0.000196)

--------------------------
THERMOCHEMISTRY AT 298.15K
--------------------------

Temperature         ...   298.15 K
Pressure            ...     1.00 atm
Total Mass          ...   121.14 AMU
Quasi RRHO          ...     True
Cut-Off Frequency   ...     1.00 cm^-1

Throughout the following assumptions are being made:
  (1) The electronic state is orbitally nondegenerate
      but the spin degeneracy is treated
  (2) There are no thermally accessible electronically excited states
  (3) Hindered rotations indicated by low frequency modes are not
      treated as such but are treated as vibrations and this may
      cause some error
  (4) All equations used are the standard statistical mechanics
      equations for an ideal gas
  (5) All vibrations are strictly harmonic

freq.      75.36  E(vib)   ...       0.49
freq.     148.14  E(vib)   ...       0.41
freq.     168.00  E(vib)   ...       0.38
freq.     243.35  E(vib)   ...       0.31
freq.     374.95  E(vib)   ...       0.21
freq.     385.72  E(vib)   ...       0.20
freq.     435.52  E(vib)   ...       0.17
freq.     444.17  E(vib)   ...       0.17
freq.     552.33  E(vib)   ...       0.12
freq.     587.07  E(vib)   ...       0.10
freq.     622.98  E(vib)   ...       0.09
freq.     646.44  E(vib)   ...       0.09
freq.     790.22  E(vib)   ...       0.05
freq.     815.50  E(vib)   ...       0.05
freq.     875.36  E(vib)   ...       0.04
freq.     957.56  E(vib)   ...       0.03
freq.     985.45  E(vib)   ...       0.02
freq.    1005.18  E(vib)   ...       0.02
freq.    1012.17  E(vib)   ...       0.02
freq.    1012.75  E(vib)   ...       0.02
freq.    1030.93  E(vib)   ...       0.02
freq.    1093.96  E(vib)   ...       0.02
freq.    1114.49  E(vib)   ...       0.01
freq.    1161.02  E(vib)   ...       0.01
freq.    1187.19  E(vib)   ...       0.01
freq.    1246.55  E(vib)   ...       0.01
freq.    1273.33  E(vib)   ...       0.01
freq.    1343.32  E(vib)   ...       0.01
freq.    1389.49  E(vib)   ...       0.00
freq.    1439.30  E(vib)   ...       0.00
freq.    1460.30  E(vib)   ...       0.00
freq.    1502.69  E(vib)   ...       0.00
freq.    1515.02  E(vib)   ...       0.00
freq.    1538.55  E(vib)   ...       0.00
freq.    1650.56  E(vib)   ...       0.00
freq.    3151.98  E(vib)   ...       0.00
freq.    3195.93  E(vib)   ...       0.00
freq.    3200.17  E(vib)   ...       0.00
freq.    3208.44  E(vib)   ...       0.00
freq.    3216.24  E(vib)   ...       0.00
freq.    3223.46  E(vib)   ...       0.00
freq.    3559.00  E(vib)   ...       0.00

------------
INNER ENERGY
------------

The inner energy is: U= E(el) + E(ZPE) + E(vib) + E(rot) + E(trans)
    E(el)   - is the total energy from the electronic structure calculation
              = E(kin-el) + E(nuc-el) + E(el-el) + E(nuc-nuc)
    E(ZPE)  - the the zero temperature vibrational energy from the frequency calculation
    E(vib)  - the the finite temperature correction to E(ZPE) due to population
              of excited vibrational states
    E(rot)  - is the rotational thermal energy
    E(trans)- is the translational thermal energy

Summary of contributions to the inner energy U:
Electronic energy                ...   -400.61069362 Eh
Zero point energy                ...      0.12493503 Eh      78.40 kcal/mol
Thermal vibrational correction   ...      0.00497489 Eh       3.12 kcal/mol
Thermal rotational correction    ...      0.00141627 Eh       0.89 kcal/mol
Thermal translational correction ...      0.00141627 Eh       0.89 kcal/mol
-----------------------------------------------------------------------
Total thermal energy                   -400.47795116 Eh

Summary of corrections to the electronic energy:
(perhaps to be used in another calculation)
Total thermal correction                  0.00780743 Eh       4.90 kcal/mol
Non-thermal (ZPE) correction              0.12493503 Eh      78.40 kcal/mol
-----------------------------------------------------------------------
Total correction                          0.13274246 Eh      83.30 kcal/mol

--------
ENTHALPY
--------

The enthalpy is H = U + kB*T
                kB is Boltzmann's constant
Total thermal energy              ...   -400.47795116 Eh
Thermal Enthalpy correction       ...      0.00094421 Eh       0.59 kcal/mol
-----------------------------------------------------------------------
Total Enthalpy                    ...   -400.47700695 Eh

Note: Only C1 symmetry has been detected, increase convergence thresholds
      if your molecule has a higher symmetry. Symmetry factor of 1.0 is
      used for the rotational entropy correction.

Note: Rotational entropy computed according to Herzberg
Infrared and Raman Spectra, Chapter V,1, Van Nostrand Reinhold, 1945
Point Group:  C1, Symmetry Number:   1
Rotational constants in cm-1:     0.167784     0.031057     0.026207

Vibrational entropy computed according to the QRRHO of S. Grimme
Chem.Eur.J. 2012 18 9955 using a reference frequency of 100.0 cm-1

-------
ENTROPY
-------

The entropy contributions are T*S = T*(S(el)+S(vib)+S(rot)+S(trans))
     S(el)   - electronic entropy
     S(vib)  - vibrational entropy
     S(rot)  - rotational entropy
     S(trans)- translational entropy
The entropies will be listed as multiplied by the temperature to get
units of energy

Electronic entropy                ...      0.00065446 Eh      0.41 kcal/mol
Vibrational entropy               ...      0.00821496 Eh      5.15 kcal/mol
Rotational entropy                ...      0.01371182 Eh      8.60 kcal/mol
Translational entropy             ...      0.01914284 Eh     12.01 kcal/mol
-----------------------------------------------------------------------
Final entropy term                ...      0.04172408 Eh     26.18 kcal/mol

In case the symmetry of your molecule has not been determined correctly
or in case you have a reason to use a different symmetry number we print
out the resulting rotational entropy values for sn=1,12:

 non-linear molecules -----------------------------------
|  sn= 1 | S(rot)=       0.01371182 Eh      8.60 kcal/mol|
|  sn= 2 | S(rot)=       0.01305736 Eh      8.19 kcal/mol|
|  sn= 3 | S(rot)=       0.01267453 Eh      7.95 kcal/mol|
|  sn= 4 | S(rot)=       0.01240291 Eh      7.78 kcal/mol|
|  sn= 5 | S(rot)=       0.01219222 Eh      7.65 kcal/mol|
|  sn= 6 | S(rot)=       0.01202007 Eh      7.54 kcal/mol|
|  sn= 7 | S(rot)=       0.01187453 Eh      7.45 kcal/mol|
|  sn= 8 | S(rot)=       0.01174845 Eh      7.37 kcal/mol|
|  sn= 9 | S(rot)=       0.01163724 Eh      7.30 kcal/mol|
|  sn=10 | S(rot)=       0.01153776 Eh      7.24 kcal/mol|
|  sn=11 | S(rot)=       0.01144777 Eh      7.18 kcal/mol|
|  sn=12 | S(rot)=       0.01136562 Eh      7.13 kcal/mol|
 linear molecules ---------------------------------------
|  Dinfh | S(rot)=       0.00876427 Eh      5.50 kcal/mol|
|  Cinfv | S(rot)=       0.00941873 Eh      5.91 kcal/mol|
 --------------------------------------------------------

                             ****ORCA TERMINATED NORMALLY****
TOTAL RUN TIME: 0 days 0 hours 32 minutes 56 seconds 750 msec
