                         Program Version 6.0.0  -   RELEASE  -
|  1> !TPSSh aug-cc-pVTZ d3 TightSCF SlowConv RIJCOSX defgrid2
|  2>
|  3> %pal
|  4> nprocs 15
|  5> end
|  6>
|  7> %scf
|  8> MaxIter 1500
|  9> end
| 10>
| 11> %maxcore 3500
| 12>
| 13> !CPCM
| 14> %cpcm smd true
| 15> SMDsolvent "WATER"
| 16> surfacetype gepol_ses
| 17> rsolv 1.40
| 18> end
| 19>
| 20> * xyz 0 1
| 21> C           0.05740703362366     -0.03818478987782     -0.05305252362433
| 22> C           0.04752787284548      1.43042672917474      0.09288134793546
| 23> C           0.00865823360556      2.06419843064535      1.28313969477442
| 24> C          -0.02631367755515      1.27331877582174      2.55115567713606
| 25> C          -0.01924382659142     -0.21029957823671      2.44828393846160
| 26> C           0.02139111377803     -0.84476466741681      1.19738932390815
| 27> C           0.02778920782920     -2.23769356254970      1.12126987378335
| 28> C          -0.00634981044020     -2.99663523812184      2.28791660064124
| 29> C          -0.04698344076028     -2.36584188207955      3.53454063211562
| 30> C          -0.05333228207351     -0.97623991811648      3.61522849103236
| 31> H           0.07423269005991      1.98647405476100     -0.84970518486997
| 32> H          -0.08462573760684     -0.45717520913165      4.57653406994510
| 33> H          -0.07388405763115     -2.96530465276422      4.44922462797787
| 34> H          -0.00147351819034     -4.08899982107002      2.22872595641621
| 35> H           0.05990452710164     -2.70205720690776      0.13238845062488
| 36> C          -0.00206079517557      3.54702899649423      1.43475658835013
| 37> H          -0.90223963443982      3.87118144099815      1.98551534688661
| 38> H           0.85990766484548      3.87826240212472      2.03977796655726
| 39> H           0.02634952855796      4.05066472850984      0.45627956358589
| 40> O          -0.05966185780097      1.83961965072649      3.62552534412724
| 41> O           0.09300076601833     -0.55701475298369     -1.15202852476517
| 42> *
| 43>
| 44>                          ****END OF INPUT****

CARTESIAN COORDINATES (ANGSTROEM)
---------------------------------
  C      0.057407   -0.038185   -0.053053
  C      0.047528    1.430427    0.092881
  C      0.008658    2.064198    1.283140
  C     -0.026314    1.273319    2.551156
  C     -0.019244   -0.210300    2.448284
  C      0.021391   -0.844765    1.197389
  C      0.027789   -2.237694    1.121270
  C     -0.006350   -2.996635    2.287917
  C     -0.046983   -2.365842    3.534541
  C     -0.053332   -0.976240    3.615228
  H      0.074233    1.986474   -0.849705
  H     -0.084626   -0.457175    4.576534
  H     -0.073884   -2.965305    4.449225
  H     -0.001474   -4.089000    2.228726
  H      0.059905   -2.702057    0.132388
  C     -0.002061    3.547029    1.434757
  H     -0.902240    3.871181    1.985515
  H      0.859908    3.878262    2.039778
  H      0.026350    4.050665    0.456280
  O     -0.059662    1.839620    3.625525
  O      0.093001   -0.557015   -1.152029

 Total Charge           Charge          ....    0
 Multiplicity           Mult            ....    1
 Number of Electrons    NEL             ....   90
 Basis Dimension        Dim             ....  782

ORBITAL ENERGIES
----------------

  NO   OCC          E(Eh)            E(eV)
   0   2.0000     -19.063788      -518.7520
   1   2.0000     -19.061240      -518.6827
   2   2.0000     -10.216551      -278.0065
   3   2.0000     -10.214962      -277.9632
   4   2.0000     -10.154254      -276.3113
   5   2.0000     -10.141602      -275.9670
   6   2.0000     -10.140796      -275.9451
   7   2.0000     -10.138266      -275.8762
   8   2.0000     -10.133978      -275.7596
   9   2.0000     -10.133808      -275.7549
  10   2.0000     -10.133370      -275.7430
  11   2.0000     -10.133032      -275.7338
  12   2.0000     -10.115329      -275.2521
  13   2.0000      -1.042554       -28.3693
  14   2.0000      -1.039244       -28.2793
  15   2.0000      -0.860653       -23.4196
  16   2.0000      -0.816853       -22.2277
  17   2.0000      -0.756154       -20.5760
  18   2.0000      -0.749723       -20.4010
  19   2.0000      -0.701087       -19.0776
  20   2.0000      -0.656796       -17.8723
  21   2.0000      -0.618761       -16.8373
  22   2.0000      -0.594246       -16.1703
  23   2.0000      -0.560134       -15.2420
  24   2.0000      -0.517083       -14.0705
  25   2.0000      -0.501452       -13.6452
  26   2.0000      -0.474237       -12.9046
  27   2.0000      -0.449361       -12.2277
  28   2.0000      -0.439326       -11.9547
  29   2.0000      -0.437610       -11.9080
  30   2.0000      -0.427177       -11.6241
  31   2.0000      -0.422804       -11.5051
  32   2.0000      -0.405699       -11.0396
  33   2.0000      -0.401134       -10.9154
  34   2.0000      -0.387470       -10.5436
  35   2.0000      -0.386889       -10.5278
  36   2.0000      -0.370121       -10.0715
  37   2.0000      -0.357452        -9.7268
  38   2.0000      -0.351352        -9.5608
  39   2.0000      -0.340647        -9.2695
  40   2.0000      -0.281197        -7.6518
  41   2.0000      -0.266048        -7.2395
  42   2.0000      -0.261537        -7.1168
  43   2.0000      -0.259557        -7.0629
  44   2.0000      -0.252369        -6.8673
  45   0.0000      -0.130904        -3.5621
  46   0.0000      -0.060826        -1.6552
  47   0.0000      -0.035666        -0.9705
  48   0.0000      -0.003416        -0.0930
  49   0.0000       0.007025         0.1912

MULLIKEN ATOMIC CHARGES
-----------------------
   0 C :    1.517229
   1 C :   -0.442339
   2 C :    0.000983
   3 C :    1.248082
   4 C :    0.926505
   5 C :    0.713192
   6 C :   -0.950635
   7 C :   -0.221206
   8 C :   -0.220660
   9 C :   -1.142595
  10 H :    0.134377
  11 H :   -0.019302
  12 H :    0.541088
  13 H :    0.484856
  14 H :   -0.050656
  15 C :   -0.324284
  16 H :    0.126894
  17 H :    0.125050
  18 H :    0.087619
  19 O :   -1.273003
  20 O :   -1.261193
Sum of atomic charges:    0.0000000

LOEWDIN ATOMIC CHARGES
----------------------
   0 C :   -0.550302
   1 C :    0.252104
   2 C :   -0.098886
   3 C :   -0.518427
   4 C :   -0.115770
   5 C :   -0.121889
   6 C :    0.220648
   7 C :    0.228083
   8 C :    0.228190
   9 C :    0.221448
  10 H :   -0.164078
  11 H :   -0.174153
  12 H :   -0.159325
  13 H :   -0.159176
  14 H :   -0.173709
  15 C :    0.570740
  16 H :   -0.154279
  17 H :   -0.154428
  18 H :   -0.157890
  19 O :    0.506862
  20 O :    0.474236

  Mayer bond orders larger than 0.100000
B(  0-C ,  1-C ) :   0.7006 B(  0-C ,  5-C ) :   0.4096 B(  0-C ,  6-C ) :   0.4116
B(  0-C ,  8-C ) :   0.1178 B(  0-C ,  9-C ) :  -0.1412 B(  0-C , 10-H ) :  -0.1793
B(  0-C , 14-H ) :  -0.1177 B(  0-C , 20-O ) :  -0.7916 B(  1-C ,  2-C ) :   1.5086
B(  1-C ,  4-C ) :  -0.1450 B(  1-C ,  5-C ) :   0.2786 B(  1-C , 10-H ) :   0.7375
B(  1-C , 15-C ) :  -0.2836 B(  1-C , 20-O ) :   0.3435 B(  2-C ,  3-C ) :   0.5893
B(  2-C ,  4-C ) :   0.5352 B(  2-C ,  5-C ) :  -0.2202 B(  2-C , 15-C ) :   0.8459
B(  2-C , 19-O ) :   0.2388 B(  2-C , 20-O ) :   0.1588 B(  3-C ,  4-C ) :   0.4911
B(  3-C ,  5-C ) :   0.1915 B(  3-C ,  6-C ) :  -0.1095 B(  3-C ,  8-C ) :   0.1219
B(  3-C ,  9-C ) :   0.4278 B(  3-C , 11-H ) :  -0.1128 B(  3-C , 15-C ) :   0.2541
B(  3-C , 19-O ) :  -0.5080 B(  4-C ,  5-C ) :   1.0010 B(  4-C ,  6-C ) :  -0.4317
B(  4-C ,  7-C ) :  -0.1662 B(  4-C ,  8-C ) :  -0.1415 B(  4-C ,  9-C ) :   0.1876
B(  4-C , 19-O ) :   0.2485 B(  5-C ,  6-C ) :   0.4925 B(  5-C ,  9-C ) :  -0.2050
B(  5-C , 10-H ) :   0.1544 B(  5-C , 20-O ) :   0.3447 B(  6-C ,  7-C ) :   1.3444
B(  6-C ,  9-C ) :   0.1355 B(  6-C , 14-H ) :   1.0949 B(  7-C ,  8-C ) :   1.3184
B(  7-C , 12-H ) :   0.1291 B(  7-C , 13-H ) :   0.4366 B(  8-C ,  9-C ) :   1.3968
B(  8-C , 12-H ) :   0.3695 B(  8-C , 13-H ) :   0.1243 B(  9-C , 11-H ) :   1.0062
B(  9-C , 12-H ) :  -0.1026 B(  9-C , 19-O ) :   0.1004 B( 10-H , 20-O ) :   0.1641
B( 11-H , 19-O ) :   0.3393 B( 14-H , 20-O ) :   0.3160 B( 15-C , 16-H ) :   0.9828
B( 15-C , 17-H ) :   0.9840 B( 15-C , 18-H ) :   0.9844

Dispersion correction           -0.030427280
FINAL SINGLE POINT ENERGY      -574.706084821577

DIPOLE MOMENT
-------------

Method             : SCF
Type of density    : Electron Density
Multiplicity       :   1
Irrep              :   0
Energy             :  -574.6756575419341289 Eh
Relativity type    :
Basis              : AO
                                X                 Y                 Z
Electronic contribution:      0.045456374      -3.315357983      -0.929900949
Nuclear contribution   :     -0.064708602       3.027549454       1.475829711
                        -----------------------------------------
Total Dipole Moment    :     -0.019252228      -0.287808530       0.545928762
                        -----------------------------------------
Magnitude (a.u.)       :      0.617448469
Magnitude (Debye)      :      1.569429283

Rotational constants in cm-1:             0.042977             0.025752             0.016151
Rotational constants in MHz :          1288.412736           772.037278           484.209235

                             ****ORCA TERMINATED NORMALLY****
TOTAL RUN TIME: 0 days 0 hours 4 minutes 54 seconds 276 msec
