                         Program Version 6.0.0  -   RELEASE  -
|  1> !TPSSh opt aug-cc-pVTZ d3 TightSCF SlowConv RIJCOSX defgrid2
|  2>
|  3> %pal
|  4> nprocs 8
|  5> end
|  6>
|  7> %scf
|  8> MaxIter 1500
|  9> end
| 10>
| 11> %maxcore 3500
| 12>
| 13> !CPCM
| 14> %cpcm smd true
| 15> SMDsolvent "MeCN"
| 16> surfacetype gepol_ses
| 17> rsolv 2.19
| 18> end
| 19>
| 20> * xyz 0 1
| 21> C           0.86930262577353     -1.20261880029345      0.00017105333715
| 22> C           1.23795362702926      0.14976029336823      0.00011888618076
| 23> C           0.20861669065532      1.10178711313028      0.00004997159606
| 24> C          -1.14266539481067      0.75277814049696     -0.00001496332606
| 25> C          -1.49510132454858     -0.61091836423424      0.00001993066330
| 26> C          -0.47134803669840     -1.56560486246111      0.00011663608289
| 27> H          -0.73825756953350     -2.62759517616832      0.00016986000597
| 28> C          -2.93561352812274     -1.03199819846802     -0.00003268925957
| 29> H          -3.03042597379354     -2.12984128685189      0.00005376751285
| 30> H          -3.47239583982485     -0.64683793793607     -0.88649052066934
| 31> H          -3.47250072897996     -0.64668878799144      0.88629702354134
| 32> C          -2.20261220725801      1.81656948866912     -0.00009254079027
| 33> H          -2.85825633400454      1.73802365829102      0.88648022833246
| 34> H          -2.85834169985167      1.73782693594634     -0.88658224699833
| 35> H          -1.75673523006564      2.82424393630291     -0.00022124376864
| 36> H           0.47747434540426      2.16407970597621      0.00002545328680
| 37> C           2.63224685704945      0.60848489545892      0.00012709034736
| 38> C           3.73948848691454     -0.14591897511127     -0.00036178438147
| 39> H           3.70645882304827     -1.24152951701146     -0.00086807767724
| 40> H           4.73244049250843      0.31559854639130     -0.00029313441000
| 41> H           2.75218557093434      1.69979268676539      0.00055539249904
| 42> H           1.63531784817470     -1.98284589426942      0.00029190789491
| 43> *
| 44>
| 45>                          ****END OF INPUT****
 Total Charge           Charge          ....    0
 Multiplicity           Mult            ....    1
 Number of Electrons    NEL             ....   72
Dispersion correction           -0.026888742
FINAL SINGLE POINT ENERGY      -388.481976495864
Dispersion correction             ... done (  0.1 sec)
Dispersion correction           -0.026947190
FINAL SINGLE POINT ENERGY      -388.482868720002
Dispersion correction             ... done (  0.1 sec)
Dispersion correction           -0.026952926
FINAL SINGLE POINT ENERGY      -388.482881265264
Dispersion correction             ... done (  0.1 sec)
Dispersion correction           -0.026955312
FINAL SINGLE POINT ENERGY      -388.482886235103
Dispersion correction             ... done (  0.1 sec)
                    ***********************HURRAY********************

CARTESIAN COORDINATES (ANGSTROEM)
---------------------------------
  C      0.868549   -1.203000    0.000090
  C      1.233920    0.148696    0.000190
  C      0.207741    1.102181    0.000198
  C     -1.140847    0.752161    0.000070
  C     -1.491903   -0.609238   -0.000071
  C     -0.470602   -1.564005   -0.000054
  H     -0.736298   -2.615759    0.000198
  C     -2.932821   -1.035242   -0.000222
  H     -3.017613   -2.122486    0.000041
  H     -3.461717   -0.653108   -0.878722
  H     -3.462062   -0.652739    0.877879
  C     -2.199288    1.820266    0.000046
  H     -2.845794    1.741646    0.879294
  H     -2.847784    1.739379   -0.877499
  H     -1.749584    2.813781   -0.001821
  H      0.475280    2.154440    0.000077
  C      2.625717    0.611087    0.000359
  C      3.727624   -0.146250   -0.000363
  H      3.694948   -1.230206   -0.001294
  H      4.710272    0.309964    0.000027
  H      2.742994    1.691982    0.000926
  H      1.626501   -1.977001    0.000173

 Multiplicity           Mult            ....    1
 Number of Electrons    NEL             ....   72
 Basis Dimension        Dim             ....  736

ORBITAL ENERGIES
----------------

  NO   OCC          E(Eh)            E(eV)
   0   2.0000     -10.120712      -275.3986
   1   2.0000     -10.119762      -275.3727
   2   2.0000     -10.119259      -275.3590
   3   2.0000     -10.117606      -275.3141
   4   2.0000     -10.110769      -275.1280
   5   2.0000     -10.110082      -275.1093
   6   2.0000     -10.109821      -275.1022
   7   2.0000     -10.105177      -274.9758
   8   2.0000     -10.102660      -274.9073
   9   2.0000     -10.102513      -274.9034
  10   2.0000      -0.843257       -22.9462
  11   2.0000      -0.780821       -21.2472
  12   2.0000      -0.743932       -20.2434
  13   2.0000      -0.726045       -19.7567
  14   2.0000      -0.676663       -18.4129
  15   2.0000      -0.648891       -17.6572
  16   2.0000      -0.583842       -15.8871
  17   2.0000      -0.577101       -15.7037
  18   2.0000      -0.522025       -14.2050
  19   2.0000      -0.477881       -13.0038
  20   2.0000      -0.459368       -12.5000
  21   2.0000      -0.430727       -11.7207
  22   2.0000      -0.414313       -11.2740
  23   2.0000      -0.410397       -11.1675
  24   2.0000      -0.393652       -10.7118
  25   2.0000      -0.387329       -10.5398
  26   2.0000      -0.377526       -10.2730
  27   2.0000      -0.363982        -9.9045
  28   2.0000      -0.360179        -9.8010
  29   2.0000      -0.350998        -9.5512
  30   2.0000      -0.341407        -9.2902
  31   2.0000      -0.314822        -8.5667
  32   2.0000      -0.311242        -8.4693
  33   2.0000      -0.282412        -7.6848
  34   2.0000      -0.238295        -6.4843
  35   2.0000      -0.211747        -5.7619
  36   0.0000      -0.051772        -1.4088
  37   0.0000      -0.019918        -0.5420
  38   0.0000      -0.003206        -0.0872
  39   0.0000       0.006166         0.1678
  40   0.0000       0.010344         0.2815

MULLIKEN ATOMIC CHARGES
-----------------------
   0 C :   -0.172130
   1 C :    1.546552
   2 C :   -0.804417
   3 C :    0.259187
   4 C :    0.441260
   5 C :   -0.890537
   6 H :    0.044085
   7 C :   -0.238290
   8 H :   -0.091295
   9 H :    0.140166
  10 H :    0.139107
  11 C :   -0.228304
  12 H :    0.144455
  13 H :    0.143455
  14 H :   -0.094824
  15 H :   -0.288465
  16 C :    0.170857
  17 C :   -0.723426
  18 H :    0.250782
  19 H :    0.027272
  20 H :    0.096233
  21 H :    0.128276
Sum of atomic charges:   -0.0000000

LOEWDIN ATOMIC CHARGES
----------------------
   0 C :    0.211097
   1 C :   -0.148940
   2 C :    0.224957
   3 C :   -0.099656
   4 C :   -0.103892
   5 C :    0.221624
   6 H :   -0.175484
   7 C :    0.584889
   8 H :   -0.173325
   9 H :   -0.160786
  10 H :   -0.160758
  11 C :    0.586679
  12 H :   -0.160504
  13 H :   -0.160681
  14 H :   -0.172915
  15 H :   -0.174939
  16 C :    0.167952
  17 C :    0.527614
  18 H :   -0.226883
  19 H :   -0.222159
  20 H :   -0.195772
  21 H :   -0.188121

  Mayer bond orders larger than 0.100000
B(  0-C ,  1-C ) :   0.5985 B(  0-C ,  2-C ) :  -0.6477 B(  0-C ,  3-C ) :  -0.1361
B(  0-C ,  5-C ) :   0.9987 B(  0-C , 16-C ) :   0.2073 B(  0-C , 17-C ) :   0.1200
B(  0-C , 19-H ) :  -0.1134 B(  0-C , 21-H ) :   1.2112 B(  1-C ,  2-C ) :  -0.1055
B(  1-C ,  3-C ) :   0.2397 B(  1-C ,  4-C ) :  -0.2842 B(  1-C ,  7-C ) :   0.1178
B(  1-C , 15-H ) :  -0.2898 B(  1-C , 16-C ) :   0.1762 B(  1-C , 17-C ) :  -0.2382
B(  1-C , 20-H ) :   0.1117 B(  1-C , 21-H ) :   0.1012 B(  2-C ,  3-C ) :   0.7870
B(  2-C ,  4-C ) :  -0.1597 B(  2-C ,  5-C ) :   0.2078 B(  2-C ,  6-H ) :   0.1049
B(  2-C , 11-C ) :  -0.2159 B(  2-C , 15-H ) :   1.9107 B(  2-C , 20-H ) :  -0.1712
B(  3-C ,  4-C ) :   1.3979 B(  3-C ,  5-C ) :   0.2123 B(  3-C ,  7-C ) :   0.1626
B(  3-C , 11-C ) :   0.3712 B(  3-C , 20-H ) :   0.1395 B(  3-C , 21-H ) :  -0.1076
B(  4-C ,  5-C ) :   0.8891 B(  4-C ,  6-H ) :   0.2099 B(  4-C ,  7-C ) :   0.5666
B(  4-C , 11-C ) :   0.4002 B(  4-C , 16-C ) :   0.1194 B(  5-C ,  6-H ) :   1.0267
B(  5-C ,  7-C ) :  -0.1643 B(  5-C , 17-C ) :  -0.1234 B(  5-C , 21-H ) :  -0.1490
B(  7-C ,  8-H ) :   1.0299 B(  7-C ,  9-H ) :   1.0067 B(  7-C , 10-H ) :   1.0083
B( 11-C , 12-H ) :   0.9979 B( 11-C , 13-H ) :   0.9983 B( 11-C , 14-H ) :   1.0207
B( 15-H , 16-C ) :  -0.1199 B( 16-C , 17-C ) :   1.1462 B( 16-C , 20-H ) :   0.9536
B( 17-C , 18-H ) :   1.0263 B( 17-C , 19-H ) :   1.0663 B( 17-C , 20-H ) :  -0.1620

Dispersion correction           -0.026954628
FINAL SINGLE POINT ENERGY      -388.482886708215

DIPOLE MOMENT
-------------

Method             : SCF
Type of density    : Electron Density
Multiplicity       :   1
Irrep              :   0
Energy             :  -388.4559320799515945 Eh
Relativity type    :
Basis              : AO
                                X                 Y                 Z
Electronic contribution:      4.004004659      -1.062473070       0.000985315
Nuclear contribution   :     -4.589475672       1.148871911      -0.000862677
                        -----------------------------------------
Total Dipole Moment    :     -0.585471013       0.086398841       0.000122638
                        -----------------------------------------
Magnitude (a.u.)       :      0.591811695
Magnitude (Debye)      :      1.504265782

Rotational constants in cm-1:             0.097496             0.028717             0.022366
Rotational constants in MHz :          2922.859686           860.910100           670.519081

                             ****ORCA TERMINATED NORMALLY****
TOTAL RUN TIME: 0 days 0 hours 26 minutes 5 seconds 32 msec
