                         Program Version 6.0.0  -   RELEASE  -
|  1> !PBE0 freq def2-SV(p) d3 TightSCF SlowConv RIJCOSX defgrid2
|  2>
|  3> %pal
|  4> nprocs 12
|  5> end
|  6>
|  7> %scf
|  8> MaxIter 1500
|  9> end
| 10>
| 11> %maxcore 5000
| 12>
| 13> !CPCM
| 14> %cpcm smd true
| 15> SMDsolvent "MeCN"
| 16> surfacetype gepol_ses
| 17> rsolv 2.19
| 18> end
| 19>
| 20> * xyz 1 2
| 21> C           0.95754470739541     -1.32189789267079      0.00156759341445
| 22> C           2.30668086272369     -1.05177329444134     -0.00204885035746
| 23> C           2.74835642092471      0.28687445358455     -0.00228734166262
| 24> C           1.83658782250486      1.36109131615935      0.00089143663716
| 25> C           0.48526291686463      1.10833693955532      0.00341205405267
| 26> C           0.02083358781704     -0.24596480661330      0.00361128488158
| 27> C          -1.35704921756010     -0.55374984794336      0.00352936744045
| 28> N          -2.23947863364352      0.42797844004526     -0.00064407869463
| 29> O          -3.46448031815371     -0.02724466096486     -0.00536320698577
| 30> H          -4.05879222945111      0.75997522712910     -0.00739434482383
| 31> H          -1.69966940746775     -1.59695770762662      0.00517152839865
| 32> H          -0.24228179455787      1.92231994731139      0.00573964445467
| 33> H           2.20754169753390      2.38851790575346      0.00079996656408
| 34> H           3.82198636247346      0.49526449399696     -0.00503750875427
| 35> H           3.03608872039141     -1.86491327155796     -0.00454474676270
| 36> H           0.58856140220496     -2.35048124171715      0.00278780219756
| 37> *
| 38>
| 39>                          ****END OF INPUT****

CARTESIAN COORDINATES (ANGSTROEM)
---------------------------------
  C      0.957545   -1.321898    0.001568
  C      2.306681   -1.051773   -0.002049
  C      2.748356    0.286874   -0.002287
  C      1.836588    1.361091    0.000891
  C      0.485263    1.108337    0.003412
  C      0.020834   -0.245965    0.003611
  C     -1.357049   -0.553750    0.003529
  N     -2.239479    0.427978   -0.000644
  O     -3.464480   -0.027245   -0.005363
  H     -4.058792    0.759975   -0.007394
  H     -1.699669   -1.596958    0.005172
  H     -0.242282    1.922320    0.005740
  H      2.207542    2.388518    0.000800
  H      3.821986    0.495264   -0.005038
  H      3.036089   -1.864913   -0.004545
  H      0.588561   -2.350481    0.002788

 Total Charge           Charge          ....    1
 Multiplicity           Mult            ....    2
 Number of Electrons    NEL             ....   63
 Basis Dimension        Dim             ....  140

ORBITAL ENERGIES
----------------
                 SPIN UP ORBITALS
  NO   OCC          E(Eh)            E(eV)
   0   1.0000     -19.341099      -526.2981
   1   1.0000     -14.522392      -395.1744
   2   1.0000     -10.329841      -281.0893
   3   1.0000     -10.314051      -280.6596
   4   1.0000     -10.297998      -280.2228
   5   1.0000     -10.289186      -279.9830
   6   1.0000     -10.288318      -279.9594
   7   1.0000     -10.274704      -279.5889
   8   1.0000     -10.272780      -279.5366
   9   1.0000      -1.224463       -33.3193
  10   1.0000      -0.958518       -26.0826
  11   1.0000      -0.915367       -24.9084
  12   1.0000      -0.823110       -22.3980
  13   1.0000      -0.809361       -22.0238
  14   1.0000      -0.715089       -19.4586
  15   1.0000      -0.669402       -18.2154
  16   1.0000      -0.638915       -17.3858
  17   1.0000      -0.605502       -16.4765
  18   1.0000      -0.580007       -15.7828
  19   1.0000      -0.542516       -14.7626
  20   1.0000      -0.539081       -14.6691
  21   1.0000      -0.512989       -13.9591
  22   1.0000      -0.493689       -13.4340
  23   1.0000      -0.475868       -12.9490
  24   1.0000      -0.470588       -12.8054
  25   1.0000      -0.444542       -12.0966
  26   1.0000      -0.406479       -11.0609
  27   1.0000      -0.394555       -10.7364
  28   1.0000      -0.371297       -10.1035
  29   1.0000      -0.354193        -9.6381
  30   1.0000      -0.313785        -8.5385
  31   1.0000      -0.299726        -8.1559
  32   0.0000      -0.112003        -3.0478
  33   0.0000      -0.040544        -1.1033
  34   0.0000      -0.002520        -0.0686
  35   0.0000       0.053899         1.4667
  36   0.0000       0.071982         1.9587

                 SPIN DOWN ORBITALS
  NO   OCC          E(Eh)            E(eV)
   0   1.0000     -19.334105      -526.1077
   1   1.0000     -14.515006      -394.9734
   2   1.0000     -10.330369      -281.1036
   3   1.0000     -10.311325      -280.5854
   4   1.0000     -10.293518      -280.1009
   5   1.0000     -10.287296      -279.9315
   6   1.0000     -10.287059      -279.9251
   7   1.0000     -10.275399      -279.6078
   8   1.0000     -10.273879      -279.5665
   9   1.0000      -1.210214       -32.9316
  10   1.0000      -0.947871       -25.7929
  11   1.0000      -0.906052       -24.6549
  12   1.0000      -0.814067       -22.1519
  13   1.0000      -0.806641       -21.9498
  14   1.0000      -0.709732       -19.3128
  15   1.0000      -0.666191       -18.1280
  16   1.0000      -0.634173       -17.2567
  17   1.0000      -0.599637       -16.3170
  18   1.0000      -0.576986       -15.7006
  19   1.0000      -0.538595       -14.6559
  20   1.0000      -0.510515       -13.8918
  21   1.0000      -0.496665       -13.5149
  22   1.0000      -0.491193       -13.3660
  23   1.0000      -0.475213       -12.9312
  24   1.0000      -0.468220       -12.7409
  25   1.0000      -0.423631       -11.5276
  26   1.0000      -0.405489       -11.0339
  27   1.0000      -0.392561       -10.6821
  28   1.0000      -0.346308        -9.4235
  29   1.0000      -0.339190        -9.2298
  30   1.0000      -0.309894        -8.4326
  31   0.0000      -0.206622        -5.6225
  32   0.0000      -0.078801        -2.1443
  33   0.0000      -0.031270        -0.8509
  34   0.0000       0.017907         0.4873
  35   0.0000       0.056652         1.5416

MULLIKEN ATOMIC CHARGES AND SPIN POPULATIONS
--------------------------------------------
   0 C :   -0.054998    0.083732
   1 C :   -0.082484   -0.061388
   2 C :   -0.012423    0.313186
   3 C :   -0.084780   -0.092886
   4 C :   -0.047703    0.120715
   5 C :    0.039840    0.183185
   6 C :    0.028218   -0.048671
   7 N :    0.019979    0.321109
   8 O :   -0.262192    0.211354
   9 H :    0.419301   -0.008088
  10 H :    0.188519    0.000714
  11 H :    0.166569   -0.007082
  12 H :    0.165329    0.002803
  13 H :    0.179442   -0.015240
  14 H :    0.167043    0.001435
  15 H :    0.170340   -0.004880
Sum of atomic charges         :    1.0000000

LOEWDIN ATOMIC CHARGES AND SPIN POPULATIONS
-------------------------------------------
   0 C :   -0.042538    0.080923
   1 C :   -0.095799   -0.024685
   2 C :    0.007664    0.250715
   3 C :   -0.102515   -0.046884
   4 C :   -0.038735    0.109387
   5 C :   -0.000621    0.150783
   6 C :   -0.012434   -0.017245
   7 N :    0.043328    0.296823
   8 O :   -0.122852    0.218382
   9 H :    0.351593   -0.006137
  10 H :    0.167336   -0.000127
  11 H :    0.166682   -0.003717
  12 H :    0.167098    0.001298
  13 H :    0.171568   -0.007518
  14 H :    0.167898    0.000637
  15 H :    0.172328   -0.002635

  Mayer bond orders larger than 0.100000
B(  0-C ,  1-C ) :   1.4796 B(  0-C ,  5-C ) :   1.2005 B(  0-C , 15-H ) :   0.9546
B(  1-C ,  2-C ) :   1.2805 B(  1-C , 14-H ) :   0.9561 B(  2-C ,  3-C ) :   1.2811
B(  2-C , 13-H ) :   0.9485 B(  3-C ,  4-C ) :   1.4832 B(  3-C , 12-H ) :   0.9573
B(  4-C ,  5-C ) :   1.1827 B(  4-C , 11-H ) :   0.9471 B(  5-C ,  6-C ) :   1.3008
B(  6-C ,  7-N ) :   1.5332 B(  6-C , 10-H ) :   0.9173 B(  7-N ,  8-O ) :   1.2118
B(  8-O ,  9-H ) :   0.7889

Dispersion correction           -0.013889023
FINAL SINGLE POINT ENERGY      -399.900113349429

DIPOLE MOMENT
-------------

Method             : SCF
Type of density    : Electron Density
Multiplicity       :   2
Irrep              :   0
Energy             :  -399.8862243261311846 Eh
Relativity type    :
Basis              : AO
                                X                 Y                 Z
Electronic contribution:     -3.561118621       0.195798372       0.002011870
Nuclear contribution   :      3.312790193      -0.245462339      -0.002781312
                        -----------------------------------------
Total Dipole Moment    :     -0.248328428      -0.049663967      -0.000769442
                        -----------------------------------------
Magnitude (a.u.)       :      0.253247132
Magnitude (Debye)      :      0.643703052

VIBRATIONAL FREQUENCIES
-----------------------

Scaling factor for frequencies =  1.000000000  (already applied!)

     0:       0.00 cm**-1
     1:       0.00 cm**-1
     2:       0.00 cm**-1
     3:       0.00 cm**-1
     4:       0.00 cm**-1
     5:       0.00 cm**-1
     6:      79.24 cm**-1
     7:     156.64 cm**-1
     8:     181.51 cm**-1
     9:     247.38 cm**-1
    10:     384.73 cm**-1
    11:     391.46 cm**-1
    12:     447.81 cm**-1
    13:     454.37 cm**-1
    14:     570.66 cm**-1
    15:     589.67 cm**-1
    16:     642.86 cm**-1
    17:     652.84 cm**-1
    18:     797.41 cm**-1
    19:     824.20 cm**-1
    20:     885.24 cm**-1
    21:     956.91 cm**-1
    22:     986.59 cm**-1
    23:    1004.24 cm**-1
    24:    1019.51 cm**-1
    25:    1028.84 cm**-1
    26:    1041.63 cm**-1
    27:    1110.35 cm**-1
    28:    1148.36 cm**-1
    29:    1175.36 cm**-1
    30:    1212.74 cm**-1
    31:    1267.65 cm**-1
    32:    1309.55 cm**-1
    33:    1339.07 cm**-1
    34:    1438.35 cm**-1
    35:    1466.86 cm**-1
    36:    1479.21 cm**-1
    37:    1547.32 cm**-1
    38:    1567.70 cm**-1
    39:    1571.70 cm**-1
    40:    1697.72 cm**-1
    41:    3186.80 cm**-1
    42:    3228.23 cm**-1
    43:    3233.10 cm**-1
    44:    3240.58 cm**-1
    45:    3247.22 cm**-1
    46:    3253.17 cm**-1
    47:    3449.55 cm**-1

IR SPECTRUM
-----------

 Mode   freq       eps      Int      T**2         TX        TY        TZ
       cm**-1   L/(mol*cm) km/mol    a.u.
----------------------------------------------------------------------------
  6:     79.24   0.000232    1.17  0.000915  (-0.001592 -0.000208 -0.030213)
  7:    156.64   0.000176    0.89  0.000350  (-0.001773  0.018634  0.000026)
  8:    181.51   0.000001    0.01  0.000002  (-0.000771  0.000717  0.000822)
  9:    247.38   0.000137    0.69  0.000173  (-0.002641 -0.000343  0.012868)
 10:    384.73   0.000129    0.65  0.000105  (-0.000856 -0.000651  0.010186)
 11:    391.46   0.000924    4.67  0.000737  ( 0.024787  0.011057 -0.000282)
 12:    447.81   0.001174    5.93  0.000818  (-0.027171 -0.008790  0.001567)
 13:    454.37   0.000749    3.79  0.000514  (-0.001079 -0.000360  0.022653)
 14:    570.66   0.044422  224.49  0.024292  ( 0.003249  0.000540 -0.155824)
 15:    589.67   0.000709    3.58  0.000375  ( 0.007452  0.017878  0.000436)
 16:    642.86   0.004255   21.50  0.002065  (-0.002661  0.000250 -0.045368)
 17:    652.84   0.018075   91.34  0.008640  ( 0.092015  0.013161  0.000002)
 18:    797.41   0.008089   40.88  0.003166  ( 0.000395 -0.000258  0.056261)
 19:    824.20   0.000002    0.01  0.000001  ( 0.000101  0.000287  0.000723)
 20:    885.24   0.000398    2.01  0.000140  (-0.006613  0.009821  0.000203)
 21:    956.91   0.000080    0.41  0.000026  (-0.001171  0.000058  0.004980)
 22:    986.59   0.001364    6.89  0.000431  (-0.000381 -0.000499  0.020762)
 23:   1004.24   0.003793   19.17  0.001179  (-0.034144 -0.003574  0.000018)
 24:   1019.51   0.000016    0.08  0.000005  (-0.000290 -0.000503  0.002165)
 25:   1028.84   0.004880   24.66  0.001480  ( 0.038410  0.002182  0.000006)
 26:   1041.63   0.000260    1.31  0.000078  ( 0.000688 -0.000120  0.008799)
 27:   1110.35   0.005683   28.72  0.001597  ( 0.007319 -0.039289 -0.000029)
 28:   1148.36   0.001711    8.64  0.000465  ( 0.008778  0.019692  0.000087)
 29:   1175.36   0.014772   74.65  0.003922  ( 0.062555  0.002985  0.000120)
 30:   1212.74   0.065891  332.99  0.016955  (-0.129783  0.010556 -0.000340)
 31:   1267.65   0.021458  108.44  0.005282  (-0.058335 -0.043352 -0.000161)
 32:   1309.55   0.190896  964.71  0.045490  ( 0.213225  0.004982  0.000553)
 33:   1339.07   0.018487   93.42  0.004308  ( 0.062964  0.018540  0.000205)
 34:   1438.35   0.001425    7.20  0.000309  ( 0.011130  0.013613  0.000118)
 35:   1466.86   0.004926   24.89  0.001048  (-0.006690  0.031670 -0.000412)
 36:   1479.21   0.020554  103.87  0.004336  ( 0.015954 -0.063887 -0.000190)
 37:   1547.32   0.000219    1.11  0.000044  ( 0.005611  0.003556  0.000241)
 38:   1567.70   0.118446  598.58  0.023578  ( 0.153454  0.005448 -0.000145)
 39:   1571.70   0.003904   19.73  0.000775  (-0.019681 -0.019691  0.000024)
 40:   1697.72   0.053783  271.80  0.009886  ( 0.098543  0.013242 -0.000046)
 41:   3186.80   0.000264    1.33  0.000026  ( 0.004354 -0.002628  0.000024)
 42:   3228.23   0.000112    0.56  0.000011  ( 0.003143  0.000954 -0.000060)
 43:   3233.10   0.000185    0.93  0.000018  ( 0.003605 -0.002196  0.000040)
 44:   3240.58   0.000069    0.35  0.000007  ( 0.001433  0.002147  0.000069)
 45:   3247.22   0.000375    1.89  0.000036  ( 0.005395  0.002624 -0.000017)
 46:   3253.17   0.001585    8.01  0.000152  (-0.011410  0.004675 -0.000013)
 47:   3449.55   0.315203  1592.91  0.028515  ( 0.161011 -0.050895  0.000328)

--------------------------
THERMOCHEMISTRY AT 298.15K
--------------------------

Temperature         ...   298.15 K
Pressure            ...     1.00 atm
Total Mass          ...   121.14 AMU
Quasi RRHO          ...     True
Cut-Off Frequency   ...     1.00 cm^-1

Throughout the following assumptions are being made:
  (1) The electronic state is orbitally nondegenerate
      but the spin degeneracy is treated
  (2) There are no thermally accessible electronically excited states
  (3) Hindered rotations indicated by low frequency modes are not
      treated as such but are treated as vibrations and this may
      cause some error
  (4) All equations used are the standard statistical mechanics
      equations for an ideal gas
  (5) All vibrations are strictly harmonic

freq.      79.24  E(vib)   ...       0.49
freq.     156.64  E(vib)   ...       0.40
freq.     181.51  E(vib)   ...       0.37
freq.     247.38  E(vib)   ...       0.31
freq.     384.73  E(vib)   ...       0.20
freq.     391.46  E(vib)   ...       0.20
freq.     447.81  E(vib)   ...       0.17
freq.     454.37  E(vib)   ...       0.16
freq.     570.66  E(vib)   ...       0.11
freq.     589.67  E(vib)   ...       0.10
freq.     642.86  E(vib)   ...       0.09
freq.     652.84  E(vib)   ...       0.08
freq.     797.41  E(vib)   ...       0.05
freq.     824.20  E(vib)   ...       0.04
freq.     885.24  E(vib)   ...       0.04
freq.     956.91  E(vib)   ...       0.03
freq.     986.59  E(vib)   ...       0.02
freq.    1004.24  E(vib)   ...       0.02
freq.    1019.51  E(vib)   ...       0.02
freq.    1028.84  E(vib)   ...       0.02
freq.    1041.63  E(vib)   ...       0.02
freq.    1110.35  E(vib)   ...       0.02
freq.    1148.36  E(vib)   ...       0.01
freq.    1175.36  E(vib)   ...       0.01
freq.    1212.74  E(vib)   ...       0.01
freq.    1267.65  E(vib)   ...       0.01
freq.    1309.55  E(vib)   ...       0.01
freq.    1339.07  E(vib)   ...       0.01
freq.    1438.35  E(vib)   ...       0.00
freq.    1466.86  E(vib)   ...       0.00
freq.    1479.21  E(vib)   ...       0.00
freq.    1547.32  E(vib)   ...       0.00
freq.    1567.70  E(vib)   ...       0.00
freq.    1571.70  E(vib)   ...       0.00
freq.    1697.72  E(vib)   ...       0.00
freq.    3186.80  E(vib)   ...       0.00
freq.    3228.23  E(vib)   ...       0.00
freq.    3233.10  E(vib)   ...       0.00
freq.    3240.58  E(vib)   ...       0.00
freq.    3247.22  E(vib)   ...       0.00
freq.    3253.17  E(vib)   ...       0.00
freq.    3449.55  E(vib)   ...       0.00

------------
INNER ENERGY
------------

The inner energy is: U= E(el) + E(ZPE) + E(vib) + E(rot) + E(trans)
    E(el)   - is the total energy from the electronic structure calculation
              = E(kin-el) + E(nuc-el) + E(el-el) + E(nuc-nuc)
    E(ZPE)  - the the zero temperature vibrational energy from the frequency calculation
    E(vib)  - the the finite temperature correction to E(ZPE) due to population
              of excited vibrational states
    E(rot)  - is the rotational thermal energy
    E(trans)- is the translational thermal energy

Summary of contributions to the inner energy U:
Electronic energy                ...   -399.90011335 Eh
Zero point energy                ...      0.12647106 Eh      79.36 kcal/mol
Thermal vibrational correction   ...      0.00483715 Eh       3.04 kcal/mol
Thermal rotational correction    ...      0.00141627 Eh       0.89 kcal/mol
Thermal translational correction ...      0.00141627 Eh       0.89 kcal/mol
-----------------------------------------------------------------------
Total thermal energy                   -399.76597260 Eh

Summary of corrections to the electronic energy:
(perhaps to be used in another calculation)
Total thermal correction                  0.00766969 Eh       4.81 kcal/mol
Non-thermal (ZPE) correction              0.12647106 Eh      79.36 kcal/mol
-----------------------------------------------------------------------
Total correction                          0.13414075 Eh      84.17 kcal/mol

--------
ENTHALPY
--------

The enthalpy is H = U + kB*T
                kB is Boltzmann's constant
Total thermal energy              ...   -399.76597260 Eh
Thermal Enthalpy correction       ...      0.00094421 Eh       0.59 kcal/mol
-----------------------------------------------------------------------
Total Enthalpy                    ...   -399.76502839 Eh

Note: Only C1 symmetry has been detected, increase convergence thresholds
      if your molecule has a higher symmetry. Symmetry factor of 1.0 is
      used for the rotational entropy correction.

Note: Rotational entropy computed according to Herzberg
Infrared and Raman Spectra, Chapter V,1, Van Nostrand Reinhold, 1945
Point Group:  C1, Symmetry Number:   1
Rotational constants in cm-1:     0.166582     0.031088     0.026199

Vibrational entropy computed according to the QRRHO of S. Grimme
Chem.Eur.J. 2012 18 9955 using a reference frequency of 100.0 cm-1

-------
ENTROPY
-------

The entropy contributions are T*S = T*(S(el)+S(vib)+S(rot)+S(trans))
     S(el)   - electronic entropy
     S(vib)  - vibrational entropy
     S(rot)  - rotational entropy
     S(trans)- translational entropy
The entropies will be listed as multiplied by the temperature to get
units of energy

Electronic entropy                ...      0.00065446 Eh      0.41 kcal/mol
Vibrational entropy               ...      0.00794564 Eh      4.99 kcal/mol
Rotational entropy                ...      0.01371488 Eh      8.61 kcal/mol
Translational entropy             ...      0.01914284 Eh     12.01 kcal/mol
-----------------------------------------------------------------------
Final entropy term                ...      0.04145782 Eh     26.02 kcal/mol

In case the symmetry of your molecule has not been determined correctly
or in case you have a reason to use a different symmetry number we print
out the resulting rotational entropy values for sn=1,12:

 non-linear molecules -----------------------------------
|  sn= 1 | S(rot)=       0.01371488 Eh      8.61 kcal/mol|
|  sn= 2 | S(rot)=       0.01306042 Eh      8.20 kcal/mol|
|  sn= 3 | S(rot)=       0.01267759 Eh      7.96 kcal/mol|
|  sn= 4 | S(rot)=       0.01240597 Eh      7.78 kcal/mol|
|  sn= 5 | S(rot)=       0.01219528 Eh      7.65 kcal/mol|
|  sn= 6 | S(rot)=       0.01202313 Eh      7.54 kcal/mol|
|  sn= 7 | S(rot)=       0.01187759 Eh      7.45 kcal/mol|
|  sn= 8 | S(rot)=       0.01175151 Eh      7.37 kcal/mol|
|  sn= 9 | S(rot)=       0.01164030 Eh      7.30 kcal/mol|
|  sn=10 | S(rot)=       0.01154082 Eh      7.24 kcal/mol|
|  sn=11 | S(rot)=       0.01145083 Eh      7.19 kcal/mol|
|  sn=12 | S(rot)=       0.01136868 Eh      7.13 kcal/mol|
 linear molecules ---------------------------------------
|  Dinfh | S(rot)=       0.00876454 Eh      5.50 kcal/mol|
|  Cinfv | S(rot)=       0.00941900 Eh      5.91 kcal/mol|
 --------------------------------------------------------

                             ****ORCA TERMINATED NORMALLY****
TOTAL RUN TIME: 0 days 0 hours 8 minutes 4 seconds 903 msec
