                         Program Version 6.0.0  -   RELEASE  -
|  1> !r2SCAN aug-cc-pVTZ d3 TightSCF SlowConv RIJCOSX defgrid2
|  2>
|  3> %pal
|  4> nprocs 4
|  5> end
|  6>
|  7> %scf
|  8> MaxIter 1500
|  9> end
| 10>
| 11> %maxcore 3000
| 12>
| 13> !CPCM
| 14> %cpcm smd true
| 15> SMDsolvent "MeCN"
| 16> surfacetype gepol_ses
| 17> rsolv 2.19
| 18> end
| 19>
| 20> * xyz 1 2
| 21> C           1.38821397253669     -0.85710928094571      0.60741622632202
| 22> C           2.66653568645174     -1.38554775804107      0.62328529651635
| 23> C           3.74096697508373     -0.66019599701418      0.08285810563013
| 24> C           3.54023898785237      0.62233127623213     -0.45460571699329
| 25> C           2.27463505486006      1.17691753163962     -0.46404721541233
| 26> C           1.19493732351435      0.42049377974261      0.03782457404784
| 27> O          -0.00001161826735      1.03053434324458     -0.00007618077340
| 28> C          -1.19494650110222      0.42046263969238     -0.03791233087995
| 29> C          -2.27466316694698      1.17692889833622      0.46385316504035
| 30> C          -3.54025869091077      0.62232307991007      0.45446120210222
| 31> C          -3.74095306617908     -0.66026678297616     -0.08285951221376
| 32> C          -2.66650374430337     -1.38566766681220     -0.62318898600472
| 33> C          -1.38818943489976     -0.85721178830951     -0.60735323061330
| 34> H          -0.55743963132106     -1.38478510741341     -1.08197323083020
| 35> H          -2.84302940822415     -2.36075586477487     -1.08456370453300
| 36> H          -4.74708768097790     -1.08795510804427     -0.10418715284565
| 37> H          -4.38474494788350      1.18417342168211      0.86161853827017
| 38> H          -2.07820409834794      2.17105532289927      0.87220985478457
| 39> H           2.07815534201669      2.17098917949467     -0.87253031915770
| 40> H           4.38471105702739      1.18414197451138     -0.86184555829131
| 41> H           4.74710919235526     -1.08786907382573      0.10421696325696
| 42> H           2.84307759651065     -2.36058562840449      1.08475174308550
| 43> H           0.55748160115515     -1.38464569082344      1.08211306949251
| 44> *
| 45>
| 46>                          ****END OF INPUT****

CARTESIAN COORDINATES (ANGSTROEM)
---------------------------------
  C      1.388214   -0.857109    0.607416
  C      2.666536   -1.385548    0.623285
  C      3.740967   -0.660196    0.082858
  C      3.540239    0.622331   -0.454606
  C      2.274635    1.176918   -0.464047
  C      1.194937    0.420494    0.037825
  O     -0.000012    1.030534   -0.000076
  C     -1.194947    0.420463   -0.037912
  C     -2.274663    1.176929    0.463853
  C     -3.540259    0.622323    0.454461
  C     -3.740953   -0.660267   -0.082860
  C     -2.666504   -1.385668   -0.623189
  C     -1.388189   -0.857212   -0.607353
  H     -0.557440   -1.384785   -1.081973
  H     -2.843029   -2.360756   -1.084564
  H     -4.747088   -1.087955   -0.104187
  H     -4.384745    1.184173    0.861619
  H     -2.078204    2.171055    0.872210
  H      2.078155    2.170989   -0.872530
  H      4.384711    1.184142   -0.861846
  H      4.747109   -1.087869    0.104217
  H      2.843078   -2.360586    1.084752
  H      0.557482   -1.384646    1.082113

 Total Charge           Charge          ....    1
 Multiplicity           Mult            ....    2
 Number of Electrons    NEL             ....   89
 Basis Dimension        Dim             ....  828

ORBITAL ENERGIES
----------------
                 SPIN UP ORBITALS
  NO   OCC          E(Eh)            E(eV)
   0   1.0000     -19.090058      -519.4669
   1   1.0000     -10.158388      -276.4238
   2   1.0000     -10.158366      -276.4232
   3   1.0000     -10.083130      -274.3759
   4   1.0000     -10.083035      -274.3733
   5   1.0000     -10.082063      -274.3469
   6   1.0000     -10.082051      -274.3466
   7   1.0000     -10.079659      -274.2815
   8   1.0000     -10.079649      -274.2812
   9   1.0000     -10.072909      -274.0978
  10   1.0000     -10.072871      -274.0967
  11   1.0000     -10.072444      -274.0851
  12   1.0000     -10.072433      -274.0848
  13   1.0000      -1.137934       -30.9647
  14   1.0000      -0.871891       -23.7254
  15   1.0000      -0.852046       -23.1854
  16   1.0000      -0.782101       -21.2821
  17   1.0000      -0.756789       -20.5933
  18   1.0000      -0.750324       -20.4174
  19   1.0000      -0.728130       -19.8134
  20   1.0000      -0.658096       -17.9077
  21   1.0000      -0.623749       -16.9731
  22   1.0000      -0.604930       -16.4610
  23   1.0000      -0.580460       -15.7951
  24   1.0000      -0.552370       -15.0308
  25   1.0000      -0.506165       -13.7734
  26   1.0000      -0.492600       -13.4043
  27   1.0000      -0.491606       -13.3773
  28   1.0000      -0.483612       -13.1597
  29   1.0000      -0.442164       -12.0319
  30   1.0000      -0.438458       -11.9310
  31   1.0000      -0.425912       -11.5897
  32   1.0000      -0.423843       -11.5334
  33   1.0000      -0.415807       -11.3147
  34   1.0000      -0.409879       -11.1534
  35   1.0000      -0.379812       -10.3352
  36   1.0000      -0.365135        -9.9358
  37   1.0000      -0.364121        -9.9082
  38   1.0000      -0.356093        -9.6898
  39   1.0000      -0.338960        -9.2236
  40   1.0000      -0.335742        -9.1360
  41   1.0000      -0.280102        -7.6220
  42   1.0000      -0.276157        -7.5146
  43   1.0000      -0.272466        -7.4142
  44   1.0000      -0.248274        -6.7559
  45   0.0000      -0.083820        -2.2809
  46   0.0000      -0.070726        -1.9245
  47   0.0000      -0.065060        -1.7704
  48   0.0000      -0.057546        -1.5659
  49   0.0000       0.002295         0.0624

                 SPIN DOWN ORBITALS
  NO   OCC          E(Eh)            E(eV)
   0   1.0000     -19.082260      -519.2547
   1   1.0000     -10.157454      -276.3984
   2   1.0000     -10.157431      -276.3977
   3   1.0000     -10.081092      -274.3205
   4   1.0000     -10.080998      -274.3179
   5   1.0000     -10.078094      -274.2389
   6   1.0000     -10.078083      -274.2386
   7   1.0000     -10.077786      -274.2305
   8   1.0000     -10.077777      -274.2303
   9   1.0000     -10.073949      -274.1261
  10   1.0000     -10.073911      -274.1251
  11   1.0000     -10.073413      -274.1115
  12   1.0000     -10.073401      -274.1112
  13   1.0000      -1.127049       -30.6686
  14   1.0000      -0.867284       -23.6000
  15   1.0000      -0.847244       -23.0547
  16   1.0000      -0.777597       -21.1595
  17   1.0000      -0.754347       -20.5268
  18   1.0000      -0.748180       -20.3590
  19   1.0000      -0.718710       -19.5571
  20   1.0000      -0.652124       -17.7452
  21   1.0000      -0.621976       -16.9248
  22   1.0000      -0.601801       -16.3758
  23   1.0000      -0.577037       -15.7020
  24   1.0000      -0.550431       -14.9780
  25   1.0000      -0.503873       -13.7111
  26   1.0000      -0.488893       -13.3035
  27   1.0000      -0.483349       -13.1526
  28   1.0000      -0.475085       -12.9277
  29   1.0000      -0.437364       -11.9013
  30   1.0000      -0.436825       -11.8866
  31   1.0000      -0.423352       -11.5200
  32   1.0000      -0.422619       -11.5000
  33   1.0000      -0.412950       -11.2369
  34   1.0000      -0.403922       -10.9913
  35   1.0000      -0.370871       -10.0919
  36   1.0000      -0.363910        -9.9025
  37   1.0000      -0.355581        -9.6759
  38   1.0000      -0.351637        -9.5685
  39   1.0000      -0.334661        -9.1066
  40   1.0000      -0.333266        -9.0686
  41   1.0000      -0.272268        -7.4088
  42   1.0000      -0.268201        -7.2981
  43   1.0000      -0.260874        -7.0987
  44   0.0000      -0.219841        -5.9822
  45   0.0000      -0.069708        -1.8969
  46   0.0000      -0.063475        -1.7273
  47   0.0000      -0.057687        -1.5697
  48   0.0000      -0.040185        -1.0935

MULLIKEN ATOMIC CHARGES AND SPIN POPULATIONS
--------------------------------------------
   0 C :   -0.302371    0.118095
   1 C :   -0.601814   -0.085589
   2 C :   -0.449416    0.254885
   3 C :   -0.357633   -0.082382
   4 C :   -1.065293    0.105049
   5 C :    1.390775    0.067858
   6 O :   -0.717795    0.222006
   7 C :    1.393315    0.067649
   8 C :   -1.064797    0.105148
   9 C :   -0.357637   -0.082437
  10 C :   -0.449278    0.254891
  11 C :   -0.601680   -0.085588
  12 C :   -0.304341    0.118223
  13 H :    0.548083    0.009027
  14 H :    0.363815    0.000429
  15 H :    0.486995    0.007448
  16 H :    0.367110   -0.001262
  17 H :    0.477068   -0.004578
  18 H :    0.477118   -0.004575
  19 H :    0.367009   -0.001252
  20 H :    0.487199    0.007459
  21 H :    0.363775    0.000426
  22 H :    0.549791    0.009070
Sum of atomic charges         :    1.0000000

LOEWDIN ATOMIC CHARGES AND SPIN POPULATIONS
-------------------------------------------
   0 C :    0.245799    0.067071
   1 C :    0.243869    0.023039
   2 C :    0.249597    0.111285
   3 C :    0.236913    0.023771
   4 C :    0.255143    0.061144
   5 C :   -0.322001    0.084008
   6 O :    0.680742    0.179131
   7 C :   -0.321966    0.083964
   8 C :    0.255179    0.061160
   9 C :    0.236915    0.023746
  10 C :    0.249602    0.111274
  11 C :    0.243903    0.023042
  12 C :    0.245680    0.067077
  13 H :   -0.154495    0.011930
  14 H :   -0.149530   -0.004283
  15 H :   -0.147917    0.026439
  16 H :   -0.151379   -0.004195
  17 H :   -0.146444    0.010258
  18 H :   -0.146454    0.010251
  19 H :   -0.151389   -0.004188
  20 H :   -0.147922    0.026441
  21 H :   -0.149556   -0.004284
  22 H :   -0.154290    0.011922

  Mayer bond orders larger than 0.100000
B(  0-C ,  1-C ) :   1.1107 B(  0-C ,  2-C ) :   0.1182 B(  0-C ,  4-C ) :   0.2804
B(  0-C ,  5-C ) :   0.6864 B(  0-C , 12-C ) :   0.1491 B(  0-C , 13-H ) :  -0.1108
B(  0-C , 22-H ) :   0.4282 B(  1-C ,  2-C ) :   1.1396 B(  1-C ,  3-C ) :  -0.1248
B(  1-C ,  4-C ) :  -0.1724 B(  1-C ,  5-C ) :  -0.3371 B(  1-C , 21-H ) :   0.8013
B(  2-C ,  3-C ) :   1.0718 B(  2-C ,  4-C ) :   0.3783 B(  2-C ,  5-C ) :  -0.1478
B(  2-C , 20-H ) :   0.5649 B(  3-C ,  4-C ) :   1.2681 B(  3-C ,  5-C ) :  -0.3504
B(  3-C , 19-H ) :   0.7970 B(  4-C ,  5-C ) :   0.2267 B(  4-C ,  6-O ) :   0.2652
B(  4-C , 18-H ) :   0.3404 B(  5-C ,  6-O ) :   0.5856 B(  5-C ,  7-C ) :   0.1211
B(  6-O ,  7-C ) :   0.5857 B(  6-O ,  8-C ) :   0.2650 B(  7-C ,  8-C ) :   0.2265
B(  7-C ,  9-C ) :  -0.3501 B(  7-C , 10-C ) :  -0.1475 B(  7-C , 11-C ) :  -0.3366
B(  7-C , 12-C ) :   0.6854 B(  8-C ,  9-C ) :   1.2679 B(  8-C , 10-C ) :   0.3779
B(  8-C , 11-C ) :  -0.1725 B(  8-C , 12-C ) :   0.2798 B(  8-C , 17-H ) :   0.3406
B(  9-C , 10-C ) :   1.0717 B(  9-C , 11-C ) :  -0.1246 B(  9-C , 16-H ) :   0.7968
B( 10-C , 11-C ) :   1.1398 B( 10-C , 12-C ) :   0.1181 B( 10-C , 15-H ) :   0.5651
B( 11-C , 12-C ) :   1.1108 B( 11-C , 14-H ) :   0.8009 B( 12-C , 13-H ) :   0.4301
B( 12-C , 22-H ) :  -0.1117

Dispersion correction           -0.008230444
FINAL SINGLE POINT ENERGY      -538.206537652192

DIPOLE MOMENT
-------------

Method             : SCF
Type of density    : Electron Density
Multiplicity       :   2
Irrep              :   0
Energy             :  -538.1983072079044632 Eh
Relativity type    :
Basis              : AO
                                X                 Y                 Z
Electronic contribution:     -0.000884123       2.136965548       0.001691877
Nuclear contribution   :      0.000026820      -2.597809167       0.000076640
                        -----------------------------------------
Total Dipole Moment    :     -0.000857303      -0.460843619       0.001768518
                        -----------------------------------------
Magnitude (a.u.)       :      0.460847810
Magnitude (Debye)      :      1.171382041

Rotational constants in cm-1:             0.082583             0.014544             0.013062
Rotational constants in MHz :          2475.769648           436.018937           391.587616

                             ****ORCA TERMINATED NORMALLY****
TOTAL RUN TIME: 0 days 0 hours 6 minutes 16 seconds 415 msec
