                         Program Version 6.0.0  -   RELEASE  -
|  1> !PBE0 aug-cc-pVTZ d3 TightSCF SlowConv RIJCOSX defgrid2
|  2>
|  3> %pal
|  4> nprocs 4
|  5> end
|  6>
|  7> %scf
|  8> MaxIter 1500
|  9> end
| 10>
| 11> %maxcore 3000
| 12>
| 13> !CPCM
| 14> %cpcm smd true
| 15> SMDsolvent "MeCN"
| 16> surfacetype gepol_ses
| 17> rsolv 2.19
| 18> end
| 19>
| 20> * xyz -1 2
| 21> C          -1.37883091856119     -1.21517375011549     -0.00008867448001
| 22> C           0.00729805129085     -1.22295651486138     -0.00028940061097
| 23> C           0.72993387220770     -0.00000590382604     -0.00030312643494
| 24> C           0.00732184530524      1.22296016475999     -0.00010449796565
| 25> C          -1.37880870032056      1.21520147102756      0.00009142728977
| 26> C          -2.06946528458053      0.00001961491822      0.00010470343428
| 27> F          -3.42567015063122      0.00002957691106      0.00031309610633
| 28> H          -1.94941667505959      2.14990360317295      0.00023681861010
| 29> H           0.58443906920603      2.14816924945391     -0.00012002348132
| 30> N           2.11808314940451     -0.00002527989961     -0.00036226373716
| 31> O           2.72387695234489     -1.10771207139848      0.00040597823570
| 32> O           2.72391644246942      1.10763885175707      0.00056138155342
| 33> H           0.58439912932837     -2.14817284604861     -0.00044313878677
| 34> H          -1.94945738240393     -2.14986566585114     -0.00007967973278
| 35> *
| 36>
| 37>                          ****END OF INPUT****

CARTESIAN COORDINATES (ANGSTROEM)
---------------------------------
  C     -1.378831   -1.215174   -0.000089
  C      0.007298   -1.222957   -0.000289
  C      0.729934   -0.000006   -0.000303
  C      0.007322    1.222960   -0.000104
  C     -1.378809    1.215201    0.000091
  C     -2.069465    0.000020    0.000105
  F     -3.425670    0.000030    0.000313
  H     -1.949417    2.149904    0.000237
  H      0.584439    2.148169   -0.000120
  N      2.118083   -0.000025   -0.000362
  O      2.723877   -1.107712    0.000406
  O      2.723916    1.107639    0.000561
  H      0.584399   -2.148173   -0.000443
  H     -1.949457   -2.149866   -0.000080

 Total Charge           Charge          ....   -1
 Multiplicity           Mult            ....    2
 Number of Electrons    NEL             ....   73
 Basis Dimension        Dim             ....  552

ORBITAL ENERGIES
----------------
                 SPIN UP ORBITALS
  NO   OCC          E(Eh)            E(eV)
   0   1.0000     -24.782789      -674.3740
   1   1.0000     -19.158399      -521.3265
   2   1.0000     -19.158398      -521.3265
   3   1.0000     -14.515856      -394.9965
   4   1.0000     -10.298948      -280.2486
   5   1.0000     -10.248710      -278.8816
   6   1.0000     -10.228075      -278.3201
   7   1.0000     -10.228071      -278.3200
   8   1.0000     -10.224625      -278.2262
   9   1.0000     -10.224615      -278.2259
  10   1.0000      -1.254339       -34.1323
  11   1.0000      -1.163562       -31.6621
  12   1.0000      -0.989177       -26.9169
  13   1.0000      -0.882162       -24.0048
  14   1.0000      -0.798892       -21.7390
  15   1.0000      -0.769492       -20.9389
  16   1.0000      -0.692503       -18.8440
  17   1.0000      -0.630344       -17.1525
  18   1.0000      -0.589085       -16.0298
  19   1.0000      -0.553481       -15.0610
  20   1.0000      -0.513577       -13.9751
  21   1.0000      -0.504582       -13.7304
  22   1.0000      -0.493749       -13.4356
  23   1.0000      -0.485049       -13.1988
  24   1.0000      -0.457267       -12.4429
  25   1.0000      -0.447656       -12.1813
  26   1.0000      -0.429537       -11.6883
  27   1.0000      -0.413348       -11.2478
  28   1.0000      -0.406445       -11.0599
  29   1.0000      -0.369213       -10.0468
  30   1.0000      -0.340534        -9.2664
  31   1.0000      -0.285245        -7.7619
  32   1.0000      -0.269957        -7.3459
  33   1.0000      -0.269620        -7.3367
  34   1.0000      -0.258478        -7.0335
  35   1.0000      -0.242257        -6.5921
  36   1.0000      -0.129880        -3.5342
  37   0.0000      -0.008769        -0.2386
  38   0.0000       0.005202         0.1416
  39   0.0000       0.019753         0.5375
  40   0.0000       0.020206         0.5498
  41   0.0000       0.024415         0.6644

                 SPIN DOWN ORBITALS
  NO   OCC          E(Eh)            E(eV)
   0   1.0000     -24.782095      -674.3551
   1   1.0000     -19.152805      -521.1743
   2   1.0000     -19.152801      -521.1742
   3   1.0000     -14.507331      -394.7645
   4   1.0000     -10.295499      -280.1548
   5   1.0000     -10.249412      -278.9007
   6   1.0000     -10.229492      -278.3586
   7   1.0000     -10.229491      -278.3586
   8   1.0000     -10.222208      -278.1604
   9   1.0000     -10.222203      -278.1603
  10   1.0000      -1.252606       -34.0852
  11   1.0000      -1.149972       -31.2923
  12   1.0000      -0.978136       -26.6164
  13   1.0000      -0.879262       -23.9259
  14   1.0000      -0.791906       -21.5489
  15   1.0000      -0.767503       -20.8848
  16   1.0000      -0.681195       -18.5363
  17   1.0000      -0.628411       -17.0999
  18   1.0000      -0.585155       -15.9229
  19   1.0000      -0.551868       -15.0171
  20   1.0000      -0.505703       -13.7609
  21   1.0000      -0.502678       -13.6786
  22   1.0000      -0.479428       -13.0459
  23   1.0000      -0.453288       -12.3346
  24   1.0000      -0.450484       -12.2583
  25   1.0000      -0.446736       -12.1563
  26   1.0000      -0.429115       -11.6768
  27   1.0000      -0.411222       -11.1899
  28   1.0000      -0.405224       -11.0267
  29   1.0000      -0.359893        -9.7932
  30   1.0000      -0.339721        -9.2443
  31   1.0000      -0.266822        -7.2606
  32   1.0000      -0.265049        -7.2123
  33   1.0000      -0.244019        -6.6401
  34   1.0000      -0.238742        -6.4965
  35   1.0000      -0.237063        -6.4508
  36   0.0000      -0.034714        -0.9446
  37   0.0000      -0.003456        -0.0940
  38   0.0000       0.006988         0.1901
  39   0.0000       0.021103         0.5742
  40   0.0000       0.021497         0.5850

MULLIKEN ATOMIC CHARGES AND SPIN POPULATIONS
--------------------------------------------
   0 C :   -0.652249   -0.079107
   1 C :   -0.553263    0.175289
   2 C :    0.206525   -0.048349
   3 C :   -0.554145    0.175302
   4 C :   -0.654007   -0.079100
   5 C :    0.539484    0.173288
   6 F :   -0.471001    0.010161
   7 H :    0.443203    0.002710
   8 H :    0.685377   -0.006542
   9 N :    0.676806    0.229773
  10 O :   -0.896998    0.225212
  11 O :   -0.896846    0.225210
  12 H :    0.684233   -0.006559
  13 H :    0.442882    0.002713
Sum of atomic charges         :   -1.0000000

LOEWDIN ATOMIC CHARGES AND SPIN POPULATIONS
-------------------------------------------
   0 C :    0.150160    0.007187
   1 C :    0.155024    0.067019
   2 C :   -0.333280    0.049893
   3 C :    0.155026    0.067019
   4 C :    0.150157    0.007186
   5 C :   -0.561848    0.085434
   6 F :    0.497818    0.027829
   7 H :   -0.176049   -0.006906
   8 H :   -0.217286    0.017714
   9 N :   -0.875401    0.253400
  10 O :    0.224509    0.206708
  11 O :    0.224510    0.206709
  12 H :   -0.217292    0.017714
  13 H :   -0.176048   -0.006906

  Mayer bond orders larger than 0.100000
B(  0-C ,  1-C ) :   1.4038 B(  0-C ,  2-C ) :  -0.2936 B(  0-C ,  4-C ) :   0.1434
B(  0-C ,  5-C ) :   1.3773 B(  0-C ,  6-F ) :   0.2071 B(  0-C , 13-H ) :   0.5694
B(  1-C ,  2-C ) :   1.0046 B(  1-C ,  3-C ) :   0.1868 B(  1-C ,  9-N ) :  -0.2227
B(  1-C , 12-H ) :   0.1787 B(  2-C ,  3-C ) :   1.0051 B(  2-C ,  4-C ) :  -0.2931
B(  2-C ,  9-N ) :   1.3342 B(  2-C , 10-O ) :   0.3319 B(  2-C , 11-O ) :   0.3302
B(  3-C ,  4-C ) :   1.4046 B(  3-C ,  8-H ) :   0.1750 B(  3-C ,  9-N ) :  -0.2233
B(  4-C ,  5-C ) :   1.3758 B(  4-C ,  6-F ) :   0.2071 B(  4-C ,  7-H ) :   0.5692
B(  5-C ,  6-F ) :   0.1303 B(  6-F ,  7-H ) :   0.1493 B(  6-F , 13-H ) :   0.1496
B(  9-N , 10-O ) :   0.7304 B(  9-N , 11-O ) :   0.7314

Dispersion correction           -0.012654230
FINAL SINGLE POINT ENERGY      -535.745295335629

DIPOLE MOMENT
-------------

Method             : SCF
Type of density    : Electron Density
Multiplicity       :   2
Irrep              :   0
Energy             :  -535.7326411059350448 Eh
Relativity type    :
Basis              : AO
                                X                 Y                 Z
Electronic contribution:     -4.530130504       0.000043104      -0.001151040
Nuclear contribution   :      0.705808692       0.000011450      -0.000838371
                        -----------------------------------------
Total Dipole Moment    :     -3.824321813       0.000054555      -0.001989412
                        -----------------------------------------
Magnitude (a.u.)       :      3.824322330
Magnitude (Debye)      :      9.720654851

Rotational constants in cm-1:             0.130395             0.026545             0.022055
Rotational constants in MHz :          3909.135354           795.801666           661.198337

                             ****ORCA TERMINATED NORMALLY****
TOTAL RUN TIME: 0 days 0 hours 4 minutes 34 seconds 590 msec
