                         Program Version 6.0.0  -   RELEASE  -
|  1> !PBE0 freq def2-SV(p) d3 TightSCF SlowConv RIJCOSX defgrid2
|  2>
|  3> %pal
|  4> nprocs 12
|  5> end
|  6>
|  7> %scf
|  8> MaxIter 1500
|  9> end
| 10>
| 11> %maxcore 5000
| 12>
| 13> !CPCM
| 14> %cpcm smd true
| 15> SMDsolvent "MeCN"
| 16> surfacetype gepol_ses
| 17> rsolv 2.19
| 18> end
| 19>
| 20> * xyz 1 2
| 21>   C           0.88016936541642     -1.21468499151838     -0.00095990198553
| 22>   C           1.23439549744167      0.17328112249567     -0.00127582840855
| 23>   C           0.19384773490402      1.14337913552059     -0.00175852180010
| 24>   C          -1.13681883949216      0.78766978673928     -0.00104281792165
| 25>   C          -1.47187657070694     -0.61023912639911     -0.00053820350777
| 26>   C          -0.44026913383199     -1.58105465647811     -0.00072172574846
| 27>   H          -0.71326646969541     -2.63906265684587      0.00000349430581
| 28>   C          -2.89027946761826     -1.03499640268241      0.00090217184634
| 29>   H          -2.99158977867672     -2.13006933033790     -0.00393743325727
| 30>   H          -3.42078051957961     -0.62160627358740     -0.87784773242746
| 31>   H          -3.41496665640658     -0.63081280424664      0.88760153717337
| 32>   C          -2.21433356589203      1.82025645823566     -0.00064123534174
| 33>   H          -2.86454297961644      1.71692219893240      0.88666078987653
| 34>   H          -2.86449452420404      1.71743406795692     -0.88803682748853
| 35>   H          -1.78860954397013      2.83526642949734     -0.00041359962501
| 36>   H           0.47225063761820      2.20066125674644     -0.00297849079560
| 37>   C           2.58390701278495      0.62328667708270      0.00003536340026
| 38>   C           3.69174548097477     -0.18525973258258      0.00159440285863
| 39>   H           3.62984065913446     -1.27840419314513      0.00082607686216
| 40>   H           4.69211418945663      0.26004576607219      0.00347241442403
| 41>   H           2.73578886184781      1.70804476648404     -0.00024286757759
| 42>   H           1.65500541011141     -1.98348629793966     -0.00116756486189
| 43> *
| 44>
| 45>                          ****END OF INPUT****

CARTESIAN COORDINATES (ANGSTROEM)
---------------------------------
  C      0.880169   -1.214685   -0.000960
  C      1.234395    0.173281   -0.001276
  C      0.193848    1.143379   -0.001759
  C     -1.136819    0.787670   -0.001043
  C     -1.471877   -0.610239   -0.000538
  C     -0.440269   -1.581055   -0.000722
  H     -0.713266   -2.639063    0.000003
  C     -2.890279   -1.034996    0.000902
  H     -2.991590   -2.130069   -0.003937
  H     -3.420781   -0.621606   -0.877848
  H     -3.414967   -0.630813    0.887602
  C     -2.214334    1.820256   -0.000641
  H     -2.864543    1.716922    0.886661
  H     -2.864495    1.717434   -0.888037
  H     -1.788610    2.835266   -0.000414
  H      0.472251    2.200661   -0.002978
  C      2.583907    0.623287    0.000035
  C      3.691745   -0.185260    0.001594
  H      3.629841   -1.278404    0.000826
  H      4.692114    0.260046    0.003472
  H      2.735789    1.708045   -0.000243
  H      1.655005   -1.983486   -0.001168

 Total Charge           Charge          ....    1
 Multiplicity           Mult            ....    2
 Number of Electrons    NEL             ....   71
 Basis Dimension        Dim             ....  164

ORBITAL ENERGIES
----------------
                 SPIN UP ORBITALS
  NO   OCC          E(Eh)            E(eV)
   0   1.0000     -10.309885      -280.5462
   1   1.0000     -10.306020      -280.4411
   2   1.0000     -10.291820      -280.0547
   3   1.0000     -10.287398      -279.9343
   4   1.0000     -10.286200      -279.9017
   5   1.0000     -10.283950      -279.8405
   6   1.0000     -10.272991      -279.5423
   7   1.0000     -10.268488      -279.4198
   8   1.0000     -10.240749      -278.6649
   9   1.0000     -10.235515      -278.5225
  10   1.0000      -0.931779       -25.3550
  11   1.0000      -0.869684       -23.6653
  12   1.0000      -0.821287       -22.3483
  13   1.0000      -0.806664       -21.9505
  14   1.0000      -0.746073       -20.3017
  15   1.0000      -0.716413       -19.4946
  16   1.0000      -0.658236       -17.9115
  17   1.0000      -0.648248       -17.6397
  18   1.0000      -0.591656       -16.0998
  19   1.0000      -0.553466       -15.0606
  20   1.0000      -0.536073       -14.5873
  21   1.0000      -0.498729       -13.5711
  22   1.0000      -0.477182       -12.9848
  23   1.0000      -0.475835       -12.9481
  24   1.0000      -0.466020       -12.6810
  25   1.0000      -0.458279       -12.4704
  26   1.0000      -0.427932       -11.6446
  27   1.0000      -0.423167       -11.5150
  28   1.0000      -0.421912       -11.4808
  29   1.0000      -0.416827       -11.3424
  30   1.0000      -0.407779       -11.0962
  31   1.0000      -0.386537       -10.5182
  32   1.0000      -0.377240       -10.2652
  33   1.0000      -0.353984        -9.6324
  34   1.0000      -0.301130        -8.1942
  35   1.0000      -0.283568        -7.7163
  36   0.0000      -0.095765        -2.6059
  37   0.0000      -0.033540        -0.9127
  38   0.0000       0.009173         0.2496
  39   0.0000       0.072525         1.9735
  40   0.0000       0.078844         2.1455

                 SPIN DOWN ORBITALS
  NO   OCC          E(Eh)            E(eV)
   0   1.0000     -10.304763      -280.4069
   1   1.0000     -10.302583      -280.3475
   2   1.0000     -10.288578      -279.9664
   3   1.0000     -10.285990      -279.8960
   4   1.0000     -10.284357      -279.8516
   5   1.0000     -10.281871      -279.7839
   6   1.0000     -10.272903      -279.5399
   7   1.0000     -10.269428      -279.4453
   8   1.0000     -10.240963      -278.6708
   9   1.0000     -10.235527      -278.5229
  10   1.0000      -0.924849       -25.1664
  11   1.0000      -0.861335       -23.4381
  12   1.0000      -0.819916       -22.3111
  13   1.0000      -0.795926       -21.6582
  14   1.0000      -0.741565       -20.1790
  15   1.0000      -0.710639       -19.3375
  16   1.0000      -0.653789       -17.7905
  17   1.0000      -0.643938       -17.5225
  18   1.0000      -0.587222       -15.9791
  19   1.0000      -0.551334       -15.0025
  20   1.0000      -0.532978       -14.5031
  21   1.0000      -0.495603       -13.4860
  22   1.0000      -0.473257       -12.8780
  23   1.0000      -0.466090       -12.6830
  24   1.0000      -0.463236       -12.6053
  25   1.0000      -0.457301       -12.4438
  26   1.0000      -0.423079       -11.5126
  27   1.0000      -0.420952       -11.4547
  28   1.0000      -0.416380       -11.3303
  29   1.0000      -0.406128       -11.0513
  30   1.0000      -0.405446       -11.0328
  31   1.0000      -0.385608       -10.4929
  32   1.0000      -0.375149       -10.2083
  33   1.0000      -0.326486        -8.8841
  34   1.0000      -0.296317        -8.0632
  35   0.0000      -0.193360        -5.2616
  36   0.0000      -0.061963        -1.6861
  37   0.0000      -0.023173        -0.6306
  38   0.0000       0.030814         0.8385
  39   0.0000       0.073334         1.9955

MULLIKEN ATOMIC CHARGES AND SPIN POPULATIONS
--------------------------------------------
   0 C :   -0.073914    0.134580
   1 C :    0.115364    0.227671
   2 C :   -0.171017    0.000794
   3 C :   -0.008596   -0.002872
   4 C :   -0.001422    0.353214
   5 C :   -0.123535   -0.088885
   6 H :    0.147635    0.002075
   7 C :   -0.301386   -0.028303
   8 H :    0.173457    0.000026
   9 H :    0.190587    0.022261
  10 H :    0.191052    0.022584
  11 C :   -0.290427   -0.001259
  12 H :    0.173714    0.002292
  13 H :    0.173885    0.002278
  14 H :    0.164049   -0.000476
  15 H :    0.146376   -0.001304
  16 C :   -0.115838   -0.087058
  17 C :   -0.144458    0.497506
  18 H :    0.212460   -0.023967
  19 H :    0.208107   -0.026688
  20 H :    0.175255    0.002805
  21 H :    0.158651   -0.007272
Sum of atomic charges         :    1.0000000

LOEWDIN ATOMIC CHARGES AND SPIN POPULATIONS
-------------------------------------------
   0 C :   -0.046477    0.122954
   1 C :    0.021477    0.185699
   2 C :   -0.073086    0.017531
   3 C :   -0.010887    0.023725
   4 C :    0.076915    0.271625
   5 C :   -0.101994   -0.034735
   6 H :    0.163434    0.000844
   7 C :   -0.326771   -0.001268
   8 H :    0.150831    0.000092
   9 H :    0.168874    0.019067
  10 H :    0.169275    0.019353
  11 C :   -0.328491    0.000451
  12 H :    0.154851    0.001983
  13 H :    0.154889    0.001973
  14 H :    0.147024   -0.000337
  15 H :    0.163564   -0.000838
  16 C :   -0.072943   -0.036749
  17 C :   -0.079075    0.435950
  18 H :    0.163183   -0.012034
  19 H :    0.170786   -0.012698
  20 H :    0.168858    0.001279
  21 H :    0.165762   -0.003868

  Mayer bond orders larger than 0.100000
B(  0-C ,  1-C ) :   1.1610 B(  0-C ,  5-C ) :   1.5204 B(  0-C , 21-H ) :   0.9451
B(  1-C ,  2-C ) :   1.2012 B(  1-C , 16-C ) :   1.2855 B(  2-C ,  3-C ) :   1.5183
B(  2-C , 15-H ) :   0.9546 B(  3-C ,  4-C ) :   1.2193 B(  3-C , 11-C ) :   1.1260
B(  4-C ,  5-C ) :   1.2851 B(  4-C ,  7-C ) :   1.1586 B(  5-C ,  6-H ) :   0.9543
B(  7-C ,  8-H ) :   0.9291 B(  7-C ,  9-H ) :   0.8973 B(  7-C , 10-H ) :   0.8970
B( 11-C , 12-H ) :   0.9136 B( 11-C , 13-H ) :   0.9136 B( 11-C , 14-H ) :   0.9318
B( 16-C , 17-C ) :   1.6385 B( 16-C , 20-H ) :   0.9257 B( 17-C , 18-H ) :   0.8945
B( 17-C , 19-H ) :   0.9104

Dispersion correction           -0.020286570
FINAL SINGLE POINT ENERGY      -387.322344545999

DIPOLE MOMENT
-------------

Method             : SCF
Type of density    : Electron Density
Multiplicity       :   2
Irrep              :   0
Energy             :  -387.3020579758327813 Eh
Relativity type    :
Basis              : AO
                                X                 Y                 Z
Electronic contribution:      5.565068181      -1.241114150      -0.006046145
Nuclear contribution   :     -4.593968809       1.064543662       0.007864835
                        -----------------------------------------
Total Dipole Moment    :      0.971099373      -0.176570489       0.001818690
                        -----------------------------------------
Magnitude (a.u.)       :      0.987023018
Magnitude (Debye)      :      2.508813132

VIBRATIONAL FREQUENCIES
-----------------------

Scaling factor for frequencies =  1.000000000  (already applied!)

     0:       0.00 cm**-1
     1:       0.00 cm**-1
     2:       0.00 cm**-1
     3:       0.00 cm**-1
     4:       0.00 cm**-1
     5:       0.00 cm**-1
     6:     -29.16 cm**-1 ***imaginary mode***
     7:      56.13 cm**-1
     8:     105.73 cm**-1
     9:     154.55 cm**-1
    10:     207.00 cm**-1
    11:     211.05 cm**-1
    12:     272.71 cm**-1
    13:     314.26 cm**-1
    14:     382.07 cm**-1
    15:     417.28 cm**-1
    16:     427.71 cm**-1
    17:     456.73 cm**-1
    18:     524.18 cm**-1
    19:     562.88 cm**-1
    20:     605.37 cm**-1
    21:     715.87 cm**-1
    22:     718.16 cm**-1
    23:     762.08 cm**-1
    24:     821.11 cm**-1
    25:     901.29 cm**-1
    26:     941.23 cm**-1
    27:     951.24 cm**-1
    28:     993.63 cm**-1
    29:    1001.25 cm**-1
    30:    1003.75 cm**-1
    31:    1018.32 cm**-1
    32:    1021.56 cm**-1
    33:    1044.19 cm**-1
    34:    1056.37 cm**-1
    35:    1151.95 cm**-1
    36:    1202.17 cm**-1
    37:    1251.03 cm**-1
    38:    1277.16 cm**-1
    39:    1295.85 cm**-1
    40:    1328.29 cm**-1
    41:    1351.18 cm**-1
    42:    1386.64 cm**-1
    43:    1397.00 cm**-1
    44:    1417.21 cm**-1
    45:    1434.65 cm**-1
    46:    1438.37 cm**-1
    47:    1448.44 cm**-1
    48:    1460.51 cm**-1
    49:    1479.95 cm**-1
    50:    1520.23 cm**-1
    51:    1546.34 cm**-1
    52:    1594.75 cm**-1
    53:    1704.59 cm**-1
    54:    3026.35 cm**-1
    55:    3039.57 cm**-1
    56:    3100.50 cm**-1
    57:    3120.67 cm**-1
    58:    3163.79 cm**-1
    59:    3172.92 cm**-1
    60:    3187.55 cm**-1
    61:    3204.68 cm**-1
    62:    3217.46 cm**-1
    63:    3226.94 cm**-1
    64:    3246.53 cm**-1
    65:    3288.71 cm**-1

IR SPECTRUM
-----------

 Mode   freq       eps      Int      T**2         TX        TY        TZ
       cm**-1   L/(mol*cm) km/mol    a.u.
----------------------------------------------------------------------------
  7:     56.13   0.000378    1.91  0.002103  ( 0.001451  0.000462  0.045831)
  8:    105.73   0.000004    0.02  0.000012  (-0.000151  0.000144  0.003512)
  9:    154.55   0.000782    3.95  0.001579  (-0.000504  0.000099  0.039732)
 10:    207.00   0.000265    1.34  0.000399  (-0.002317 -0.019791 -0.001504)
 11:    211.05   0.000208    1.05  0.000308  (-0.000130  0.002018 -0.017426)
 12:    272.71   0.000118    0.60  0.000135  (-0.000362  0.000246  0.011600)
 13:    314.26   0.000021    0.10  0.000020  (-0.000419 -0.004499 -0.000059)
 14:    382.07   0.000487    2.46  0.000398  (-0.017847  0.008925 -0.000081)
 15:    417.28   0.002541   12.84  0.001901  ( 0.000424  0.000758 -0.043586)
 16:    427.71   0.000098    0.49  0.000071  (-0.007521  0.003842 -0.000127)
 17:    456.73   0.000454    2.29  0.000310  (-0.000784 -0.000012 -0.017593)
 18:    524.18   0.000902    4.56  0.000537  (-0.020163 -0.011412 -0.000037)
 19:    562.88   0.000602    3.04  0.000334  ( 0.017776  0.004215  0.000026)
 20:    605.37   0.000169    0.86  0.000087  (-0.001225 -0.000206  0.009263)
 21:    715.87   0.001919    9.70  0.000837  (-0.003243 -0.000293 -0.028739)
 22:    718.16   0.008895   44.95  0.003865  (-0.061118 -0.011304  0.001411)
 23:    762.08   0.001617    8.17  0.000662  ( 0.024771  0.006963  0.000195)
 24:    821.11   0.003307   16.71  0.001257  ( 0.000291  0.000084  0.035449)
 25:    901.29   0.000113    0.57  0.000039  ( 0.000250 -0.000338  0.006231)
 26:    941.23   0.001802    9.11  0.000598  (-0.022349 -0.009871  0.000824)
 27:    951.24   0.012123   61.27  0.003977  (-0.000550 -0.000128  0.063062)
 28:    993.63   0.002958   14.95  0.000929  ( 0.002401 -0.000113 -0.030387)
 29:   1001.25   0.001171    5.92  0.000365  (-0.006347 -0.000637  0.018009)
 30:   1003.75   0.009291   46.95  0.002889  ( 0.053704  0.001264  0.001673)
 31:   1018.32   0.021001  106.13  0.006436  (-0.080047 -0.005284  0.000574)
 32:   1021.56   0.005739   29.00  0.001753  (-0.001457  0.000387 -0.041842)
 33:   1044.19   0.001973    9.97  0.000590  (-0.023085  0.007525 -0.000376)
 34:   1056.37   0.000833    4.21  0.000246  (-0.000340 -0.000209  0.015684)
 35:   1151.95   0.002905   14.68  0.000787  ( 0.006744 -0.027230 -0.000052)
 36:   1202.17   0.020710  104.66  0.005376  ( 0.072970  0.007171  0.000022)
 37:   1251.03   0.005346   27.02  0.001334  (-0.035416 -0.008904  0.000024)
 38:   1277.16   0.045826  231.59  0.011197  ( 0.105788 -0.002473  0.000011)
 39:   1295.85   0.051395  259.73  0.012377  ( 0.111251 -0.000089  0.000016)
 40:   1328.29   0.006251   31.59  0.001469  (-0.034504 -0.016675 -0.000118)
 41:   1351.18   0.021512  108.71  0.004968  (-0.069503  0.011728  0.000502)
 42:   1386.64   0.003068   15.51  0.000691  ( 0.022814 -0.013026  0.000576)
 43:   1397.00   0.001699    8.58  0.000379  ( 0.012030 -0.015314  0.000403)
 44:   1417.21   0.002147   10.85  0.000473  ( 0.001042  0.000577 -0.021710)
 45:   1434.65   0.001471    7.43  0.000320  (-0.017759 -0.000915  0.001951)
 46:   1438.37   0.006928   35.01  0.001503  (-0.000545  0.000335 -0.038764)
 47:   1448.44   0.010669   53.91  0.002299  ( 0.031610  0.036041  0.000578)
 48:   1460.51   0.001884    9.52  0.000403  ( 0.007606  0.018563 -0.000357)
 49:   1479.95   0.057583  291.00  0.012142  ( 0.108664  0.018278  0.000003)
 50:   1520.23   0.092746  468.70  0.019038  (-0.137966  0.001897 -0.000060)
 51:   1546.34   0.155949  788.10  0.031472  (-0.176932  0.012914 -0.000101)
 52:   1594.75   0.059672  301.56  0.011677  (-0.093804 -0.053642 -0.000043)
 53:   1704.59   0.012088   61.09  0.002213  (-0.041209 -0.022689  0.000042)
 54:   3026.35   0.005554   28.07  0.000573  ( 0.023768  0.002781 -0.000244)
 55:   3039.57   0.000362    1.83  0.000037  ( 0.004137 -0.004475 -0.000079)
 56:   3100.50   0.000086    0.44  0.000009  (-0.000830 -0.000176  0.002825)
 57:   3120.67   0.000363    1.83  0.000036  ( 0.000102 -0.000044 -0.006025)
 58:   3163.79   0.001948    9.84  0.000192  ( 0.006195 -0.012399  0.000004)
 59:   3172.92   0.007188   36.33  0.000707  (-0.023891 -0.011671  0.000048)
 60:   3187.55   0.002070   10.46  0.000203  ( 0.014058  0.002233  0.000015)
 61:   3204.68   0.001562    7.89  0.000152  (-0.012098 -0.002388 -0.000038)
 62:   3217.46   0.000204    1.03  0.000020  ( 0.000268 -0.004439 -0.000111)
 63:   3226.94   0.000935    4.73  0.000090  (-0.008636 -0.003986 -0.000081)
 64:   3246.53   0.000056    0.28  0.000005  (-0.002207  0.000694 -0.000021)
 65:   3288.71   0.000572    2.89  0.000054  ( 0.004821  0.005573  0.000030)

--------------------------
THERMOCHEMISTRY AT 298.15K
--------------------------

Temperature         ...   298.15 K
Pressure            ...     1.00 atm
Total Mass          ...   132.21 AMU
Quasi RRHO          ...     True
Cut-Off Frequency   ...     1.00 cm^-1

Throughout the following assumptions are being made:
  (1) The electronic state is orbitally nondegenerate
      but the spin degeneracy is treated
  (2) There are no thermally accessible electronically excited states
  (3) Hindered rotations indicated by low frequency modes are not
      treated as such but are treated as vibrations and this may
      cause some error
  (4) All equations used are the standard statistical mechanics
      equations for an ideal gas
  (5) All vibrations are strictly harmonic

freq.      56.13  E(vib)   ...       0.52
freq.     105.73  E(vib)   ...       0.45
freq.     154.55  E(vib)   ...       0.40
freq.     207.00  E(vib)   ...       0.35
freq.     211.05  E(vib)   ...       0.34
freq.     272.71  E(vib)   ...       0.29
freq.     314.26  E(vib)   ...       0.25
freq.     382.07  E(vib)   ...       0.21
freq.     417.28  E(vib)   ...       0.18
freq.     427.71  E(vib)   ...       0.18
freq.     456.73  E(vib)   ...       0.16
freq.     524.18  E(vib)   ...       0.13
freq.     562.88  E(vib)   ...       0.11
freq.     605.37  E(vib)   ...       0.10
freq.     715.87  E(vib)   ...       0.07
freq.     718.16  E(vib)   ...       0.07
freq.     762.08  E(vib)   ...       0.06
freq.     821.11  E(vib)   ...       0.05
freq.     901.29  E(vib)   ...       0.03
freq.     941.23  E(vib)   ...       0.03
freq.     951.24  E(vib)   ...       0.03
freq.     993.63  E(vib)   ...       0.02
freq.    1001.25  E(vib)   ...       0.02
freq.    1003.75  E(vib)   ...       0.02
freq.    1018.32  E(vib)   ...       0.02
freq.    1021.56  E(vib)   ...       0.02
freq.    1044.19  E(vib)   ...       0.02
freq.    1056.37  E(vib)   ...       0.02
freq.    1151.95  E(vib)   ...       0.01
freq.    1202.17  E(vib)   ...       0.01
freq.    1251.03  E(vib)   ...       0.01
freq.    1277.16  E(vib)   ...       0.01
freq.    1295.85  E(vib)   ...       0.01
freq.    1328.29  E(vib)   ...       0.01
freq.    1351.18  E(vib)   ...       0.01
freq.    1386.64  E(vib)   ...       0.00
freq.    1397.00  E(vib)   ...       0.00
freq.    1417.21  E(vib)   ...       0.00
freq.    1434.65  E(vib)   ...       0.00
freq.    1438.37  E(vib)   ...       0.00
freq.    1448.44  E(vib)   ...       0.00
freq.    1460.51  E(vib)   ...       0.00
freq.    1479.95  E(vib)   ...       0.00
freq.    1520.23  E(vib)   ...       0.00
freq.    1546.34  E(vib)   ...       0.00
freq.    1594.75  E(vib)   ...       0.00
freq.    1704.59  E(vib)   ...       0.00
freq.    3026.35  E(vib)   ...       0.00
freq.    3039.57  E(vib)   ...       0.00
freq.    3100.50  E(vib)   ...       0.00
freq.    3120.67  E(vib)   ...       0.00
freq.    3163.79  E(vib)   ...       0.00
freq.    3172.92  E(vib)   ...       0.00
freq.    3187.55  E(vib)   ...       0.00
freq.    3204.68  E(vib)   ...       0.00
freq.    3217.46  E(vib)   ...       0.00
freq.    3226.94  E(vib)   ...       0.00
freq.    3246.53  E(vib)   ...       0.00
freq.    3288.71  E(vib)   ...       0.00

------------
INNER ENERGY
------------

The inner energy is: U= E(el) + E(ZPE) + E(vib) + E(rot) + E(trans)
    E(el)   - is the total energy from the electronic structure calculation
              = E(kin-el) + E(nuc-el) + E(el-el) + E(nuc-nuc)
    E(ZPE)  - the the zero temperature vibrational energy from the frequency calculation
    E(vib)  - the the finite temperature correction to E(ZPE) due to population
              of excited vibrational states
    E(rot)  - is the rotational thermal energy
    E(trans)- is the translational thermal energy

Summary of contributions to the inner energy U:
Electronic energy                ...   -387.32234455 Eh
Zero point energy                ...      0.18756078 Eh     117.70 kcal/mol
Thermal vibrational correction   ...      0.00675827 Eh       4.24 kcal/mol
Thermal rotational correction    ...      0.00141627 Eh       0.89 kcal/mol
Thermal translational correction ...      0.00141627 Eh       0.89 kcal/mol
-----------------------------------------------------------------------
Total thermal energy                   -387.12519296 Eh

Summary of corrections to the electronic energy:
(perhaps to be used in another calculation)
Total thermal correction                  0.00959081 Eh       6.02 kcal/mol
Non-thermal (ZPE) correction              0.18756078 Eh     117.70 kcal/mol
-----------------------------------------------------------------------
Total correction                          0.19715159 Eh     123.71 kcal/mol

--------
ENTHALPY
--------

The enthalpy is H = U + kB*T
                kB is Boltzmann's constant
Total thermal energy              ...   -387.12519296 Eh
Thermal Enthalpy correction       ...      0.00094421 Eh       0.59 kcal/mol
-----------------------------------------------------------------------
Total Enthalpy                    ...   -387.12424875 Eh

Note: Only C1 symmetry has been detected, increase convergence thresholds
      if your molecule has a higher symmetry. Symmetry factor of 1.0 is
      used for the rotational entropy correction.

Note: Rotational entropy computed according to Herzberg
Infrared and Raman Spectra, Chapter V,1, Van Nostrand Reinhold, 1945
Point Group:  C1, Symmetry Number:   1
Rotational constants in cm-1:     0.095495     0.029211     0.022558

Vibrational entropy computed according to the QRRHO of S. Grimme
Chem.Eur.J. 2012 18 9955 using a reference frequency of 100.0 cm-1

-------
ENTROPY
-------

The entropy contributions are T*S = T*(S(el)+S(vib)+S(rot)+S(trans))
     S(el)   - electronic entropy
     S(vib)  - vibrational entropy
     S(rot)  - rotational entropy
     S(trans)- translational entropy
The entropies will be listed as multiplied by the temperature to get
units of energy

Electronic entropy                ...      0.00065446 Eh      0.41 kcal/mol
Vibrational entropy               ...      0.01129687 Eh      7.09 kcal/mol
Rotational entropy                ...      0.01407761 Eh      8.83 kcal/mol
Translational entropy             ...      0.01926665 Eh     12.09 kcal/mol
-----------------------------------------------------------------------
Final entropy term                ...      0.04529559 Eh     28.42 kcal/mol

In case the symmetry of your molecule has not been determined correctly
or in case you have a reason to use a different symmetry number we print
out the resulting rotational entropy values for sn=1,12:

 non-linear molecules -----------------------------------

                             ****ORCA TERMINATED NORMALLY****
TOTAL RUN TIME: 0 days 0 hours 9 minutes 6 seconds 637 msec
