                         Program Version 6.0.0  -   RELEASE  -
|  1> !r2SCANh aug-cc-pVTZ d3 TightSCF SlowConv RIJCOSX defgrid2
|  2>
|  3> %pal
|  4> nprocs 4
|  5> end
|  6>
|  7> %scf
|  8> MaxIter 1500
|  9> end
| 10>
| 11> %maxcore 3000
| 12>
| 13> !CPCM
| 14> %cpcm smd true
| 15> SMDsolvent "MeCN"
| 16> surfacetype gepol_ses
| 17> rsolv 2.19
| 18> end
| 19>
| 20> * xyz 0 1
| 21>   C          -1.20570013774955     -1.10039697930563      0.01543175480109
| 22>   C           0.00111933111067     -1.79372463480323      0.03716937828290
| 23>   C           1.21118544677794     -1.10088196681091      0.03388616244552
| 24>   C           1.22835326598804      0.29682839071349      0.00494538015242
| 25>   C           2.52368903063881      1.05844071578900     -0.03593104667324
| 26>   H           2.48341162103777      1.96024689395608      0.59889265106332
| 27>   H           3.36770598220524      0.43706826741282      0.30599555459239
| 28>   H           2.75516930508487      1.39410942865254     -1.06399807973417
| 29>   C           0.00347119857744      0.97499778484913     -0.01291371518520
| 30>   C          -1.22031342403745      0.30000889914392     -0.00614524998718
| 31>   C          -2.51971268891073      1.05570005797022      0.00936042521607
| 32>   H          -2.39731022829722      2.08016889230358     -0.37956919154311
| 33>   H          -2.91823280700184      1.13851573828558      1.03779552551247
| 34>   H          -3.28893296665078      0.54842098009693     -0.59747808691160
| 35>   H           0.00394355087374      2.07111276662115     -0.03278330541863
| 36>   H           2.15666081819569     -1.65279950277184      0.05208747237142
| 37>   H           0.00027512568056     -2.88802960033678      0.05674445713596
| 38>   H          -2.15204978452320     -1.65147955576605      0.01700562287958
| 39> *
| 40>
| 41>                          ****END OF INPUT****

CARTESIAN COORDINATES (ANGSTROEM)
---------------------------------
  C     -1.205700   -1.100397    0.015432
  C      0.001119   -1.793725    0.037169
  C      1.211185   -1.100882    0.033886
  C      1.228353    0.296828    0.004945
  C      2.523689    1.058441   -0.035931
  H      2.483412    1.960247    0.598893
  H      3.367706    0.437068    0.305996
  H      2.755169    1.394109   -1.063998
  C      0.003471    0.974998   -0.012914
  C     -1.220313    0.300009   -0.006145
  C     -2.519713    1.055700    0.009360
  H     -2.397310    2.080169   -0.379569
  H     -2.918233    1.138516    1.037796
  H     -3.288933    0.548421   -0.597478
  H      0.003944    2.071113   -0.032783
  H      2.156661   -1.652800    0.052087
  H      0.000275   -2.888030    0.056744
  H     -2.152050   -1.651480    0.017006

 Total Charge           Charge          ....    0
 Multiplicity           Mult            ....    1
 Number of Electrons    NEL             ....   58
 Basis Dimension        Dim             ....  598

ORBITAL ENERGIES
----------------

  NO   OCC          E(Eh)            E(eV)
   0   2.0000     -10.168220      -276.6913
   1   2.0000     -10.168076      -276.6874
   2   2.0000     -10.157354      -276.3956
   3   2.0000     -10.152062      -276.2517
   4   2.0000     -10.152028      -276.2507
   5   2.0000     -10.151253      -276.2296
   6   2.0000     -10.146058      -276.0883
   7   2.0000     -10.146041      -276.0878
   8   2.0000      -0.858796       -23.3690
   9   2.0000      -0.778084       -21.1727
  10   2.0000      -0.754796       -20.5390
  11   2.0000      -0.681739       -18.5511
  12   2.0000      -0.671243       -18.2655
  13   2.0000      -0.587810       -15.9951
  14   2.0000      -0.560452       -15.2507
  15   2.0000      -0.488862       -13.3026
  16   2.0000      -0.456601       -12.4247
  17   2.0000      -0.430181       -11.7058
  18   2.0000      -0.411383       -11.1943
  19   2.0000      -0.396151       -10.7798
  20   2.0000      -0.395475       -10.7614
  21   2.0000      -0.388664       -10.5761
  22   2.0000      -0.375834       -10.2270
  23   2.0000      -0.354600        -9.6492
  24   2.0000      -0.337754        -9.1908
  25   2.0000      -0.321888        -8.7590
  26   2.0000      -0.318114        -8.6563
  27   2.0000      -0.243774        -6.6334
  28   2.0000      -0.234699        -6.3865
  29   0.0000      -0.023136        -0.6296
  30   0.0000      -0.018864        -0.5133
  31   0.0000       0.011468         0.3120
  32   0.0000       0.025533         0.6948
  33   0.0000       0.026749         0.7279

MULLIKEN ATOMIC CHARGES
-----------------------
   0 C :   -0.901521
   1 C :   -0.539932
   2 C :   -0.794231
   3 C :    1.389405
   4 C :   -0.704665
   5 H :    0.194269
   6 H :    0.190049
   7 H :    0.242408
   8 C :   -1.302622
   9 C :    1.408090
  10 C :   -0.763650
  11 H :    0.196730
  12 H :    0.242793
  13 H :    0.191311
  14 H :    0.035038
  15 H :    0.139610
  16 H :    0.558238
  17 H :    0.218680
Sum of atomic charges:   -0.0000000

LOEWDIN ATOMIC CHARGES
----------------------
   0 C :    0.194921
   1 C :    0.182326
   2 C :    0.195928
   3 C :   -0.148787
   4 C :    0.572887
   5 H :   -0.161987
   6 H :   -0.168674
   7 H :   -0.152163
   8 C :    0.217387
   9 C :   -0.148948
  10 C :    0.572785
  11 H :   -0.167743
  12 H :   -0.151950
  13 H :   -0.163131
  14 H :   -0.161402
  15 H :   -0.170914
  16 H :   -0.172726
  17 H :   -0.167808

  Mayer bond orders larger than 0.100000
B(  0-C ,  1-C ) :   1.0405 B(  0-C ,  3-C ) :  -0.1862 B(  0-C ,  9-C ) :   0.4259
B(  0-C , 10-C ) :   0.1382 B(  0-C , 17-H ) :   1.0694 B(  1-C ,  2-C ) :   1.0181
B(  1-C ,  3-C ) :   0.1708 B(  1-C ,  8-C ) :  -0.2119 B(  1-C ,  9-C ) :   0.1771
B(  1-C , 16-H ) :   0.4197 B(  2-C ,  3-C ) :   0.4257 B(  2-C ,  9-C ) :  -0.1097
B(  2-C , 15-H ) :   1.2364 B(  3-C ,  4-C ) :   0.2655 B(  3-C ,  8-C ) :   0.3950
B(  3-C ,  9-C ) :   0.4359 B(  3-C , 15-H ) :  -0.1035 B(  4-C ,  5-H ) :   1.0199
B(  4-C ,  6-H ) :   1.0097 B(  4-C ,  7-H ) :   0.9715 B(  4-C ,  8-C ) :   0.1416
B(  8-C ,  9-C ) :   0.4127 B(  8-C , 14-H ) :   1.2737 B(  8-C , 15-H ) :   0.1112
B(  9-C , 10-C ) :   0.2552 B(  9-C , 14-H ) :  -0.1070 B( 10-C , 11-H ) :   1.0090
B( 10-C , 12-H ) :   0.9731 B( 10-C , 13-H ) :   1.0262

Dispersion correction           -0.005330819
FINAL SINGLE POINT ENERGY      -310.801708674247

DIPOLE MOMENT
-------------

Method             : SCF
Type of density    : Electron Density
Multiplicity       :   1
Irrep              :   0
Energy             :  -310.7963778554453143 Eh
Relativity type    :
Basis              : AO
                                X                 Y                 Z
Electronic contribution:      0.002294749      -3.008061712       0.050704547
Nuclear contribution   :     -0.014413012       3.246643755      -0.053120895
                        -----------------------------------------
Total Dipole Moment    :     -0.012118263       0.238582043      -0.002416348
                        -----------------------------------------
Magnitude (a.u.)       :      0.238901826
Magnitude (Debye)      :      0.607240183

Rotational constants in cm-1:             0.119041             0.058741             0.039927
Rotational constants in MHz :          3568.763708          1760.997706          1196.993882

                             ****ORCA TERMINATED NORMALLY****
TOTAL RUN TIME: 0 days 0 hours 4 minutes 57 seconds 682 msec
