                         Program Version 6.0.0  -   RELEASE  -
|  1> !r2SCANh opt aug-cc-pVTZ d3 TightSCF SlowConv RIJCOSX defgrid2
|  2>
|  3> %pal
|  4> nprocs 8
|  5> end
|  6>
|  7> %scf
|  8> MaxIter 1500
|  9> end
| 10>
| 11> %maxcore 3500
| 12>
| 13> !CPCM
| 14> %cpcm smd true
| 15> SMDsolvent "MeCN"
| 16> surfacetype gepol_ses
| 17> rsolv 2.19
| 18> end
| 19>
| 20> * xyz 1 2
| 21> C           1.38821397253669     -0.85710928094571      0.60741622632202
| 22> C           2.66653568645174     -1.38554775804107      0.62328529651635
| 23> C           3.74096697508373     -0.66019599701418      0.08285810563013
| 24> C           3.54023898785237      0.62233127623213     -0.45460571699329
| 25> C           2.27463505486006      1.17691753163962     -0.46404721541233
| 26> C           1.19493732351435      0.42049377974261      0.03782457404784
| 27> O          -0.00001161826735      1.03053434324458     -0.00007618077340
| 28> C          -1.19494650110222      0.42046263969238     -0.03791233087995
| 29> C          -2.27466316694698      1.17692889833622      0.46385316504035
| 30> C          -3.54025869091077      0.62232307991007      0.45446120210222
| 31> C          -3.74095306617908     -0.66026678297616     -0.08285951221376
| 32> C          -2.66650374430337     -1.38566766681220     -0.62318898600472
| 33> C          -1.38818943489976     -0.85721178830951     -0.60735323061330
| 34> H          -0.55743963132106     -1.38478510741341     -1.08197323083020
| 35> H          -2.84302940822415     -2.36075586477487     -1.08456370453300
| 36> H          -4.74708768097790     -1.08795510804427     -0.10418715284565
| 37> H          -4.38474494788350      1.18417342168211      0.86161853827017
| 38> H          -2.07820409834794      2.17105532289927      0.87220985478457
| 39> H           2.07815534201669      2.17098917949467     -0.87253031915770
| 40> H           4.38471105702739      1.18414197451138     -0.86184555829131
| 41> H           4.74710919235526     -1.08786907382573      0.10421696325696
| 42> H           2.84307759651065     -2.36058562840449      1.08475174308550
| 43> H           0.55748160115515     -1.38464569082344      1.08211306949251
| 44> *
| 45>
| 46>                          ****END OF INPUT****
 Total Charge           Charge          ....    1
 Multiplicity           Mult            ....    2
 Number of Electrons    NEL             ....   89
Dispersion correction           -0.008586610
FINAL SINGLE POINT ENERGY      -538.176534206832
Dispersion correction             ... done (  0.0 sec)
Dispersion correction           -0.008641138
FINAL SINGLE POINT ENERGY      -538.178382980978
Dispersion correction             ... done (  0.0 sec)
Dispersion correction           -0.008622223
FINAL SINGLE POINT ENERGY      -538.178139043890
Dispersion correction             ... done (  0.1 sec)
FINAL SINGLE POINT ENERGY      -538.178436106028
Dispersion correction             ... done (  0.0 sec)
Dispersion correction           -0.008647062
FINAL SINGLE POINT ENERGY      -538.178444158915
Dispersion correction             ... done (  0.1 sec)
Dispersion correction           -0.008654350
FINAL SINGLE POINT ENERGY      -538.178435942892
Dispersion correction             ... done (  0.1 sec)
                    ***********************HURRAY********************

CARTESIAN COORDINATES (ANGSTROEM)
---------------------------------
  C      1.355660   -0.827024    0.617955
  C      2.617863   -1.374139    0.634876
  C      3.695856   -0.678221    0.083771
  C      3.516181    0.594095   -0.468936
  C      2.268299    1.168444   -0.482527
  C      1.189505    0.437062    0.032275
  O      0.000061    1.072165   -0.001134
  C     -1.189444    0.436907   -0.033346
  C     -2.267908    1.168233    0.482110
  C     -3.515800    0.593782    0.469510
  C     -3.695892   -0.678468   -0.083133
  C     -2.618235   -1.374396   -0.634813
  C     -1.356021   -0.827247   -0.618604
  H     -0.525321   -1.325046   -1.095229
  H     -2.777357   -2.334862   -1.102331
  H     -4.683010   -1.116866   -0.107165
  H     -4.358031    1.127091    0.884869
  H     -2.088247    2.147021    0.902075
  H      2.088846    2.147218   -0.902609
  H      4.358729    1.127495   -0.883522
  H      4.682947   -1.116649    0.108349
  H      2.776780   -2.334572    1.102530
  H      0.524571   -1.324266    1.094496

 Multiplicity           Mult            ....    2
 Number of Electrons    NEL             ....   89
 Basis Dimension        Dim             ....  828

ORBITAL ENERGIES
----------------
                 SPIN UP ORBITALS
  NO   OCC          E(Eh)            E(eV)
   0   1.0000     -19.252598      -523.8898
   1   1.0000     -10.276920      -279.6492
   2   1.0000     -10.276836      -279.6469
   3   1.0000     -10.200980      -277.5828
   4   1.0000     -10.200931      -277.5814
   5   1.0000     -10.199442      -277.5409
   6   1.0000     -10.199362      -277.5387
   7   1.0000     -10.196805      -277.4692
   8   1.0000     -10.196760      -277.4680
   9   1.0000     -10.189387      -277.2673
  10   1.0000     -10.189338      -277.2660
  11   1.0000     -10.189313      -277.2653
  12   1.0000     -10.189277      -277.2643
  13   1.0000      -1.176844       -32.0235
  14   1.0000      -0.910149       -24.7664
  15   1.0000      -0.891277       -24.2529
  16   1.0000      -0.814295       -22.1581
  17   1.0000      -0.792710       -21.5707
  18   1.0000      -0.785419       -21.3723
  19   1.0000      -0.762606       -20.7516
  20   1.0000      -0.685690       -18.6586
  21   1.0000      -0.654715       -17.8157
  22   1.0000      -0.634971       -17.2784
  23   1.0000      -0.610168       -16.6035
  24   1.0000      -0.579703       -15.7745
  25   1.0000      -0.535501       -14.5717
  26   1.0000      -0.518848       -14.1186
  27   1.0000      -0.517698       -14.0873
  28   1.0000      -0.509704       -13.8697
  29   1.0000      -0.466954       -12.7065
  30   1.0000      -0.463909       -12.6236
  31   1.0000      -0.450419       -12.2565
  32   1.0000      -0.449781       -12.2392
  33   1.0000      -0.440187       -11.9781
  34   1.0000      -0.435097       -11.8396
  35   1.0000      -0.403270       -10.9735
  36   1.0000      -0.387406       -10.5418
  37   1.0000      -0.386337       -10.5128
  38   1.0000      -0.377859       -10.2821
  39   1.0000      -0.360392        -9.8068
  40   1.0000      -0.358133        -9.7453
  41   1.0000      -0.296206        -8.0602
  42   1.0000      -0.291621        -7.9354
  43   1.0000      -0.287203        -7.8152
  44   1.0000      -0.264414        -7.1951
  45   0.0000      -0.070450        -1.9170
  46   0.0000      -0.057097        -1.5537
  47   0.0000      -0.050399        -1.3714
  48   0.0000      -0.043779        -1.1913
  49   0.0000       0.005915         0.1610

                 SPIN DOWN ORBITALS
  NO   OCC          E(Eh)            E(eV)
   0   1.0000     -19.243940      -523.6542
   1   1.0000     -10.276111      -279.6272
   2   1.0000     -10.276034      -279.6251
   3   1.0000     -10.198677      -277.5201
   4   1.0000     -10.198632      -277.5189
   5   1.0000     -10.195245      -277.4267
   6   1.0000     -10.195177      -277.4249
   7   1.0000     -10.194814      -277.4150
   8   1.0000     -10.194774      -277.4139
   9   1.0000     -10.190722      -277.3037
  10   1.0000     -10.190672      -277.3023
  11   1.0000     -10.190478      -277.2970
  12   1.0000     -10.190438      -277.2959
  13   1.0000      -1.163926       -31.6720
  14   1.0000      -0.905138       -24.6301
  15   1.0000      -0.885981       -24.1088
  16   1.0000      -0.809323       -22.0228
  17   1.0000      -0.790074       -21.4990
  18   1.0000      -0.783078       -21.3086
  19   1.0000      -0.752066       -20.4648
  20   1.0000      -0.679379       -18.4868
  21   1.0000      -0.652962       -17.7680
  22   1.0000      -0.631565       -17.1857
  23   1.0000      -0.606606       -16.5066
  24   1.0000      -0.577762       -15.7217
  25   1.0000      -0.532867       -14.5001
  26   1.0000      -0.514701       -14.0057
  27   1.0000      -0.509342       -13.8599
  28   1.0000      -0.498200       -13.5567
  29   1.0000      -0.462158       -12.5760
  30   1.0000      -0.461599       -12.5608
  31   1.0000      -0.448269       -12.1980
  32   1.0000      -0.447972       -12.1899
  33   1.0000      -0.435159       -11.8413
  34   1.0000      -0.428729       -11.6663
  35   1.0000      -0.392568       -10.6823
  36   1.0000      -0.386120       -10.5069
  37   1.0000      -0.377001       -10.2587
  38   1.0000      -0.371587       -10.1114
  39   1.0000      -0.355526        -9.6743
  40   1.0000      -0.354192        -9.6380
  41   1.0000      -0.287817        -7.8319
  42   1.0000      -0.282981        -7.7003
  43   1.0000      -0.270899        -7.3715
  44   0.0000      -0.212627        -5.7859
  45   0.0000      -0.055999        -1.5238
  46   0.0000      -0.048906        -1.3308
  47   0.0000      -0.041734        -1.1356
  48   0.0000      -0.024372        -0.6632

MULLIKEN ATOMIC CHARGES AND SPIN POPULATIONS
--------------------------------------------
   0 C :   -0.327997    0.127877
   1 C :   -0.673705   -0.101274
   2 C :   -0.466961    0.264564
   3 C :   -0.380470   -0.090259
   4 C :   -1.122389    0.107171
   5 C :    1.463685    0.064416
   6 O :   -0.733654    0.240334
   7 C :    1.463504    0.064080
   8 C :   -1.128681    0.106988
   9 C :   -0.375621   -0.089978
  10 C :   -0.464655    0.263904
  11 C :   -0.670741   -0.101215
  12 C :   -0.329579    0.127745
  13 H :    0.592274    0.007930
  14 H :    0.362923    0.000282
  15 H :    0.534875    0.006656
  16 H :    0.369585   -0.001519
  17 H :    0.512540   -0.005643
  18 H :    0.513483   -0.005557
  19 H :    0.370515   -0.001503
  20 H :    0.536289    0.006698
  21 H :    0.362063    0.000242
  22 H :    0.592716    0.008062
Sum of atomic charges         :    1.0000000

LOEWDIN ATOMIC CHARGES AND SPIN POPULATIONS
-------------------------------------------
   0 C :    0.249323    0.069853
   1 C :    0.251511    0.018293
   2 C :    0.258082    0.111615
   3 C :    0.243894    0.020718
   4 C :    0.259532    0.060917
   5 C :   -0.320410    0.083123
   6 O :    0.688742    0.190960
   7 C :   -0.320511    0.082870
   8 C :    0.259435    0.060749
   9 C :    0.243794    0.020667
  10 C :    0.257947    0.111290
  11 C :    0.251403    0.018211
  12 C :    0.249160    0.069696
  13 H :   -0.161829    0.013207
  14 H :   -0.156970   -0.005905
  15 H :   -0.155252    0.027610
  16 H :   -0.158996   -0.005211
  17 H :   -0.152948    0.010762
  18 H :   -0.152919    0.010790
  19 H :   -0.158972   -0.005228
  20 H :   -0.155208    0.027687
  21 H :   -0.156956   -0.005911
  22 H :   -0.161853    0.013234

  Mayer bond orders larger than 0.100000
B(  0-C ,  1-C ) :   1.1615 B(  0-C ,  2-C ) :   0.1351 B(  0-C ,  4-C ) :   0.2581
B(  0-C ,  5-C ) :   0.7006 B(  0-C , 12-C ) :   0.1875 B(  0-C , 13-H ) :  -0.1070
B(  0-C , 22-H ) :   0.3987 B(  1-C ,  2-C ) :   1.1795 B(  1-C ,  3-C ) :  -0.1394
B(  1-C ,  4-C ) :  -0.1533 B(  1-C ,  5-C ) :  -0.3436 B(  1-C , 21-H ) :   0.8400
B(  2-C ,  3-C ) :   1.0727 B(  2-C ,  4-C ) :   0.4066 B(  2-C ,  5-C ) :  -0.1606
B(  2-C , 20-H ) :   0.5118 B(  3-C ,  4-C ) :   1.3228 B(  3-C ,  5-C ) :  -0.3884
B(  3-C , 19-H ) :   0.8252 B(  4-C ,  5-C ) :   0.1473 B(  4-C ,  6-O ) :   0.2436
B(  4-C , 18-H ) :   0.3043 B(  5-C ,  6-O ) :   0.5994 B(  5-C ,  7-C ) :   0.1063
B(  6-O ,  7-C ) :   0.5990 B(  6-O ,  8-C ) :   0.2440 B(  7-C ,  8-C ) :   0.1484
B(  7-C ,  9-C ) :  -0.3878 B(  7-C , 10-C ) :  -0.1602 B(  7-C , 11-C ) :  -0.3427
B(  7-C , 12-C ) :   0.7007 B(  8-C ,  9-C ) :   1.3295 B(  8-C , 10-C ) :   0.4067
B(  8-C , 11-C ) :  -0.1530 B(  8-C , 12-C ) :   0.2581 B(  8-C , 17-H ) :   0.3059
B(  9-C , 10-C ) :   1.0718 B(  9-C , 11-C ) :  -0.1394 B(  9-C , 16-H ) :   0.8253
B( 10-C , 11-C ) :   1.1773 B( 10-C , 12-C ) :   0.1347 B( 10-C , 15-H ) :   0.5143
B( 11-C , 12-C ) :   1.1630 B( 11-C , 14-H ) :   0.8387 B( 12-C , 13-H ) :   0.4001
B( 12-C , 22-H ) :  -0.1081

Dispersion correction           -0.008652625
FINAL SINGLE POINT ENERGY      -538.178434916671

DIPOLE MOMENT
-------------

Method             : SCF
Type of density    : Electron Density
Multiplicity       :   2
Irrep              :   0
Energy             :  -538.1697822914298968 Eh
Relativity type    :
Basis              : AO
                                X                 Y                 Z
Electronic contribution:      0.004412503       2.188386002      -0.002352636
Nuclear contribution   :     -0.000176307      -2.679310721       0.002847585
                        -----------------------------------------
Total Dipole Moment    :      0.004236196      -0.490924720       0.000494950
                        -----------------------------------------
Magnitude (a.u.)       :      0.490943246
Magnitude (Debye)      :      1.247878560

Rotational constants in cm-1:             0.082632             0.014828             0.013328
Rotational constants in MHz :          2477.234177           444.518961           399.560426

                             ****ORCA TERMINATED NORMALLY****
TOTAL RUN TIME: 0 days 1 hours 16 minutes 13 seconds 80 msec
