                         Program Version 6.0.0  -   RELEASE  -
|  1> !TPSSh opt aug-cc-pVTZ d3 TightSCF SlowConv RIJCOSX defgrid2
|  2>
|  3> %pal
|  4> nprocs 8
|  5> end
|  6>
|  7> %scf
|  8> MaxIter 1500
|  9> end
| 10>
| 11> %maxcore 3500
| 12>
| 13> !CPCM
| 14> %cpcm smd true
| 15> SMDsolvent "MeCN"
| 16> surfacetype gepol_ses
| 17> rsolv 2.19
| 18> end
| 19>
| 20> * xyz -1 2
| 21>   C          -1.16908364743389     -1.25106043112589     -0.00046711885945
| 22>   C          -2.51558895662628     -0.94805778331016     -0.00048970260602
| 23>   C          -2.96951415995677      0.38786935411419     -0.00003437372110
| 24>   C          -1.99949719417351      1.41257476413842      0.00046952009611
| 25>   C          -0.64650719425624      1.13368035065037      0.00050575201273
| 26>   C          -0.16707249946699     -0.21739071251225      0.00002200149285
| 27>   C           1.18771930240505     -0.62830725495849      0.00000084051024
| 28>   O           1.69166054938407     -1.73447405522234     -0.00027921149921
| 29>   Cl          2.41415222066200      0.84117378911090      0.00088007792741
| 30>   H           0.08783721642061      1.94210741862158      0.00088650713536
| 31>   H          -2.32239478311716      2.46171169296406      0.00083360203305
| 32>   H          -4.03893270236722      0.62157662484535     -0.00006413910783
| 33>   H          -3.24555265578784     -1.76825494852385     -0.00088549117391
| 34>   H          -0.82790279568582     -2.29013880879190     -0.00083276424023
| 35> *
| 36>
| 37>                          ****END OF INPUT****
 Total Charge           Charge          ....   -1
 Multiplicity           Mult            ....    2
 Number of Electrons    NEL             ....   73
Dispersion correction           -0.018870552
FINAL SINGLE POINT ENERGY      -805.495200418101
Dispersion correction             ... done (  0.1 sec)
Dispersion correction           -0.018889743
FINAL SINGLE POINT ENERGY      -805.496001894507
Dispersion correction             ... done (  0.0 sec)
Dispersion correction           -0.018890728
FINAL SINGLE POINT ENERGY      -805.496094462859
Dispersion correction             ... done (  0.1 sec)
FINAL SINGLE POINT ENERGY      -805.496129215533
FINAL SINGLE POINT ENERGY      -805.496144976667
Dispersion correction             ... done (  0.0 sec)
Dispersion correction           -0.018878635
FINAL SINGLE POINT ENERGY      -805.496158410370
Dispersion correction             ... done (  0.1 sec)
Dispersion correction           -0.018877297
FINAL SINGLE POINT ENERGY      -805.496163439230
Dispersion correction             ... done (  0.0 sec)
                    ***********************HURRAY********************

CARTESIAN COORDINATES (ANGSTROEM)
---------------------------------
  C     -1.174500   -1.256089   -0.000534
  C     -2.518913   -0.946674   -0.000510
  C     -2.961449    0.387009   -0.000118
  C     -1.996018    1.409518    0.000268
  C     -0.644748    1.127915    0.000336
  C     -0.175184   -0.222082   -0.000007
  C      1.171234   -0.632940    0.000257
  O      1.706973   -1.733472   -0.000233
  Cl     2.426063    0.870483    0.000847
  H      0.074690    1.935073    0.000885
  H     -2.314638    2.446877    0.001004
  H     -4.018798    0.621040    0.000117
  H     -3.244370   -1.753953   -0.000850
  H     -0.851019   -2.289695   -0.000915

 Multiplicity           Mult            ....    2
 Number of Electrons    NEL             ....   73
 Basis Dimension        Dim             ....  533

ORBITAL ENERGIES
----------------
                 SPIN UP ORBITALS
  NO   OCC          E(Eh)            E(eV)
   0   1.0000    -101.354315     -2757.9911
   1   1.0000     -19.021269      -517.5950
   2   1.0000     -10.184980      -277.1474
   3   1.0000     -10.107515      -275.0395
   4   1.0000     -10.098729      -274.8004
   5   1.0000     -10.097954      -274.7793
   6   1.0000     -10.097442      -274.7654
   7   1.0000     -10.096583      -274.7420
   8   1.0000     -10.091235      -274.5965
   9   1.0000      -9.333228      -253.9701
  10   1.0000      -7.080266      -192.6638
  11   1.0000      -7.074340      -192.5026
  12   1.0000      -7.073789      -192.4876
  13   1.0000      -0.992839       -27.0165
  14   1.0000      -0.817054       -22.2332
  15   1.0000      -0.758659       -20.6442
  16   1.0000      -0.718006       -19.5379
  17   1.0000      -0.710116       -19.3232
  18   1.0000      -0.608243       -16.5511
  19   1.0000      -0.564779       -15.3684
  20   1.0000      -0.516313       -14.0496
  21   1.0000      -0.467302       -12.7159
  22   1.0000      -0.426244       -11.5987
  23   1.0000      -0.418780       -11.3956
  24   1.0000      -0.394962       -10.7475
  25   1.0000      -0.386111       -10.5066
  26   1.0000      -0.385425       -10.4879
  27   1.0000      -0.369924       -10.0662
  28   1.0000      -0.334021        -9.0892
  29   1.0000      -0.325331        -8.8527
  30   1.0000      -0.300686        -8.1821
  31   1.0000      -0.270414        -7.3583
  32   1.0000      -0.268179        -7.2975
  33   1.0000      -0.239372        -6.5136
  34   1.0000      -0.238183        -6.4813
  35   1.0000      -0.235966        -6.4210
  36   1.0000      -0.102448        -2.7877
  37   0.0000      -0.010049        -0.2735
  38   0.0000      -0.005913        -0.1609
  39   0.0000       0.009220         0.2509
  40   0.0000       0.015016         0.4086
  41   0.0000       0.019827         0.5395

                 SPIN DOWN ORBITALS
  NO   OCC          E(Eh)            E(eV)
   0   1.0000    -101.354305     -2757.9908
   1   1.0000     -19.015828      -517.4470
   2   1.0000     -10.179614      -277.0014
   3   1.0000     -10.107273      -275.0329
   4   1.0000     -10.100124      -274.8384
   5   1.0000     -10.099254      -274.8147
   6   1.0000     -10.094423      -274.6832
   7   1.0000     -10.093728      -274.6643
   8   1.0000     -10.086688      -274.4727
   9   1.0000      -9.333216      -253.9697
  10   1.0000      -7.080470      -192.6694
  11   1.0000      -7.074083      -192.4956
  12   1.0000      -7.073792      -192.4877
  13   1.0000      -0.983578       -26.7645
  14   1.0000      -0.813152       -22.1270
  15   1.0000      -0.756115       -20.5749
  16   1.0000      -0.713354       -19.4113
  17   1.0000      -0.706950       -19.2371
  18   1.0000      -0.597285       -16.2529
  19   1.0000      -0.563412       -15.3312
  20   1.0000      -0.512592       -13.9483
  21   1.0000      -0.462767       -12.5925
  22   1.0000      -0.423362       -11.5203
  23   1.0000      -0.415007       -11.2929
  24   1.0000      -0.393335       -10.7032
  25   1.0000      -0.384735       -10.4692
  26   1.0000      -0.366996        -9.9865
  27   1.0000      -0.361703        -9.8424
  28   1.0000      -0.323482        -8.8024
  29   1.0000      -0.318877        -8.6771
  30   1.0000      -0.299871        -8.1599
  31   1.0000      -0.267708        -7.2847
  32   1.0000      -0.264561        -7.1991
  33   1.0000      -0.233627        -6.3573
  34   1.0000      -0.229279        -6.2390
  35   1.0000      -0.219894        -5.9836
  36   0.0000      -0.047131        -1.2825
  37   0.0000      -0.004306        -0.1172
  38   0.0000      -0.003103        -0.0844
  39   0.0000       0.011942         0.3249
  40   0.0000       0.016650         0.4531

MULLIKEN ATOMIC CHARGES AND SPIN POPULATIONS
--------------------------------------------
   0 C :   -0.734367    0.235739
   1 C :   -0.256255   -0.099636
   2 C :   -0.315880    0.302217
   3 C :   -0.470166   -0.094749
   4 C :   -0.858429    0.226615
   5 C :    1.263161    0.017557
   6 C :    0.580522    0.252946
   7 O :   -0.872855    0.198202
   8 Cl:   -0.566636    0.003096
   9 H :    0.242738   -0.002475
  10 H :    0.335953   -0.012248
  11 H :    0.331707    0.003631
  12 H :    0.352113   -0.013006
  13 H :   -0.031605   -0.017888
Sum of atomic charges         :   -1.0000000

LOEWDIN ATOMIC CHARGES AND SPIN POPULATIONS
-------------------------------------------
   0 C :    0.143355    0.097887
   1 C :    0.142913    0.029450
   2 C :    0.154004    0.134609
   3 C :    0.141019    0.030473
   4 C :    0.104519    0.094495
   5 C :   -0.329748    0.115326
   6 C :   -1.088000    0.215654
   7 O :    0.291982    0.190994
   8 Cl:    0.531777    0.024460
   9 H :   -0.283077    0.019860
  10 H :   -0.195094   -0.005164
  11 H :   -0.209018    0.035954
  12 H :   -0.194058   -0.005750
  13 H :   -0.210573    0.021752

  Mayer bond orders larger than 0.100000
B(  0-C ,  1-C ) :   1.4123 B(  0-C ,  2-C ) :   0.1050 B(  0-C ,  5-C ) :   0.4576
B(  0-C ,  6-C ) :   0.1813 B(  0-C , 13-H ) :   1.0220 B(  1-C ,  2-C ) :   1.2022
B(  1-C , 12-H ) :   0.7296 B(  2-C ,  3-C ) :   1.2065 B(  2-C ,  5-C ) :  -0.1374
B(  2-C ,  6-C ) :   0.1104 B(  2-C , 11-H ) :   0.7088 B(  3-C ,  4-C ) :   1.4502
B(  3-C , 10-H ) :   0.7331 B(  4-C ,  5-C ) :   0.2919 B(  4-C ,  6-C ) :   0.2887
B(  4-C ,  9-H ) :   1.1355 B(  4-C , 13-H ) :   0.1084 B(  5-C ,  6-C ) :   0.8290
B(  5-C ,  7-O ) :   0.3092 B(  6-C ,  7-O ) :   0.5710 B(  6-C ,  8-Cl) :   0.6016
B(  7-O ,  8-Cl) :   0.1028 B(  7-O , 13-H ) :   0.1833 B(  8-Cl,  9-H ) :  -0.1746

Dispersion correction           -0.018877207
FINAL SINGLE POINT ENERGY      -805.496165205230

DIPOLE MOMENT
-------------

Method             : SCF
Type of density    : Electron Density
Multiplicity       :   2
Irrep              :   0
Energy             :  -805.4772879978820583 Eh
Relativity type    :
Basis              : AO
                                X                 Y                 Z
Electronic contribution:     10.949729052       1.005323217       0.001664685
Nuclear contribution   :    -13.021556089      -0.353619909      -0.001460456
                        -----------------------------------------
Total Dipole Moment    :     -2.071827037       0.651703308       0.000204229
                        -----------------------------------------
Magnitude (a.u.)       :      2.171908035
Magnitude (Debye)      :      5.520551500

Rotational constants in cm-1:             0.099547             0.030306             0.023233
Rotational constants in MHz :          2984.343885           908.558493           696.511427

                             ****ORCA TERMINATED NORMALLY****
TOTAL RUN TIME: 0 days 0 hours 33 minutes 58 seconds 589 msec
