                         Program Version 6.0.0  -   RELEASE  -
|  1> !r2SCAN freq aug-cc-pVTZ d3 TightSCF SlowConv RIJCOSX defgrid2
|  2>
|  3> %pal
|  4> nprocs 12
|  5> end
|  6>
|  7> %scf
|  8> MaxIter 1500
|  9> end
| 10>
| 11> %maxcore 5000
| 12>
| 13> !CPCM
| 14> %cpcm smd true
| 15> SMDsolvent "MeCN"
| 16> surfacetype gepol_ses
| 17> rsolv 2.19
| 18> end
| 19>
| 20> * xyz 1 2
| 21> C          -0.22425671026965     -1.23894804662569     -0.03915429994871
| 22> C           1.14372090980897     -1.22357405260889      0.00231651867970
| 23> C           1.83784384978862     -0.00003937417580      0.02329817169164
| 24> C           1.14376334206484      1.22351877461944      0.00231604248843
| 25> C          -0.22421406510671      1.23893997568461     -0.03915424938866
| 26> C          -0.93259435862388      0.00000836436967     -0.05984881841821
| 27> N          -2.25595812562339      0.00003185827620     -0.09827666323915
| 28> H          -2.78011066515397      0.86533358263689     -0.11472982164657
| 29> H          -2.78014315892559     -0.86525025626554     -0.11472567630042
| 30> H          -0.78519731435958      2.16470079878254     -0.05639972455983
| 31> H           1.69529566256325      2.15405461066158      0.01877004257696
| 32> H           2.91947030959436     -0.00005855933964      0.05532497770913
| 33> H           1.69522140564897     -2.15412853153286      0.01877864743474
| 34> H          -0.78527278140624     -2.16468914448249     -0.05639034707904
| 35> *
| 36>
| 37>                          ****END OF INPUT****

CARTESIAN COORDINATES (ANGSTROEM)
---------------------------------
  C     -0.224257   -1.238948   -0.039154
  C      1.143721   -1.223574    0.002317
  C      1.837844   -0.000039    0.023298
  C      1.143763    1.223519    0.002316
  C     -0.224214    1.238940   -0.039154
  C     -0.932594    0.000008   -0.059849
  N     -2.255958    0.000032   -0.098277
  H     -2.780111    0.865334   -0.114730
  H     -2.780143   -0.865250   -0.114726
  H     -0.785197    2.164701   -0.056400
  H      1.695296    2.154055    0.018770
  H      2.919470   -0.000059    0.055325
  H      1.695221   -2.154129    0.018779
  H     -0.785273   -2.164689   -0.056390

 Total Charge           Charge          ....    1
 Multiplicity           Mult            ....    2
 Number of Electrons    NEL             ....   49
 Basis Dimension        Dim             ....  483

ORBITAL ENERGIES
----------------
                 SPIN UP ORBITALS
  NO   OCC          E(Eh)            E(eV)
   0   1.0000     -14.258154      -387.9841
   1   1.0000     -10.142352      -275.9874
   2   1.0000     -10.087220      -274.4872
   3   1.0000     -10.083212      -274.3781
   4   1.0000     -10.083207      -274.3780
   5   1.0000     -10.071084      -274.0481
   6   1.0000     -10.071083      -274.0481
   7   1.0000      -0.968664       -26.3587
   8   1.0000      -0.851677       -23.1753
   9   1.0000      -0.758683       -20.6448
  10   1.0000      -0.739503       -20.1229
  11   1.0000      -0.623863       -16.9762
  12   1.0000      -0.620379       -16.8814
  13   1.0000      -0.540544       -14.7089
  14   1.0000      -0.533581       -14.5195
  15   1.0000      -0.489947       -13.3321
  16   1.0000      -0.439453       -11.9581
  17   1.0000      -0.431160       -11.7325
  18   1.0000      -0.427621       -11.6362
  19   1.0000      -0.424212       -11.5434
  20   1.0000      -0.362524        -9.8648
  21   1.0000      -0.351997        -9.5783
  22   1.0000      -0.341785        -9.3004
  23   1.0000      -0.281604        -7.6628
  24   1.0000      -0.247184        -6.7262
  25   0.0000      -0.067864        -1.8467
  26   0.0000      -0.065912        -1.7936
  27   0.0000       0.004635         0.1261
  28   0.0000       0.018260         0.4969
  29   0.0000       0.024378         0.6634

                 SPIN DOWN ORBITALS
  NO   OCC          E(Eh)            E(eV)
   0   1.0000     -14.248402      -387.7187
   1   1.0000     -10.141923      -275.9757
   2   1.0000     -10.080310      -274.2992
   3   1.0000     -10.079132      -274.2671
   4   1.0000     -10.079128      -274.2670
   5   1.0000     -10.073277      -274.1078
   6   1.0000     -10.073273      -274.1077
   7   1.0000      -0.954417       -25.9710
   8   1.0000      -0.842985       -22.9388
   9   1.0000      -0.754721       -20.5370
  10   1.0000      -0.724361       -19.7109
  11   1.0000      -0.621204       -16.9038
  12   1.0000      -0.612844       -16.6763
  13   1.0000      -0.538627       -14.6568
  14   1.0000      -0.528315       -14.3762
  15   1.0000      -0.485082       -13.1998
  16   1.0000      -0.436254       -11.8711
  17   1.0000      -0.428537       -11.6611
  18   1.0000      -0.423815       -11.5326
  19   1.0000      -0.400810       -10.9066
  20   1.0000      -0.360585        -9.8120
  21   1.0000      -0.340187        -9.2570
  22   1.0000      -0.324049        -8.8178
  23   1.0000      -0.271877        -7.3981
  24   0.0000      -0.195912        -5.3310
  25   0.0000      -0.056173        -1.5285
  26   0.0000      -0.039066        -1.0630
  27   0.0000       0.006541         0.1780
  28   0.0000       0.020692         0.5631

MULLIKEN ATOMIC CHARGES AND SPIN POPULATIONS
--------------------------------------------
   0 C :   -0.662821    0.244265
   1 C :   -0.328936   -0.168102
   2 C :   -0.370469    0.426107
   3 C :   -0.328938   -0.168106
   4 C :   -0.662806    0.244269
   5 C :    1.186668    0.050882
   6 N :   -0.323102    0.410145
   7 H :    0.052542   -0.008675
   8 H :    0.052542   -0.008675
   9 H :    0.603674   -0.007725
  10 H :    0.322029   -0.010880
  11 H :    0.533915    0.015098
  12 H :    0.322033   -0.010878
  13 H :    0.603668   -0.007725
Sum of atomic charges         :    1.0000000

LOEWDIN ATOMIC CHARGES AND SPIN POPULATIONS
-------------------------------------------
   0 C :    0.287176    0.115734
   1 C :    0.250967    0.031857
   2 C :    0.267904    0.182214
   3 C :    0.250969    0.031856
   4 C :    0.287178    0.115736
   5 C :   -0.162614    0.130958
   6 N :    0.976821    0.255003
   7 H :   -0.198582    0.033776
   8 H :   -0.198582    0.033776
   9 H :   -0.146082    0.022315
  10 H :   -0.158300   -0.010480
  11 H :   -0.152471    0.045418
  12 H :   -0.158300   -0.010479
  13 H :   -0.146083    0.022315

  Mayer bond orders larger than 0.100000
B(  0-C ,  1-C ) :   1.3585 B(  0-C ,  2-C ) :   0.2815 B(  0-C ,  3-C ) :  -0.1527
B(  0-C ,  4-C ) :   0.3612 B(  0-C ,  5-C ) :   0.4932 B(  0-C ,  6-N ) :  -0.1300
B(  0-C , 13-H ) :   0.1676 B(  1-C ,  2-C ) :   0.9316 B(  1-C ,  3-C ) :  -0.1264
B(  1-C ,  4-C ) :  -0.1527 B(  1-C ,  5-C ) :  -0.2181 B(  1-C , 12-H ) :   0.8607
B(  2-C ,  3-C ) :   0.9316 B(  2-C ,  4-C ) :   0.2815 B(  2-C ,  5-C ) :  -0.1364
B(  2-C , 11-H ) :   0.4809 B(  3-C ,  4-C ) :   1.3585 B(  3-C ,  5-C ) :  -0.2181
B(  3-C , 10-H ) :   0.8607 B(  4-C ,  5-C ) :   0.4932 B(  4-C ,  6-N ) :  -0.1300
B(  4-C ,  9-H ) :   0.1676 B(  5-C ,  6-N ) :   0.9293 B(  5-C ,  9-H ) :   0.1041
B(  5-C , 13-H ) :   0.1041 B(  6-N ,  7-H ) :   1.1115 B(  6-N ,  8-H ) :   1.1115

Dispersion correction           -0.003797586
FINAL SINGLE POINT ENERGY      -287.370784101485

DIPOLE MOMENT
-------------

Method             : SCF
Type of density    : Electron Density
Multiplicity       :   2
Irrep              :   0
Energy             :  -287.3669865151169347 Eh
Relativity type    :
Basis              : AO
                                X                 Y                 Z
Electronic contribution:     -0.942014880       0.000032073      -0.027839376
Nuclear contribution   :     -0.820165332       0.000016156      -0.026163331
                        -----------------------------------------
Total Dipole Moment    :     -1.762180212       0.000048229      -0.054002707
                        -----------------------------------------
Magnitude (a.u.)       :      1.763007486
Magnitude (Debye)      :      4.481208902

VIBRATIONAL FREQUENCIES
-----------------------

Scaling factor for frequencies =  1.000000000  (already applied!)

     0:       0.00 cm**-1
     1:       0.00 cm**-1
     2:       0.00 cm**-1
     3:       0.00 cm**-1
     4:       0.00 cm**-1
     5:       0.00 cm**-1
     6:     167.16 cm**-1
     7:     347.09 cm**-1
     8:     379.25 cm**-1
     9:     429.64 cm**-1
    10:     527.84 cm**-1
    11:     529.37 cm**-1
    12:     557.29 cm**-1
    13:     595.37 cm**-1
    14:     614.89 cm**-1
    15:     778.95 cm**-1
    16:     794.91 cm**-1
    17:     831.76 cm**-1
    18:     921.44 cm**-1
    19:     986.81 cm**-1
    20:     996.23 cm**-1
    21:     997.66 cm**-1
    22:    1011.90 cm**-1
    23:    1017.61 cm**-1
    24:    1119.51 cm**-1
    25:    1155.50 cm**-1
    26:    1180.81 cm**-1
    27:    1350.61 cm**-1
    28:    1392.81 cm**-1
    29:    1393.77 cm**-1
    30:    1471.92 cm**-1
    31:    1505.91 cm**-1
    32:    1543.40 cm**-1
    33:    1610.29 cm**-1
    34:    1628.39 cm**-1
    35:    3188.46 cm**-1
    36:    3190.62 cm**-1
    37:    3198.51 cm**-1
    38:    3205.52 cm**-1
    39:    3213.01 cm**-1
    40:    3507.65 cm**-1
    41:    3626.42 cm**-1

IR SPECTRUM
-----------

 Mode   freq       eps      Int      T**2         TX        TY        TZ
       cm**-1   L/(mol*cm) km/mol    a.u.
----------------------------------------------------------------------------
  6:    167.16   0.003374   17.05  0.006299  (-0.003438 -0.000000  0.079294)
  7:    347.09   0.000000    0.00  0.000000  ( 0.000003 -0.000337 -0.000002)
  8:    379.25   0.001672    8.45  0.001376  ( 0.000001 -0.037094 -0.000000)
  9:    429.64   0.007814   39.49  0.005676  ( 0.002120 -0.000002 -0.075309)
 10:    527.84   0.000000    0.00  0.000000  (-0.000002  0.000065  0.000008)
 11:    529.37   0.000420    2.12  0.000248  ( 0.015728  0.000001  0.000576)
 12:    557.29   0.048260  243.89  0.027024  ( 0.005433 -0.000000 -0.164300)
 13:    595.37   0.000030    0.15  0.000016  (-0.000001 -0.003975  0.000002)
 14:    614.89   0.008871   44.83  0.004502  (-0.001995  0.000002  0.067067)
 15:    778.95   0.016483   83.30  0.006603  (-0.002363 -0.000001  0.081227)
 16:    794.91   0.000000    0.00  0.000000  (-0.000000  0.000093  0.000008)
 17:    831.76   0.000261    1.32  0.000098  (-0.009887 -0.000000 -0.000360)
 18:    921.44   0.001762    8.91  0.000597  (-0.000296  0.000001  0.024429)
 19:    986.81   0.000000    0.00  0.000000  (-0.000000 -0.000100  0.000002)
 20:    996.23   0.000004    0.02  0.000001  (-0.001139 -0.000000 -0.000184)
 21:    997.66   0.000242    1.22  0.000076  (-0.000260  0.000000  0.008702)
 22:   1011.90   0.000480    2.43  0.000148  (-0.012158 -0.000000 -0.000573)
 23:   1017.61   0.000050    0.25  0.000015  (-0.000001  0.003904 -0.000001)
 24:   1119.51   0.005319   26.88  0.001483  (-0.000000 -0.038504 -0.000000)
 25:   1155.50   0.000029    0.15  0.000008  ( 0.000000  0.002788 -0.000001)
 26:   1180.81   0.000386    1.95  0.000102  ( 0.010093 -0.000001  0.000279)
 27:   1350.61   0.000000    0.00  0.000000  ( 0.000000 -0.000248  0.000000)
 28:   1392.81   0.005876   29.70  0.001317  ( 0.000009 -0.036285  0.000002)
 29:   1393.77   0.001505    7.60  0.000337  ( 0.018346  0.000018  0.000527)
 30:   1471.92   0.001013    5.12  0.000215  (-0.000001  0.014658 -0.000001)
 31:   1505.91   0.020331  102.74  0.004213  ( 0.064881 -0.000002  0.001868)
 32:   1543.40   0.002757   13.93  0.000557  (-0.000002 -0.023609 -0.000000)
 33:   1610.29   0.031735  160.37  0.006150  ( 0.078386 -0.000001  0.002363)
 34:   1628.39   0.021887  110.61  0.004195  ( 0.064739 -0.000001  0.001848)
 35:   3188.46   0.000382    1.93  0.000037  ( 0.006110  0.000002  0.000114)
 36:   3190.62   0.000193    0.98  0.000019  (-0.000002  0.004350 -0.000000)
 37:   3198.51   0.001112    5.62  0.000108  (-0.010410  0.000002 -0.000362)
 38:   3205.52   0.000564    2.85  0.000055  ( 0.000002  0.007407  0.000000)
 39:   3213.01   0.000914    4.62  0.000089  ( 0.009417 -0.000001  0.000332)
 40:   3507.65   0.085171  430.42  0.007577  ( 0.087008 -0.000001  0.002633)
 41:   3626.42   0.032681  165.16  0.002812  (-0.000001 -0.053031  0.000000)

--------------------------
THERMOCHEMISTRY AT 298.15K
--------------------------

Temperature         ...   298.15 K
Pressure            ...     1.00 atm
Total Mass          ...    93.13 AMU
Quasi RRHO          ...     True
Cut-Off Frequency   ...     1.00 cm^-1

Throughout the following assumptions are being made:
  (1) The electronic state is orbitally nondegenerate
      but the spin degeneracy is treated
  (2) There are no thermally accessible electronically excited states
  (3) Hindered rotations indicated by low frequency modes are not
      treated as such but are treated as vibrations and this may
      cause some error
  (4) All equations used are the standard statistical mechanics
      equations for an ideal gas
  (5) All vibrations are strictly harmonic

freq.     167.16  E(vib)   ...       0.39
freq.     347.09  E(vib)   ...       0.23
freq.     379.25  E(vib)   ...       0.21
freq.     429.64  E(vib)   ...       0.18
freq.     527.84  E(vib)   ...       0.13
freq.     529.37  E(vib)   ...       0.13
freq.     557.29  E(vib)   ...       0.12
freq.     595.37  E(vib)   ...       0.10
freq.     614.89  E(vib)   ...       0.10
freq.     778.95  E(vib)   ...       0.05
freq.     794.91  E(vib)   ...       0.05
freq.     831.76  E(vib)   ...       0.04
freq.     921.44  E(vib)   ...       0.03
freq.     986.81  E(vib)   ...       0.02
freq.     996.23  E(vib)   ...       0.02
freq.     997.66  E(vib)   ...       0.02
freq.    1011.90  E(vib)   ...       0.02
freq.    1017.61  E(vib)   ...       0.02
freq.    1119.51  E(vib)   ...       0.01
freq.    1155.50  E(vib)   ...       0.01
freq.    1180.81  E(vib)   ...       0.01
freq.    1350.61  E(vib)   ...       0.01
freq.    1392.81  E(vib)   ...       0.00
freq.    1393.77  E(vib)   ...       0.00
freq.    1471.92  E(vib)   ...       0.00
freq.    1505.91  E(vib)   ...       0.00
freq.    1543.40  E(vib)   ...       0.00
freq.    1610.29  E(vib)   ...       0.00
freq.    1628.39  E(vib)   ...       0.00
freq.    3188.46  E(vib)   ...       0.00
freq.    3190.62  E(vib)   ...       0.00
freq.    3198.51  E(vib)   ...       0.00
freq.    3205.52  E(vib)   ...       0.00
freq.    3213.01  E(vib)   ...       0.00
freq.    3507.65  E(vib)   ...       0.00
freq.    3626.42  E(vib)   ...       0.00

------------
INNER ENERGY
------------

The inner energy is: U= E(el) + E(ZPE) + E(vib) + E(rot) + E(trans)
    E(el)   - is the total energy from the electronic structure calculation
              = E(kin-el) + E(nuc-el) + E(el-el) + E(nuc-nuc)
    E(ZPE)  - the the zero temperature vibrational energy from the frequency calculation
    E(vib)  - the the finite temperature correction to E(ZPE) due to population
              of excited vibrational states
    E(rot)  - is the rotational thermal energy
    E(trans)- is the translational thermal energy

Summary of contributions to the inner energy U:
Electronic energy                ...   -287.37078410 Eh
Zero point energy                ...      0.11611428 Eh      72.86 kcal/mol
Thermal vibrational correction   ...      0.00307057 Eh       1.93 kcal/mol
Thermal rotational correction    ...      0.00141627 Eh       0.89 kcal/mol
Thermal translational correction ...      0.00141627 Eh       0.89 kcal/mol
-----------------------------------------------------------------------
Total thermal energy                   -287.24876670 Eh

Summary of corrections to the electronic energy:
(perhaps to be used in another calculation)
Total thermal correction                  0.00590312 Eh       3.70 kcal/mol
Non-thermal (ZPE) correction              0.11611428 Eh      72.86 kcal/mol
-----------------------------------------------------------------------
Total correction                          0.12201740 Eh      76.57 kcal/mol

--------
ENTHALPY
--------

The enthalpy is H = U + kB*T
                kB is Boltzmann's constant
Total thermal energy              ...   -287.24876670 Eh
Thermal Enthalpy correction       ...      0.00094421 Eh       0.59 kcal/mol
-----------------------------------------------------------------------
Total Enthalpy                    ...   -287.24782250 Eh

Note: Rotational entropy computed according to Herzberg
Infrared and Raman Spectra, Chapter V,1, Van Nostrand Reinhold, 1945
Point Group:  Cs, Symmetry Number:   1
Rotational constants in cm-1:     0.180980     0.090484     0.060324

Vibrational entropy computed according to the QRRHO of S. Grimme
Chem.Eur.J. 2012 18 9955 using a reference frequency of 100.0 cm-1

-------
ENTROPY
-------

The entropy contributions are T*S = T*(S(el)+S(vib)+S(rot)+S(trans))
     S(el)   - electronic entropy
     S(vib)  - vibrational entropy
     S(rot)  - rotational entropy
     S(trans)- translational entropy
The entropies will be listed as multiplied by the temperature to get
units of energy

Electronic entropy                ...      0.00065446 Eh      0.41 kcal/mol
Vibrational entropy               ...      0.00456608 Eh      2.87 kcal/mol
Rotational entropy                ...      0.01277767 Eh      8.02 kcal/mol
Translational entropy             ...      0.01877043 Eh     11.78 kcal/mol
-----------------------------------------------------------------------
Final entropy term                ...      0.03676863 Eh     23.07 kcal/mol

In case the symmetry of your molecule has not been determined correctly
or in case you have a reason to use a different symmetry number we print
out the resulting rotational entropy values for sn=1,12:

 non-linear molecules -----------------------------------
|  sn= 1 | S(rot)=       0.01277767 Eh      8.02 kcal/mol|
|  sn= 2 | S(rot)=       0.01212321 Eh      7.61 kcal/mol|
|  sn= 3 | S(rot)=       0.01174038 Eh      7.37 kcal/mol|
|  sn= 4 | S(rot)=       0.01146876 Eh      7.20 kcal/mol|
|  sn= 5 | S(rot)=       0.01125807 Eh      7.06 kcal/mol|
|  sn= 6 | S(rot)=       0.01108592 Eh      6.96 kcal/mol|
|  sn= 7 | S(rot)=       0.01094038 Eh      6.87 kcal/mol|
|  sn= 8 | S(rot)=       0.01081430 Eh      6.79 kcal/mol|
|  sn= 9 | S(rot)=       0.01070309 Eh      6.72 kcal/mol|
|  sn=10 | S(rot)=       0.01060361 Eh      6.65 kcal/mol|
|  sn=11 | S(rot)=       0.01051362 Eh      6.60 kcal/mol|
|  sn=12 | S(rot)=       0.01043147 Eh      6.55 kcal/mol|
 linear molecules ---------------------------------------
|  Dinfh | S(rot)=       0.00797709 Eh      5.01 kcal/mol|
|  Cinfv | S(rot)=       0.00863155 Eh      5.42 kcal/mol|
 --------------------------------------------------------

-------------------
GIBBS FREE ENERGY
-------------------

The Gibbs free energy is G = H - T*S

Total enthalpy                    ...   -287.24782250 Eh
Total entropy correction          ...     -0.03676863 Eh    -23.07 kcal/mol
-----------------------------------------------------------------------
Final Gibbs free energy         ...   -287.28459113 Eh

                             ****ORCA TERMINATED NORMALLY****
TOTAL RUN TIME: 0 days 0 hours 20 minutes 25 seconds 385 msec
