                         Program Version 6.0.0  -   RELEASE  -
|  1> !TPSSh aug-cc-pVTZ d3 TightSCF SlowConv RIJCOSX defgrid2
|  2>
|  3> %pal
|  4> nprocs 4
|  5> end
|  6>
|  7> %scf
|  8> MaxIter 1500
|  9> end
| 10>
| 11> %maxcore 3000
| 12>
| 13> !CPCM
| 14> %cpcm smd true
| 15> SMDsolvent "MeCN"
| 16> surfacetype gepol_ses
| 17> rsolv 2.19
| 18> end
| 19>
| 20> * xyz 0 1
| 21> C           1.57085042838004     -1.17474438788844     -0.33321365208336
| 22> C           2.96192041551293     -1.15651629940685     -0.31860147015010
| 23> C           3.64782695539498      0.00855864334947      0.02599003748590
| 24> C           2.92361947907694      1.15458909719340      0.34785674698480
| 25> C           1.53060388669529      1.13435322432905      0.32993520415109
| 26> C           0.82328467622844     -0.03397612396155      0.00340161993556
| 27> C          -0.65741272614693     -0.04733327290659      0.00534536563332
| 28> C          -1.35282390658214     -1.16758358658154      0.27962064543062
| 29> C          -2.84853700806778     -1.25828591796901      0.30847424531628
| 30> C          -3.51990150406660      0.11087068594057      0.31565142940002
| 31> C          -2.83381225328130      1.04341808051259     -0.67327419385531
| 32> C          -1.37142433850592      1.25026584913834     -0.29589644947955
| 33> H          -0.83991530281643      1.78116962585690     -1.10618334228773
| 34> H          -1.30989672858064      1.91765444185113      0.58676465237026
| 35> H          -3.35148405171204      2.01729252554914     -0.71973408682922
| 36> H          -2.89053837289839      0.60490265207129     -1.68762863260766
| 37> H          -4.59471066896096      0.01138665951998      0.08467603040594
| 38> H          -3.45292200027469      0.54772553729573      1.33001780873961
| 39> H          -3.19002868806132     -1.84280149491509     -0.57088642583127
| 40> H          -3.16602339134086     -1.84941487747488      1.18737448619474
| 41> H          -0.80474635256816     -2.08768769328037      0.51396987653596
| 42> H           0.98362946668811      2.04390039060663      0.59144870231404
| 43> H           3.44740931149543      2.07717728450666      0.61616083395012
| 44> H           4.74164950120465      0.02477698912015      0.03349122220482
| 45> H           3.51725863806072     -2.05891161890825     -0.59221005705267
| 46> H           1.04979053512663     -2.08648421354846     -0.63790469687620
| 47> *
| 48>
| 49>                          ****END OF INPUT****

CARTESIAN COORDINATES (ANGSTROEM)
---------------------------------
  C      1.570850   -1.174744   -0.333214
  C      2.961920   -1.156516   -0.318601
  C      3.647827    0.008559    0.025990
  C      2.923619    1.154589    0.347857
  C      1.530604    1.134353    0.329935
  C      0.823285   -0.033976    0.003402
  C     -0.657413   -0.047333    0.005345
  C     -1.352824   -1.167584    0.279621
  C     -2.848537   -1.258286    0.308474
  C     -3.519902    0.110871    0.315651
  C     -2.833812    1.043418   -0.673274
  C     -1.371424    1.250266   -0.295896
  H     -0.839915    1.781170   -1.106183
  H     -1.309897    1.917654    0.586765
  H     -3.351484    2.017293   -0.719734
  H     -2.890538    0.604903   -1.687629
  H     -4.594711    0.011387    0.084676
  H     -3.452922    0.547726    1.330018
  H     -3.190029   -1.842801   -0.570886
  H     -3.166023   -1.849415    1.187374
  H     -0.804746   -2.087688    0.513970
  H      0.983629    2.043900    0.591449
  H      3.447409    2.077177    0.616161
  H      4.741650    0.024777    0.033491
  H      3.517259   -2.058912   -0.592210
  H      1.049791   -2.086484   -0.637905

 Total Charge           Charge          ....    0
 Multiplicity           Mult            ....    1
 Number of Electrons    NEL             ....   86
 Basis Dimension        Dim             ....  874

ORBITAL ENERGIES
----------------

  NO   OCC          E(Eh)            E(eV)
   0   2.0000     -10.123538      -275.4755
   1   2.0000     -10.115149      -275.2472
   2   2.0000     -10.115062      -275.2448
   3   2.0000     -10.114264      -275.2231
   4   2.0000     -10.113604      -275.2051
   5   2.0000     -10.113368      -275.1987
   6   2.0000     -10.113296      -275.1968
   7   2.0000     -10.107308      -275.0338
   8   2.0000     -10.107060      -275.0271
   9   2.0000     -10.105956      -274.9971
  10   2.0000     -10.101998      -274.8893
  11   2.0000     -10.101358      -274.8719
  12   2.0000      -0.840253       -22.8645
  13   2.0000      -0.809143       -22.0179
  14   2.0000      -0.749753       -20.4018
  15   2.0000      -0.725878       -19.7521
  16   2.0000      -0.714900       -19.4534
  17   2.0000      -0.693987       -18.8844
  18   2.0000      -0.605211       -16.4686
  19   2.0000      -0.595689       -16.2095
  20   2.0000      -0.569822       -15.5056
  21   2.0000      -0.556907       -15.1542
  22   2.0000      -0.502927       -13.6853
  23   2.0000      -0.485826       -13.2200
  24   2.0000      -0.454936       -12.3794
  25   2.0000      -0.434053       -11.8112
  26   2.0000      -0.429350       -11.6832
  27   2.0000      -0.412869       -11.2347
  28   2.0000      -0.403568       -10.9816
  29   2.0000      -0.396828       -10.7982
  30   2.0000      -0.387717       -10.5503
  31   2.0000      -0.374435       -10.1889
  32   2.0000      -0.364336        -9.9141
  33   2.0000      -0.355044        -9.6612
  34   2.0000      -0.348599        -9.4859
  35   2.0000      -0.328565        -8.9407
  36   2.0000      -0.320856        -8.7309
  37   2.0000      -0.304576        -8.2879
  38   2.0000      -0.292995        -7.9728
  39   2.0000      -0.285030        -7.7561
  40   2.0000      -0.264462        -7.1964
  41   2.0000      -0.245082        -6.6690
  42   2.0000      -0.208903        -5.6845
  43   0.0000      -0.041746        -1.1360
  44   0.0000      -0.023402        -0.6368
  45   0.0000      -0.004849        -0.1319
  46   0.0000       0.004869         0.1325
  47   0.0000       0.009911         0.2697

MULLIKEN ATOMIC CHARGES
-----------------------
   0 C :   -0.793528
   1 C :   -0.687529
   2 C :   -0.068677
   3 C :   -0.759891
   4 C :   -0.718773
   5 C :    1.609431
   6 C :    1.303632
   7 C :   -0.925087
   8 C :    0.161569
   9 C :    0.042101
  10 C :   -0.147691
  11 C :    0.033116
  12 H :    0.058331
  13 H :    0.128154
  14 H :   -0.092385
  15 H :    0.047136
  16 H :   -0.050120
  17 H :    0.064400
  18 H :    0.086580
  19 H :    0.031617
  20 H :   -0.147309
  21 H :   -0.135301
  22 H :    0.349847
  23 H :    0.425994
  24 H :    0.391254
  25 H :   -0.206870
Sum of atomic charges:    0.0000000

LOEWDIN ATOMIC CHARGES
----------------------
   0 C :    0.202726
   1 C :    0.188758
   2 C :    0.180274
   3 C :    0.189459
   4 C :    0.205134
   5 C :   -0.122953
   6 C :   -0.080712
   7 C :    0.254597
   8 C :    0.266640
   9 C :    0.271013
  10 C :    0.276926
  11 C :    0.262320
  12 H :   -0.132039
  13 H :   -0.129695
  14 H :   -0.128753
  15 H :   -0.126360
  16 H :   -0.130697
  17 H :   -0.128806
  18 H :   -0.131502
  19 H :   -0.137779
  20 H :   -0.174205
  21 H :   -0.178708
  22 H :   -0.171532
  23 H :   -0.174607
  24 H :   -0.171765
  25 H :   -0.177733

  Mayer bond orders larger than 0.100000
B(  0-C ,  1-C ) :   1.4609 B(  0-C ,  2-C ) :  -0.1034 B(  0-C ,  3-C ) :   0.1414
B(  0-C ,  4-C ) :  -0.5565 B(  0-C ,  5-C ) :   0.4007 B(  0-C ,  6-C ) :   0.2453
B(  0-C , 25-H ) :   1.6078 B(  1-C ,  2-C ) :   1.3611 B(  1-C ,  3-C ) :   0.1982
B(  1-C ,  4-C ) :   0.1223 B(  1-C , 24-H ) :   0.5432 B(  2-C ,  3-C ) :   1.3890
B(  2-C ,  5-C ) :  -0.2305 B(  2-C ,  6-C ) :   0.2699 B(  2-C , 22-H ) :   0.1043
B(  2-C , 23-H ) :   0.5316 B(  2-C , 24-H ) :   0.1062 B(  3-C ,  4-C ) :   1.3777
B(  3-C ,  5-C ) :  -0.2124 B(  3-C , 22-H ) :   0.5913 B(  4-C ,  5-C ) :   0.3233
B(  4-C , 21-H ) :   1.5502 B(  5-C ,  6-C ) :  -0.1570 B(  5-C ,  7-C ) :   0.2535
B(  5-C , 22-H ) :   0.1989 B(  5-C , 24-H ) :   0.1745 B(  5-C , 25-H ) :  -0.1008
B(  6-C ,  7-C ) :   0.6760 B(  6-C , 11-C ) :   0.8965 B(  6-C , 20-H ) :  -0.2049
B(  6-C , 21-H ) :  -0.3249 B(  6-C , 25-H ) :  -0.2044 B(  7-C ,  8-C ) :   0.8583
B(  7-C , 20-H ) :   1.4372 B(  8-C ,  9-C ) :   1.0708 B(  8-C , 18-H ) :   0.9534
B(  8-C , 19-H ) :   0.9386 B(  9-C , 10-C ) :   1.0681 B(  9-C , 16-H ) :   0.9753
B(  9-C , 17-H ) :   0.9424 B( 10-C , 11-C ) :   1.1078 B( 10-C , 14-H ) :   0.9846
B( 10-C , 15-H ) :   0.9582 B( 11-C , 12-H ) :   0.9270 B( 11-C , 13-H ) :   0.9328
B( 21-H , 25-H ) :   0.1915

Dispersion correction           -0.034352448
FINAL SINGLE POINT ENERGY      -465.945604619202

DIPOLE MOMENT
-------------

Method             : SCF
Type of density    : Electron Density
Multiplicity       :   1
Irrep              :   0
Energy             :  -465.9112521707524479 Eh
Relativity type    :
Basis              : AO
                                X                 Y                 Z
Electronic contribution:      8.890245127      -1.032832154       0.290067973
Nuclear contribution   :     -9.297439936       1.076513750      -0.312023061
                        -----------------------------------------
Total Dipole Moment    :     -0.407194809       0.043681596      -0.021955088
                        -----------------------------------------
Magnitude (a.u.)       :      0.410119153
Magnitude (Debye)      :      1.042440044

Rotational constants in cm-1:             0.085540             0.017249             0.015002
Rotational constants in MHz :          2564.428727           517.115238           449.743228

                             ****ORCA TERMINATED NORMALLY****
TOTAL RUN TIME: 0 days 0 hours 10 minutes 14 seconds 935 msec
