                         Program Version 6.0.0  -   RELEASE  -
|  1> !PBE0 def2-SV(p) Opt Freq d3 TightSCF SlowConv RIJCOSX defgrid2
|  2>
|  3> %pal
|  4> nprocs 15
|  5> end
|  6>
|  7> %scf
|  8> MaxIter 1500
|  9> end
| 10>
| 11> %maxcore 3500
| 12>
| 13>
| 14>
| 15> * xyz 0 2
| 16> O        1.892148000      3.698010000      1.453118000
| 17> N        2.679299000      2.707472000      1.243603000
| 18> C        3.790696000      2.928351000      0.306337000
| 19> C        4.407191000      1.603078000     -0.074600000
| 20> C        4.673841000      0.680853000      1.061864000
| 21> C        3.381122000      0.396215000      1.757075000
| 22> C        2.704898000      1.678223000      2.337211000
| 23> C        4.793300000      3.830082000      0.961074000
| 24> C        3.182734000      3.627420000     -0.941233000
| 25> C        3.472850000      2.208787000      3.551450000
| 26> C        1.288453000      1.395862000      2.733227000
| 27> H        4.976756000      1.817126000     -0.895203000
| 28> H        3.824828000      1.202309000     -0.926948000
| 29> H        5.591117000      1.200032000      1.672157000
| 30> H        3.662704000     -0.118409000      2.827668000
| 31> H        2.468112000     -0.323348000      1.756281000
| 32> H        4.230136000      4.611128000      1.320584000
| 33> H        6.000692000      3.631975000      1.130115000
| 34> H        5.514322000      4.219466000      0.035713000
| 35> H        2.576906000      4.387972000     -0.761082000
| 36> H        2.235594000      2.907857000     -1.086466000
| 37> H        4.112810000      3.727613000     -1.578510000
| 38> H        2.815824000      3.199326000      3.745886000
| 39> H        4.330396000      2.356799000      2.674499000
| 40> H        3.199800000      1.286562000      4.341101000
| 41> H        0.486370000      2.236112000      3.064167000
| 42> H        0.678358000      1.029249000      1.818183000
| 43> H        1.104998000      0.710455000      3.492722000
| 44> C        5.564401994     -0.572797794      0.979034042
| 45> O        6.774376871     -0.561275393      0.866495800
| 46> O        4.860853049     -1.732359105      1.044470244
| 47> H        5.521060607     -2.442231685      0.983065170
| 48> *
| 49>
| 50>                          ****END OF INPUT****
 Total Charge           Charge          ....    0
 Multiplicity           Mult            ....    2
 Number of Electrons    NEL             ....  109
Dispersion correction           -0.033204122
FINAL SINGLE POINT ENERGY      -670.702945826111
Dispersion correction             ... done (  0.1 sec)
Dispersion correction           -0.033016954
FINAL SINGLE POINT ENERGY      -670.789543476555
Dispersion correction             ... done (  0.1 sec)
Dispersion correction           -0.032956696
FINAL SINGLE POINT ENERGY      -670.855966418573
Dispersion correction             ... done (  0.1 sec)
FINAL SINGLE POINT ENERGY      -670.927182988987
FINAL SINGLE POINT ENERGY      -670.988906090230
FINAL SINGLE POINT ENERGY      -671.017337679906
FINAL SINGLE POINT ENERGY      -671.026030373130
FINAL SINGLE POINT ENERGY      -671.028118475777
FINAL SINGLE POINT ENERGY      -671.029202512723
FINAL SINGLE POINT ENERGY      -671.029550603090
FINAL SINGLE POINT ENERGY      -671.029484765019
FINAL SINGLE POINT ENERGY      -671.029733647501
FINAL SINGLE POINT ENERGY      -671.029755501472
Dispersion correction             ... done (  0.1 sec)
Dispersion correction           -0.033203149
FINAL SINGLE POINT ENERGY      -671.029765549255
Dispersion correction             ... done (  0.1 sec)
Dispersion correction           -0.033204005
FINAL SINGLE POINT ENERGY      -671.029767234060
Dispersion correction             ... done (  0.1 sec)
                    ***********************HURRAY********************

CARTESIAN COORDINATES (ANGSTROEM)
---------------------------------
  O      1.914706    3.684381    1.424278
  N      2.680963    2.693752    1.267700
  C      3.773916    2.866116    0.276802
  C      4.431558    1.519942   -0.035301
  C      4.733402    0.698298    1.218104
  C      3.425193    0.425803    1.941200
  C      2.705792    1.705240    2.376901
  C      4.793222    3.875090    0.820202
  C      3.144260    3.421496   -0.999400
  C      3.374884    2.341298    3.601970
  C      1.253354    1.371754    2.713925
  H      5.357653    1.705561   -0.604729
  H      3.758766    0.929338   -0.683684
  H      5.428883    1.266916    1.857772
  H      3.585972   -0.201279    2.834464
  H      2.767415   -0.150003    1.268121
  H      4.263695    4.784896    1.146666
  H      5.361486    3.478184    1.676768
  H      5.514546    4.148224    0.031434
  H      2.686778    4.403452   -0.808821
  H      2.358563    2.741480   -1.370171
  H      3.916298    3.527106   -1.780466
  H      2.907514    3.318814    3.803916
  H      4.456861    2.497426    3.460406
  H      3.238362    1.695826    4.486544
  H      0.718832    2.269835    3.056954
  H      0.732349    0.978142    1.824722
  H      1.222574    0.605846    3.507316
  C      5.509804   -0.533511    0.816364
  O      6.678683   -0.533926    0.534127
  O      4.756978   -1.642567    0.761616
  H      5.343686   -2.365017    0.467362

 Multiplicity           Mult            ....    2
 Number of Electrons    NEL             ....  109
 Basis Dimension        Dim             ....  232

ORBITAL ENERGIES
----------------
                 SPIN UP ORBITALS
  NO   OCC          E(Eh)            E(eV)
   0   1.0000     -19.266653      -524.2723
   1   1.0000     -19.205230      -522.6009
   2   1.0000     -19.204456      -522.5798
   3   1.0000     -14.476550      -393.9270
   4   1.0000     -10.370154      -282.1862
   5   1.0000     -10.287026      -279.9242
   6   1.0000     -10.285976      -279.8956
   7   1.0000     -10.260205      -279.1944
   8   1.0000     -10.247134      -278.8387
   9   1.0000     -10.241825      -278.6942
  10   1.0000     -10.226475      -278.2765
  11   1.0000     -10.226169      -278.2682
  12   1.0000     -10.220750      -278.1207
  13   1.0000     -10.219965      -278.0994
  14   1.0000      -1.140451       -31.0332
  15   1.0000      -1.126117       -30.6432
  16   1.0000      -1.042205       -28.3598
  17   1.0000      -0.901614       -24.5342
  18   1.0000      -0.848438       -23.0872
  19   1.0000      -0.818162       -22.2633
  20   1.0000      -0.738032       -20.0829
  21   1.0000      -0.715127       -19.4596
  22   1.0000      -0.709828       -19.3154
  23   1.0000      -0.703611       -19.1462
  24   1.0000      -0.683731       -18.6053
  25   1.0000      -0.621719       -16.9178
  26   1.0000      -0.618431       -16.8283
  27   1.0000      -0.543975       -14.8023
  28   1.0000      -0.526079       -14.3153
  29   1.0000      -0.518066       -14.0973
  30   1.0000      -0.507053       -13.7976
  31   1.0000      -0.496587       -13.5128
  32   1.0000      -0.492249       -13.3948
  33   1.0000      -0.477504       -12.9935
  34   1.0000      -0.473610       -12.8876
  35   1.0000      -0.455244       -12.3878
  36   1.0000      -0.449564       -12.2332
  37   1.0000      -0.435071       -11.8389
  38   1.0000      -0.425262       -11.5720
  39   1.0000      -0.420700       -11.4478
  40   1.0000      -0.408243       -11.1089
  41   1.0000      -0.407168       -11.0796
  42   1.0000      -0.390730       -10.6323
  43   1.0000      -0.387844       -10.5538
  44   1.0000      -0.384886       -10.4733
  45   1.0000      -0.377096       -10.2613
  46   1.0000      -0.375956       -10.2303
  47   1.0000      -0.355813        -9.6822
  48   1.0000      -0.354012        -9.6332
  49   1.0000      -0.353113        -9.6087
  50   1.0000      -0.348098        -9.4722
  51   1.0000      -0.335853        -9.1390
  52   1.0000      -0.294306        -8.0085
  53   1.0000      -0.268566        -7.3081
  54   1.0000      -0.205203        -5.5839
  55   0.0000       0.008129         0.2212
  56   0.0000       0.047879         1.3028
  57   0.0000       0.065260         1.7758
  58   0.0000       0.075710         2.0602
  59   0.0000       0.080775         2.1980

                 SPIN DOWN ORBITALS
  NO   OCC          E(Eh)            E(eV)
   0   1.0000     -19.266653      -524.2723
   1   1.0000     -19.205230      -522.6009
   2   1.0000     -19.189041      -522.1604
   3   1.0000     -14.465166      -393.6172
   4   1.0000     -10.370145      -282.1860
   5   1.0000     -10.287513      -279.9375
   6   1.0000     -10.286464      -279.9089
   7   1.0000     -10.260225      -279.1949
   8   1.0000     -10.247084      -278.8373
   9   1.0000     -10.241776      -278.6929
  10   1.0000     -10.225858      -278.2598
  11   1.0000     -10.225551      -278.2514
  12   1.0000     -10.220502      -278.1140
  13   1.0000     -10.219716      -278.0926
  14   1.0000      -1.140446       -31.0331
  15   1.0000      -1.100669       -29.9507
  16   1.0000      -1.042205       -28.3598
  17   1.0000      -0.894023       -24.3276
  18   1.0000      -0.847300       -23.0562
  19   1.0000      -0.812160       -22.1000
  20   1.0000      -0.724333       -19.7101
  21   1.0000      -0.713014       -19.4021
  22   1.0000      -0.709423       -19.3044
  23   1.0000      -0.702599       -19.1187
  24   1.0000      -0.681108       -18.5339
  25   1.0000      -0.620200       -16.8765
  26   1.0000      -0.616097       -16.7648
  27   1.0000      -0.539751       -14.6874
  28   1.0000      -0.525003       -14.2861
  29   1.0000      -0.516442       -14.0531
  30   1.0000      -0.499219       -13.5844
  31   1.0000      -0.487866       -13.2755
  32   1.0000      -0.479505       -13.0480
  33   1.0000      -0.474111       -12.9012
  34   1.0000      -0.461840       -12.5673
  35   1.0000      -0.454784       -12.3753
  36   1.0000      -0.449076       -12.2200
  37   1.0000      -0.431656       -11.7459
  38   1.0000      -0.419615       -11.4183
  39   1.0000      -0.417242       -11.3537
  40   1.0000      -0.406846       -11.0708
  41   1.0000      -0.403753       -10.9867
  42   1.0000      -0.386018       -10.5041
  43   1.0000      -0.384584       -10.4651
  44   1.0000      -0.382470       -10.4076
  45   1.0000      -0.376369       -10.2415
  46   1.0000      -0.364025        -9.9056
  47   1.0000      -0.354445        -9.6449
  48   1.0000      -0.352614        -9.5951
  49   1.0000      -0.350044        -9.5252
  50   1.0000      -0.337203        -9.1758
  51   1.0000      -0.317728        -8.6458
  52   1.0000      -0.294158        -8.0044
  53   1.0000      -0.255848        -6.9620
  54   0.0000      -0.038756        -1.0546
  55   0.0000       0.008176         0.2225
  56   0.0000       0.048414         1.3174
  57   0.0000       0.065605         1.7852
  58   0.0000       0.076106         2.0709

MULLIKEN ATOMIC CHARGES AND SPIN POPULATIONS
--------------------------------------------
   0 O :   -0.296509    0.527144
   1 N :   -0.066465    0.434897
   2 C :   -0.140359   -0.017434
   3 C :   -0.149536    0.003418
   4 C :   -0.285110   -0.001654
   5 C :   -0.089562    0.003634
   6 C :   -0.158873   -0.017765
   7 C :   -0.274351    0.028995
   8 C :   -0.253777    0.006255
   9 C :   -0.275019    0.029040
  10 C :   -0.251560    0.006313
  11 H :    0.135698   -0.000921
  12 H :    0.116215    0.000707
  13 H :    0.134178    0.000374
  14 H :    0.122414   -0.000964
  15 H :    0.119407    0.000681
  16 H :    0.147139   -0.001718
  17 H :    0.131776   -0.000954
  18 H :    0.127917    0.002677
  19 H :    0.152125   -0.001390
  20 H :    0.126026    0.001184
  21 H :    0.122089   -0.001252
  22 H :    0.147133   -0.001698
  23 H :    0.129624   -0.000976
  24 H :    0.125059    0.002667
  25 H :    0.151201   -0.001384
  26 H :    0.125194    0.001158
  27 H :    0.120804   -0.001252
  28 C :    0.270279    0.000242
  29 O :   -0.234862   -0.000016
  30 O :   -0.366710   -0.000009
  31 H :    0.338416   -0.000001
Sum of atomic charges         :    0.0000000

LOEWDIN ATOMIC CHARGES AND SPIN POPULATIONS
-------------------------------------------
   0 O :   -0.238319    0.517731
   1 N :    0.089707    0.422604
   2 C :   -0.052548   -0.004737
   3 C :   -0.196062    0.002198
   4 C :   -0.173310    0.000135
   5 C :   -0.205718    0.002170
   6 C :   -0.052126   -0.004836
   7 C :   -0.328852    0.024569
   8 C :   -0.324686    0.008820
   9 C :   -0.329660    0.024563
  10 C :   -0.324736    0.008867
  11 H :    0.134842   -0.000612
  12 H :    0.125920    0.000364
  13 H :    0.140223    0.000172
  14 H :    0.129916   -0.000636
  15 H :    0.128577    0.000340
  16 H :    0.133403   -0.000526
  17 H :    0.118194   -0.000640
  18 H :    0.127044    0.001914
  19 H :    0.134025   -0.000842
  20 H :    0.123749    0.000086
  21 H :    0.123705   -0.001002
  22 H :    0.133332   -0.000504
  23 H :    0.117170   -0.000648
  24 H :    0.125622    0.001917
  25 H :    0.133266   -0.000840
  26 H :    0.123676    0.000079
  27 H :    0.122997   -0.001004
  28 C :    0.077431    0.000312
  29 O :   -0.186698   -0.000005
  30 O :   -0.238873   -0.000008
  31 H :    0.308790    0.000000

  Mayer bond orders larger than 0.100000
B(  0-O ,  1-N ) :   1.4401 B(  1-N ,  2-C ) :   0.8706 B(  1-N ,  6-C ) :   0.8705
B(  2-C ,  3-C ) :   1.0273 B(  2-C ,  7-C ) :   1.0646 B(  2-C ,  8-C ) :   1.0784
B(  3-C ,  4-C ) :   1.0576 B(  3-C , 11-H ) :   0.9129 B(  3-C , 12-H ) :   0.9085
B(  4-C ,  5-C ) :   1.0336 B(  4-C , 13-H ) :   0.8850 B(  4-C , 28-C ) :   0.9566
B(  5-C ,  6-C ) :   1.0249 B(  5-C , 14-H ) :   0.9228 B(  5-C , 15-H ) :   0.8958
B(  6-C ,  9-C ) :   1.0580 B(  6-C , 10-C ) :   1.0794 B(  7-C , 16-H ) :   0.9349
B(  7-C , 17-H ) :   0.9345 B(  7-C , 18-H ) :   0.9423 B(  8-C , 19-H ) :   0.9345
B(  8-C , 20-H ) :   0.9403 B(  8-C , 21-H ) :   0.9425 B(  9-C , 22-H ) :   0.9349
B(  9-C , 23-H ) :   0.9366 B(  9-C , 24-H ) :   0.9430 B( 10-C , 25-H ) :   0.9349
B( 10-C , 26-H ) :   0.9406 B( 10-C , 27-H ) :   0.9424 B( 28-C , 29-O ) :   2.1041
B( 28-C , 30-O ) :   1.2370 B( 30-O , 31-H ) :   0.8215

Dispersion correction           -0.033203233
FINAL SINGLE POINT ENERGY      -671.029767844619

DIPOLE MOMENT
-------------

Method             : SCF
Type of density    : Electron Density
Multiplicity       :   2
Irrep              :   0
Energy             :  -670.9965646113540743 Eh
Relativity type    :
Basis              : AO
                                X                 Y                 Z
Electronic contribution:      4.658320090      -8.033617819      -2.508963053
Nuclear contribution   :     -4.499370341       7.227471368       2.551456631
                        -----------------------------------------
Total Dipole Moment    :      0.158949749      -0.806146451       0.042493578
                        -----------------------------------------
Magnitude (a.u.)       :      0.822765354
Magnitude (Debye)      :      2.091303330

VIBRATIONAL FREQUENCIES
-----------------------

Scaling factor for frequencies =  1.000000000  (already applied!)

     0:       0.00 cm**-1
     1:       0.00 cm**-1
     2:       0.00 cm**-1
     3:       0.00 cm**-1
     4:       0.00 cm**-1
     5:       0.00 cm**-1
     6:     -24.00 cm**-1 ***imaginary mode***
     7:      70.34 cm**-1
     8:     113.81 cm**-1
     9:     123.49 cm**-1
    10:     148.45 cm**-1
    11:     202.29 cm**-1
    12:     210.67 cm**-1
    13:     240.22 cm**-1
    14:     258.53 cm**-1
    15:     261.62 cm**-1
    16:     273.34 cm**-1
    17:     293.03 cm**-1
    18:     307.20 cm**-1
    19:     321.85 cm**-1
    20:     337.67 cm**-1
    21:     354.77 cm**-1
    22:     392.24 cm**-1
    23:     408.50 cm**-1
    24:     418.46 cm**-1
    25:     474.08 cm**-1
    26:     524.05 cm**-1
    27:     554.55 cm**-1
    28:     573.20 cm**-1
    29:     590.82 cm**-1
    30:     642.21 cm**-1
    31:     652.55 cm**-1
    32:     707.85 cm**-1
    33:     782.74 cm**-1
    34:     836.91 cm**-1
    35:     874.18 cm**-1
    36:     886.61 cm**-1
    37:     922.36 cm**-1
    38:     945.66 cm**-1
    39:     950.96 cm**-1
    40:     956.64 cm**-1
    41:     971.14 cm**-1
    42:    1008.19 cm**-1
    43:    1009.33 cm**-1
    44:    1017.43 cm**-1
    45:    1064.41 cm**-1
    46:    1091.46 cm**-1
    47:    1114.75 cm**-1
    48:    1153.62 cm**-1
    49:    1201.45 cm**-1
    50:    1219.92 cm**-1
    51:    1225.50 cm**-1
    52:    1241.26 cm**-1
    53:    1262.89 cm**-1
    54:    1282.02 cm**-1
    55:    1289.32 cm**-1
    56:    1311.00 cm**-1
    57:    1329.74 cm**-1
    58:    1339.54 cm**-1
    59:    1382.54 cm**-1
    60:    1387.94 cm**-1
    61:    1393.34 cm**-1
    62:    1400.05 cm**-1
    63:    1402.20 cm**-1
    64:    1405.90 cm**-1
    65:    1428.03 cm**-1
    66:    1453.05 cm**-1
    67:    1461.43 cm**-1
    68:    1464.85 cm**-1
    69:    1472.84 cm**-1
    70:    1477.43 cm**-1
    71:    1480.62 cm**-1
    72:    1484.40 cm**-1
    73:    1491.57 cm**-1
    74:    1494.17 cm**-1
    75:    1495.71 cm**-1
    76:    1510.56 cm**-1
    77:    1898.23 cm**-1
    78:    3046.06 cm**-1
    79:    3047.70 cm**-1
    80:    3050.27 cm**-1
    81:    3052.13 cm**-1
    82:    3054.26 cm**-1
    83:    3063.98 cm**-1
    84:    3086.26 cm**-1
    85:    3115.28 cm**-1
    86:    3119.73 cm**-1
    87:    3139.55 cm**-1
    88:    3141.81 cm**-1
    89:    3143.52 cm**-1
    90:    3146.72 cm**-1
    91:    3154.22 cm**-1
    92:    3158.92 cm**-1
    93:    3173.28 cm**-1
    94:    3173.61 cm**-1
    95:    3648.28 cm**-1

IR SPECTRUM
-----------

 Mode   freq       eps      Int      T**2         TX        TY        TZ
       cm**-1   L/(mol*cm) km/mol    a.u.
----------------------------------------------------------------------------
  7:     70.34   0.000764    3.86  0.003390  ( 0.030072  0.033894  0.036558)
  8:    113.81   0.000027    0.14  0.000075  (-0.007755 -0.001227 -0.003595)
  9:    123.49   0.000002    0.01  0.000006  ( 0.001651  0.000584 -0.001747)
 10:    148.45   0.000134    0.68  0.000282  ( 0.000342  0.014536 -0.008425)
 11:    202.29   0.000215    1.09  0.000332  (-0.013691 -0.005630 -0.010625)
 12:    210.67   0.000002    0.01  0.000003  ( 0.000462 -0.001630  0.000587)
 13:    240.22   0.000065    0.33  0.000085  (-0.004898 -0.005050 -0.005934)
 14:    258.53   0.000013    0.06  0.000015  (-0.000847 -0.003276  0.001948)
 15:    261.62   0.000307    1.55  0.000366  (-0.009322 -0.014445 -0.008385)
 16:    273.34   0.000037    0.19  0.000042  ( 0.004559 -0.004003 -0.002349)
 17:    293.03   0.000050    0.25  0.000053  ( 0.005444 -0.000856 -0.004798)
 18:    307.20   0.000183    0.93  0.000186  (-0.008685 -0.001959  0.010331)
 19:    321.85   0.000027    0.14  0.000027  ( 0.000083 -0.001267  0.004998)
 20:    337.67   0.000143    0.72  0.000132  ( 0.009017 -0.006959 -0.001530)
 21:    354.77   0.000248    1.25  0.000218  ( 0.008067 -0.009252  0.008208)
 22:    392.24   0.001079    5.45  0.000858  (-0.009329 -0.015198  0.023242)
 23:    408.50   0.001102    5.57  0.000842  ( 0.020766  0.007719 -0.018729)
 24:    418.46   0.000151    0.76  0.000113  (-0.007172  0.004329 -0.006534)
 25:    474.08   0.000796    4.02  0.000524  (-0.008926 -0.008616  0.019236)
 26:    524.05   0.000810    4.09  0.000483  (-0.016787 -0.005004  0.013255)
 27:    554.55   0.003237   16.36  0.001821  (-0.002801  0.036218 -0.022399)
 28:    573.20   0.003161   15.97  0.001721  ( 0.005132 -0.028140 -0.030044)
 29:    590.82   0.001073    5.42  0.000567  ( 0.001186 -0.023748 -0.001116)
 30:    642.21   0.011441   57.82  0.005559  ( 0.017151 -0.067702  0.026106)
 31:    652.55   0.008721   44.07  0.004171  (-0.007345 -0.014162 -0.062580)
 32:    707.85   0.005080   25.67  0.002240  ( 0.017530  0.021363  0.038419)
 33:    782.74   0.008346   42.18  0.003327  (-0.015212  0.017768 -0.052729)
 34:    836.91   0.000939    4.75  0.000350  (-0.008156  0.005409 -0.015948)
 35:    874.18   0.000192    0.97  0.000069  ( 0.004840 -0.006697  0.000608)
 36:    886.61   0.000214    1.08  0.000075  ( 0.004987  0.005424 -0.004569)
 37:    922.36   0.000103    0.52  0.000035  (-0.002201 -0.003067 -0.004555)
 38:    945.66   0.000796    4.02  0.000263  (-0.010419 -0.009494  0.008009)
 39:    950.96   0.000136    0.69  0.000045  ( 0.002519  0.002600 -0.005613)
 40:    956.64   0.000263    1.33  0.000086  ( 0.004622 -0.003160  0.007370)
 41:    971.14   0.000318    1.61  0.000102  (-0.003833  0.003683 -0.008596)
 42:   1008.19   0.000874    4.42  0.000271  ( 0.013071 -0.009269  0.003713)
 43:   1009.33   0.000232    1.17  0.000072  ( 0.006858 -0.001136 -0.004848)
 44:   1017.43   0.000522    2.64  0.000160  (-0.011652 -0.003675  0.003276)
 45:   1064.41   0.000174    0.88  0.000051  (-0.004772  0.004756 -0.002365)
 46:   1091.46   0.000511    2.58  0.000146  ( 0.005457  0.004928 -0.009588)
 47:   1114.75   0.001082    5.47  0.000303  ( 0.006383  0.007587 -0.014300)
 48:   1153.62   0.000615    3.11  0.000166  (-0.000887 -0.004869 -0.011906)
 49:   1201.45   0.035515  179.48  0.009224  ( 0.021850  0.093192  0.007890)
 50:   1219.92   0.001151    5.82  0.000294  ( 0.010251  0.003614  0.013280)
 51:   1225.50   0.001640    8.29  0.000418  (-0.013660 -0.005215  0.014273)
 52:   1241.26   0.016850   85.16  0.004236  (-0.017799 -0.062573 -0.002029)
 53:   1262.89   0.002687   13.58  0.000664  (-0.014386 -0.002777  0.021199)
 54:   1282.02   0.001051    5.31  0.000256  (-0.011128  0.004268  0.010672)
 55:   1289.32   0.004476   22.62  0.001083  ( 0.015378 -0.027565 -0.009334)
 56:   1311.00   0.001585    8.01  0.000377  ( 0.013006 -0.012430  0.007329)
 57:   1329.74   0.001147    5.80  0.000269  ( 0.006303  0.014152  0.005396)
 58:   1339.54   0.002117   10.70  0.000493  ( 0.005489  0.015745 -0.014665)
 59:   1382.54   0.000177    0.90  0.000040  (-0.003948  0.004671  0.001605)
 60:   1387.94   0.009086   45.92  0.002043  (-0.019474 -0.033991 -0.022543)
 61:   1393.34   0.001549    7.83  0.000347  ( 0.002316 -0.013168 -0.012965)
 62:   1400.05   0.004728   23.89  0.001054  (-0.021838  0.020721  0.012149)
 63:   1402.20   0.006998   35.37  0.001558  (-0.001174 -0.035181  0.017844)
 64:   1405.90   0.006369   32.19  0.001414  ( 0.011252 -0.035876  0.000284)
 65:   1428.03   0.002628   13.28  0.000574  ( 0.008928  0.022054  0.002874)
 66:   1453.05   0.000491    2.48  0.000105  (-0.005255 -0.006237  0.006239)
 67:   1461.43   0.000362    1.83  0.000077  ( 0.004716  0.004005  0.006246)
 68:   1464.85   0.000304    1.53  0.000065  (-0.004930 -0.005825  0.002543)
 69:   1472.84   0.000209    1.06  0.000044  (-0.002262 -0.005588  0.002820)
 70:   1477.43   0.000402    2.03  0.000085  (-0.005330  0.007154 -0.002303)
 71:   1480.62   0.000667    3.37  0.000140  ( 0.006291  0.009595 -0.002975)
 72:   1484.40   0.004345   21.96  0.000913  ( 0.005972  0.024294  0.016960)
 73:   1491.57   0.001305    6.60  0.000273  ( 0.011705 -0.011665 -0.000201)
 74:   1494.17   0.002903   14.67  0.000606  (-0.008768 -0.011700  0.019812)
 75:   1495.71   0.000167    0.85  0.000035  ( 0.003430  0.004370  0.002014)
 76:   1510.56   0.002370   11.98  0.000490  (-0.015035  0.016202  0.001028)
 77:   1898.23   0.063172  319.25  0.010385  ( 0.100527  0.002872 -0.016474)
 78:   3046.06   0.001220    6.17  0.000125  (-0.002385 -0.005951 -0.009160)
 79:   3047.70   0.000912    4.61  0.000093  ( 0.006105  0.002638  0.007010)
 80:   3050.27   0.005293   26.75  0.000541  (-0.015618 -0.006859 -0.015828)
 81:   3052.13   0.002439   12.32  0.000249  (-0.007222 -0.006073  0.012661)
 82:   3054.26   0.001493    7.55  0.000153  (-0.006506 -0.002904  0.010090)
 83:   3063.98   0.002749   13.89  0.000280  (-0.005478 -0.014977  0.005068)
 84:   3086.26   0.000952    4.81  0.000096  (-0.006438 -0.005418 -0.005046)
 85:   3115.28   0.001765    8.92  0.000177  ( 0.007521  0.007193 -0.008278)
 86:   3119.73   0.002202   11.13  0.000220  (-0.009380 -0.001762 -0.011365)
 87:   3139.55   0.002196   11.10  0.000218  ( 0.008288  0.007370 -0.009759)
 88:   3141.81   0.004122   20.83  0.000409  (-0.017141 -0.010649  0.001479)
 89:   3143.52   0.006387   32.28  0.000634  ( 0.002561  0.007809 -0.023802)
 90:   3146.72   0.000862    4.36  0.000085  ( 0.003830  0.001104 -0.008343)
 91:   3154.22   0.000147    0.74  0.000015  (-0.003643  0.000358  0.001076)
 92:   3158.92   0.002908   14.69  0.000287  (-0.014100  0.007457 -0.005729)
 93:   3173.28   0.000224    1.13  0.000022  (-0.000711  0.004539  0.000957)
 94:   3173.61   0.001334    6.74  0.000131  (-0.002548  0.010074  0.004816)
 95:   3648.28   0.017113   86.48  0.001464  ( 0.013600 -0.034353 -0.009934)

--------------------------
THERMOCHEMISTRY AT 298.15K
--------------------------

Temperature         ...   298.15 K
Pressure            ...     1.00 atm
Total Mass          ...   200.26 AMU
Quasi RRHO          ...     True
Cut-Off Frequency   ...     1.00 cm^-1

Throughout the following assumptions are being made:
  (1) The electronic state is orbitally nondegenerate
      but the spin degeneracy is treated
  (2) There are no thermally accessible electronically excited states
  (3) Hindered rotations indicated by low frequency modes are not
      treated as such but are treated as vibrations and this may
      cause some error
  (4) All equations used are the standard statistical mechanics
      equations for an ideal gas
  (5) All vibrations are strictly harmonic

freq.      70.34  E(vib)   ...       0.50
freq.     113.81  E(vib)   ...       0.44
freq.     123.49  E(vib)   ...       0.43
freq.     148.45  E(vib)   ...       0.41
freq.     202.29  E(vib)   ...       0.35
freq.     210.67  E(vib)   ...       0.34
freq.     240.22  E(vib)   ...       0.31
freq.     258.53  E(vib)   ...       0.30
freq.     261.62  E(vib)   ...       0.30
freq.     273.34  E(vib)   ...       0.29
freq.     293.03  E(vib)   ...       0.27
freq.     307.20  E(vib)   ...       0.26
freq.     321.85  E(vib)   ...       0.25
freq.     337.67  E(vib)   ...       0.24
freq.     354.77  E(vib)   ...       0.22
freq.     392.24  E(vib)   ...       0.20
freq.     408.50  E(vib)   ...       0.19
freq.     418.46  E(vib)   ...       0.18
freq.     474.08  E(vib)   ...       0.15
freq.     524.05  E(vib)   ...       0.13
freq.     554.55  E(vib)   ...       0.12
freq.     573.20  E(vib)   ...       0.11
freq.     590.82  E(vib)   ...       0.10
freq.     642.21  E(vib)   ...       0.09
freq.     652.55  E(vib)   ...       0.08
freq.     707.85  E(vib)   ...       0.07
freq.     782.74  E(vib)   ...       0.05
freq.     836.91  E(vib)   ...       0.04
freq.     874.18  E(vib)   ...       0.04
freq.     886.61  E(vib)   ...       0.04
freq.     922.36  E(vib)   ...       0.03
freq.     945.66  E(vib)   ...       0.03
freq.     950.96  E(vib)   ...       0.03
freq.     956.64  E(vib)   ...       0.03
freq.     971.14  E(vib)   ...       0.03
freq.    1008.19  E(vib)   ...       0.02
freq.    1009.33  E(vib)   ...       0.02
freq.    1017.43  E(vib)   ...       0.02
freq.    1064.41  E(vib)   ...       0.02
freq.    1091.46  E(vib)   ...       0.02
freq.    1114.75  E(vib)   ...       0.01
freq.    1153.62  E(vib)   ...       0.01
freq.    1201.45  E(vib)   ...       0.01
freq.    1219.92  E(vib)   ...       0.01
freq.    1225.50  E(vib)   ...       0.01
freq.    1241.26  E(vib)   ...       0.01
freq.    1262.89  E(vib)   ...       0.01
freq.    1282.02  E(vib)   ...       0.01
freq.    1289.32  E(vib)   ...       0.01
freq.    1311.00  E(vib)   ...       0.01
freq.    1329.74  E(vib)   ...       0.01
freq.    1339.54  E(vib)   ...       0.01
freq.    1382.54  E(vib)   ...       0.01
freq.    1387.94  E(vib)   ...       0.00
freq.    1393.34  E(vib)   ...       0.00
freq.    1400.05  E(vib)   ...       0.00
freq.    1402.20  E(vib)   ...       0.00
freq.    1405.90  E(vib)   ...       0.00
freq.    1428.03  E(vib)   ...       0.00
freq.    1453.05  E(vib)   ...       0.00
freq.    1461.43  E(vib)   ...       0.00
freq.    1464.85  E(vib)   ...       0.00
freq.    1472.84  E(vib)   ...       0.00
freq.    1477.43  E(vib)   ...       0.00
freq.    1480.62  E(vib)   ...       0.00
freq.    1484.40  E(vib)   ...       0.00
freq.    1491.57  E(vib)   ...       0.00
freq.    1494.17  E(vib)   ...       0.00
freq.    1495.71  E(vib)   ...       0.00
freq.    1510.56  E(vib)   ...       0.00
freq.    1898.23  E(vib)   ...       0.00
freq.    3046.06  E(vib)   ...       0.00
freq.    3047.70  E(vib)   ...       0.00
freq.    3050.27  E(vib)   ...       0.00
freq.    3052.13  E(vib)   ...       0.00
freq.    3054.26  E(vib)   ...       0.00
freq.    3063.98  E(vib)   ...       0.00
freq.    3086.26  E(vib)   ...       0.00
freq.    3115.28  E(vib)   ...       0.00
freq.    3119.73  E(vib)   ...       0.00
freq.    3139.55  E(vib)   ...       0.00
freq.    3141.81  E(vib)   ...       0.00
freq.    3143.52  E(vib)   ...       0.00
freq.    3146.72  E(vib)   ...       0.00
freq.    3154.22  E(vib)   ...       0.00
freq.    3158.92  E(vib)   ...       0.00
freq.    3173.28  E(vib)   ...       0.00
freq.    3173.61  E(vib)   ...       0.00
freq.    3648.28  E(vib)   ...       0.00

------------
INNER ENERGY
------------

The inner energy is: U= E(el) + E(ZPE) + E(vib) + E(rot) + E(trans)
    E(el)   - is the total energy from the electronic structure calculation
              = E(kin-el) + E(nuc-el) + E(el-el) + E(nuc-nuc)
    E(ZPE)  - the the zero temperature vibrational energy from the frequency calculation
    E(vib)  - the the finite temperature correction to E(ZPE) due to population
              of excited vibrational states
    E(rot)  - is the rotational thermal energy
    E(trans)- is the translational thermal energy

Summary of contributions to the inner energy U:
Electronic energy                ...   -671.02976784 Eh
Zero point energy                ...      0.27849507 Eh     174.76 kcal/mol
Thermal vibrational correction   ...      0.01101036 Eh       6.91 kcal/mol
Thermal rotational correction    ...      0.00141627 Eh       0.89 kcal/mol
Thermal translational correction ...      0.00141627 Eh       0.89 kcal/mol
-----------------------------------------------------------------------
Total thermal energy                   -670.73742987 Eh

Summary of corrections to the electronic energy:
(perhaps to be used in another calculation)
Total thermal correction                  0.01384291 Eh       8.69 kcal/mol
Non-thermal (ZPE) correction              0.27849507 Eh     174.76 kcal/mol
-----------------------------------------------------------------------
Total correction                          0.29233798 Eh     183.44 kcal/mol

--------
ENTHALPY
--------

The enthalpy is H = U + kB*T
                kB is Boltzmann's constant
Total thermal energy              ...   -670.73742987 Eh
Thermal Enthalpy correction       ...      0.00094421 Eh       0.59 kcal/mol
-----------------------------------------------------------------------
Total Enthalpy                    ...   -670.73648566 Eh

Note: Only C1 symmetry has been detected, increase convergence thresholds
      if your molecule has a higher symmetry. Symmetry factor of 1.0 is
      used for the rotational entropy correction.

Note: Rotational entropy computed according to Herzberg
Infrared and Raman Spectra, Chapter V,1, Van Nostrand Reinhold, 1945
Point Group:  C1, Symmetry Number:   1
Rotational constants in cm-1:     0.032861     0.018000     0.014315

                             ****ORCA TERMINATED NORMALLY****
TOTAL RUN TIME: 0 days 0 hours 47 minutes 35 seconds 331 msec
