                         Program Version 6.0.0  -   RELEASE  -
|  1> !B3LYP aug-cc-pVTZ d3 TightSCF SlowConv RIJCOSX defgrid2
|  2>
|  3> %pal
|  4> nprocs 4
|  5> end
|  6>
|  7> %scf
|  8> MaxIter 1500
|  9> end
| 10>
| 11> %maxcore 3000
| 12>
| 13> !CPCM
| 14> %cpcm smd true
| 15> SMDsolvent "MeCN"
| 16> surfacetype gepol_ses
| 17> rsolv 2.19
| 18> end
| 19>
| 20> * xyz 0 1
| 21> C          -1.64824126618017      1.17962905218596     -0.27640852251821
| 22> C          -2.36732067057951      0.01222657741033      0.01013723312640
| 23> C          -1.65681369830039     -1.16061817519344      0.29208568093245
| 24> C          -0.26626323928183     -1.16443624467977      0.28791791148105
| 25> C           0.45854663028887      0.00217454247658      0.00256283796462
| 26> C          -0.26127971202858      1.17549258128224     -0.27984384623215
| 27> H           0.28089631587743      2.09137892779172     -0.53113220855770
| 28> C           1.93696149154138     -0.00279971672945      0.00051608331538
| 29> C           2.65303791085162     -1.10978954515941     -0.47925860702356
| 30> C           4.04531433476339     -1.11398347683307     -0.48167578797554
| 31> C           4.75102098587613     -0.01129559121339     -0.00116086906809
| 32> C           4.05248382144489      1.09572154879970      0.47984618566416
| 33> C           2.66020581714669      1.10014601648294      0.47888547594482
| 34> H           2.12182100458790      1.96339836557137      0.88035790986018
| 35> H           4.59686021513246      1.96228462828998      0.86676809069055
| 36> H           5.84493441172309     -0.01451276377516     -0.00190011189447
| 37> H           4.58410302781916     -1.98346854512299     -0.86991334409081
| 38> H           2.10898948157834     -1.96925435572582     -0.88135237996202
| 39> H           0.27006313897588     -2.08418650265354      0.53693846273009
| 40> H          -2.18747776526920     -2.08664808126969      0.52830693817217
| 41> C          -3.86122618809550      0.08310521129981     -0.00075253917882
| 42> O          -4.42728606147296      1.12411459370127     -0.25389321491014
| 43> C          -4.64225327233386     -1.17234258475983      0.31143142335015
| 44> H          -5.71614646164934     -0.94073069402301      0.26216108811743
| 45> H          -4.40777348323050     -1.97432489828778     -0.41030103402591
| 46> H          -4.39571168425506     -1.55218269043734      1.31835323175607
| 47> H          -2.21343058493032      2.08711072057180     -0.50408998766811
| 48> *
| 49>
| 50>                          ****END OF INPUT****

CARTESIAN COORDINATES (ANGSTROEM)
---------------------------------
  C     -1.648241    1.179629   -0.276409
  C     -2.367321    0.012227    0.010137
  C     -1.656814   -1.160618    0.292086
  C     -0.266263   -1.164436    0.287918
  C      0.458547    0.002175    0.002563
  C     -0.261280    1.175493   -0.279844
  H      0.280896    2.091379   -0.531132
  C      1.936961   -0.002800    0.000516
  C      2.653038   -1.109790   -0.479259
  C      4.045314   -1.113983   -0.481676
  C      4.751021   -0.011296   -0.001161
  C      4.052484    1.095722    0.479846
  C      2.660206    1.100146    0.478885
  H      2.121821    1.963398    0.880358
  H      4.596860    1.962285    0.866768
  H      5.844934   -0.014513   -0.001900
  H      4.584103   -1.983469   -0.869913
  H      2.108989   -1.969254   -0.881352
  H      0.270063   -2.084187    0.536938
  H     -2.187478   -2.086648    0.528307
  C     -3.861226    0.083105   -0.000753
  O     -4.427286    1.124115   -0.253893
  C     -4.642253   -1.172343    0.311431
  H     -5.716146   -0.940731    0.262161
  H     -4.407773   -1.974325   -0.410301
  H     -4.395712   -1.552183    1.318353
  H     -2.213431    2.087111   -0.504090

 Total Charge           Charge          ....    0
 Multiplicity           Mult            ....    1
 Number of Electrons    NEL             ....  104
 Basis Dimension        Dim             ....  966

ORBITAL ENERGIES
----------------

  NO   OCC          E(Eh)            E(eV)
   0   2.0000     -19.116343      -520.1821
   1   2.0000     -10.262687      -279.2619
   2   2.0000     -10.197329      -277.4834
   3   2.0000     -10.190765      -277.3048
   4   2.0000     -10.186322      -277.1839
   5   2.0000     -10.185633      -277.1652
   6   2.0000     -10.182262      -277.0734
   7   2.0000     -10.181104      -277.0419
   8   2.0000     -10.180802      -277.0337
   9   2.0000     -10.178601      -276.9738
  10   2.0000     -10.178556      -276.9726
  11   2.0000     -10.177824      -276.9527
  12   2.0000     -10.177498      -276.9438
  13   2.0000     -10.176966      -276.9293
  14   2.0000     -10.166135      -276.6346
  15   2.0000      -1.047016       -28.4907
  16   2.0000      -0.875685       -23.8286
  17   2.0000      -0.853004       -23.2114
  18   2.0000      -0.789907       -21.4945
  19   2.0000      -0.755752       -20.5651
  20   2.0000      -0.746651       -20.3174
  21   2.0000      -0.742352       -20.2004
  22   2.0000      -0.716693       -19.5022
  23   2.0000      -0.639564       -17.4034
  24   2.0000      -0.620687       -16.8897
  25   2.0000      -0.592361       -16.1190
  26   2.0000      -0.586731       -15.9658
  27   2.0000      -0.550789       -14.9877
  28   2.0000      -0.525919       -14.3110
  29   2.0000      -0.490696       -13.3525
  30   2.0000      -0.475561       -12.9407
  31   2.0000      -0.465426       -12.6649
  32   2.0000      -0.447029       -12.1643
  33   2.0000      -0.440578       -11.9887
  34   2.0000      -0.439597       -11.9620
  35   2.0000      -0.434757       -11.8303
  36   2.0000      -0.425369       -11.5749
  37   2.0000      -0.420388       -11.4393
  38   2.0000      -0.416198       -11.3253
  39   2.0000      -0.390361       -10.6223
  40   2.0000      -0.385264       -10.4836
  41   2.0000      -0.371229       -10.1017
  42   2.0000      -0.370089       -10.0706
  43   2.0000      -0.356069        -9.6891
  44   2.0000      -0.350278        -9.5316
  45   2.0000      -0.343162        -9.3379
  46   2.0000      -0.334208        -9.0943
  47   2.0000      -0.284853        -7.7512
  48   2.0000      -0.263696        -7.1755
  49   2.0000      -0.259859        -7.0711
  50   2.0000      -0.257039        -6.9944
  51   2.0000      -0.236084        -6.4242
  52   0.0000      -0.068693        -1.8692
  53   0.0000      -0.021041        -0.5726
  54   0.0000      -0.015780        -0.4294
  55   0.0000      -0.014556        -0.3961
  56   0.0000      -0.004389        -0.1194

MULLIKEN ATOMIC CHARGES
-----------------------
   0 C :   -1.170363
   1 C :    1.486746
   2 C :   -0.710081
   3 C :   -0.999209
   4 C :    1.920279
   5 C :   -0.941691
   6 H :    0.156821
   7 C :    2.109766
   8 C :   -0.886558
   9 C :   -0.778215
  10 C :   -0.131701
  11 C :   -0.773833
  12 C :   -0.907158
  13 H :    0.061755
  14 H :    0.427205
  15 H :    0.528474
  16 H :    0.392005
  17 H :    0.065999
  18 H :    0.154489
  19 H :   -0.016754
  20 C :    0.871148
  21 O :   -0.940812
  22 C :   -0.613152
  23 H :    0.184400
  24 H :    0.250532
  25 H :    0.248778
  26 H :    0.011131
Sum of atomic charges:   -0.0000000

LOEWDIN ATOMIC CHARGES
----------------------
   0 C :    0.203543
   1 C :   -0.130637
   2 C :    0.217957
   3 C :    0.231533
   4 C :   -0.112528
   5 C :    0.228179
   6 H :   -0.162865
   7 C :   -0.123545
   8 C :    0.207035
   9 C :    0.193756
  10 C :    0.185406
  11 C :    0.193763
  12 C :    0.207044
  13 H :   -0.165615
  14 H :   -0.166738
  15 H :   -0.168478
  16 H :   -0.166718
  17 H :   -0.165517
  18 H :   -0.161502
  19 H :   -0.169526
  20 C :   -0.550817
  21 O :    0.484629
  22 C :    0.560541
  23 H :   -0.175907
  24 H :   -0.155248
  25 H :   -0.155609
  26 H :   -0.182138

  Mayer bond orders larger than 0.100000
B(  0-C ,  1-C ) :   0.3216 B(  0-C ,  2-C ) :  -0.4091 B(  0-C ,  3-C ) :   0.2064
B(  0-C ,  4-C ) :  -0.2015 B(  0-C ,  5-C ) :   1.6270 B(  0-C , 18-H ) :  -0.1135
B(  0-C , 20-C ) :   0.2702 B(  0-C , 21-O ) :  -0.1035 B(  0-C , 26-H ) :   1.2870
B(  1-C ,  2-C ) :   0.4313 B(  1-C ,  3-C ) :   0.1413 B(  1-C ,  4-C ) :  -0.1465
B(  1-C ,  5-C ) :   0.1782 B(  1-C ,  7-C ) :   0.1809 B(  1-C , 14-H ) :   0.1322
B(  1-C , 15-H ) :  -0.1709 B(  1-C , 16-H ) :   0.1659 B(  1-C , 19-H ) :  -0.3175
B(  1-C , 20-C ) :   0.3891 B(  1-C , 21-O ) :   0.4419 B(  1-C , 26-H ) :  -0.2543
B(  2-C ,  3-C ) :   1.1688 B(  2-C ,  4-C ) :  -0.2224 B(  2-C ,  6-H ) :  -0.1003
B(  2-C , 19-H ) :   1.5587 B(  2-C , 20-C ) :   0.2409 B(  3-C ,  5-C ) :  -0.4249
B(  3-C ,  7-C ) :   0.1989 B(  3-C ,  8-C ) :  -0.1143 B(  3-C , 18-H ) :   1.1933
B(  3-C , 20-C ) :  -0.2032 B(  4-C ,  5-C ) :   0.2391 B(  4-C ,  6-H ) :  -0.1191
B(  4-C ,  7-C ) :  -0.1836 B(  4-C ,  8-C ) :   0.4931 B(  4-C , 10-C ) :   0.1679
B(  4-C , 12-C ) :   0.3659 B(  4-C , 15-H ) :   0.1457 B(  4-C , 20-C ) :   0.2057
B(  5-C ,  6-H ) :   1.1901 B(  5-C ,  7-C ) :   0.2214 B(  5-C , 20-C ) :  -0.1586
B(  6-H ,  7-C ) :  -0.1194 B(  6-H , 18-H ) :   0.1054 B(  7-C ,  8-C ) :   0.1616
B(  7-C ,  9-C ) :  -0.1200 B(  7-C , 10-C ) :  -0.1793 B(  7-C , 12-C ) :   0.1334
B(  7-C , 13-H ) :  -0.1593 B(  7-C , 14-H ) :   0.1276 B(  7-C , 16-H ) :   0.1444
B(  7-C , 17-H ) :  -0.1610 B(  7-C , 18-H ) :  -0.1047 B(  8-C ,  9-C ) :   1.2829
B(  8-C , 11-C ) :   0.1025 B(  8-C , 12-C ) :  -0.5666 B(  8-C , 17-H ) :   1.4078
B(  9-C , 10-C ) :   1.1796 B(  9-C , 11-C ) :   0.1287 B(  9-C , 12-C ) :   0.1167
B(  9-C , 15-H ) :  -0.1091 B(  9-C , 16-H ) :   0.7323 B(  9-C , 20-C ) :   0.1378
B( 10-C , 11-C ) :   1.1880 B( 10-C , 15-H ) :   0.5479 B( 11-C , 12-C ) :   1.2937
B( 11-C , 14-H ) :   0.6679 B( 11-C , 15-H ) :  -0.1029 B( 11-C , 20-C ) :   0.1005
B( 12-C , 13-H ) :   1.4210 B( 13-H , 17-H ) :   0.1382 B( 13-H , 20-C ) :   0.1201
B( 14-H , 20-C ) :  -0.1103 B( 15-H , 20-C ) :   0.1436 B( 16-H , 20-C ) :  -0.1430
B( 20-C , 21-O ) :   0.6473 B( 20-C , 22-C ) :   0.8873 B( 21-O , 26-H ) :   0.2094
B( 22-C , 23-H ) :   0.9480 B( 22-C , 24-H ) :   0.9625 B( 22-C , 25-H ) :   0.9712

Dispersion correction           -0.056190229
FINAL SINGLE POINT ENERGY      -615.866175805288

DIPOLE MOMENT
-------------

Method             : SCF
Type of density    : Electron Density
Multiplicity       :   1
Irrep              :   0
Energy             :  -615.8099855762917514 Eh
Relativity type    :
Basis              : AO
                                X                 Y                 Z
Electronic contribution:      0.495778046       2.925302706      -0.727210038
Nuclear contribution   :      0.745176245      -4.228888147       1.043265209
                        -----------------------------------------
Total Dipole Moment    :      1.240954291      -1.303585441       0.316055171
                        -----------------------------------------
Magnitude (a.u.)       :      1.827346006
Magnitude (Debye)      :      4.644744424

Rotational constants in cm-1:             0.074921             0.008604             0.007886
Rotational constants in MHz :          2246.083248           257.938515           236.409814

                             ****ORCA TERMINATED NORMALLY****
TOTAL RUN TIME: 0 days 0 hours 12 minutes 5 seconds 298 msec
