                         Program Version 6.0.0  -   RELEASE  -
|  1> !r2SCAN opt aug-cc-pVTZ d3 TightSCF SlowConv RIJCOSX defgrid2
|  2>
|  3> %pal
|  4> nprocs 8
|  5> end
|  6>
|  7> %scf
|  8> MaxIter 1500
|  9> end
| 10>
| 11> %maxcore 3500
| 12>
| 13> !CPCM
| 14> %cpcm smd true
| 15> SMDsolvent "MeCN"
| 16> surfacetype gepol_ses
| 17> rsolv 2.19
| 18> end
| 19>
| 20> * xyz 0 1
| 21> C           0.89625463995169     -1.41558669005642      0.00000212581931
| 22> C           2.11505403593339     -0.74430991173074     -0.00000149555587
| 23> C           2.17542044953981      0.66118914619392      0.00000118790347
| 24> C           1.02073349490689      1.43411488081899      0.00000740816991
| 25> C          -0.21978579987357      0.78024255664200      0.00000882693723
| 26> C          -0.24734548849214     -0.62587635066739      0.00000530658827
| 27> O          -1.52601546021974     -1.07032389872869      0.00001342203642
| 28> C          -2.31826979056253      0.02952741578344      0.00002075604744
| 29> C          -1.60215379632981      1.18293934552638      0.00000260268759
| 30> H          -2.00251324968155      2.19537072670951     -0.00000431996804
| 31> H          -3.38877681335679     -0.16931307117016      0.00002936397660
| 32> H           1.07767380530056      2.52621447644394      0.00000712336235
| 33> H           3.15304280126425      1.15182904763925     -0.00000361572869
| 34> H           3.04441141911605     -1.32116718166862     -0.00000606251848
| 35> H           0.83131985250349     -2.50587419173540      0.00000217024247
| 36> *
| 37>
| 38>                          ****END OF INPUT****
 Total Charge           Charge          ....    0
 Multiplicity           Mult            ....    1
 Number of Electrons    NEL             ....   62
Dispersion correction           -0.004576517
FINAL SINGLE POINT ENERGY      -383.613959782421
Dispersion correction             ... done (  0.1 sec)
Dispersion correction           -0.004586143
FINAL SINGLE POINT ENERGY      -383.614696359403
Dispersion correction             ... done (  0.1 sec)
Dispersion correction           -0.004588934
FINAL SINGLE POINT ENERGY      -383.614778957806
Dispersion correction             ... done (  0.1 sec)
Dispersion correction           -0.004589466
FINAL SINGLE POINT ENERGY      -383.614794822217
Dispersion correction             ... done (  0.1 sec)
                    ***********************HURRAY********************

CARTESIAN COORDINATES (ANGSTROEM)
---------------------------------
  C      0.898053   -1.416404   -0.000383
  C      2.114521   -0.741402    0.000021
  C      2.171002    0.660307   -0.000091
  C      1.017415    1.432206   -0.000471
  C     -0.218339    0.776743   -0.000697
  C     -0.237461   -0.627577   -0.000770
  O     -1.528089   -1.080886   -0.000556
  C     -2.322687    0.039453   -0.000075
  C     -1.597514    1.180552   -0.000267
  H     -1.992198    2.184277    0.000964
  H     -3.383423   -0.151968    0.001166
  H      1.072993    2.514462   -0.000473
  H      3.138777    1.147797    0.000599
  H      3.036034   -1.310995    0.001167
  H      0.839965   -2.497590   -0.000050

 Multiplicity           Mult            ....    1
 Number of Electrons    NEL             ....   62
 Basis Dimension        Dim             ....  552

ORBITAL ENERGIES
----------------

  NO   OCC          E(Eh)            E(eV)
   0   2.0000     -19.025819      -517.7189
   1   2.0000     -10.094333      -274.6808
   2   2.0000     -10.092720      -274.6369
   3   2.0000     -10.049109      -273.4502
   4   2.0000     -10.044252      -273.3180
   5   2.0000     -10.042514      -273.2707
   6   2.0000     -10.040599      -273.2186
   7   2.0000     -10.038786      -273.1693
   8   2.0000     -10.037048      -273.1220
   9   2.0000      -1.076412       -29.2907
  10   2.0000      -0.827129       -22.5073
  11   2.0000      -0.769140       -20.9294
  12   2.0000      -0.718800       -19.5595
  13   2.0000      -0.698596       -19.0098
  14   2.0000      -0.601777       -16.3752
  15   2.0000      -0.569657       -15.5011
  16   2.0000      -0.553837       -15.0707
  17   2.0000      -0.488559       -13.2944
  18   2.0000      -0.462675       -12.5900
  19   2.0000      -0.447094       -12.1661
  20   2.0000      -0.431134       -11.7317
  21   2.0000      -0.408168       -11.1068
  22   2.0000      -0.392240       -10.6734
  23   2.0000      -0.374323       -10.1858
  24   2.0000      -0.356025        -9.6879
  25   2.0000      -0.334189        -9.0937
  26   2.0000      -0.333002        -9.0614
  27   2.0000      -0.308420        -8.3925
  28   2.0000      -0.279498        -7.6055
  29   2.0000      -0.228041        -6.2053
  30   2.0000      -0.210442        -5.7264
  31   0.0000      -0.052430        -1.4267
  32   0.0000      -0.022998        -0.6258
  33   0.0000       0.008960         0.2438
  34   0.0000       0.014764         0.4017
  35   0.0000       0.022045         0.5999

MULLIKEN ATOMIC CHARGES
-----------------------
   0 C :   -1.065152
   1 C :   -0.173948
   2 C :   -0.564261
   3 C :   -0.600172
   4 C :    1.134852
   5 C :    0.332280
   6 O :   -0.519546
   7 C :   -0.545798
   8 C :   -0.649508
   9 H :    0.379639
  10 H :    0.624637
  11 H :    0.084685
  12 H :    0.600158
  13 H :    0.362517
  14 H :    0.599617
Sum of atomic charges:   -0.0000000

LOEWDIN ATOMIC CHARGES
----------------------
   0 C :    0.223842
   1 C :    0.181723
   2 C :    0.182536
   3 C :    0.219867
   4 C :   -0.168974
   5 C :   -0.399968
   6 O :    0.615586
   7 C :   -0.002754
   8 C :    0.223985
   9 H :   -0.176971
  10 H :   -0.182905
  11 H :   -0.173164
  12 H :   -0.185944
  13 H :   -0.184126
  14 H :   -0.172732

  Mayer bond orders larger than 0.100000
B(  0-C ,  1-C ) :   1.2027 B(  0-C ,  2-C ) :   0.4703 B(  0-C ,  4-C ) :   0.1473
B(  0-C ,  5-C ) :   1.1318 B(  0-C ,  6-O ) :   0.1001 B(  1-C ,  2-C ) :   1.0324
B(  1-C ,  3-C ) :  -0.4370 B(  1-C ,  5-C ) :  -0.7329 B(  1-C ,  7-C ) :   0.1142
B(  1-C , 12-H ) :   0.1479 B(  1-C , 13-H ) :   0.7794 B(  1-C , 14-H ) :   0.1845
B(  2-C ,  3-C ) :   0.9400 B(  2-C ,  5-C ) :   0.1101 B(  2-C ,  8-C ) :   0.2248
B(  2-C , 12-H ) :   0.2951 B(  2-C , 13-H ) :  -0.1298 B(  3-C ,  4-C ) :   0.7126
B(  3-C ,  5-C ) :  -0.8195 B(  3-C ,  8-C ) :   0.1098 B(  3-C ,  9-H ) :   0.1829
B(  3-C , 11-H ) :   1.3890 B(  3-C , 12-H ) :  -0.1065 B(  3-C , 14-H ) :   0.1388
B(  4-C ,  5-C ) :   1.2264 B(  4-C ,  6-O ) :  -0.1058 B(  4-C ,  7-C ) :  -0.3304
B(  4-C ,  8-C ) :   0.3637 B(  4-C , 11-H ) :  -0.1690 B(  4-C , 13-H ) :  -0.1516
B(  5-C ,  6-O ) :   0.5386 B(  5-C ,  8-C ) :   0.2582 B(  5-C , 11-H ) :   0.1967
B(  5-C , 13-H ) :   0.1514 B(  6-O ,  7-C ) :   1.1743 B(  7-C ,  8-C ) :   1.1198
B(  7-C , 10-H ) :   0.4528 B(  8-C ,  9-H ) :   0.8406

Dispersion correction           -0.004589320
FINAL SINGLE POINT ENERGY      -383.614796560858

DIPOLE MOMENT
-------------

Method             : SCF
Type of density    : Electron Density
Multiplicity       :   1
Irrep              :   0
Energy             :  -383.6102072411198947 Eh
Relativity type    :
Basis              : AO
                                X                 Y                 Z
Electronic contribution:     -2.704884407      -1.404314062      -0.002581764
Nuclear contribution   :      2.512035460       1.740554731       0.004987098
                        -----------------------------------------
Total Dipole Moment    :     -0.192848947       0.336240669       0.002405334
                        -----------------------------------------
Magnitude (a.u.)       :      0.387626482
Magnitude (Debye)      :      0.985268217

Rotational constants in cm-1:             0.131136             0.055612             0.039051
Rotational constants in MHz :          3931.344537          1667.212925          1170.728159

                             ****ORCA TERMINATED NORMALLY****
TOTAL RUN TIME: 0 days 0 hours 8 minutes 19 seconds 286 msec
