                         Program Version 6.0.0  -   RELEASE  -
|  1> !PBE0 def2-SV(p) Opt Freq d3 TightSCF SlowConv RIJCOSX defgrid2
|  2>
|  3> %pal
|  4> nprocs 8
|  5> end
|  6>
|  7> %scf
|  8> MaxIter 1500
|  9> end
| 10>
| 11> %maxcore 3000
| 12>
| 13>
| 14>
| 15> * xyz 0 1
| 16> 6        0.421947000     -1.696321000     -0.044242500
| 17> 6       -0.976513500     -1.817526500     -0.016545000
| 18> 6       -1.702130500     -0.645972500      0.026484000
| 19> 6       -1.071118000      0.598743500      0.048634500
| 20> 6        0.296893500      0.729697000      0.031371500
| 21> 6        1.073174000     -0.455111000     -0.018782000
| 22> 6        2.538448500     -0.429694000     -0.034704500
| 23> 6        3.340486000      0.646799500     -0.018799000
| 24> 6        4.831838000      0.594090000     -0.020168000
| 25> 1        5.201416000     -0.445305500     -0.036390500
| 26> 1        5.252503000      1.121199500     -0.897647000
| 27> 1        5.251709000      1.092690000      0.874198000
| 28> 1        2.896053000      1.651206500     -0.001984500
| 29> 1        3.012779000     -1.420457000     -0.054458000
| 30> 1        0.754372500      1.720234500      0.077841000
| 31> 8       -2.015078000      1.575813000      0.224570000
| 32> 6       -3.271186000      0.928180000     -0.358591000
| 33> 1       -3.288731500      0.951330000     -1.704069500
| 34> 1       -4.384492000      1.474657500      0.110320500
| 35> 8       -3.047490500     -0.468172000      0.188893000
| 36> 1       -1.470238500     -2.791232000     -0.013096500
| 37> 1        1.028875000     -2.606434000     -0.087525000
| 38> *
| 39>
| 40>                          ****END OF INPUT****
 Total Charge           Charge          ....    0
 Multiplicity           Mult            ....    1
 Number of Electrons    NEL             ....   86
Dispersion correction           -0.019899291
FINAL SINGLE POINT ENERGY      -536.422297127245
Dispersion correction             ... done (  0.1 sec)
Dispersion correction           -0.019825084
FINAL SINGLE POINT ENERGY      -536.461569584438
Dispersion correction             ... done (  0.1 sec)
Dispersion correction           -0.019817378
FINAL SINGLE POINT ENERGY      -536.484644177039
Dispersion correction             ... done (  0.1 sec)
FINAL SINGLE POINT ENERGY      -536.489272167610
FINAL SINGLE POINT ENERGY      -536.490449017065
FINAL SINGLE POINT ENERGY      -536.490927770953
FINAL SINGLE POINT ENERGY      -536.491196759204
FINAL SINGLE POINT ENERGY      -536.491250318540
FINAL SINGLE POINT ENERGY      -536.491270894441
Dispersion correction             ... done (  0.1 sec)
Dispersion correction           -0.019824889
FINAL SINGLE POINT ENERGY      -536.491274523429
Dispersion correction             ... done (  0.1 sec)
Dispersion correction           -0.019824741
FINAL SINGLE POINT ENERGY      -536.491275607103
Dispersion correction             ... done (  0.1 sec)
                    ***********************HURRAY********************

CARTESIAN COORDINATES (ANGSTROEM)
---------------------------------
  C      0.415993   -1.693462   -0.022792
  C     -0.981997   -1.814727   -0.051348
  C     -1.706776   -0.643087   -0.083263
  C     -1.074958    0.601970   -0.081301
  C      0.292692    0.732748   -0.049302
  C      1.067922   -0.452261   -0.022383
  C      2.533060   -0.427841    0.004115
  C      3.335990    0.647875   -0.012987
  C      4.826983    0.594363    0.017617
  H      5.195197   -0.444865    0.054673
  H      5.264934    1.081458   -0.874268
  H      5.230440    1.132150    0.896575
  H      2.892193    1.651773   -0.053103
  H      3.006162   -1.418495    0.041408
  H      0.750608    1.723118   -0.041525
  O     -2.022386    1.577598   -0.080838
  C     -3.253729    0.921619   -0.299203
  H     -3.586439    1.090934   -1.344276
  H     -4.006518    1.300241    0.411403
  O     -3.052883   -0.460683   -0.084960
  H     -1.475697   -2.788493   -0.046564
  H      1.022725   -2.603518   -0.002369

 Multiplicity           Mult            ....    1
 Number of Electrons    NEL             ....   86
 Basis Dimension        Dim             ....  188

ORBITAL ENERGIES
----------------

  NO   OCC          E(Eh)            E(eV)
   0   2.0000     -19.260177      -524.0961
   1   2.0000     -19.259290      -524.0719
   2   2.0000     -10.348936      -281.6089
   3   2.0000     -10.296807      -280.1904
   4   2.0000     -10.296256      -280.1754
   5   2.0000     -10.246299      -278.8160
   6   2.0000     -10.241323      -278.6806
   7   2.0000     -10.239047      -278.6186
   8   2.0000     -10.236272      -278.5431
   9   2.0000     -10.234149      -278.4854
  10   2.0000     -10.231305      -278.4080
  11   2.0000     -10.226174      -278.2683
  12   2.0000      -1.165254       -31.7082
  13   2.0000      -1.063887       -28.9498
  14   2.0000      -0.886163       -24.1137
  15   2.0000      -0.820018       -22.3138
  16   2.0000      -0.780423       -21.2364
  17   2.0000      -0.770667       -20.9709
  18   2.0000      -0.715776       -19.4773
  19   2.0000      -0.678758       -18.4699
  20   2.0000      -0.645454       -17.5637
  21   2.0000      -0.636305       -17.3147
  22   2.0000      -0.573152       -15.5963
  23   2.0000      -0.547596       -14.9008
  24   2.0000      -0.544936       -14.8285
  25   2.0000      -0.535558       -14.5733
  26   2.0000      -0.511437       -13.9169
  27   2.0000      -0.467732       -12.7276
  28   2.0000      -0.460308       -12.5256
  29   2.0000      -0.448587       -12.2067
  30   2.0000      -0.426049       -11.5934
  31   2.0000      -0.419075       -11.4036
  32   2.0000      -0.413717       -11.2578
  33   2.0000      -0.410931       -11.1820
  34   2.0000      -0.408705       -11.1214
  35   2.0000      -0.388399       -10.5689
  36   2.0000      -0.380677       -10.3588
  37   2.0000      -0.362939        -9.8761
  38   2.0000      -0.356750        -9.7077
  39   2.0000      -0.349093        -9.4993
  40   2.0000      -0.285218        -7.7612
  41   2.0000      -0.251386        -6.8406
  42   2.0000      -0.210215        -5.7202
  43   0.0000      -0.025687        -0.6990
  44   0.0000       0.003903         0.1062
  45   0.0000       0.069833         1.9003
  46   0.0000       0.082870         2.2550
  47   0.0000       0.087081         2.3696

MULLIKEN ATOMIC CHARGES
-----------------------
   0 C :   -0.168673
   1 C :   -0.185872
   2 C :    0.203561
   3 C :    0.224394
   4 C :   -0.258505
   5 C :    0.118732
   6 C :   -0.124223
   7 C :   -0.175559
   8 C :   -0.308142
   9 H :    0.130274
  10 H :    0.137250
  11 H :    0.137527
  12 H :    0.110905
  13 H :    0.083358
  14 H :    0.090535
  15 O :   -0.333721
  16 C :    0.209281
  17 H :    0.119829
  18 H :    0.135677
  19 O :   -0.332363
  20 H :    0.094762
  21 H :    0.090975
Sum of atomic charges:   -0.0000000

LOEWDIN ATOMIC CHARGES
----------------------
   0 C :   -0.128198
   1 C :   -0.153531
   2 C :    0.016147
   3 C :    0.020007
   4 C :   -0.142667
   5 C :   -0.047497
   6 C :   -0.136384
   7 C :   -0.145358
   8 C :   -0.337302
   9 H :    0.126242
  10 H :    0.130791
  11 H :    0.130918
  12 H :    0.121416
  13 H :    0.124235
  14 H :    0.138561
  15 O :   -0.117091
  16 C :    0.026174
  17 H :    0.103050
  18 H :    0.115770
  19 O :   -0.115231
  20 H :    0.140152
  21 H :    0.129797

  Mayer bond orders larger than 0.100000
B(  0-C ,  1-C ) :   1.3062 B(  0-C ,  5-C ) :   1.3987 B(  0-C , 21-H ) :   0.9628
B(  1-C ,  2-C ) :   1.4144 B(  1-C , 20-H ) :   0.9787 B(  2-C ,  3-C ) :   1.2710
B(  2-C , 19-O ) :   1.0511 B(  3-C ,  4-C ) :   1.4302 B(  3-C , 15-O ) :   1.0515
B(  4-C ,  5-C ) :   1.2655 B(  4-C , 14-H ) :   0.9650 B(  5-C ,  6-C ) :   1.0986
B(  6-C ,  7-C ) :   1.8955 B(  6-C , 13-H ) :   0.9348 B(  7-C ,  8-C ) :   1.0835
B(  7-C , 12-H ) :   0.9123 B(  8-C ,  9-H ) :   0.9536 B(  8-C , 10-H ) :   0.9376
B(  8-C , 11-H ) :   0.9376 B( 15-O , 16-C ) :   0.9827 B( 16-C , 17-H ) :   0.9240
B( 16-C , 18-H ) :   0.9363 B( 16-C , 19-O ) :   0.9811

Dispersion correction           -0.019824813
FINAL SINGLE POINT ENERGY      -536.491275578161

DIPOLE MOMENT
-------------

Method             : SCF
Type of density    : Electron Density
Multiplicity       :   1
Irrep              :   0
Energy             :  -536.4714507649222242 Eh
Relativity type    :
Basis              : AO
                                X                 Y                 Z
Electronic contribution:    -13.471651590      -0.551256325       0.150971883
Nuclear contribution   :     13.408506820       0.685068586      -0.272537228
                        -----------------------------------------
Total Dipole Moment    :     -0.063144770       0.133812261      -0.121565345
                        -----------------------------------------
Magnitude (a.u.)       :      0.191497040
Magnitude (Debye)      :      0.486746793

VIBRATIONAL FREQUENCIES
-----------------------

Scaling factor for frequencies =  1.000000000  (already applied!)

     0:       0.00 cm**-1
     1:       0.00 cm**-1
     2:       0.00 cm**-1
     3:       0.00 cm**-1
     4:       0.00 cm**-1
     5:       0.00 cm**-1
     6:      52.06 cm**-1
     7:      91.26 cm**-1
     8:     117.40 cm**-1
     9:     125.69 cm**-1
    10:     193.51 cm**-1
    11:     221.12 cm**-1
    12:     260.84 cm**-1
    13:     323.34 cm**-1
    14:     356.39 cm**-1
    15:     378.52 cm**-1
    16:     438.12 cm**-1
    17:     477.22 cm**-1
    18:     572.13 cm**-1
    19:     627.89 cm**-1
    20:     637.80 cm**-1
    21:     731.98 cm**-1
    22:     750.75 cm**-1
    23:     805.79 cm**-1
    24:     807.03 cm**-1
    25:     853.58 cm**-1
    26:     855.53 cm**-1
    27:     893.98 cm**-1
    28:     941.91 cm**-1
    29:     951.24 cm**-1
    30:     990.38 cm**-1
    31:    1002.55 cm**-1
    32:    1039.46 cm**-1
    33:    1063.22 cm**-1
    34:    1110.05 cm**-1
    35:    1126.61 cm**-1
    36:    1143.77 cm**-1
    37:    1160.75 cm**-1
    38:    1171.42 cm**-1
    39:    1219.68 cm**-1
    40:    1240.46 cm**-1
    41:    1276.55 cm**-1
    42:    1318.58 cm**-1
    43:    1338.56 cm**-1
    44:    1347.27 cm**-1
    45:    1407.58 cm**-1
    46:    1432.71 cm**-1
    47:    1453.71 cm**-1
    48:    1461.26 cm**-1
    49:    1475.86 cm**-1
    50:    1523.27 cm**-1
    51:    1543.61 cm**-1
    52:    1573.85 cm**-1
    53:    1699.20 cm**-1
    54:    1717.30 cm**-1
    55:    1760.12 cm**-1
    56:    3015.42 cm**-1
    57:    3019.35 cm**-1
    58:    3090.96 cm**-1
    59:    3129.76 cm**-1
    60:    3130.03 cm**-1
    61:    3149.92 cm**-1
    62:    3162.00 cm**-1
    63:    3202.66 cm**-1
    64:    3234.12 cm**-1
    65:    3235.59 cm**-1

IR SPECTRUM
-----------

 Mode   freq       eps      Int      T**2         TX        TY        TZ
       cm**-1   L/(mol*cm) km/mol    a.u.
----------------------------------------------------------------------------
  6:     52.06   0.000121    0.61  0.000725  (-0.008192 -0.000651  0.025646)
  7:     91.26   0.001231    6.22  0.004209  ( 0.030575 -0.009822 -0.056368)
  8:    117.40   0.000364    1.84  0.000967  (-0.024028  0.008036  0.018025)
  9:    125.69   0.000100    0.51  0.000249  (-0.008554 -0.013036 -0.002491)
 10:    193.51   0.000416    2.10  0.000671  ( 0.003173 -0.002406 -0.025587)
 11:    221.12   0.000032    0.16  0.000046  ( 0.001482 -0.004360 -0.004942)
 12:    260.84   0.000156    0.79  0.000186  ( 0.010455 -0.001078 -0.008694)
 13:    323.34   0.000295    1.49  0.000285  (-0.016724 -0.001666  0.001537)
 14:    356.39   0.000247    1.25  0.000216  (-0.009457 -0.011087  0.001874)
 15:    378.52   0.000156    0.79  0.000129  ( 0.007091 -0.001423  0.008731)
 16:    438.12   0.000267    1.35  0.000190  ( 0.000475  0.000723  0.013753)
 17:    477.22   0.000513    2.59  0.000336  ( 0.010054  0.015262  0.001314)
 18:    572.13   0.001906    9.63  0.001040  ( 0.032033  0.002732 -0.002455)
 19:    627.89   0.000495    2.50  0.000246  ( 0.001598  0.002168 -0.015450)
 20:    637.80   0.000126    0.63  0.000061  (-0.004962 -0.000823 -0.006012)
 21:    731.98   0.000063    0.32  0.000027  ( 0.000534 -0.004230  0.002921)
 22:    750.75   0.000267    1.35  0.000111  ( 0.005198 -0.007669 -0.005001)
 23:    805.79   0.005635   28.48  0.002182  (-0.001371  0.004724  0.046454)
 24:    807.03   0.001250    6.32  0.000483  (-0.003832 -0.020151  0.007913)
 25:    853.58   0.002477   12.52  0.000905  (-0.029693 -0.000639 -0.004834)
 26:    855.53   0.001157    5.85  0.000422  ( 0.014877 -0.000946 -0.014132)
 27:    893.98   0.002626   13.27  0.000917  ( 0.005148  0.000070 -0.029833)
 28:    941.91   0.001738    8.78  0.000576  ( 0.023736 -0.003436 -0.000717)
 29:    951.24   0.000300    1.52  0.000098  ( 0.001481 -0.002162 -0.009565)
 30:    990.38   0.004162   21.03  0.001312  ( 0.017329  0.031631  0.003277)
 31:   1002.55   0.006195   31.31  0.001928  ( 0.001810  0.000141 -0.043874)
 32:   1039.46   0.007435   37.57  0.002232  (-0.014391 -0.044999  0.000311)
 33:   1063.22   0.000013    0.06  0.000004  (-0.000261 -0.000064 -0.001919)
 34:   1110.05   0.019714   99.63  0.005542  ( 0.064732 -0.028300  0.023474)
 35:   1126.61   0.002637   13.33  0.000730  (-0.021779 -0.015423 -0.004281)
 36:   1143.77   0.001648    8.33  0.000450  (-0.012576 -0.017047 -0.000874)
 37:   1160.75   0.002127   10.75  0.000572  ( 0.002368  0.009547 -0.021798)
 38:   1171.42   0.004758   24.04  0.001268  (-0.024765  0.024872  0.005962)
 39:   1219.68   0.001778    8.99  0.000455  ( 0.018471 -0.010481  0.001996)
 40:   1240.46   0.004317   21.81  0.001086  ( 0.032845 -0.000813  0.002538)
 41:   1276.55   0.000562    2.84  0.000137  ( 0.008759  0.007764  0.000528)
 42:   1318.58   0.012920   65.29  0.003058  (-0.050471  0.022293 -0.003646)
 43:   1338.56   0.033928  171.46  0.007910  ( 0.080978 -0.036337  0.005655)
 44:   1347.27   0.022729  114.86  0.005265  ( 0.070958 -0.014491  0.004430)
 45:   1407.58   0.000498    2.52  0.000111  (-0.003928  0.009697 -0.001028)
 46:   1432.71   0.000224    1.13  0.000049  ( 0.006576 -0.001850  0.001461)
 47:   1453.71   0.000685    3.46  0.000147  ( 0.002952  0.011749 -0.000548)
 48:   1461.26   0.001980   10.01  0.000423  (-0.000446  0.000613  0.020549)
 49:   1475.86   0.002430   12.28  0.000514  (-0.001231 -0.022629  0.000417)
 50:   1523.27   0.013474   68.09  0.002760  (-0.045684  0.025935 -0.000777)
 51:   1543.61   0.011151   56.35  0.002254  (-0.046012  0.011711 -0.000446)
 52:   1573.85   0.060493  305.71  0.011994  (-0.103221  0.036426 -0.003599)
 53:   1699.20   0.000836    4.23  0.000154  ( 0.005286  0.011189 -0.000669)
 54:   1717.30   0.000677    3.42  0.000123  (-0.004279 -0.010223 -0.000525)
 55:   1760.12   0.000350    1.77  0.000062  ( 0.007814 -0.000986  0.000068)
 56:   3015.42   0.030359  153.42  0.003142  (-0.045584  0.016903 -0.027896)
 57:   3019.35   0.006935   35.05  0.000717  (-0.025546 -0.007842  0.001633)
 58:   3090.96   0.002313   11.69  0.000234  (-0.000407  0.000441  0.015271)
 59:   3129.76   0.009012   45.54  0.000899  (-0.022065  0.009498  0.017929)
 60:   3130.03   0.001326    6.70  0.000132  (-0.000472  0.011482 -0.000422)
 61:   3149.92   0.001871    9.45  0.000185  (-0.011861  0.006662 -0.000508)
 62:   3162.00   0.005413   27.35  0.000534  ( 0.015265 -0.017333  0.000846)
 63:   3202.66   0.001391    7.03  0.000136  ( 0.009427 -0.006827  0.000318)
 64:   3234.12   0.000788    3.98  0.000076  ( 0.003471  0.007997 -0.000057)
 65:   3235.59   0.000143    0.72  0.000014  (-0.003708  0.000114 -0.000057)

--------------------------
THERMOCHEMISTRY AT 298.15K
--------------------------

Temperature         ...   298.15 K
Pressure            ...     1.00 atm
Total Mass          ...   162.19 AMU
Quasi RRHO          ...     True
Cut-Off Frequency   ...     1.00 cm^-1

Throughout the following assumptions are being made:
  (1) The electronic state is orbitally nondegenerate
  (2) There are no thermally accessible electronically excited states
  (3) Hindered rotations indicated by low frequency modes are not
      treated as such but are treated as vibrations and this may
      cause some error
  (4) All equations used are the standard statistical mechanics
      equations for an ideal gas
  (5) All vibrations are strictly harmonic

freq.      52.06  E(vib)   ...       0.52
freq.      91.26  E(vib)   ...       0.47
freq.     117.40  E(vib)   ...       0.44
freq.     125.69  E(vib)   ...       0.43
freq.     193.51  E(vib)   ...       0.36
freq.     221.12  E(vib)   ...       0.33
freq.     260.84  E(vib)   ...       0.30
freq.     323.34  E(vib)   ...       0.25
freq.     356.39  E(vib)   ...       0.22
freq.     378.52  E(vib)   ...       0.21
freq.     438.12  E(vib)   ...       0.17
freq.     477.22  E(vib)   ...       0.15
freq.     572.13  E(vib)   ...       0.11
freq.     627.89  E(vib)   ...       0.09
freq.     637.80  E(vib)   ...       0.09
freq.     731.98  E(vib)   ...       0.06
freq.     750.75  E(vib)   ...       0.06
freq.     805.79  E(vib)   ...       0.05
freq.     807.03  E(vib)   ...       0.05
freq.     853.58  E(vib)   ...       0.04
freq.     855.53  E(vib)   ...       0.04
freq.     893.98  E(vib)   ...       0.03
freq.     941.91  E(vib)   ...       0.03
freq.     951.24  E(vib)   ...       0.03
freq.     990.38  E(vib)   ...       0.02
freq.    1002.55  E(vib)   ...       0.02
freq.    1039.46  E(vib)   ...       0.02
freq.    1063.22  E(vib)   ...       0.02
freq.    1110.05  E(vib)   ...       0.02
freq.    1126.61  E(vib)   ...       0.01
freq.    1143.77  E(vib)   ...       0.01
freq.    1160.75  E(vib)   ...       0.01
freq.    1171.42  E(vib)   ...       0.01
freq.    1219.68  E(vib)   ...       0.01
freq.    1240.46  E(vib)   ...       0.01
freq.    1276.55  E(vib)   ...       0.01
freq.    1318.58  E(vib)   ...       0.01
freq.    1338.56  E(vib)   ...       0.01
freq.    1347.27  E(vib)   ...       0.01
freq.    1407.58  E(vib)   ...       0.00
freq.    1432.71  E(vib)   ...       0.00
freq.    1453.71  E(vib)   ...       0.00
freq.    1461.26  E(vib)   ...       0.00
freq.    1475.86  E(vib)   ...       0.00
freq.    1523.27  E(vib)   ...       0.00
freq.    1543.61  E(vib)   ...       0.00
freq.    1573.85  E(vib)   ...       0.00
freq.    1699.20  E(vib)   ...       0.00
freq.    1717.30  E(vib)   ...       0.00
freq.    1760.12  E(vib)   ...       0.00
freq.    3015.42  E(vib)   ...       0.00
freq.    3019.35  E(vib)   ...       0.00
freq.    3090.96  E(vib)   ...       0.00
freq.    3129.76  E(vib)   ...       0.00
freq.    3130.03  E(vib)   ...       0.00
freq.    3149.92  E(vib)   ...       0.00
freq.    3162.00  E(vib)   ...       0.00
freq.    3202.66  E(vib)   ...       0.00
freq.    3234.12  E(vib)   ...       0.00
freq.    3235.59  E(vib)   ...       0.00

------------
INNER ENERGY
------------

The inner energy is: U= E(el) + E(ZPE) + E(vib) + E(rot) + E(trans)
    E(el)   - is the total energy from the electronic structure calculation
              = E(kin-el) + E(nuc-el) + E(el-el) + E(nuc-nuc)
    E(ZPE)  - the the zero temperature vibrational energy from the frequency calculation
    E(vib)  - the the finite temperature correction to E(ZPE) due to population
              of excited vibrational states
    E(rot)  - is the rotational thermal energy
    E(trans)- is the translational thermal energy

Summary of contributions to the inner energy U:
Electronic energy                ...   -536.49127558 Eh
Zero point energy                ...      0.17868276 Eh     112.12 kcal/mol
Thermal vibrational correction   ...      0.00757788 Eh       4.76 kcal/mol
Thermal rotational correction    ...      0.00141627 Eh       0.89 kcal/mol
Thermal translational correction ...      0.00141627 Eh       0.89 kcal/mol
-----------------------------------------------------------------------
Total thermal energy                   -536.30218239 Eh

Summary of corrections to the electronic energy:
(perhaps to be used in another calculation)
Total thermal correction                  0.01041043 Eh       6.53 kcal/mol
Non-thermal (ZPE) correction              0.17868276 Eh     112.12 kcal/mol
-----------------------------------------------------------------------
Total correction                          0.18909319 Eh     118.66 kcal/mol

--------
ENTHALPY
--------

The enthalpy is H = U + kB*T
                kB is Boltzmann's constant
Total thermal energy              ...   -536.30218239 Eh
Thermal Enthalpy correction       ...      0.00094421 Eh       0.59 kcal/mol
-----------------------------------------------------------------------
Total Enthalpy                    ...   -536.30123818 Eh

Note: Only C1 symmetry has been detected, increase convergence thresholds
      if your molecule has a higher symmetry. Symmetry factor of 1.0 is
      used for the rotational entropy correction.

Note: Rotational entropy computed according to Herzberg
Infrared and Raman Spectra, Chapter V,1, Van Nostrand Reinhold, 1945
Point Group:  C1, Symmetry Number:   1
Rotational constants in cm-1:     0.089233     0.016100     0.013721

Vibrational entropy computed according to the QRRHO of S. Grimme
Chem.Eur.J. 2012 18 9955 using a reference frequency of 100.0 cm-1

-------
ENTROPY
-------

The entropy contributions are T*S = T*(S(el)+S(vib)+S(rot)+S(trans))
     S(el)   - electronic entropy
     S(vib)  - vibrational entropy
     S(rot)  - rotational entropy
     S(trans)- translational entropy
The entropies will be listed as multiplied by the temperature to get
units of energy

Electronic entropy                ...      0.00000000 Eh      0.00 kcal/mol
Vibrational entropy               ...      0.01300957 Eh      8.16 kcal/mol
Rotational entropy                ...      0.01462558 Eh      9.18 kcal/mol
Translational entropy             ...      0.01955613 Eh     12.27 kcal/mol
-----------------------------------------------------------------------
Final entropy term                ...      0.04719128 Eh     29.61 kcal/mol

In case the symmetry of your molecule has not been determined correctly
or in case you have a reason to use a different symmetry number we print
out the resulting rotational entropy values for sn=1,12:

 non-linear molecules -----------------------------------

                             ****ORCA TERMINATED NORMALLY****
TOTAL RUN TIME: 0 days 0 hours 11 minutes 48 seconds 685 msec
