                         Program Version 6.0.0  -   RELEASE  -
|  1> !B3LYP opt aug-cc-pVTZ d3 TightSCF SlowConv RIJCOSX defgrid2
|  2>
|  3> %pal
|  4> nprocs 8
|  5> end
|  6>
|  7> %scf
|  8> MaxIter 1500
|  9> end
| 10>
| 11> %maxcore 3500
| 12>
| 13> !CPCM
| 14> %cpcm smd true
| 15> SMDsolvent "MeCN"
| 16> surfacetype gepol_ses
| 17> rsolv 2.19
| 18> end
| 19>
| 20> * xyz 0 1
| 21> C          -0.01157783641881      1.20352898199244      0.00001890353025
| 22> C           1.37990540430455      1.22191450811359      0.00011854591947
| 23> C           2.06592899516975      0.01252414866139      0.00007181753194
| 24> C           1.39794249050432     -1.20933071970230     -0.00006681343243
| 25> C           0.01016197626576     -1.21076373795935     -0.00015906863819
| 26> C          -0.71228022521915     -0.00932565619212     -0.00012281102354
| 27> C          -2.20544538942687     -0.09111368239076     -0.00023883939795
| 28> O          -2.76237956084169     -1.16697560386648     -0.00031741607190
| 29> C          -2.99637020201978      1.19627311334720     -0.00027997588088
| 30> H          -2.76201741553525      1.80607989056811      0.88981335524989
| 31> H          -2.76168147330890      1.80627685436038     -0.89014621124470
| 32> H          -4.06823478710533      0.95066483560844     -0.00049545748797
| 33> H          -0.55378818786793     -2.14712022161097     -0.00026564570615
| 34> H           1.97664868381534     -2.13630478054762     -0.00010007290271
| 35> F           3.39392859180167      0.02324511926514      0.00015796253828
| 36> H           1.94353444532030      2.15785345098842      0.00023004641097
| 37> H          -0.54990740943796      2.15466559936447      0.00005528060562
| 38> *
| 39>
| 40>                          ****END OF INPUT****
 Total Charge           Charge          ....    0
 Multiplicity           Mult            ....    1
 Number of Electrons    NEL             ....   72
Dispersion correction           -0.030229453
FINAL SINGLE POINT ENERGY      -484.092705462920
Dispersion correction             ... done (  0.1 sec)
Dispersion correction           -0.030314808
FINAL SINGLE POINT ENERGY      -484.094101593646
Dispersion correction             ... done (  0.1 sec)
Dispersion correction           -0.030337784
FINAL SINGLE POINT ENERGY      -484.094285741719
Dispersion correction             ... done (  0.1 sec)
FINAL SINGLE POINT ENERGY      -484.094326197676
Dispersion correction             ... done (  0.1 sec)
Dispersion correction           -0.030332342
FINAL SINGLE POINT ENERGY      -484.094331725349
Dispersion correction             ... done (  0.1 sec)
Dispersion correction           -0.030328708
FINAL SINGLE POINT ENERGY      -484.094332554877
Dispersion correction             ... done (  0.1 sec)
                    ***********************HURRAY********************

CARTESIAN COORDINATES (ANGSTROEM)
---------------------------------
  C     -0.025954    1.191619   -0.000522
  C      1.361481    1.221828   -0.000226
  C      2.039654    0.018089    0.000145
  C      1.397360   -1.208350    0.000675
  C      0.013287   -1.218644    0.000044
  C     -0.715163   -0.024343   -0.000658
  C     -2.204668   -0.086324   -0.001402
  O     -2.781654   -1.163616   -0.003186
  C     -2.980060    1.203740    0.000214
  H     -2.731849    1.801322    0.879121
  H     -2.733659    1.802595   -0.878439
  H     -4.044704    0.985357    0.001171
  H     -0.519694   -2.157965    0.000350
  H      1.972205   -2.123181    0.001401
  F      3.394889    0.037841    0.000104
  H      1.906470    2.154571   -0.000397
  H     -0.563574    2.127554   -0.000122

 Multiplicity           Mult            ....    1
 Number of Electrons    NEL             ....   72
 Basis Dimension        Dim             ....  621

ORBITAL ENERGIES
----------------

  NO   OCC          E(Eh)            E(eV)
   0   2.0000     -24.705316      -672.2658
   1   2.0000     -19.116551      -520.1878
   2   2.0000     -10.270474      -279.4738
   3   2.0000     -10.264367      -279.3076
   4   2.0000     -10.192500      -277.3520
   5   2.0000     -10.189722      -277.2764
   6   2.0000     -10.188708      -277.2489
   7   2.0000     -10.186704      -277.1943
   8   2.0000     -10.186676      -277.1936
   9   2.0000     -10.163265      -276.5565
  10   2.0000      -1.235805       -33.6280
  11   2.0000      -1.041847       -28.3501
  12   2.0000      -0.875703       -23.8291
  13   2.0000      -0.779078       -21.1998
  14   2.0000      -0.766303       -20.8522
  15   2.0000      -0.729362       -19.8470
  16   2.0000      -0.638990       -17.3878
  17   2.0000      -0.630301       -17.1514
  18   2.0000      -0.559370       -15.2212
  19   2.0000      -0.552833       -15.0433
  20   2.0000      -0.503736       -13.7073
  21   2.0000      -0.483428       -13.1547
  22   2.0000      -0.480370       -13.0715
  23   2.0000      -0.455367       -12.3912
  24   2.0000      -0.441207       -12.0058
  25   2.0000      -0.437817       -11.9136
  26   2.0000      -0.434328       -11.8187
  27   2.0000      -0.409826       -11.1519
  28   2.0000      -0.403812       -10.9883
  29   2.0000      -0.378789       -10.3074
  30   2.0000      -0.378169       -10.2905
  31   2.0000      -0.354976        -9.6594
  32   2.0000      -0.351944        -9.5769
  33   2.0000      -0.272466        -7.4142
  34   2.0000      -0.260243        -7.0816
  35   2.0000      -0.258530        -7.0350
  36   0.0000      -0.062056        -1.6886
  37   0.0000      -0.025832        -0.7029
  38   0.0000      -0.003124        -0.0850
  39   0.0000       0.009963         0.2711
  40   0.0000       0.014506         0.3947

MULLIKEN ATOMIC CHARGES
-----------------------
   0 C :   -0.348169
   1 C :   -0.858377
   2 C :    0.692092
   3 C :   -0.707531
   4 C :   -0.794818
   5 C :    1.428129
   6 C :    0.632978
   7 O :   -0.922398
   8 C :   -0.580546
   9 H :    0.250306
  10 H :    0.251395
  11 H :    0.172950
  12 H :    0.238226
  13 H :    0.454714
  14 F :   -0.529321
  15 H :    0.441021
  16 H :    0.179349
Sum of atomic charges:   -0.0000000

LOEWDIN ATOMIC CHARGES
----------------------
   0 C :    0.207925
   1 C :    0.212594
   2 C :   -0.523764
   3 C :    0.208057
   4 C :    0.195637
   5 C :   -0.128011
   6 C :   -0.540207
   7 O :    0.478147
   8 C :    0.571251
   9 H :   -0.162116
  10 H :   -0.161975
  11 H :   -0.179973
  12 H :   -0.185928
  13 H :   -0.170342
  14 F :    0.527251
  15 H :   -0.169350
  16 H :   -0.179193

  Mayer bond orders larger than 0.100000
B(  0-C ,  1-C ) :   0.9338 B(  0-C ,  2-C ) :  -0.2213 B(  0-C ,  3-C ) :  -0.1127
B(  0-C ,  4-C ) :  -0.3061 B(  0-C ,  5-C ) :   0.4737 B(  0-C ,  6-C ) :   0.1190
B(  0-C , 16-H ) :   1.1588 B(  1-C ,  2-C ) :   1.3942 B(  1-C ,  3-C ) :   0.2773
B(  1-C , 14-F ) :   0.1993 B(  1-C , 15-H ) :   0.5417 B(  2-C ,  3-C ) :   1.3723
B(  2-C ,  4-C ) :  -0.2919 B(  2-C , 14-F ) :   0.2257 B(  3-C ,  4-C ) :   1.3469
B(  3-C , 13-H ) :   0.5237 B(  3-C , 14-F ) :   0.1970 B(  4-C ,  5-C ) :   0.3352
B(  4-C ,  6-C ) :   0.2559 B(  4-C , 12-H ) :   0.9509 B(  4-C , 16-H ) :   0.1161
B(  5-C ,  6-C ) :   0.2473 B(  5-C ,  7-O ) :   0.1228 B(  5-C , 16-H ) :  -0.1395
B(  6-C ,  7-O ) :   0.8766 B(  6-C ,  8-C ) :   0.9206 B(  7-O , 12-H ) :   0.1292
B(  8-C ,  9-H ) :   0.9620 B(  8-C , 10-H ) :   0.9610 B(  8-C , 11-H ) :   0.9725
B( 12-H , 16-H ) :   0.1159 B( 13-H , 14-F ) :   0.1255 B( 14-F , 15-H ) :   0.1146

Dispersion correction           -0.030330374
FINAL SINGLE POINT ENERGY      -484.094333938222

DIPOLE MOMENT
-------------

Method             : SCF
Type of density    : Electron Density
Multiplicity       :   1
Irrep              :   0
Energy             :  -484.0640035637834444 Eh
Relativity type    :
Basis              : AO
                                X                 Y                 Z
Electronic contribution:      9.772081181      -2.891072514      -0.002446128
Nuclear contribution   :     -9.479857583       4.257774870       0.005479676
                        -----------------------------------------
Total Dipole Moment    :      0.292223598       1.366702356       0.003033548
                        -----------------------------------------
Magnitude (a.u.)       :      1.397597640
Magnitude (Debye)      :      3.552410887

Rotational constants in cm-1:             0.122945             0.025898             0.021477
Rotational constants in MHz :          3685.803777           776.411402           643.862506

                             ****ORCA TERMINATED NORMALLY****
TOTAL RUN TIME: 0 days 0 hours 29 minutes 18 seconds 181 msec
