                         Program Version 6.0.0  -   RELEASE  -
|  1> !B3LYP aug-cc-pVTZ d3 TightSCF SlowConv RIJCOSX defgrid2
|  2>
|  3> %pal
|  4> nprocs 4
|  5> end
|  6>
|  7> %scf
|  8> MaxIter 1500
|  9> end
| 10>
| 11> %maxcore 3000
| 12>
| 13> !CPCM
| 14> %cpcm smd true
| 15> SMDsolvent "MeCN"
| 16> surfacetype gepol_ses
| 17> rsolv 2.19
| 18> end
| 19>
| 20> * xyz 1 2
| 21> C           1.36337197862367      0.00925782782262      0.00042331345329
| 22> C           0.74822645901465      1.29296895528656      0.00038316234352
| 23> C          -0.61529602246028      1.39626207073000      0.00023060917101
| 24> C          -1.42835414240665      0.22289484643639      0.00009324782531
| 25> C          -0.81975705014986     -1.06228254929373      0.00009847310954
| 26> C           0.54832834357610     -1.16073135173507      0.00023403456932
| 27> H           1.01965556748509     -2.14817388841103      0.00023835116044
| 28> H          -1.42717703035162     -1.96898347753981      0.00000365697629
| 29> O          -2.71426815111900      0.42982708435483     -0.00003024655139
| 30> C          -3.65743877124361     -0.63904368121668     -0.00016458675956
| 31> H          -4.64491010243250     -0.16049105257969     -0.00025717007063
| 32> H          -3.53752517507174     -1.25276547158578     -0.90821236062697
| 33> H          -3.53771725035146     -1.25281703649443      0.90787613291043
| 34> H          -1.11664261012245      2.36720004312394      0.00019734665612
| 35> H           1.36186872975284      2.19800021241604      0.00046058429736
| 36> S           3.05618464536732     -0.23274264105176      0.00049319565771
| 37> H           3.42654608188951      1.07420050973759     -0.00198104412179
| 38> *
| 39>
| 40>                          ****END OF INPUT****

CARTESIAN COORDINATES (ANGSTROEM)
---------------------------------
  C      1.363372    0.009258    0.000423
  C      0.748226    1.292969    0.000383
  C     -0.615296    1.396262    0.000231
  C     -1.428354    0.222895    0.000093
  C     -0.819757   -1.062283    0.000098
  C      0.548328   -1.160731    0.000234
  H      1.019656   -2.148174    0.000238
  H     -1.427177   -1.968983    0.000004
  O     -2.714268    0.429827   -0.000030
  C     -3.657439   -0.639044   -0.000165
  H     -4.644910   -0.160491   -0.000257
  H     -3.537525   -1.252765   -0.908212
  H     -3.537717   -1.252817    0.907876
  H     -1.116643    2.367200    0.000197
  H      1.361869    2.198000    0.000461
  S      3.056185   -0.232743    0.000493
  H      3.426546    1.074201   -0.001981

 Total Charge           Charge          ....    1
 Multiplicity           Mult            ....    2
 Number of Electrons    NEL             ....   73
 Basis Dimension        Dim             ....  602

ORBITAL ENERGIES
----------------
                 SPIN UP ORBITALS
  NO   OCC          E(Eh)            E(eV)
   0   1.0000     -88.960805     -2420.7466
   1   1.0000     -19.224149      -523.1157
   2   1.0000     -10.301267      -280.3117
   3   1.0000     -10.273746      -279.5628
   4   1.0000     -10.238947      -278.6159
   5   1.0000     -10.229847      -278.3683
   6   1.0000     -10.225763      -278.2572
   7   1.0000     -10.220772      -278.1213
   8   1.0000     -10.220529      -278.1147
   9   1.0000      -8.012037      -218.0186
  10   1.0000      -5.975014      -162.5884
  11   1.0000      -5.972480      -162.5195
  12   1.0000      -5.970942      -162.4776
  13   1.0000      -1.139802       -31.0156
  14   1.0000      -0.914251       -24.8780
  15   1.0000      -0.844993       -22.9934
  16   1.0000      -0.799391       -21.7525
  17   1.0000      -0.772758       -21.0278
  18   1.0000      -0.714036       -19.4299
  19   1.0000      -0.656668       -17.8689
  20   1.0000      -0.623405       -16.9637
  21   1.0000      -0.571398       -15.5485
  22   1.0000      -0.541774       -14.7424
  23   1.0000      -0.515946       -14.0396
  24   1.0000      -0.514933       -14.0120
  25   1.0000      -0.476588       -12.9686
  26   1.0000      -0.464395       -12.6368
  27   1.0000      -0.456451       -12.4207
  28   1.0000      -0.432549       -11.7703
  29   1.0000      -0.431466       -11.7408
  30   1.0000      -0.399149       -10.8614
  31   1.0000      -0.392249       -10.6736
  32   1.0000      -0.389775       -10.6063
  33   1.0000      -0.361665        -9.8414
  34   1.0000      -0.331129        -9.0105
  35   1.0000      -0.304874        -8.2961
  36   1.0000      -0.253143        -6.8884
  37   0.0000      -0.059712        -1.6248
  38   0.0000      -0.052380        -1.4253
  39   0.0000      -0.023802        -0.6477
  40   0.0000      -0.004015        -0.1093
  41   0.0000      -0.001161        -0.0316

                 SPIN DOWN ORBITALS
  NO   OCC          E(Eh)            E(eV)
   0   1.0000     -88.959011     -2420.6978
   1   1.0000     -19.219428      -522.9872
   2   1.0000     -10.298620      -280.2397
   3   1.0000     -10.270027      -279.4616
   4   1.0000     -10.239102      -278.6201
   5   1.0000     -10.229116      -278.3484
   6   1.0000     -10.225687      -278.2551
   7   1.0000     -10.219902      -278.0977
   8   1.0000     -10.219717      -278.0926
   9   1.0000      -8.010240      -217.9697
  10   1.0000      -5.973967      -162.5599
  11   1.0000      -5.969958      -162.4508
  12   1.0000      -5.966495      -162.3566
  13   1.0000      -1.131049       -30.7774
  14   1.0000      -0.907267       -24.6880
  15   1.0000      -0.837169       -22.7805
  16   1.0000      -0.797132       -21.6911
  17   1.0000      -0.768334       -20.9074
  18   1.0000      -0.706020       -19.2118
  19   1.0000      -0.652555       -17.7569
  20   1.0000      -0.618946       -16.8424
  21   1.0000      -0.568800       -15.4778
  22   1.0000      -0.539726       -14.6867
  23   1.0000      -0.512689       -13.9510
  24   1.0000      -0.498797       -13.5729
  25   1.0000      -0.474246       -12.9049
  26   1.0000      -0.463392       -12.6095
  27   1.0000      -0.454159       -12.3583
  28   1.0000      -0.429686       -11.6923
  29   1.0000      -0.417035       -11.3481
  30   1.0000      -0.397166       -10.8074
  31   1.0000      -0.385435       -10.4882
  32   1.0000      -0.374568       -10.1925
  33   1.0000      -0.358732        -9.7616
  34   1.0000      -0.304558        -8.2875
  35   1.0000      -0.299280        -8.1438
  36   0.0000      -0.184565        -5.0223
  37   0.0000      -0.043666        -1.1882
  38   0.0000      -0.034468        -0.9379
  39   0.0000      -0.022199        -0.6041
  40   0.0000      -0.003406        -0.0927

MULLIKEN ATOMIC CHARGES AND SPIN POPULATIONS
--------------------------------------------
   0 C :    0.753161    0.197010
   1 C :   -0.650224   -0.007669
   2 C :   -0.770833    0.056437
   3 C :    1.213846    0.174362
   4 C :   -0.262886    0.038054
   5 C :   -0.765049    0.052620
   6 H :    0.493109   -0.002733
   7 H :    0.444415    0.006457
   8 O :   -0.622931    0.154202
   9 C :   -0.638858   -0.010517
  10 H :    0.263161    0.000771
  11 H :    0.307813    0.007384
  12 H :    0.307499    0.007170
  13 H :    0.572456    0.001919
  14 H :    0.369284   -0.000363
  15 S :   -0.183923    0.347313
  16 H :    0.169961   -0.022417
Sum of atomic charges         :    1.0000000

LOEWDIN ATOMIC CHARGES AND SPIN POPULATIONS
-------------------------------------------
   0 C :   -0.543947    0.166703
   1 C :    0.177437    0.046237
   2 C :    0.258553    0.065880
   3 C :   -0.345558    0.130564
   4 C :    0.261382    0.062765
   5 C :    0.158159    0.062435
   6 H :   -0.157622    0.003845
   7 H :   -0.156109    0.005931
   8 O :    0.646801    0.140537
   9 C :    0.412777    0.015001
  10 H :   -0.155822   -0.000330
  11 H :   -0.144756    0.003974
  12 H :   -0.144706    0.003975
  13 H :   -0.141549    0.007148
  14 H :   -0.158350    0.000374
  15 S :    1.493331    0.249056
  16 H :   -0.460021    0.035905

  Mayer bond orders larger than 0.100000
B(  0-C ,  1-C ) :   0.8370 B(  0-C ,  5-C ) :   1.0127 B(  0-C , 15-S ) :   0.5973
B(  1-C ,  2-C ) :   1.5480 B(  1-C ,  3-C ) :  -0.2682 B(  1-C , 14-H ) :   0.7468
B(  2-C ,  3-C ) :   0.6266 B(  2-C ,  4-C ) :   0.1090 B(  2-C ,  8-O ) :   0.2915
B(  2-C , 13-H ) :   0.3532 B(  3-C ,  4-C ) :   0.9105 B(  3-C ,  5-C ) :  -0.2280
B(  3-C ,  8-O ) :   0.5329 B(  4-C ,  5-C ) :   1.1790 B(  4-C ,  7-H ) :   0.5267
B(  4-C ,  8-O ) :  -0.1342 B(  5-C ,  6-H ) :   0.6114 B(  5-C , 15-S ) :   0.1608
B(  8-O ,  9-C ) :   0.9526 B(  9-C , 10-H ) :   0.9607 B(  9-C , 11-H ) :   0.8883
B(  9-C , 12-H ) :   0.8887 B( 15-S , 16-H ) :   1.0226

Dispersion correction           -0.031594087
FINAL SINGLE POINT ENERGY      -744.696942088828

DIPOLE MOMENT
-------------

Method             : SCF
Type of density    : Electron Density
Multiplicity       :   2
Irrep              :   0
Energy             :  -744.6653480014075512 Eh
Relativity type    :
Basis              : AO
                                X                 Y                 Z
Electronic contribution:      7.785089731       0.867468712       0.001693938
Nuclear contribution   :     -8.043505047      -1.005233306      -0.003147719
                        -----------------------------------------
Total Dipole Moment    :     -0.258415317      -0.137764594      -0.001453781
                        -----------------------------------------
Magnitude (a.u.)       :      0.292847525
Magnitude (Debye)      :      0.744359252

Rotational constants in cm-1:             0.155356             0.023594             0.020567
Rotational constants in MHz :          4657.467859           707.342014           616.570776

                             ****ORCA TERMINATED NORMALLY****
TOTAL RUN TIME: 0 days 0 hours 6 minutes 9 seconds 790 msec
