                         Program Version 6.0.0  -   RELEASE  -
|  1> !r2SCANh freq aug-cc-pVTZ d3 TightSCF SlowConv RIJCOSX defgrid2
|  2>
|  3> %pal
|  4> nprocs 12
|  5> end
|  6>
|  7> %scf
|  8> MaxIter 1500
|  9> end
| 10>
| 11> %maxcore 5000
| 12>
| 13> !CPCM
| 14> %cpcm smd true
| 15> SMDsolvent "MeCN"
| 16> surfacetype gepol_ses
| 17> rsolv 2.19
| 18> end
| 19>
| 20> * xyz 1 2
| 21> C          -0.70855827876135     -1.06415984401035     -0.00253912310191
| 22> C          -1.29048110885007      0.22897283966102     -0.00038427984072
| 23> C          -0.48127392991113      1.39958823446631     -0.00115880130993
| 24> C           0.87021855581982      1.28174317098550     -0.00130579798002
| 25> C           1.46753154660352     -0.00896157769532     -0.00124212853547
| 26> C           0.64649609128157     -1.17305691816846     -0.00272166122766
| 27> H           1.11737347478932     -2.14453697946811     -0.00351312863188
| 28> C           2.84987355043543     -0.14031874541158      0.00080422592238
| 29> C           4.05559979984322     -0.25770322888255      0.00274126613686
| 30> H           5.11721482837083     -0.35785274493599      0.00403038784337
| 31> H           1.50303472295414      2.15599715400300     -0.00168946521679
| 32> H          -0.97099086216359      2.36224739897105     -0.00080096483714
| 33> O          -2.57500147172444      0.44522930750444      0.00253549935526
| 34> C          -3.50376924257316     -0.66216979173413      0.00204275045070
| 35> H          -4.48435567037377     -0.20374929214070      0.00075870325041
| 36> H          -3.35848040200360     -1.25908407996313     -0.89421803141696
| 37> H          -3.36062370833100     -1.25854299264476      0.89915684286645
| 38> H          -1.32806329540573     -1.94615981053625     -0.00229429372693
| 39> *
| 40>
| 41>                          ****END OF INPUT****

CARTESIAN COORDINATES (ANGSTROEM)
---------------------------------
  C     -0.708558   -1.064160   -0.002539
  C     -1.290481    0.228973   -0.000384
  C     -0.481274    1.399588   -0.001159
  C      0.870219    1.281743   -0.001306
  C      1.467532   -0.008962   -0.001242
  C      0.646496   -1.173057   -0.002722
  H      1.117373   -2.144537   -0.003513
  C      2.849874   -0.140319    0.000804
  C      4.055600   -0.257703    0.002741
  H      5.117215   -0.357853    0.004030
  H      1.503035    2.155997   -0.001689
  H     -0.970991    2.362247   -0.000801
  O     -2.575001    0.445229    0.002535
  C     -3.503769   -0.662170    0.002043
  H     -4.484356   -0.203749    0.000759
  H     -3.358480   -1.259084   -0.894218
  H     -3.360624   -1.258543    0.899157
  H     -1.328063   -1.946160   -0.002294

 Total Charge           Charge          ....    1
 Multiplicity           Mult            ....    2
 Number of Electrons    NEL             ....   69
 Basis Dimension        Dim             ....  644

ORBITAL ENERGIES
----------------
                 SPIN UP ORBITALS
  NO   OCC          E(Eh)            E(eV)
   0   1.0000     -19.227005      -523.1934
   1   1.0000     -10.293972      -280.1132
   2   1.0000     -10.248556      -278.8774
   3   1.0000     -10.222117      -278.1579
   4   1.0000     -10.213362      -277.9197
   5   1.0000     -10.208992      -277.8008
   6   1.0000     -10.207983      -277.7734
   7   1.0000     -10.206528      -277.7337
   8   1.0000     -10.206414      -277.7307
   9   1.0000     -10.202899      -277.6350
  10   1.0000      -1.150781       -31.3143
  11   1.0000      -0.917531       -24.9673
  12   1.0000      -0.837490       -22.7893
  13   1.0000      -0.806265       -21.9396
  14   1.0000      -0.782896       -21.3037
  15   1.0000      -0.739608       -20.1258
  16   1.0000      -0.662117       -18.0171
  17   1.0000      -0.644187       -17.5292
  18   1.0000      -0.584383       -15.9019
  19   1.0000      -0.562909       -15.3175
  20   1.0000      -0.530710       -14.4413
  21   1.0000      -0.527873       -14.3642
  22   1.0000      -0.513550       -13.9744
  23   1.0000      -0.472115       -12.8469
  24   1.0000      -0.459867       -12.5136
  25   1.0000      -0.443796       -12.0763
  26   1.0000      -0.431195       -11.7334
  27   1.0000      -0.425771       -11.5858
  28   1.0000      -0.394084       -10.7236
  29   1.0000      -0.391180       -10.6445
  30   1.0000      -0.357909        -9.7392
  31   1.0000      -0.336290        -9.1509
  32   1.0000      -0.313317        -8.5258
  33   1.0000      -0.304905        -8.2969
  34   1.0000      -0.267964        -7.2917
  35   0.0000      -0.094129        -2.5614
  36   0.0000      -0.063139        -1.7181
  37   0.0000      -0.005458        -0.1485
  38   0.0000       0.006274         0.1707
  39   0.0000       0.018308         0.4982

                 SPIN DOWN ORBITALS
  NO   OCC          E(Eh)            E(eV)
   0   1.0000     -19.220615      -523.0195
   1   1.0000     -10.291520      -280.0465
   2   1.0000     -10.242608      -278.7155
   3   1.0000     -10.222312      -278.1633
   4   1.0000     -10.213904      -277.9345
   5   1.0000     -10.209259      -277.8081
   6   1.0000     -10.205757      -277.7128
   7   1.0000     -10.204798      -277.6867
   8   1.0000     -10.204314      -277.6735
   9   1.0000     -10.201762      -277.6041
  10   1.0000      -1.140799       -31.0427
  11   1.0000      -0.909729       -24.7550
  12   1.0000      -0.828429       -22.5427
  13   1.0000      -0.804143       -21.8818
  14   1.0000      -0.774456       -21.0740
  15   1.0000      -0.731010       -19.8918
  16   1.0000      -0.657415       -17.8892
  17   1.0000      -0.640142       -17.4191
  18   1.0000      -0.581574       -15.8254
  19   1.0000      -0.559352       -15.2208
  20   1.0000      -0.528900       -14.3921
  21   1.0000      -0.524038       -14.2598
  22   1.0000      -0.494963       -13.4686
  23   1.0000      -0.469533       -12.7767
  24   1.0000      -0.459185       -12.4951
  25   1.0000      -0.441847       -12.0233
  26   1.0000      -0.424841       -11.5605
  27   1.0000      -0.413982       -11.2650
  28   1.0000      -0.392623       -10.6838
  29   1.0000      -0.372378       -10.1329
  30   1.0000      -0.354800        -9.6546
  31   1.0000      -0.312164        -8.4944
  32   1.0000      -0.310596        -8.4518
  33   1.0000      -0.299670        -8.1544
  34   0.0000      -0.205509        -5.5922
  35   0.0000      -0.065996        -1.7958
  36   0.0000      -0.051628        -1.4049
  37   0.0000      -0.005066        -0.1379
  38   0.0000       0.007082         0.1927

MULLIKEN ATOMIC CHARGES AND SPIN POPULATIONS
--------------------------------------------
   0 C :   -0.114468    0.090274
   1 C :    1.465728    0.122460
   2 C :   -0.756239    0.131380
   3 C :   -1.122237   -0.125216
   4 C :    1.672823    0.435612
   5 C :   -1.198820   -0.065361
   6 H :   -0.311784   -0.005732
   7 C :    1.295471   -0.151743
   8 C :   -0.726695    0.357693
   9 H :    0.323695    0.010669
  10 H :   -0.272417   -0.009682
  11 H :    0.627250    0.008829
  12 O :   -0.657955    0.185610
  13 C :   -0.659864   -0.017336
  14 H :    0.254369   -0.001054
  15 H :    0.309507    0.008084
  16 H :    0.309359    0.008214
  17 H :    0.562277    0.017298
Sum of atomic charges         :    1.0000000

LOEWDIN ATOMIC CHARGES AND SPIN POPULATIONS
-------------------------------------------
   0 C :    0.289481    0.072839
   1 C :   -0.329753    0.128608
   2 C :    0.283443    0.079817
   3 C :    0.261547    0.023703
   4 C :   -0.154001    0.142032
   5 C :    0.271834    0.041876
   6 H :   -0.142189   -0.001729
   7 C :    0.056244    0.067102
   8 C :    0.511063    0.201450
   9 H :   -0.243303    0.048228
  10 H :   -0.145412   -0.006370
  11 H :   -0.148639    0.012750
  12 O :    0.664562    0.155801
  13 C :    0.463518    0.015171
  14 H :   -0.162684   -0.000542
  15 H :   -0.154378    0.004175
  16 H :   -0.153837    0.004194
  17 H :   -0.167494    0.010894

  Mayer bond orders larger than 0.100000
B(  0-C ,  1-C ) :   0.7937 B(  0-C ,  2-C ) :   0.1432 B(  0-C ,  4-C ) :   0.7723
B(  0-C ,  5-C ) :   1.1583 B(  0-C ,  6-H ) :  -0.1906 B(  0-C ,  7-C ) :  -0.2397
B(  0-C ,  8-C ) :  -0.1147 B(  0-C , 10-H ) :  -0.1233 B(  0-C , 11-H ) :  -0.1155
B(  0-C , 17-H ) :   0.2937 B(  1-C ,  2-C ) :   0.5858 B(  1-C ,  3-C ) :  -0.5516
B(  1-C ,  4-C ) :  -0.1964 B(  1-C ,  5-C ) :  -0.5374 B(  1-C ,  7-C ) :   0.3118
B(  1-C ,  8-C ) :   0.1189 B(  1-C , 10-H ) :  -0.1074 B(  1-C , 11-H ) :   0.1970
B(  1-C , 12-O ) :   0.3973 B(  1-C , 17-H ) :   0.1737 B(  2-C ,  3-C ) :   1.4319
B(  2-C ,  4-C ) :   0.5750 B(  2-C ,  7-C ) :  -0.1145 B(  2-C , 11-H ) :   0.1864
B(  2-C , 12-O ) :   0.3273 B(  3-C ,  5-C ) :  -0.5845 B(  3-C ,  6-H ) :   0.2647
B(  3-C ,  7-C ) :   0.4240 B(  3-C , 10-H ) :   2.1530 B(  4-C ,  5-C ) :   0.1061
B(  4-C ,  6-H ) :  -0.1344 B(  4-C ,  8-C ) :   0.8391 B(  4-C , 12-O ) :   0.1250
B(  5-C ,  6-H ) :   2.2617 B(  5-C ,  7-C ) :   0.3275 B(  5-C ,  8-C ) :  -0.1722
B(  5-C , 10-H ) :   0.2380 B(  6-H ,  7-C ) :  -0.3549 B(  6-H ,  8-C ) :  -0.4008
B(  6-H , 10-H ) :   0.4977 B(  6-H , 11-H ) :  -0.1069 B(  6-H , 17-H ) :  -0.1104
B(  7-C ,  8-C ) :   1.7219 B(  7-C ,  9-H ) :  -0.3016 B(  7-C , 10-H ) :  -0.4431
B(  7-C , 11-H ) :   0.1201 B(  7-C , 17-H ) :   0.1390 B(  8-C ,  9-H ) :   1.2597
B(  8-C , 10-H ) :  -0.4037 B(  8-C , 11-H ) :   0.1654 B(  8-C , 17-H ) :   0.2387
B( 10-H , 11-H ) :  -0.1135 B( 12-O , 13-C ) :   0.9561 B( 13-C , 14-H ) :   0.9822
B( 13-C , 15-H ) :   0.8801 B( 13-C , 16-H ) :   0.8805

Dispersion correction           -0.005764634
FINAL SINGLE POINT ENERGY      -422.613189411121

DIPOLE MOMENT
-------------

Method             : SCF
Type of density    : Electron Density
Multiplicity       :   2
Irrep              :   0
Energy             :  -422.6074247767727456 Eh
Relativity type    :
Basis              : AO
                                X                 Y                 Z
Electronic contribution:      5.097785676       1.785060367      -0.001693803
Nuclear contribution   :     -5.440999202      -2.463701896       0.001561054
                        -----------------------------------------
Total Dipole Moment    :     -0.343213526      -0.678641530      -0.000132749
                        -----------------------------------------
Magnitude (a.u.)       :      0.760493174
Magnitude (Debye)      :      1.933020030

VIBRATIONAL FREQUENCIES
-----------------------

Scaling factor for frequencies =  1.000000000  (already applied!)

     0:       0.00 cm**-1
     1:       0.00 cm**-1
     2:       0.00 cm**-1
     3:       0.00 cm**-1
     4:       0.00 cm**-1
     5:       0.00 cm**-1
     6:      45.15 cm**-1
     7:     123.42 cm**-1
     8:     132.89 cm**-1
     9:     150.45 cm**-1
    10:     236.30 cm**-1
    11:     250.98 cm**-1
    12:     375.09 cm**-1
    13:     387.13 cm**-1
    14:     396.27 cm**-1
    15:     502.14 cm**-1
    16:     530.95 cm**-1
    17:     535.36 cm**-1
    18:     622.28 cm**-1
    19:     657.46 cm**-1
    20:     670.59 cm**-1
    21:     707.76 cm**-1
    22:     761.92 cm**-1
    23:     779.96 cm**-1
    24:     825.33 cm**-1
    25:     864.87 cm**-1
    26:     994.14 cm**-1
    27:     996.32 cm**-1
    28:    1000.61 cm**-1
    29:    1001.91 cm**-1
    30:    1134.72 cm**-1
    31:    1164.61 cm**-1
    32:    1184.69 cm**-1
    33:    1205.54 cm**-1
    34:    1265.42 cm**-1
    35:    1306.18 cm**-1
    36:    1359.97 cm**-1
    37:    1374.11 cm**-1
    38:    1454.04 cm**-1
    39:    1476.03 cm**-1
    40:    1479.53 cm**-1
    41:    1486.89 cm**-1
    42:    1528.34 cm**-1
    43:    1531.48 cm**-1
    44:    1666.23 cm**-1
    45:    2107.67 cm**-1
    46:    3080.25 cm**-1
    47:    3176.60 cm**-1
    48:    3214.24 cm**-1
    49:    3225.74 cm**-1
    50:    3231.25 cm**-1
    51:    3239.91 cm**-1
    52:    3253.24 cm**-1
    53:    3436.67 cm**-1

IR SPECTRUM
-----------

 Mode   freq       eps      Int      T**2         TX        TY        TZ
       cm**-1   L/(mol*cm) km/mol    a.u.
----------------------------------------------------------------------------
  6:     45.15   0.000227    1.15  0.001567  (-0.001271 -0.001576  0.039533)
  7:    123.42   0.000661    3.34  0.001671  ( 0.009954 -0.039580 -0.002251)
  8:    132.89   0.000195    0.99  0.000458  (-0.000622  0.003151 -0.021165)
  9:    150.45   0.000235    1.19  0.000488  (-0.002356 -0.001692  0.021889)
 10:    236.30   0.003369   17.03  0.004449  (-0.001789 -0.000092 -0.066679)
 11:    250.98   0.001785    9.02  0.002220  (-0.046934 -0.004094  0.000509)
 12:    375.09   0.000641    3.24  0.000533  ( 0.000694 -0.000136 -0.023074)
 13:    387.13   0.000010    0.05  0.000008  ( 0.002739  0.000881  0.000427)
 14:    396.27   0.001175    5.94  0.000925  (-0.000489 -0.000151  0.030417)
 15:    502.14   0.004330   21.88  0.002691  ( 0.041155 -0.031575 -0.000345)
 16:    530.95   0.002931   14.81  0.001723  ( 0.000428  0.000145 -0.041501)
 17:    535.36   0.001444    7.30  0.000842  (-0.021646 -0.019297 -0.000892)
 18:    622.28   0.002112   10.67  0.001059  (-0.012228 -0.030144  0.000941)
 19:    657.46   0.013494   68.19  0.006405  (-0.007098 -0.078371  0.014577)
 20:    670.59   0.009497   47.99  0.004419  ( 0.000971  0.017881  0.064022)
 21:    707.76   0.010905   55.11  0.004808  (-0.067160  0.017255  0.000149)
 22:    761.92   0.000121    0.61  0.000050  ( 0.000077  0.000137  0.007035)
 23:    779.96   0.000111    0.56  0.000045  (-0.000412  0.000384 -0.006652)
 24:    825.33   0.002917   14.74  0.001103  ( 0.031022  0.011848  0.000300)
 25:    864.87   0.025957  131.18  0.009366  (-0.000492  0.000189  0.096776)
 26:    994.14   0.003882   19.62  0.001219  (-0.010924 -0.033153 -0.000367)
 27:    996.32   0.000148    0.75  0.000046  (-0.003329 -0.004089  0.004298)
 28:   1000.61   0.000113    0.57  0.000035  (-0.005449 -0.001359 -0.001901)
 29:   1001.91   0.028698  145.03  0.008939  ( 0.090599  0.027028  0.000078)
 30:   1134.72   0.004903   24.78  0.001348  (-0.006180 -0.036195 -0.000051)
 31:   1164.61   0.000060    0.30  0.000016  ( 0.000792 -0.000454  0.003907)
 32:   1184.69   0.003386   17.11  0.000892  ( 0.028329  0.009456 -0.000114)
 33:   1205.54   0.001039    5.25  0.000269  (-0.016350 -0.001275 -0.000145)
 34:   1265.42   0.022261  112.50  0.005490  (-0.074089  0.000812 -0.000083)
 35:   1306.18   0.000078    0.39  0.000019  (-0.004062  0.001446 -0.000012)
 36:   1359.97   0.017689   89.39  0.004059  ( 0.055487  0.031308  0.000052)
 37:   1374.11   0.097961  495.05  0.022247  ( 0.148735 -0.011184 -0.000014)
 38:   1454.04   0.041862  211.55  0.008984  (-0.090256  0.028949  0.000343)
 39:   1476.03   0.005742   29.02  0.001214  ( 0.015500 -0.000118  0.031204)
 40:   1479.53   0.021591  109.11  0.004554  (-0.067052 -0.001023  0.007547)
 41:   1486.89   0.003845   19.43  0.000807  ( 0.023560  0.015868 -0.000254)
 42:   1528.34   0.066114  334.12  0.013500  ( 0.114335  0.020666  0.000013)
 43:   1531.48   0.098958  500.09  0.020164  (-0.138512  0.031282  0.000079)
 44:   1666.23   0.004576   23.13  0.000857  ( 0.029118  0.003027 -0.000073)
 45:   2107.67   0.229155  1158.05  0.033929  ( 0.183773 -0.012498  0.000102)
 46:   3080.25   0.003818   19.30  0.000387  (-0.017724 -0.008523 -0.000236)
 47:   3176.60   0.001037    5.24  0.000102  ( 0.000689  0.000470  0.010058)
 48:   3214.24   0.003134   15.84  0.000304  (-0.017332  0.001976  0.000067)
 49:   3225.74   0.000297    1.50  0.000029  (-0.001594 -0.005115 -0.000087)
 50:   3231.25   0.000006    0.03  0.000001  ( 0.000659  0.000393 -0.000062)
 51:   3239.91   0.000502    2.54  0.000048  (-0.004794 -0.005037 -0.000026)
 52:   3253.24   0.001107    5.59  0.000106  (-0.001174  0.010236  0.000059)
 53:   3436.67   0.014216   71.84  0.001291  ( 0.035754 -0.003530  0.000008)

--------------------------
THERMOCHEMISTRY AT 298.15K
--------------------------

Temperature         ...   298.15 K
Pressure            ...     1.00 atm
Total Mass          ...   132.16 AMU
Quasi RRHO          ...     True
Cut-Off Frequency   ...     1.00 cm^-1

Throughout the following assumptions are being made:
  (1) The electronic state is orbitally nondegenerate
      but the spin degeneracy is treated
  (2) There are no thermally accessible electronically excited states
  (3) Hindered rotations indicated by low frequency modes are not
      treated as such but are treated as vibrations and this may
      cause some error
  (4) All equations used are the standard statistical mechanics
      equations for an ideal gas
  (5) All vibrations are strictly harmonic

freq.      45.15  E(vib)   ...       0.53
freq.     123.42  E(vib)   ...       0.43
freq.     132.89  E(vib)   ...       0.42
freq.     150.45  E(vib)   ...       0.40
freq.     236.30  E(vib)   ...       0.32
freq.     250.98  E(vib)   ...       0.30
freq.     375.09  E(vib)   ...       0.21
freq.     387.13  E(vib)   ...       0.20
freq.     396.27  E(vib)   ...       0.20
freq.     502.14  E(vib)   ...       0.14
freq.     530.95  E(vib)   ...       0.13
freq.     535.36  E(vib)   ...       0.13
freq.     622.28  E(vib)   ...       0.09
freq.     657.46  E(vib)   ...       0.08
freq.     670.59  E(vib)   ...       0.08
freq.     707.76  E(vib)   ...       0.07
freq.     761.92  E(vib)   ...       0.06
freq.     779.96  E(vib)   ...       0.05
freq.     825.33  E(vib)   ...       0.04
freq.     864.87  E(vib)   ...       0.04
freq.     994.14  E(vib)   ...       0.02
freq.     996.32  E(vib)   ...       0.02
freq.    1000.61  E(vib)   ...       0.02
freq.    1001.91  E(vib)   ...       0.02
freq.    1134.72  E(vib)   ...       0.01
freq.    1164.61  E(vib)   ...       0.01
freq.    1184.69  E(vib)   ...       0.01
freq.    1205.54  E(vib)   ...       0.01
freq.    1265.42  E(vib)   ...       0.01
freq.    1306.18  E(vib)   ...       0.01
freq.    1359.97  E(vib)   ...       0.01
freq.    1374.11  E(vib)   ...       0.01
freq.    1454.04  E(vib)   ...       0.00
freq.    1476.03  E(vib)   ...       0.00
freq.    1479.53  E(vib)   ...       0.00
freq.    1486.89  E(vib)   ...       0.00
freq.    1528.34  E(vib)   ...       0.00
freq.    1531.48  E(vib)   ...       0.00
freq.    1666.23  E(vib)   ...       0.00
freq.    2107.67  E(vib)   ...       0.00
freq.    3080.25  E(vib)   ...       0.00
freq.    3176.60  E(vib)   ...       0.00
freq.    3214.24  E(vib)   ...       0.00
freq.    3225.74  E(vib)   ...       0.00
freq.    3231.25  E(vib)   ...       0.00
freq.    3239.91  E(vib)   ...       0.00
freq.    3253.24  E(vib)   ...       0.00
freq.    3436.67  E(vib)   ...       0.00

------------
INNER ENERGY
------------

The inner energy is: U= E(el) + E(ZPE) + E(vib) + E(rot) + E(trans)
    E(el)   - is the total energy from the electronic structure calculation
              = E(kin-el) + E(nuc-el) + E(el-el) + E(nuc-nuc)
    E(ZPE)  - the the zero temperature vibrational energy from the frequency calculation
    E(vib)  - the the finite temperature correction to E(ZPE) due to population
              of excited vibrational states
    E(rot)  - is the rotational thermal energy
    E(trans)- is the translational thermal energy

Summary of contributions to the inner energy U:
Electronic energy                ...   -422.61318941 Eh
Zero point energy                ...      0.14154854 Eh      88.82 kcal/mol
Thermal vibrational correction   ...      0.00655598 Eh       4.11 kcal/mol
Thermal rotational correction    ...      0.00141627 Eh       0.89 kcal/mol
Thermal translational correction ...      0.00141627 Eh       0.89 kcal/mol
-----------------------------------------------------------------------
Total thermal energy                   -422.46225234 Eh

Summary of corrections to the electronic energy:
(perhaps to be used in another calculation)
Total thermal correction                  0.00938853 Eh       5.89 kcal/mol
Non-thermal (ZPE) correction              0.14154854 Eh      88.82 kcal/mol
-----------------------------------------------------------------------
Total correction                          0.15093707 Eh      94.71 kcal/mol

--------
ENTHALPY
--------

The enthalpy is H = U + kB*T
                kB is Boltzmann's constant
Total thermal energy              ...   -422.46225234 Eh
Thermal Enthalpy correction       ...      0.00094421 Eh       0.59 kcal/mol
-----------------------------------------------------------------------
Total Enthalpy                    ...   -422.46130813 Eh

Note: Only C1 symmetry has been detected, increase convergence thresholds
      if your molecule has a higher symmetry. Symmetry factor of 1.0 is
      used for the rotational entropy correction.

Note: Rotational entropy computed according to Herzberg
Infrared and Raman Spectra, Chapter V,1, Van Nostrand Reinhold, 1945
Point Group:  C1, Symmetry Number:   1
Rotational constants in cm-1:     0.157206     0.024264     0.021105

Vibrational entropy computed according to the QRRHO of S. Grimme
Chem.Eur.J. 2012 18 9955 using a reference frequency of 100.0 cm-1

-------
ENTROPY
-------

The entropy contributions are T*S = T*(S(el)+S(vib)+S(rot)+S(trans))
     S(el)   - electronic entropy
     S(vib)  - vibrational entropy
     S(rot)  - rotational entropy
     S(trans)- translational entropy
The entropies will be listed as multiplied by the temperature to get
units of energy

Electronic entropy                ...      0.00065446 Eh      0.41 kcal/mol
Vibrational entropy               ...      0.01115860 Eh      7.00 kcal/mol
Rotational entropy                ...      0.01396129 Eh      8.76 kcal/mol
Translational entropy             ...      0.01926618 Eh     12.09 kcal/mol
-----------------------------------------------------------------------
Final entropy term                ...      0.04504053 Eh     28.26 kcal/mol

In case the symmetry of your molecule has not been determined correctly
or in case you have a reason to use a different symmetry number we print
out the resulting rotational entropy values for sn=1,12:

 non-linear molecules -----------------------------------
|  sn= 1 | S(rot)=       0.01396129 Eh      8.76 kcal/mol|
|  sn= 2 | S(rot)=       0.01330684 Eh      8.35 kcal/mol|
|  sn= 3 | S(rot)=       0.01292401 Eh      8.11 kcal/mol|
|  sn= 4 | S(rot)=       0.01265238 Eh      7.94 kcal/mol|
|  sn= 5 | S(rot)=       0.01244169 Eh      7.81 kcal/mol|
|  sn= 6 | S(rot)=       0.01226955 Eh      7.70 kcal/mol|
|  sn= 7 | S(rot)=       0.01212400 Eh      7.61 kcal/mol|
|  sn= 8 | S(rot)=       0.01199793 Eh      7.53 kcal/mol|
|  sn= 9 | S(rot)=       0.01188672 Eh      7.46 kcal/mol|
|  sn=10 | S(rot)=       0.01178724 Eh      7.40 kcal/mol|
|  sn=11 | S(rot)=       0.01169725 Eh      7.34 kcal/mol|

                             ****ORCA TERMINATED NORMALLY****
TOTAL RUN TIME: 0 days 1 hours 1 minutes 39 seconds 448 msec
