                         Program Version 6.0.0  -   RELEASE  -
|  1> !PBE0 aug-cc-pVTZ d3 TightSCF SlowConv RIJCOSX defgrid2
|  2>
|  3> %pal
|  4> nprocs 4
|  5> end
|  6>
|  7> %scf
|  8> MaxIter 1500
|  9> end
| 10>
| 11> %maxcore 3000
| 12>
| 13> !CPCM
| 14> %cpcm smd true
| 15> SMDsolvent "MeCN"
| 16> surfacetype gepol_ses
| 17> rsolv 2.19
| 18> end
| 19>
| 20> * xyz 0 1
| 21> C          -0.09723520138673     -1.03437639103764      0.00347054225631
| 22> C          -1.47492894930884     -1.20047361725562      0.00696317861110
| 23> C          -2.34578623174672     -0.10040313113454      0.00646178626940
| 24> C          -1.77456389354337      1.17444029815347      0.00609068858276
| 25> C          -0.39219290951861      1.34431389323203      0.00262007400835
| 26> C           0.48066721969256      0.24734111354836      0.00061801253520
| 27> C           1.92745712323043      0.48416048286104     -0.00147397271183
| 28> C           2.90821751377421     -0.43224406598278     -0.00115903608211
| 29> C           4.36623513102305     -0.11505487673646     -0.00400250033420
| 30> H           4.87200794201926     -0.54390247209158      0.88189528271805
| 31> H           4.86926753302145     -0.54728733840504     -0.88981811387895
| 32> H           4.54542156577808      0.97343112133202     -0.00638255069427
| 33> H           2.64848728832259     -1.49940771664298      0.00136069468406
| 34> H           2.21863839458192      1.54365509753515     -0.00378021817366
| 35> H           0.02556550649537      2.35646498548500      0.00378810560732
| 36> H          -2.42480036039019      2.05550589684769      0.01005021755173
| 37> C          -3.83450513941386     -0.29675754696210     -0.01137750175061
| 38> H          -4.36818359568584      0.64375253893058      0.20246833077396
| 39> H          -4.17808733966479     -0.65741939040861     -0.99869388532750
| 40> H          -4.15169482101390     -1.04597884024218      0.73497377180135
| 41> H          -1.89116416828829     -2.21365122416981      0.01168808196327
| 42> H           0.54303149202221     -1.92102021685601      0.00533651159029
| 43> *
| 44>
| 45>                          ****END OF INPUT****

CARTESIAN COORDINATES (ANGSTROEM)
---------------------------------
  C     -0.097235   -1.034376    0.003471
  C     -1.474929   -1.200474    0.006963
  C     -2.345786   -0.100403    0.006462
  C     -1.774564    1.174440    0.006091
  C     -0.392193    1.344314    0.002620
  C      0.480667    0.247341    0.000618
  C      1.927457    0.484160   -0.001474
  C      2.908218   -0.432244   -0.001159
  C      4.366235   -0.115055   -0.004003
  H      4.872008   -0.543902    0.881895
  H      4.869268   -0.547287   -0.889818
  H      4.545422    0.973431   -0.006383
  H      2.648487   -1.499408    0.001361
  H      2.218638    1.543655   -0.003780
  H      0.025566    2.356465    0.003788
  H     -2.424800    2.055506    0.010050
  C     -3.834505   -0.296758   -0.011378
  H     -4.368184    0.643753    0.202468
  H     -4.178087   -0.657419   -0.998694
  H     -4.151695   -1.045979    0.734974
  H     -1.891164   -2.213651    0.011688
  H      0.543031   -1.921020    0.005337

 Total Charge           Charge          ....    0
 Multiplicity           Mult            ....    1
 Number of Electrons    NEL             ....   72
 Basis Dimension        Dim             ....  736

ORBITAL ENERGIES
----------------

  NO   OCC          E(Eh)            E(eV)
   0   2.0000     -10.238917      -278.6151
   1   2.0000     -10.238688      -278.6089
   2   2.0000     -10.229500      -278.3588
   3   2.0000     -10.228651      -278.3357
   4   2.0000     -10.227986      -278.3177
   5   2.0000     -10.226660      -278.2816
   6   2.0000     -10.225934      -278.2618
   7   2.0000     -10.224781      -278.2304
   8   2.0000     -10.215805      -277.9862
   9   2.0000     -10.215454      -277.9766
  10   2.0000      -0.888483       -24.1768
  11   2.0000      -0.828076       -22.5331
  12   2.0000      -0.787046       -21.4166
  13   2.0000      -0.766931       -20.8693
  14   2.0000      -0.724874       -19.7248
  15   2.0000      -0.675765       -18.3885
  16   2.0000      -0.628195       -17.0940
  17   2.0000      -0.601497       -16.3676
  18   2.0000      -0.562255       -15.2997
  19   2.0000      -0.516943       -14.0667
  20   2.0000      -0.481730       -13.1085
  21   2.0000      -0.464708       -12.6454
  22   2.0000      -0.441683       -12.0188
  23   2.0000      -0.428416       -11.6578
  24   2.0000      -0.425777       -11.5860
  25   2.0000      -0.421500       -11.4696
  26   2.0000      -0.418457       -11.3868
  27   2.0000      -0.386904       -10.5282
  28   2.0000      -0.385112       -10.4794
  29   2.0000      -0.380754       -10.3608
  30   2.0000      -0.359997        -9.7960
  31   2.0000      -0.349706        -9.5160
  32   2.0000      -0.337908        -9.1950
  33   2.0000      -0.302030        -8.2186
  34   2.0000      -0.268504        -7.3064
  35   2.0000      -0.226601        -6.1661
  36   0.0000      -0.034435        -0.9370
  37   0.0000      -0.011155        -0.3035
  38   0.0000       0.003016         0.0821
  39   0.0000       0.010356         0.2818
  40   0.0000       0.015971         0.4346

MULLIKEN ATOMIC CHARGES
-----------------------
   0 C :   -0.843228
   1 C :   -1.181669
   2 C :    1.048453
   3 C :   -0.956646
   4 C :   -1.096498
   5 C :    1.875142
   6 C :   -0.120339
   7 C :   -0.340120
   8 C :   -0.859027
   9 H :    0.223479
  10 H :    0.217203
  11 H :    0.289196
  12 H :    0.340859
  13 H :    0.154201
  14 H :    0.299700
  15 H :    0.411862
  16 C :   -0.696380
  17 H :    0.252774
  18 H :    0.272900
  19 H :    0.267500
  20 H :    0.369863
  21 H :    0.070775
Sum of atomic charges:   -0.0000000

LOEWDIN ATOMIC CHARGES
----------------------
   0 C :    0.202839
   1 C :    0.206987
   2 C :   -0.148133
   3 C :    0.206274
   4 C :    0.197225
   5 C :   -0.157395
   6 C :    0.192345
   7 C :    0.192398
   8 C :    0.542941
   9 H :   -0.162628
  10 H :   -0.162608
  11 H :   -0.172333
  12 H :   -0.181275
  13 H :   -0.181576
  14 H :   -0.165029
  15 H :   -0.163968
  16 C :    0.566214
  17 H :   -0.167341
  18 H :   -0.151079
  19 H :   -0.157636
  20 H :   -0.158183
  21 H :   -0.178040

  Mayer bond orders larger than 0.100000
B(  0-C ,  1-C ) :   1.1709 B(  0-C ,  4-C ) :  -0.5442 B(  0-C ,  5-C ) :   0.3924
B(  0-C ,  6-C ) :   0.1515 B(  0-C ,  7-C ) :   0.1086 B(  0-C , 21-H ) :   1.4472
B(  1-C ,  2-C ) :   0.9147 B(  1-C , 20-H ) :   0.7322 B(  2-C ,  3-C ) :   0.8157
B(  2-C ,  6-C ) :   0.1439 B(  2-C , 16-C ) :   0.4854 B(  2-C , 21-H ) :  -0.1058
B(  3-C ,  4-C ) :   1.5773 B(  3-C , 15-H ) :   0.6930 B(  3-C , 16-C ) :  -0.1207
B(  4-C , 14-H ) :   1.0697 B(  5-C ,  6-C ) :   0.2779 B(  5-C ,  7-C ) :  -0.1617
B(  6-C ,  7-C ) :   1.1355 B(  6-C , 13-H ) :   1.0960 B(  6-C , 14-H ) :  -0.1010
B(  7-C ,  8-C ) :   0.8135 B(  7-C , 12-H ) :   1.0369 B(  8-C ,  9-H ) :   0.9891
B(  8-C , 10-H ) :   0.9962 B(  8-C , 11-H ) :   0.8925 B(  8-C , 12-H ) :  -0.1280
B( 14-H , 21-H ) :   0.1215 B( 16-C , 17-H ) :   0.9354 B( 16-C , 18-H ) :   0.9474
B( 16-C , 19-H ) :   0.9362

Dispersion correction           -0.019083332
FINAL SINGLE POINT ENERGY      -387.968203044929

DIPOLE MOMENT
-------------

Method             : SCF
Type of density    : Electron Density
Multiplicity       :   1
Irrep              :   0
Energy             :  -387.9491197128843964 Eh
Relativity type    :
Basis              : AO
                                X                 Y                 Z
Electronic contribution:     -2.552522332       0.663931490       0.031655483
Nuclear contribution   :      2.550584305      -0.802045271      -0.048555466
                        -----------------------------------------
Total Dipole Moment    :     -0.001938027      -0.138113781      -0.016899983
                        -----------------------------------------
Magnitude (a.u.)       :      0.139157399
Magnitude (Debye)      :      0.353709999

Rotational constants in cm-1:             0.159882             0.020202             0.018058
Rotational constants in MHz :          4793.148645           605.632668           541.352924

                             ****ORCA TERMINATED NORMALLY****
TOTAL RUN TIME: 0 days 0 hours 7 minutes 8 seconds 447 msec
