                         Program Version 6.0.0  -   RELEASE  -
|  1> !B3LYP opt aug-cc-pVTZ d3 TightSCF SlowConv RIJCOSX defgrid2
|  2>
|  3> %pal
|  4> nprocs 8
|  5> end
|  6>
|  7> %scf
|  8> MaxIter 1500
|  9> end
| 10>
| 11> %maxcore 3500
| 12>
| 13> !CPCM
| 14> %cpcm smd true
| 15> SMDsolvent "MeCN"
| 16> surfacetype gepol_ses
| 17> rsolv 2.19
| 18> end
| 19>
| 20> * xyz 0 1
| 21> C          -0.33578897576289      0.78706332413970     -0.00007064342653
| 22> C          -1.63104450940735      0.25443214150099      0.00002424994707
| 23> C          -1.80666505085776     -1.13184792287007      0.00010488474499
| 24> C          -0.67709514280741     -1.95709297790421      0.00008171672668
| 25> C           0.60485199074243     -1.42986794226310     -0.00000896897667
| 26> C           0.79403740595386     -0.03404919740528     -0.00007754792200
| 27> C           2.11776775675579      0.59942775277408     -0.00015788147995
| 28> C           3.31301096591764     -0.01037680773538      0.00016998990263
| 29> C           4.62672268480693      0.69670422006693      0.00006613977785
| 30> H           5.22986800286636      0.42062681248378     -0.88556810108390
| 31> H           5.22969209158747      0.42121685919020      0.88600364391119
| 32> H           4.49947065542959      1.79239087728672     -0.00031400154329
| 33> H           3.35830731979376     -1.10765129675188      0.00055685548665
| 34> H           2.10183131012046      1.69773297660842     -0.00050241232510
| 35> H           1.46480294351024     -2.10372145346859     -0.00005885954138
| 36> H          -0.81507815522221     -3.04272899333565      0.00012435061663
| 37> H          -2.80202830314914     -1.57931173714880      0.00017356816380
| 38> O          -2.63880088575063      1.15236499149081      0.00002597094029
| 39> C          -3.95583677666632      0.68525859520605      0.00017372040280
| 40> H          -4.60351833384684      1.57486457447649      0.00019490121742
| 41> H          -4.17725863855936      0.08018155004781      0.90083429325456
| 42> H          -4.17743481291300      0.08009944047560     -0.90038823724126
| 43> H          -0.23264934254160      1.87564721313537     -0.00013303155248
| 44> *
| 45>
| 46>                          ****END OF INPUT****
 Total Charge           Charge          ....    0
 Multiplicity           Mult            ....    1
 Number of Electrons    NEL             ....   80
Dispersion correction           -0.038850084
FINAL SINGLE POINT ENERGY      -463.419808355167
Dispersion correction             ... done (  0.1 sec)
Dispersion correction           -0.038915163
FINAL SINGLE POINT ENERGY      -463.421429132033
Dispersion correction             ... done (  0.1 sec)
Dispersion correction           -0.038935203
FINAL SINGLE POINT ENERGY      -463.421547117095
Dispersion correction             ... done (  0.0 sec)
Dispersion correction           -0.038939122
FINAL SINGLE POINT ENERGY      -463.421592314289
Dispersion correction             ... done (  0.1 sec)
Dispersion correction           -0.038937103
FINAL SINGLE POINT ENERGY      -463.421590945943
Dispersion correction             ... done (  0.1 sec)
                    ***********************HURRAY********************

CARTESIAN COORDINATES (ANGSTROEM)
---------------------------------
  C     -0.329498    0.791358    0.000380
  C     -1.619794    0.257058   -0.000385
  C     -1.800018   -1.123780    0.000253
  C     -0.672850   -1.946980    0.002050
  C      0.606621   -1.422763    0.002866
  C      0.796551   -0.030270    0.001699
  C      2.120455    0.603188    0.002024
  C      3.306124   -0.011189   -0.001951
  C      4.622480    0.692422   -0.001146
  H      5.213575    0.416109   -0.879358
  H      5.217476    0.405815    0.871125
  H      4.502562    1.776274    0.005387
  H      3.351535   -1.095674   -0.006429
  H      2.106087    1.689440    0.005477
  H      1.454469   -2.092160    0.004962
  H     -0.810202   -3.020381    0.003142
  H     -2.785179   -1.562777   -0.000902
  O     -2.635215    1.163007   -0.001935
  C     -3.974316    0.670030   -0.001416
  H     -4.615615    1.547279   -0.001952
  H     -4.175612    0.074248    0.891157
  H     -4.175827    0.073284   -0.893238
  H     -0.216645    1.867826   -0.000556

 Multiplicity           Mult            ....    1
 Number of Electrons    NEL             ....   80
 Basis Dimension        Dim             ....  782

ORBITAL ENERGIES
----------------

  NO   OCC          E(Eh)            E(eV)
   0   2.0000     -19.157458      -521.3009
   1   2.0000     -10.233452      -278.4664
   2   2.0000     -10.210993      -277.8553
   3   2.0000     -10.185711      -277.1673
   4   2.0000     -10.174027      -276.8493
   5   2.0000     -10.172408      -276.8053
   6   2.0000     -10.167993      -276.6852
   7   2.0000     -10.167452      -276.6704
   8   2.0000     -10.167198      -276.6635
   9   2.0000     -10.164304      -276.5848
  10   2.0000     -10.158773      -276.4343
  11   2.0000      -1.063618       -28.9425
  12   2.0000      -0.858301       -23.3555
  13   2.0000      -0.798327       -21.7236
  14   2.0000      -0.754902       -20.5419
  15   2.0000      -0.747956       -20.3529
  16   2.0000      -0.690526       -18.7902
  17   2.0000      -0.677648       -18.4397
  18   2.0000      -0.604358       -16.4454
  19   2.0000      -0.597955       -16.2712
  20   2.0000      -0.547111       -14.8876
  21   2.0000      -0.521359       -14.1869
  22   2.0000      -0.484767       -13.1912
  23   2.0000      -0.478157       -13.0113
  24   2.0000      -0.462897       -12.5961
  25   2.0000      -0.458029       -12.4636
  26   2.0000      -0.430119       -11.7041
  27   2.0000      -0.416997       -11.3471
  28   2.0000      -0.407077       -11.0771
  29   2.0000      -0.397827       -10.8254
  30   2.0000      -0.383319       -10.4306
  31   2.0000      -0.383255       -10.4289
  32   2.0000      -0.367057        -9.9881
  33   2.0000      -0.351773        -9.5722
  34   2.0000      -0.342521        -9.3205
  35   2.0000      -0.331469        -9.0197
  36   2.0000      -0.324369        -8.8265
  37   2.0000      -0.290361        -7.9011
  38   2.0000      -0.232087        -6.3154
  39   2.0000      -0.217611        -5.9215
  40   0.0000      -0.034717        -0.9447
  41   0.0000      -0.008155        -0.2219
  42   0.0000      -0.002456        -0.0668
  43   0.0000       0.004945         0.1345
  44   0.0000       0.010662         0.2901

MULLIKEN ATOMIC CHARGES
-----------------------
   0 C :   -1.046285
   1 C :    0.886156
   2 C :   -0.038606
   3 C :   -0.976445
   4 C :   -0.514924
   5 C :    1.812158
   6 C :   -0.227490
   7 C :   -0.302749
   8 C :   -0.808548
   9 H :    0.194619
  10 H :    0.195299
  11 H :    0.252693
  12 H :    0.147700
  13 H :   -0.026885
  14 H :    0.146982
  15 H :    0.509154
  16 H :    0.173651
  17 O :   -0.657243
  18 C :   -0.627347
  19 H :    0.244930
  20 H :    0.269599
  21 H :    0.268452
  22 H :    0.125129
Sum of atomic charges:    0.0000000

LOEWDIN ATOMIC CHARGES
----------------------
   0 C :    0.206082
   1 C :   -0.398347
   2 C :    0.200779
   3 C :    0.189552
   4 C :    0.199603
   5 C :   -0.153421
   6 C :    0.205466
   7 C :    0.208246
   8 C :    0.558355
   9 H :   -0.169133
  10 H :   -0.169206
  11 H :   -0.178011
  12 H :   -0.188873
  13 H :   -0.189506
  14 H :   -0.194390
  15 H :   -0.175251
  16 H :   -0.199888
  17 O :    0.595749
  18 C :    0.348370
  19 H :   -0.178730
  20 H :   -0.170264
  21 H :   -0.170312
  22 H :   -0.176870

  Mayer bond orders larger than 0.100000
B(  0-C ,  1-C ) :   0.5772 B(  0-C ,  2-C ) :  -0.1353 B(  0-C ,  3-C ) :   0.1250
B(  0-C ,  4-C ) :  -0.2918 B(  0-C ,  5-C ) :   0.1482 B(  0-C ,  6-C ) :  -0.1454
B(  0-C ,  7-C ) :   0.1778 B(  0-C , 17-O ) :   0.3416 B(  0-C , 18-C ) :   0.1044
B(  0-C , 22-H ) :   1.2421 B(  1-C ,  2-C ) :   1.0732 B(  1-C ,  4-C ) :  -0.1785
B(  1-C , 17-O ) :   0.1413 B(  1-C , 22-H ) :  -0.1450 B(  2-C ,  3-C ) :   0.9226
B(  2-C , 16-H ) :   1.1734 B(  2-C , 17-O ) :  -0.1777 B(  2-C , 18-C ) :  -0.1659
B(  3-C ,  4-C ) :   0.9486 B(  3-C ,  5-C ) :  -0.1059 B(  3-C ,  6-C ) :   0.1087
B(  3-C ,  7-C ) :  -0.1134 B(  3-C , 14-H ) :  -0.1611 B(  3-C , 15-H ) :   0.4370
B(  3-C , 16-H ) :  -0.1132 B(  4-C ,  5-C ) :   0.4892 B(  4-C ,  6-C ) :   0.1172
B(  4-C ,  7-C ) :   0.1131 B(  4-C , 14-H ) :   1.1792 B(  5-C ,  7-C ) :  -0.1526
B(  5-C , 12-H ) :  -0.1508 B(  5-C , 13-H ) :  -0.1295 B(  5-C , 14-H ) :  -0.1405
B(  5-C , 17-O ) :   0.1298 B(  5-C , 22-H ) :  -0.1554 B(  6-C ,  7-C ) :   0.9569
B(  6-C , 13-H ) :   1.3680 B(  7-C ,  8-C ) :   0.5958 B(  7-C , 12-H ) :   1.3436
B(  7-C , 13-H ) :  -0.1332 B(  8-C ,  9-H ) :   1.0343 B(  8-C , 10-H ) :   1.0333
B(  8-C , 11-H ) :   0.9525 B(  8-C , 12-H ) :  -0.1226 B( 16-H , 18-C ) :  -0.1074
B( 17-O , 18-C ) :   0.9665 B( 18-C , 19-H ) :   0.9625 B( 18-C , 20-H ) :   0.9343
B( 18-C , 21-H ) :   0.9345

Dispersion correction           -0.038936356
FINAL SINGLE POINT ENERGY      -463.421598216097

DIPOLE MOMENT
-------------

Method             : SCF
Type of density    : Electron Density
Multiplicity       :   1
Irrep              :   0
Energy             :  -463.3826618602707299 Eh
Relativity type    :
Basis              : AO
                                X                 Y                 Z
Electronic contribution:     -5.068850807      -0.433126980       0.001971059
Nuclear contribution   :      4.741110989       0.059708204      -0.002690943
                        -----------------------------------------
Total Dipole Moment    :     -0.327739817      -0.373418777      -0.000719884
                        -----------------------------------------
Magnitude (a.u.)       :      0.496845538
Magnitude (Debye)      :      1.262880995

Rotational constants in cm-1:             0.103253             0.016968             0.014653
Rotational constants in MHz :          3095.438243           508.700660           439.293074

                             ****ORCA TERMINATED NORMALLY****
TOTAL RUN TIME: 0 days 0 hours 32 minutes 15 seconds 709 msec
