                         Program Version 6.0.0  -   RELEASE  -
|  1> !TPSSh aug-cc-pVTZ d3 TightSCF SlowConv RIJCOSX defgrid2
|  2>
|  3> %pal
|  4> nprocs 4
|  5> end
|  6>
|  7> %scf
|  8> MaxIter 1500
|  9> end
| 10>
| 11> %maxcore 3000
| 12>
| 13> !CPCM
| 14> %cpcm smd true
| 15> SMDsolvent "MeCN"
| 16> surfacetype gepol_ses
| 17> rsolv 2.19
| 18> end
| 19>
| 20> * xyz 0 1
| 21> C           1.12535933003909      1.22184876665946      0.00445520319991
| 22> C          -0.26421837966179      1.23081993194340      0.01317294666685
| 23> C          -0.96286430889490      0.02291905897302      0.02071941900053
| 24> C          -0.27116790812085     -1.18968803907145      0.02233603706903
| 25> C           1.11927983593575     -1.19274556967928      0.01192236383456
| 26> C           1.83042608643697      0.01361001085842      0.00235629509897
| 27> C           3.33037499820744      0.07812373067826     -0.00830505647652
| 28> O           3.89335056176083      1.14924412695364     -0.01221784590005
| 29> C           4.10529699500755     -1.21691160959464     -0.01456211029497
| 30> H           3.87147665667906     -1.82176550317243      0.87909273734606
| 31> H           3.85275608025563     -1.82519649459447     -0.90071459246678
| 32> H           5.18018449663339     -0.98545182796753     -0.02600819379244
| 33> H           1.64770213714144     -2.14919199620359      0.01366659940447
| 34> H          -0.82322456445574     -2.13316803225065      0.03516466443551
| 35> C          -2.46760978555516      0.00136363107126     -0.00390087802805
| 36> F          -2.92475509769190     -0.39380754718327     -1.19713617306479
| 37> F          -2.95620262622450     -0.85163753941636      0.90171536543609
| 38> F          -2.99122934584873      1.20180958170133      0.24662255340156
| 39> H          -0.81146024395866      2.17606304264227      0.01753239307008
| 40> H           1.69903008231505      2.15205687765261      0.00003667206000
| 41> *
| 42>
| 43>                          ****END OF INPUT****

CARTESIAN COORDINATES (ANGSTROEM)
---------------------------------
  C      1.125359    1.221849    0.004455
  C     -0.264218    1.230820    0.013173
  C     -0.962864    0.022919    0.020719
  C     -0.271168   -1.189688    0.022336
  C      1.119280   -1.192746    0.011922
  C      1.830426    0.013610    0.002356
  C      3.330375    0.078124   -0.008305
  O      3.893351    1.149244   -0.012218
  C      4.105297   -1.216912   -0.014562
  H      3.871477   -1.821766    0.879093
  H      3.852756   -1.825196   -0.900715
  H      5.180184   -0.985452   -0.026008
  H      1.647702   -2.149192    0.013667
  H     -0.823225   -2.133168    0.035165
  C     -2.467610    0.001364   -0.003901
  F     -2.924755   -0.393808   -1.197136
  F     -2.956203   -0.851638    0.901715
  F     -2.991229    1.201810    0.246623
  H     -0.811460    2.176063    0.017532
  H      1.699030    2.152057    0.000037

 Total Charge           Charge          ....    0
 Multiplicity           Mult            ....    1
 Number of Electrons    NEL             ....   96
 Basis Dimension        Dim             ....  759

ORBITAL ENERGIES
----------------

  NO   OCC          E(Eh)            E(eV)
   0   2.0000     -24.641369      -670.5257
   1   2.0000     -24.639498      -670.4748
   2   2.0000     -24.638764      -670.4549
   3   2.0000     -19.047841      -518.3181
   4   2.0000     -10.366439      -282.0852
   5   2.0000     -10.205092      -277.6947
   6   2.0000     -10.151254      -276.2297
   7   2.0000     -10.137239      -275.8483
   8   2.0000     -10.136832      -275.8372
   9   2.0000     -10.136629      -275.8317
  10   2.0000     -10.135834      -275.8101
  11   2.0000     -10.132023      -275.7064
  12   2.0000     -10.111922      -275.1594
  13   2.0000      -1.301561       -35.4173
  14   2.0000      -1.213991       -33.0344
  15   2.0000      -1.211070       -32.9549
  16   2.0000      -1.028283       -27.9810
  17   2.0000      -0.860722       -23.4214
  18   2.0000      -0.781649       -21.2698
  19   2.0000      -0.745860       -20.2959
  20   2.0000      -0.722499       -19.6602
  21   2.0000      -0.688207       -18.7271
  22   2.0000      -0.626397       -17.0451
  23   2.0000      -0.610451       -16.6112
  24   2.0000      -0.579851       -15.7785
  25   2.0000      -0.573623       -15.6091
  26   2.0000      -0.555648       -15.1199
  27   2.0000      -0.540773       -14.7152
  28   2.0000      -0.473555       -12.8861
  29   2.0000      -0.462078       -12.5738
  30   2.0000      -0.456322       -12.4171
  31   2.0000      -0.451317       -12.2810
  32   2.0000      -0.439343       -11.9551
  33   2.0000      -0.427812       -11.6413
  34   2.0000      -0.421755       -11.4765
  35   2.0000      -0.419072       -11.4035
  36   2.0000      -0.413541       -11.2530
  37   2.0000      -0.409677       -11.1479
  38   2.0000      -0.401966       -10.9380
  39   2.0000      -0.394694       -10.7402
  40   2.0000      -0.371802       -10.1173
  41   2.0000      -0.367553       -10.0016
  42   2.0000      -0.348811        -9.4916
  43   2.0000      -0.347255        -9.4493
  44   2.0000      -0.337892        -9.1945
  45   2.0000      -0.266461        -7.2508
  46   2.0000      -0.261600        -7.1185
  47   2.0000      -0.242460        -6.5977
  48   0.0000      -0.085405        -2.3240
  49   0.0000      -0.038276        -1.0415
  50   0.0000      -0.004806        -0.1308
  51   0.0000       0.001971         0.0536
  52   0.0000       0.008256         0.2247

MULLIKEN ATOMIC CHARGES
-----------------------
   0 C :   -0.808183
   1 C :   -0.351400
   2 C :    0.603442
   3 C :   -0.710449
   4 C :   -0.396488
   5 C :    0.993603
   6 C :    0.962139
   7 O :   -1.014474
   8 C :   -0.226580
   9 H :    0.196893
  10 H :    0.196308
  11 H :   -0.032984
  12 H :    0.093863
  13 H :    0.280444
  14 C :    1.020627
  15 F :   -0.388896
  16 F :   -0.398316
  17 F :   -0.369229
  18 H :    0.262666
  19 H :    0.087013
Sum of atomic charges:   -0.0000000

LOEWDIN ATOMIC CHARGES
----------------------
   0 C :    0.212308
   1 C :    0.218518
   2 C :   -0.171948
   3 C :    0.219535
   4 C :    0.227190
   5 C :   -0.119170
   6 C :   -0.539984
   7 O :    0.496918
   8 C :    0.570756
   9 H :   -0.156315
  10 H :   -0.156388
  11 H :   -0.175491
  12 H :   -0.168643
  13 H :   -0.158992
  14 C :   -1.595803
  15 F :    0.543738
  16 F :    0.549486
  17 F :    0.561690
  18 H :   -0.175470
  19 H :   -0.181934

  Mayer bond orders larger than 0.100000
B(  0-C ,  1-C ) :   1.4458 B(  0-C ,  2-C ) :  -0.1103 B(  0-C ,  4-C ) :  -0.2705
B(  0-C ,  5-C ) :   0.6494 B(  0-C ,  6-C ) :   0.1084 B(  0-C , 19-H ) :   0.9289
B(  1-C ,  2-C ) :   0.9525 B(  1-C ,  5-C ) :  -0.1789 B(  1-C ,  7-O ) :  -0.1075
B(  1-C , 18-H ) :   0.7445 B(  2-C ,  3-C ) :   0.9482 B(  2-C , 14-C ) :   0.9705
B(  2-C , 15-F ) :   0.1505 B(  2-C , 16-F ) :   0.1391 B(  2-C , 17-F ) :   0.1459
B(  3-C ,  4-C ) :   1.2116 B(  3-C , 13-H ) :   0.7215 B(  4-C ,  5-C ) :   0.7120
B(  4-C , 12-H ) :   1.1188 B(  5-C ,  6-C ) :   0.5393 B(  5-C ,  7-O ) :   0.3924
B(  6-C ,  7-O ) :   0.3840 B(  6-C ,  8-C ) :   1.0666 B(  6-C , 19-H ) :  -0.1135
B(  7-O , 19-H ) :   0.1754 B(  8-C ,  9-H ) :   0.9357 B(  8-C , 10-H ) :   0.9356
B(  8-C , 11-H ) :   1.0271 B( 14-C , 15-F ) :   0.7557 B( 14-C , 16-F ) :   0.7192
B( 14-C , 17-F ) :   0.6583

Dispersion correction           -0.024923369
FINAL SINGLE POINT ENERGY      -722.260743719238

DIPOLE MOMENT
-------------

Method             : SCF
Type of density    : Electron Density
Multiplicity       :   1
Irrep              :   0
Energy             :  -722.2358203502557217 Eh
Relativity type    :
Basis              : AO
                                X                 Y                 Z
Electronic contribution:    -21.634748812       2.986836482      -0.049080335
Nuclear contribution   :     22.009157676      -4.256883990       0.073247664
                        -----------------------------------------
Total Dipole Moment    :      0.374408864      -1.270047508       0.024167329
                        -----------------------------------------
Magnitude (a.u.)       :      1.324306131
Magnitude (Debye)      :      3.366118676

Rotational constants in cm-1:             0.074861             0.012555             0.011413
Rotational constants in MHz :          2244.280303           376.379088           342.159113

                             ****ORCA TERMINATED NORMALLY****
TOTAL RUN TIME: 0 days 0 hours 8 minutes 51 seconds 276 msec
