                         Program Version 6.0.0  -   RELEASE  -
|  1> !B3LYP aug-cc-pVTZ d3 TightSCF SlowConv RIJCOSX defgrid2
|  2>
|  3> %pal
|  4> nprocs 4
|  5> end
|  6>
|  7> %scf
|  8> MaxIter 1500
|  9> end
| 10>
| 11> %maxcore 3000
| 12>
| 13> !CPCM
| 14> %cpcm smd true
| 15> SMDsolvent "MeCN"
| 16> surfacetype gepol_ses
| 17> rsolv 2.19
| 18> end
| 19>
| 20> * xyz -1 2
| 21> C           0.22794298897248     -1.32265639381783      0.00010090294401
| 22> C           1.59543811909498     -1.22519922622522      0.00005920870666
| 23> C           2.24938913290759      0.05051285824288     -0.00006076880347
| 24> C           1.41323843170898      1.21344313185840     -0.00013147831105
| 25> C           0.04476039121495      1.11078484934738     -0.00009132277474
| 26> C          -0.60963123993324     -0.16243960932374      0.00001856177073
| 27> C          -2.03234655015939     -0.32642555516269      0.00004823556518
| 28> O          -2.66249266053587     -1.38070299418175      0.00028693239647
| 29> O          -2.71431442900417      0.87834037288675      0.00017303848078
| 30> C          -4.10409629646245      0.76410388717440      0.00037606736278
| 31> H          -4.47622443606713      0.22239507752821     -0.88993521865745
| 32> H          -4.50472531304601      1.79227894799534      0.00110489591886
| 33> H          -4.47585642501352      0.22119730713171      0.89009526934874
| 34> H          -0.56969461364873      2.01480881708110     -0.00015706084987
| 35> H           1.88675005189144      2.20080747549968     -0.00022323008499
| 36> C           3.65255521641015      0.15685604656258     -0.00011286386991
| 37> N           4.82172741475790      0.24605470544831     -0.00015284690981
| 38> H           2.21001750339424     -2.13142621067461      0.00011344187289
| 39> H          -0.26118628648220     -2.30109838737090      0.00018753589417
| 40> *
| 41>
| 42>                          ****END OF INPUT****

CARTESIAN COORDINATES (ANGSTROEM)
---------------------------------
  C      0.227943   -1.322656    0.000101
  C      1.595438   -1.225199    0.000059
  C      2.249389    0.050513   -0.000061
  C      1.413238    1.213443   -0.000131
  C      0.044760    1.110785   -0.000091
  C     -0.609631   -0.162440    0.000019
  C     -2.032347   -0.326426    0.000048
  O     -2.662493   -1.380703    0.000287
  O     -2.714314    0.878340    0.000173
  C     -4.104096    0.764104    0.000376
  H     -4.476224    0.222395   -0.889935
  H     -4.504725    1.792279    0.001105
  H     -4.475856    0.221197    0.890095
  H     -0.569695    2.014809   -0.000157
  H      1.886750    2.200807   -0.000223
  C      3.652555    0.156856   -0.000113
  N      4.821727    0.246055   -0.000153
  H      2.210018   -2.131426    0.000113
  H     -0.261186   -2.301098    0.000188

 Total Charge           Charge          ....   -1
 Multiplicity           Mult            ....    2
 Number of Electrons    NEL             ....   85
 Basis Dimension        Dim             ....  713

ORBITAL ENERGIES
----------------
                 SPIN UP ORBITALS
  NO   OCC          E(Eh)            E(eV)
   0   1.0000     -19.142002      -520.8803
   1   1.0000     -19.080680      -519.2117
   2   1.0000     -14.294526      -388.9738
   3   1.0000     -10.261419      -279.2274
   4   1.0000     -10.201938      -277.6088
   5   1.0000     -10.198242      -277.5083
   6   1.0000     -10.180525      -277.0262
   7   1.0000     -10.167661      -276.6761
   8   1.0000     -10.167633      -276.6754
   9   1.0000     -10.162088      -276.5245
  10   1.0000     -10.160967      -276.4940
  11   1.0000     -10.157832      -276.4087
  12   1.0000      -1.074056       -29.2265
  13   1.0000      -0.984071       -26.7779
  14   1.0000      -0.889914       -24.2158
  15   1.0000      -0.841555       -22.8999
  16   1.0000      -0.764708       -20.8088
  17   1.0000      -0.736157       -20.0318
  18   1.0000      -0.700870       -19.0716
  19   1.0000      -0.640727       -17.4351
  20   1.0000      -0.587345       -15.9825
  21   1.0000      -0.551348       -15.0030
  22   1.0000      -0.529379       -14.4051
  23   1.0000      -0.504549       -13.7295
  24   1.0000      -0.460532       -12.5317
  25   1.0000      -0.460145       -12.5212
  26   1.0000      -0.431496       -11.7416
  27   1.0000      -0.425510       -11.5787
  28   1.0000      -0.408338       -11.1114
  29   1.0000      -0.405123       -11.0240
  30   1.0000      -0.390667       -10.6306
  31   1.0000      -0.374731       -10.1970
  32   1.0000      -0.372816       -10.1448
  33   1.0000      -0.356020        -9.6878
  34   1.0000      -0.340318        -9.2605
  35   1.0000      -0.329959        -8.9786
  36   1.0000      -0.328504        -8.9391
  37   1.0000      -0.308689        -8.3999
  38   1.0000      -0.284846        -7.7511
  39   1.0000      -0.257268        -7.0006
  40   1.0000      -0.256461        -6.9787
  41   1.0000      -0.247025        -6.7219
  42   1.0000      -0.112413        -3.0589
  43   0.0000      -0.002188        -0.0595
  44   0.0000      -0.001460        -0.0397
  45   0.0000       0.008120         0.2210
  46   0.0000       0.016009         0.4356
  47   0.0000       0.020569         0.5597

                 SPIN DOWN ORBITALS
  NO   OCC          E(Eh)            E(eV)
   0   1.0000     -19.141148      -520.8571
   1   1.0000     -19.077657      -519.1294
   2   1.0000     -14.291305      -388.8862
   3   1.0000     -10.259977      -279.1882
   4   1.0000     -10.201981      -277.6100
   5   1.0000     -10.198493      -277.5151
   6   1.0000     -10.176955      -276.9290
   7   1.0000     -10.167129      -276.6616
   8   1.0000     -10.167101      -276.6609
   9   1.0000     -10.161372      -276.5050
  10   1.0000     -10.160263      -276.4748
  11   1.0000     -10.154584      -276.3203
  12   1.0000      -1.071337       -29.1526
  13   1.0000      -0.979463       -26.6525
  14   1.0000      -0.885058       -24.0836
  15   1.0000      -0.836794       -22.7703
  16   1.0000      -0.757014       -20.5994
  17   1.0000      -0.732304       -19.9270
  18   1.0000      -0.697707       -18.9856
  19   1.0000      -0.633633       -17.2420
  20   1.0000      -0.586344       -15.9552
  21   1.0000      -0.548331       -14.9208
  22   1.0000      -0.527114       -14.3435
  23   1.0000      -0.502141       -13.6639
  24   1.0000      -0.458065       -12.4646
  25   1.0000      -0.454837       -12.3767
  26   1.0000      -0.429709       -11.6930
  27   1.0000      -0.422997       -11.5103
  28   1.0000      -0.407166       -11.0796
  29   1.0000      -0.404065       -10.9952
  30   1.0000      -0.378147       -10.2899
  31   1.0000      -0.371471       -10.1082
  32   1.0000      -0.359738        -9.7890
  33   1.0000      -0.352174        -9.5832
  34   1.0000      -0.338954        -9.2234
  35   1.0000      -0.328603        -8.9418
  36   1.0000      -0.316379        -8.6091
  37   1.0000      -0.307248        -8.3606
  38   1.0000      -0.275934        -7.5085
  39   1.0000      -0.254275        -6.9192
  40   1.0000      -0.245430        -6.6785
  41   1.0000      -0.224843        -6.1183
  42   0.0000      -0.051507        -1.4016
  43   0.0000      -0.002105        -0.0573
  44   0.0000       0.001463         0.0398
  45   0.0000       0.008154         0.2219
  46   0.0000       0.015818         0.4304

MULLIKEN ATOMIC CHARGES AND SPIN POPULATIONS
--------------------------------------------
   0 C :   -1.169368    0.069867
   1 C :   -1.218410    0.049655
   2 C :    1.723712    0.247366
   3 C :   -1.411503    0.048818
   4 C :   -0.325354    0.070466
   5 C :    2.068045    0.225071
   6 C :    0.630872    0.065953
   7 O :   -0.978734    0.112764
   8 O :   -0.401536    0.025270
   9 C :   -0.621694   -0.002438
  10 H :    0.267971    0.001723
  11 H :    0.242175   -0.000661
  12 H :    0.268426    0.001707
  13 H :    0.097681   -0.010465
  14 H :   -0.006741   -0.009092
  15 C :    0.713709   -0.035432
  16 N :   -0.898351    0.160192
  17 H :    0.002094   -0.010504
  18 H :    0.017005   -0.010261
Sum of atomic charges         :   -1.0000000

LOEWDIN ATOMIC CHARGES AND SPIN POPULATIONS
-------------------------------------------
   0 C :    0.151330    0.066001
   1 C :    0.148509    0.063044
   2 C :   -0.261518    0.137494
   3 C :    0.147500    0.063236
   4 C :    0.157299    0.067384
   5 C :   -0.204873    0.142417
   6 C :   -0.893644    0.104715
   7 O :    0.420548    0.101761
   8 O :    0.556638    0.031829
   9 C :    0.253301    0.002504
  10 H :   -0.181440    0.000804
  11 H :   -0.179700    0.000017
  12 H :   -0.181561    0.000801
  13 H :   -0.199656    0.008470
  14 H :   -0.178684    0.007148
  15 C :   -0.334435    0.065776
  16 N :    0.153460    0.121167
  17 H :   -0.178949    0.007119
  18 H :   -0.194125    0.008314

  Mayer bond orders larger than 0.100000
B(  0-C ,  1-C ) :   1.8381 B(  0-C ,  3-C ) :   0.1762 B(  0-C ,  4-C ) :  -0.9176
B(  0-C ,  5-C ) :  -0.2164 B(  0-C ,  6-C ) :   0.5727 B(  0-C , 15-C ) :  -0.2278
B(  0-C , 18-H ) :   1.4108 B(  1-C ,  3-C ) :  -0.1243 B(  1-C ,  4-C ) :   0.1407
B(  1-C ,  5-C ) :  -0.2016 B(  1-C ,  6-C ) :  -0.1872 B(  1-C , 13-H ) :  -0.1560
B(  1-C , 14-H ) :   0.1114 B(  1-C , 15-C ) :   0.4119 B(  1-C , 17-H ) :   1.5024
B(  1-C , 18-H ) :   0.1033 B(  2-C ,  4-C ) :   0.2605 B(  2-C ,  6-C ) :   0.3218
B(  2-C , 14-H ) :  -0.4308 B(  2-C , 15-C ) :   0.6775 B(  2-C , 16-N ) :   0.6708
B(  2-C , 17-H ) :  -0.4181 B(  3-C ,  4-C ) :   1.3477 B(  3-C , 14-H ) :   1.5553
B(  3-C , 15-C ) :   0.4703 B(  3-C , 17-H ) :   0.1061 B(  3-C , 18-H ) :  -0.1876
B(  4-C ,  5-C ) :   0.1826 B(  4-C ,  6-C ) :   0.3127 B(  4-C , 13-H ) :   1.4206
B(  4-C , 15-C ) :  -0.2994 B(  5-C ,  6-C ) :   0.2648 B(  5-C ,  8-O ) :   0.1205
B(  5-C , 13-H ) :  -0.3288 B(  5-C , 15-C ) :   0.3962 B(  5-C , 17-H ) :  -0.1194
B(  5-C , 18-H ) :  -0.2442 B(  6-C ,  7-O ) :   0.9053 B(  6-C ,  8-O ) :   0.7693
B(  6-C , 15-C ) :   0.2151 B(  7-O , 18-H ) :   0.1570 B(  8-O ,  9-C ) :   0.9299
B(  9-C , 10-H ) :   0.9205 B(  9-C , 11-H ) :   0.9442 B(  9-C , 12-H ) :   0.9194
B( 13-H , 18-H ) :   0.2130 B( 14-H , 15-C ) :   0.1013 B( 14-H , 17-H ) :   0.1495
B( 15-C , 16-N ) :   1.2129

Dispersion correction           -0.035021181
FINAL SINGLE POINT ENERGY      -552.410366332554

DIPOLE MOMENT
-------------

Method             : SCF
Type of density    : Electron Density
Multiplicity       :   2
Irrep              :   0
Energy             :  -552.3753451511040566 Eh
Relativity type    :
Basis              : AO
                                X                 Y                 Z
Electronic contribution:      6.626018833      -1.033718443      -0.001079141
Nuclear contribution   :     -9.634977547       1.865335493       0.000753927
                        -----------------------------------------
Total Dipole Moment    :     -3.008958714       0.831617050      -0.000325214
                        -----------------------------------------
Magnitude (a.u.)       :      3.121765457
Magnitude (Debye)      :      7.934897195

Rotational constants in cm-1:             0.113906             0.014521             0.012911
Rotational constants in MHz :          3414.805321           435.337364           387.058045

                             ****ORCA TERMINATED NORMALLY****
TOTAL RUN TIME: 0 days 0 hours 7 minutes 21 seconds 348 msec
