                         Program Version 6.0.0  -   RELEASE  -
|  1> !PBE0 aug-cc-pVTZ d3 TightSCF SlowConv RIJCOSX defgrid2
|  2>
|  3> %pal
|  4> nprocs 4
|  5> end
|  6>
|  7> %scf
|  8> MaxIter 1500
|  9> end
| 10>
| 11> %maxcore 3000
| 12>
| 13> !CPCM
| 14> %cpcm smd true
| 15> SMDsolvent "MeCN"
| 16> surfacetype gepol_ses
| 17> rsolv 2.19
| 18> end
| 19>
| 20> * xyz 0 1
| 21> C          -1.91227700743169     -0.69599807376451      0.00000859287457
| 22> C          -0.69912772414042     -1.38283601323851     -0.00000932512484
| 23> C           0.52347537335926     -0.70523730282103     -0.00001246655685
| 24> C           1.81729612506468     -1.46787011445991     -0.00005598554550
| 25> H           2.43257350979539     -1.22714923235884      0.88628677084497
| 26> H           1.63908285531001     -2.55536142781918      0.00004381576691
| 27> H           2.43241809059381     -1.22729433644522     -0.88654856025073
| 28> C           0.52347672072489      0.70522172319425      0.00000174792219
| 29> C           1.81729888680216      1.46785238267187     -0.00000613025126
| 30> H           2.43252823855944      1.22714967649232     -0.88638787088621
| 31> H           1.63908599746497      2.55534328050588     -0.00007448538319
| 32> H           2.43246782760812      1.22725777649857      0.88644905711652
| 33> C          -0.69912402686095      1.38282421177654      0.00001495362970
| 34> C          -1.91227492778965      0.69598941815697      0.00001994929433
| 35> H          -2.85546951493968      1.25047213510866      0.00003288713645
| 36> H          -0.69794916863420      2.47800578637616      0.00002276384868
| 37> H          -0.69795562041832     -2.47801791250149     -0.00001864212487
| 38> H          -2.85547323506782     -1.25047877737254      0.00001362768912
| 39> *
| 40>
| 41>                          ****END OF INPUT****

CARTESIAN COORDINATES (ANGSTROEM)
---------------------------------
  C     -1.912277   -0.695998    0.000009
  C     -0.699128   -1.382836   -0.000009
  C      0.523475   -0.705237   -0.000012
  C      1.817296   -1.467870   -0.000056
  H      2.432574   -1.227149    0.886287
  H      1.639083   -2.555361    0.000044
  H      2.432418   -1.227294   -0.886549
  C      0.523477    0.705222    0.000002
  C      1.817299    1.467852   -0.000006
  H      2.432528    1.227150   -0.886388
  H      1.639086    2.555343   -0.000074
  H      2.432468    1.227258    0.886449
  C     -0.699124    1.382824    0.000015
  C     -1.912275    0.695989    0.000020
  H     -2.855470    1.250472    0.000033
  H     -0.697949    2.478006    0.000023
  H     -0.697956   -2.478018   -0.000019
  H     -2.855473   -1.250479    0.000014

 Total Charge           Charge          ....    0
 Multiplicity           Mult            ....    1
 Number of Electrons    NEL             ....   58
 Basis Dimension        Dim             ....  598

ORBITAL ENERGIES
----------------

  NO   OCC          E(Eh)            E(eV)
   0   2.0000     -10.236046      -278.5370
   1   2.0000     -10.235476      -278.5215
   2   2.0000     -10.225269      -278.2437
   3   2.0000     -10.224715      -278.2286
   4   2.0000     -10.224064      -278.2109
   5   2.0000     -10.224003      -278.2093
   6   2.0000     -10.214994      -277.9641
   7   2.0000     -10.214976      -277.9636
   8   2.0000      -0.885213       -24.0879
   9   2.0000      -0.798407       -21.7258
  10   2.0000      -0.782573       -21.2949
  11   2.0000      -0.712410       -19.3857
  12   2.0000      -0.687543       -18.7090
  13   2.0000      -0.610378       -16.6092
  14   2.0000      -0.586418       -15.9573
  15   2.0000      -0.510495       -13.8913
  16   2.0000      -0.483017       -13.1436
  17   2.0000      -0.453752       -12.3472
  18   2.0000      -0.442361       -12.0372
  19   2.0000      -0.419720       -11.4211
  20   2.0000      -0.411826       -11.2063
  21   2.0000      -0.401918       -10.9368
  22   2.0000      -0.388523       -10.5723
  23   2.0000      -0.388028       -10.5588
  24   2.0000      -0.365040        -9.9332
  25   2.0000      -0.341445        -9.2912
  26   2.0000      -0.340841        -9.2748
  27   2.0000      -0.260858        -7.0983
  28   2.0000      -0.250213        -6.8086
  29   0.0000      -0.006450        -0.1755
  30   0.0000      -0.005205        -0.1416
  31   0.0000       0.002194         0.0597
  32   0.0000       0.013373         0.3639
  33   0.0000       0.017121         0.4659

MULLIKEN ATOMIC CHARGES
-----------------------
   0 C :   -0.398700
   1 C :   -1.037470
   2 C :    0.633673
   3 C :   -0.713066
   4 H :    0.262907
   5 H :    0.123723
   6 H :    0.263390
   7 C :    0.636327
   8 C :   -0.715557
   9 H :    0.262574
  10 H :    0.125428
  11 H :    0.262099
  12 C :   -1.040363
  13 C :   -0.394567
  14 H :    0.682282
  15 H :    0.181157
  16 H :    0.180870
  17 H :    0.685292
Sum of atomic charges:    0.0000000

LOEWDIN ATOMIC CHARGES
----------------------
   0 C :    0.174908
   1 C :    0.195586
   2 C :   -0.125124
   3 C :    0.565347
   4 H :   -0.152744
   5 H :   -0.165062
   6 H :   -0.152695
   7 C :   -0.125125
   8 C :    0.565346
   9 H :   -0.152702
  10 H :   -0.165062
  11 H :   -0.152738
  12 C :    0.195584
  13 C :    0.174910
  14 H :   -0.172132
  15 H :   -0.168083
  16 H :   -0.168083
  17 H :   -0.172131

  Mayer bond orders larger than 0.100000
B(  0-C ,  1-C ) :   1.1741 B(  0-C , 13-C ) :   1.1348 B(  0-C , 17-H ) :   0.3191
B(  1-C ,  2-C ) :   0.7566 B(  1-C , 12-C ) :   0.1249 B(  1-C , 13-C ) :  -0.1003
B(  1-C , 16-H ) :   1.1429 B(  1-C , 17-H ) :  -0.1097 B(  2-C ,  3-C ) :   0.4132
B(  2-C ,  7-C ) :   1.3481 B(  2-C ,  8-C ) :   0.1373 B(  3-C ,  4-H ) :   0.9357
B(  3-C ,  5-H ) :   1.0357 B(  3-C ,  6-H ) :   0.9350 B(  3-C ,  7-C ) :   0.1330
B(  7-C ,  8-C ) :   0.4135 B(  7-C , 12-C ) :   0.7499 B(  8-C ,  9-H ) :   0.9356
B(  8-C , 10-H ) :   1.0347 B(  8-C , 11-H ) :   0.9373 B( 12-C , 13-C ) :   1.1712
B( 12-C , 14-H ) :  -0.1102 B( 12-C , 15-H ) :   1.1429 B( 13-C , 14-H ) :   0.3237

Dispersion correction           -0.015545436
FINAL SINGLE POINT ENERGY      -310.630482693262

DIPOLE MOMENT
-------------

Method             : SCF
Type of density    : Electron Density
Multiplicity       :   1
Irrep              :   0
Energy             :  -310.6149372574857921 Eh
Relativity type    :
Basis              : AO
                                X                 Y                 Z
Electronic contribution:     -5.164801860       0.000009800      -0.000513863
Nuclear contribution   :      5.585292942      -0.000004943      -0.000112342
                        -----------------------------------------
Total Dipole Moment    :      0.420491083       0.000004858      -0.000626204
                        -----------------------------------------
Magnitude (a.u.)       :      0.420491549
Magnitude (Debye)      :      1.068804578

Rotational constants in cm-1:             0.105881             0.071625             0.043421
Rotational constants in MHz :          3174.222662          2147.253088          1301.724728

                             ****ORCA TERMINATED NORMALLY****
TOTAL RUN TIME: 0 days 0 hours 4 minutes 23 seconds 18 msec
