                         Program Version 6.0.0  -   RELEASE  -
|  1> !r2SCANh aug-cc-pVTZ d3 TightSCF SlowConv RIJCOSX defgrid2
|  2>
|  3> %pal
|  4> nprocs 6
|  5> end
|  6>
|  7> %scf
|  8> MaxIter 1500
|  9> end
| 10>
| 11> %maxcore 3000
| 12>
| 13> !CPCM
| 14> %cpcm smd true
| 15> SMDsolvent "MeCN"
| 16> surfacetype gepol_ses
| 17> rsolv 2.19
| 18> end
| 19>
| 20> * xyz 0 1
| 21>   C          -1.14933226451234     -1.23882509190584     -0.00046672280380
| 22>   C          -2.50857813675911     -0.94988227106401     -0.00054346756040
| 23>   C          -2.93817015440872      0.37868475331297     -0.00006408928605
| 24>   C          -2.00629101009504      1.41668452923491      0.00049673263770
| 25>   C          -0.64374499246001      1.13250357756874      0.00056381244254
| 26>   C          -0.20908515748665     -0.19753416758703      0.00007645085547
| 27>   C           1.21837162790625     -0.59720306751016      0.00007667382631
| 28>   O           1.62341721296480     -1.71314820484524     -0.00012734829677
| 29>   Cl          2.38206247173385      0.76415186429790      0.00056602291059
| 30>   H           0.09169908378046      1.93929798920226      0.00098639048783
| 31>   H          -2.34320651232058      2.45698180479248      0.00087795608335
| 32>   H          -4.00834754942676      0.60618222514384     -0.00012604204670
| 33>   H          -3.23886079813446     -1.76401666244183     -0.00098417146236
| 34>   H          -0.79061102078168     -2.27094327819897     -0.00083749778771
| 35> *
| 36>
| 37>                          ****END OF INPUT****

CARTESIAN COORDINATES (ANGSTROEM)
---------------------------------
  C     -1.149332   -1.238825   -0.000467
  C     -2.508578   -0.949882   -0.000543
  C     -2.938170    0.378685   -0.000064
  C     -2.006291    1.416685    0.000497
  C     -0.643745    1.132504    0.000564
  C     -0.209085   -0.197534    0.000076
  C      1.218372   -0.597203    0.000077
  O      1.623417   -1.713148   -0.000127
  Cl     2.382062    0.764152    0.000566
  H      0.091699    1.939298    0.000986
  H     -2.343207    2.456982    0.000878
  H     -4.008348    0.606182   -0.000126
  H     -3.238861   -1.764017   -0.000984
  H     -0.790611   -2.270943   -0.000837

 Total Charge           Charge          ....    0
 Multiplicity           Mult            ....    1
 Number of Electrons    NEL             ....   72
 Basis Dimension        Dim             ....  533

ORBITAL ENERGIES
----------------

  NO   OCC          E(Eh)            E(eV)
   0   2.0000    -101.590746     -2764.4247
   1   2.0000     -19.145486      -520.9752
   2   2.0000     -10.310596      -280.5656
   3   2.0000     -10.195035      -277.4210
   4   2.0000     -10.181102      -277.0419
   5   2.0000     -10.180320      -277.0206
   6   2.0000     -10.178049      -276.9588
   7   2.0000     -10.173245      -276.8281
   8   2.0000     -10.173175      -276.8262
   9   2.0000      -9.502482      -258.5757
  10   2.0000      -7.220618      -196.4830
  11   2.0000      -7.213947      -196.3015
  12   2.0000      -7.212744      -196.2688
  13   2.0000      -1.100381       -29.9429
  14   2.0000      -0.880023       -23.9466
  15   2.0000      -0.849486       -23.1157
  16   2.0000      -0.774018       -21.0621
  17   2.0000      -0.760204       -20.6862
  18   2.0000      -0.648857       -17.6563
  19   2.0000      -0.614463       -16.7204
  20   2.0000      -0.563502       -15.3337
  21   2.0000      -0.521530       -14.1916
  22   2.0000      -0.482041       -13.1170
  23   2.0000      -0.469275       -12.7696
  24   2.0000      -0.447817       -12.1857
  25   2.0000      -0.439995       -11.9729
  26   2.0000      -0.438509       -11.9324
  27   2.0000      -0.421727       -11.4758
  28   2.0000      -0.376370       -10.2415
  29   2.0000      -0.358295        -9.7497
  30   2.0000      -0.341942        -9.3047
  31   2.0000      -0.326469        -8.8837
  32   2.0000      -0.321634        -8.7521
  33   2.0000      -0.291900        -7.9430
  34   2.0000      -0.272500        -7.4151
  35   2.0000      -0.266877        -7.2621
  36   0.0000      -0.093226        -2.5368
  37   0.0000      -0.036935        -1.0051
  38   0.0000       0.001002         0.0273
  39   0.0000       0.009219         0.2508
  40   0.0000       0.014733         0.4009

MULLIKEN ATOMIC CHARGES
-----------------------
   0 C :   -0.866659
   1 C :   -0.427036
   2 C :   -0.273575
   3 C :   -0.653599
   4 C :   -0.769555
   5 C :    1.422705
   6 C :    0.636543
   7 O :   -0.719306
   8 Cl:   -0.264725
   9 H :    0.358238
  10 H :    0.470829
  11 H :    0.475183
  12 H :    0.432183
  13 H :    0.178775
Sum of atomic charges:   -0.0000000

LOEWDIN ATOMIC CHARGES
----------------------
   0 C :    0.188165
   1 C :    0.213836
   2 C :    0.209590
   3 C :    0.210628
   4 C :    0.157417
   5 C :   -0.251031
   6 C :   -1.139638
   7 O :    0.411302
   8 Cl:    0.897936
   9 H :   -0.234841
  10 H :   -0.163389
  11 H :   -0.159372
  12 H :   -0.162918
  13 H :   -0.177682

  Mayer bond orders larger than 0.100000
B(  0-C ,  1-C ) :   1.1458 B(  0-C ,  5-C ) :   0.3515 B(  0-C ,  6-C ) :   0.1537
B(  0-C , 13-H ) :   0.8934 B(  1-C ,  2-C ) :   1.1146 B(  1-C , 12-H ) :   0.7095
B(  2-C ,  3-C ) :   1.1794 B(  2-C ,  5-C ) :  -0.1587 B(  2-C , 11-H ) :   0.6419
B(  3-C ,  4-C ) :   1.1424 B(  3-C ,  5-C ) :  -0.1280 B(  3-C , 10-H ) :   0.6370
B(  4-C ,  5-C ) :   0.2674 B(  4-C ,  6-C ) :   0.1551 B(  4-C ,  9-H ) :   0.9602
B(  5-C ,  6-C ) :   0.5913 B(  5-C ,  7-O ) :   0.2349 B(  5-C ,  8-Cl) :   0.1749
B(  6-C ,  7-O ) :   1.0421 B(  6-C ,  8-Cl) :   0.7715 B(  7-O , 13-H ) :   0.1437
B(  8-Cl,  9-H ) :  -0.1531

Dispersion correction           -0.004975185
FINAL SINGLE POINT ENERGY      -805.109332308830

DIPOLE MOMENT
-------------

Method             : SCF
Type of density    : Electron Density
Multiplicity       :   1
Irrep              :   0
Energy             :  -805.1043571240488745 Eh
Relativity type    :
Basis              : AO
                                X                 Y                 Z
Electronic contribution:     10.896314393       0.800985297       0.001148738
Nuclear contribution   :    -12.853217840      -0.143073741      -0.001309271
                        -----------------------------------------
Total Dipole Moment    :     -1.956903447       0.657911557      -0.000160533
                        -----------------------------------------
Magnitude (a.u.)       :      2.064538385
Magnitude (Debye)      :      5.247639538

Rotational constants in cm-1:             0.104386             0.031040             0.023926
Rotational constants in MHz :          3129.416204           930.567874           717.277244

                             ****ORCA TERMINATED NORMALLY****
TOTAL RUN TIME: 0 days 0 hours 3 minutes 16 seconds 965 msec
