                         Program Version 6.0.0  -   RELEASE  -
|  1> !PBE0 freq def2-SV(p) d3 TightSCF SlowConv RIJCOSX defgrid2
|  2>
|  3> %pal
|  4> nprocs 12
|  5> end
|  6>
|  7> %scf
|  8> MaxIter 1500
|  9> end
| 10>
| 11> %maxcore 5000
| 12>
| 13> !CPCM
| 14> %cpcm smd true
| 15> SMDsolvent "MeCN"
| 16> surfacetype gepol_ses
| 17> rsolv 2.19
| 18> end
| 19>
| 20> * xyz -1 2
| 21> C          -1.22143806745234     -0.03874583884919     -0.00004708776408
| 22> C          -1.22202995355983      1.41698720310064     -0.00029034803065
| 23> C           0.00004676384581      2.08453852893330     -0.00000511596843
| 24> C           1.22209078351108      1.41692755611813      0.00028944818700
| 25> C           1.22142964656850     -0.03880827279366      0.00006440419089
| 26> C          -0.00002297102698     -0.72372452019709      0.00001215529810
| 27> H          -0.00005001317626     -1.81789649745279      0.00001476912171
| 28> C           2.42687232896757     -0.77015650171480     -0.00013949579728
| 29> N           3.43654417816931     -1.36199207570455     -0.00031619549593
| 30> H           2.16777513367577      1.96318985147450      0.00075979722010
| 31> H           0.00007246832635      3.18105479936578     -0.00001072838754
| 32> H          -2.16768822799864      1.96329369484991     -0.00076666847464
| 33> C          -2.42690933369279     -0.77004430701855      0.00015727164722
| 34> N          -3.43660183615755     -1.36184392011164      0.00032869425353
| 35> *
| 36>
| 37>                          ****END OF INPUT****

CARTESIAN COORDINATES (ANGSTROEM)
---------------------------------
  C     -1.221438   -0.038746   -0.000047
  C     -1.222030    1.416987   -0.000290
  C      0.000047    2.084539   -0.000005
  C      1.222091    1.416928    0.000289
  C      1.221430   -0.038808    0.000064
  C     -0.000023   -0.723725    0.000012
  H     -0.000050   -1.817896    0.000015
  C      2.426872   -0.770157   -0.000139
  N      3.436544   -1.361992   -0.000316
  H      2.167775    1.963190    0.000760
  H      0.000072    3.181055   -0.000011
  H     -2.167688    1.963294   -0.000767
  C     -2.426909   -0.770044    0.000157
  N     -3.436602   -1.361844    0.000329

 Total Charge           Charge          ....   -1
 Multiplicity           Mult            ....    2
 Number of Electrons    NEL             ....   67
 Basis Dimension        Dim             ....  148

ORBITAL ENERGIES
----------------
                 SPIN UP ORBITALS
  NO   OCC          E(Eh)            E(eV)
   0   1.0000     -14.368056      -390.9747
   1   1.0000     -14.368049      -390.9745
   2   1.0000     -10.259288      -279.1694
   3   1.0000     -10.259269      -279.1689
   4   1.0000     -10.245614      -278.7973
   5   1.0000     -10.242252      -278.7059
   6   1.0000     -10.242231      -278.7053
   7   1.0000     -10.222206      -278.1604
   8   1.0000     -10.214380      -277.9474
   9   1.0000     -10.214363      -277.9469
  10   1.0000      -0.906201       -24.6590
  11   1.0000      -0.902407       -24.5558
  12   1.0000      -0.860302       -23.4100
  13   1.0000      -0.773622       -21.0513
  14   1.0000      -0.763492       -20.7757
  15   1.0000      -0.648388       -17.6435
  16   1.0000      -0.634192       -17.2572
  17   1.0000      -0.569337       -15.4924
  18   1.0000      -0.489953       -13.3323
  19   1.0000      -0.480429       -13.0731
  20   1.0000      -0.458773       -12.4838
  21   1.0000      -0.430637       -11.7182
  22   1.0000      -0.409468       -11.1422
  23   1.0000      -0.378196       -10.2912
  24   1.0000      -0.374900       -10.2015
  25   1.0000      -0.373278       -10.1574
  26   1.0000      -0.361225        -9.8294
  27   1.0000      -0.361184        -9.8283
  28   1.0000      -0.335797        -9.1375
  29   1.0000      -0.328619        -8.9422
  30   1.0000      -0.325200        -8.8491
  31   1.0000      -0.268588        -7.3086
  32   1.0000      -0.260122        -7.0783
  33   1.0000      -0.107374        -2.9218
  34   0.0000      -0.020093        -0.5468
  35   0.0000       0.047088         1.2813
  36   0.0000       0.061547         1.6748
  37   0.0000       0.065550         1.7837
  38   0.0000       0.089614         2.4385

                 SPIN DOWN ORBITALS
  NO   OCC          E(Eh)            E(eV)
   0   1.0000     -14.365801      -390.9133
   1   1.0000     -14.365794      -390.9131
   2   1.0000     -10.259504      -279.1753
   3   1.0000     -10.259485      -279.1748
   4   1.0000     -10.246564      -278.8232
   5   1.0000     -10.240437      -278.6564
   6   1.0000     -10.240432      -278.6563
   7   1.0000     -10.224737      -278.2292
   8   1.0000     -10.207939      -277.7721
   9   1.0000     -10.207938      -277.7721
  10   1.0000      -0.902653       -24.5624
  11   1.0000      -0.899067       -24.4648
  12   1.0000      -0.855106       -23.2686
  13   1.0000      -0.764956       -20.8155
  14   1.0000      -0.758852       -20.6494
  15   1.0000      -0.634494       -17.2655
  16   1.0000      -0.631969       -17.1967
  17   1.0000      -0.568371       -15.4662
  18   1.0000      -0.484524       -13.1846
  19   1.0000      -0.478222       -13.0131
  20   1.0000      -0.455287       -12.3890
  21   1.0000      -0.430266       -11.7081
  22   1.0000      -0.396340       -10.7849
  23   1.0000      -0.374603       -10.1935
  24   1.0000      -0.370088       -10.0706
  25   1.0000      -0.363311        -9.8862
  26   1.0000      -0.359129        -9.7724
  27   1.0000      -0.358049        -9.7430
  28   1.0000      -0.327040        -8.8992
  29   1.0000      -0.323560        -8.8045
  30   1.0000      -0.321330        -8.7438
  31   1.0000      -0.257431        -7.0050
  32   1.0000      -0.227908        -6.2017
  33   0.0000      -0.018734        -0.5098
  34   0.0000      -0.015057        -0.4097
  35   0.0000       0.048932         1.3315
  36   0.0000       0.063859         1.7377
  37   0.0000       0.083325         2.2674

MULLIKEN ATOMIC CHARGES AND SPIN POPULATIONS
--------------------------------------------
   0 C :   -0.182267    0.108600
   1 C :   -0.185446    0.465025
   2 C :   -0.118497   -0.206726
   3 C :   -0.185454    0.465023
   4 C :   -0.182282    0.108606
   5 C :   -0.108176   -0.072469
   6 H :    0.113124    0.002629
   7 C :   -0.062363   -0.018670
   8 N :   -0.156582    0.105824
   9 H :    0.088366   -0.026153
  10 H :    0.110163    0.007315
  11 H :    0.088365   -0.026153
  12 C :   -0.062363   -0.018669
  13 N :   -0.156588    0.105821
Sum of atomic charges         :   -1.0000000

LOEWDIN ATOMIC CHARGES AND SPIN POPULATIONS
-------------------------------------------
   0 C :   -0.179103    0.104906
   1 C :   -0.222525    0.365302
   2 C :   -0.142614   -0.101402
   3 C :   -0.222529    0.365301
   4 C :   -0.179108    0.104910
   5 C :   -0.068708   -0.036688
   6 H :    0.146222    0.000748
   7 C :   -0.036480    0.012221
   8 N :   -0.226788    0.096804
   9 H :    0.130336   -0.012249
  10 H :    0.134228    0.003376
  11 H :    0.130336   -0.012249
  12 C :   -0.036478    0.012220
  13 N :   -0.226788    0.096801

  Mayer bond orders larger than 0.100000
B(  0-C ,  1-C ) :   1.1226 B(  0-C ,  5-C ) :   1.3774 B(  0-C , 12-C ) :   1.1730
B(  1-C ,  2-C ) :   1.3907 B(  1-C , 11-H ) :   0.9673 B(  2-C ,  3-C ) :   1.3907
B(  2-C , 10-H ) :   0.9564 B(  3-C ,  4-C ) :   1.1226 B(  3-C ,  9-H ) :   0.9673
B(  4-C ,  5-C ) :   1.3774 B(  4-C ,  7-C ) :   1.1730 B(  5-C ,  6-H ) :   0.9602
B(  7-C ,  8-N ) :   2.8923 B( 12-C , 13-N ) :   2.8923

Dispersion correction           -0.014141238
FINAL SINGLE POINT ENERGY      -416.041864796309

DIPOLE MOMENT
-------------

Method             : SCF
Type of density    : Electron Density
Multiplicity       :   2
Irrep              :   0
Energy             :  -416.0277235578378168 Eh
Relativity type    :
Basis              : AO
                                X                 Y                 Z
Electronic contribution:     -0.000122590      -3.405580476       0.000010580
Nuclear contribution   :      0.000108938       5.002510224      -0.000022192
                        -----------------------------------------
Total Dipole Moment    :     -0.000013652       1.596929748      -0.000011612
                        -----------------------------------------
Magnitude (a.u.)       :      1.596929748
Magnitude (Debye)      :      4.059072840

VIBRATIONAL FREQUENCIES
-----------------------

Scaling factor for frequencies =  1.000000000  (already applied!)

     0:       0.00 cm**-1
     1:       0.00 cm**-1
     2:       0.00 cm**-1
     3:       0.00 cm**-1
     4:       0.00 cm**-1
     5:       0.00 cm**-1
     6:     117.03 cm**-1
     7:     121.99 cm**-1
     8:     135.44 cm**-1
     9:     197.51 cm**-1
    10:     344.65 cm**-1
    11:     406.41 cm**-1
    12:     423.43 cm**-1
    13:     472.16 cm**-1
    14:     513.47 cm**-1
    15:     565.04 cm**-1
    16:     600.34 cm**-1
    17:     615.99 cm**-1
    18:     635.53 cm**-1
    19:     680.54 cm**-1
    20:     687.74 cm**-1
    21:     699.01 cm**-1
    22:     893.70 cm**-1
    23:     937.43 cm**-1
    24:     966.92 cm**-1
    25:     989.57 cm**-1
    26:    1056.59 cm**-1
    27:    1099.37 cm**-1
    28:    1155.80 cm**-1
    29:    1281.06 cm**-1
    30:    1295.91 cm**-1
    31:    1375.57 cm**-1
    32:    1415.92 cm**-1
    33:    1439.85 cm**-1
    34:    1503.06 cm**-1
    35:    1561.54 cm**-1
    36:    2219.18 cm**-1
    37:    2310.07 cm**-1
    38:    3176.81 cm**-1
    39:    3202.35 cm**-1
    40:    3215.87 cm**-1
    41:    3223.08 cm**-1

IR SPECTRUM
-----------

 Mode   freq       eps      Int      T**2         TX        TY        TZ
       cm**-1   L/(mol*cm) km/mol    a.u.
----------------------------------------------------------------------------
  6:    117.03   0.002677   13.53  0.007139  ( 0.000003 -0.084494 -0.000034)
  7:    121.99   0.001127    5.69  0.002882  (-0.000226  0.000049 -0.053682)
  8:    135.44   0.000000    0.00  0.000000  ( 0.000003 -0.000035 -0.000029)
  9:    197.51   0.000440    2.22  0.000695  ( 0.026365  0.000006  0.000085)
 10:    344.65   0.000000    0.00  0.000000  ( 0.000001 -0.000030 -0.000000)
 11:    406.41   0.004163   21.04  0.003196  ( 0.000645  0.000000 -0.056531)
 12:    423.43   0.016876   85.28  0.012437  (-0.111523  0.000003 -0.000151)
 13:    472.16   0.000092    0.47  0.000061  (-0.000007  0.007801  0.000002)
 14:    513.47   0.009299   46.99  0.005652  (-0.000282  0.000000 -0.075176)
 15:    565.04   0.000214    1.08  0.000118  (-0.000007  0.010860 -0.000000)
 16:    600.34   0.000000    0.00  0.000000  ( 0.000003 -0.000049  0.000007)
 17:    615.99   0.000046    0.23  0.000024  ( 0.004801 -0.000002  0.000686)
 18:    635.53   0.018831   95.16  0.009246  (-0.000416 -0.000000  0.096157)
 19:    680.54   0.000000    0.00  0.000000  ( 0.000007 -0.000245 -0.000014)
 20:    687.74   0.000090    0.46  0.000041  ( 0.000031 -0.000000  0.006397)
 21:    699.01   0.000001    0.00  0.000000  (-0.000001  0.000495 -0.000003)
 22:    893.70   0.028313  143.08  0.009886  ( 0.099430 -0.000002 -0.000077)
 23:    937.43   0.001661    8.40  0.000553  ( 0.000521  0.000000 -0.023512)
 24:    966.92   0.000093    0.47  0.000030  (-0.000538  0.000001 -0.005464)
 25:    989.57   0.000013    0.07  0.000004  (-0.000024 -0.002023 -0.000000)
 26:   1056.59   0.303007  1531.28  0.089493  ( 0.299154 -0.000007  0.000038)
 27:   1099.37   0.001863    9.42  0.000529  ( 0.000039 -0.022997  0.000001)
 28:   1155.80   0.043523  219.95  0.011751  (-0.108402  0.000001 -0.000080)
 29:   1281.06   0.040582  205.08  0.009886  ( 0.099426 -0.000001 -0.000089)
 30:   1295.91   0.000097    0.49  0.000023  (-0.000010 -0.004824  0.000001)
 31:   1375.57   0.106540  538.41  0.024170  ( 0.155466 -0.000003 -0.000088)
 32:   1415.92   0.125066  632.03  0.027564  (-0.166024  0.000005  0.000044)
 33:   1439.85   0.000025    0.13  0.000005  ( 0.000023  0.002324  0.000001)
 34:   1503.06   0.200615  1013.82  0.041651  ( 0.204087 -0.000004  0.000006)
 35:   1561.54   0.000467    2.36  0.000093  ( 0.000010  0.009661  0.000001)
 36:   2219.18   0.703513  3555.27  0.098929  ( 0.314529 -0.000010 -0.000075)
 37:   2310.07   0.051468  260.10  0.006953  (-0.000010 -0.083383 -0.000000)
 38:   3176.81   0.003981   20.12  0.000391  ( 0.000001 -0.019775  0.000000)
 39:   3202.35   0.001113    5.63  0.000108  (-0.000001 -0.010416  0.000000)
 40:   3215.87   0.005821   29.42  0.000565  (-0.023767  0.000003  0.000019)
 41:   3223.08   0.003825   19.33  0.000370  (-0.000008 -0.019244 -0.000000)

--------------------------
THERMOCHEMISTRY AT 298.15K
--------------------------

Temperature         ...   298.15 K
Pressure            ...     1.00 atm
Total Mass          ...   128.13 AMU
Quasi RRHO          ...     True
Cut-Off Frequency   ...     1.00 cm^-1

Throughout the following assumptions are being made:
  (1) The electronic state is orbitally nondegenerate
      but the spin degeneracy is treated
  (2) There are no thermally accessible electronically excited states
  (3) Hindered rotations indicated by low frequency modes are not
      treated as such but are treated as vibrations and this may
      cause some error
  (4) All equations used are the standard statistical mechanics
      equations for an ideal gas
  (5) All vibrations are strictly harmonic

freq.     117.03  E(vib)   ...       0.44
freq.     121.99  E(vib)   ...       0.44
freq.     135.44  E(vib)   ...       0.42
freq.     197.51  E(vib)   ...       0.35
freq.     344.65  E(vib)   ...       0.23
freq.     406.41  E(vib)   ...       0.19
freq.     423.43  E(vib)   ...       0.18
freq.     472.16  E(vib)   ...       0.15
freq.     513.47  E(vib)   ...       0.13
freq.     565.04  E(vib)   ...       0.11
freq.     600.34  E(vib)   ...       0.10
freq.     615.99  E(vib)   ...       0.09
freq.     635.53  E(vib)   ...       0.09
freq.     680.54  E(vib)   ...       0.08
freq.     687.74  E(vib)   ...       0.07
freq.     699.01  E(vib)   ...       0.07
freq.     893.70  E(vib)   ...       0.03
freq.     937.43  E(vib)   ...       0.03
freq.     966.92  E(vib)   ...       0.03
freq.     989.57  E(vib)   ...       0.02
freq.    1056.59  E(vib)   ...       0.02
freq.    1099.37  E(vib)   ...       0.02
freq.    1155.80  E(vib)   ...       0.01
freq.    1281.06  E(vib)   ...       0.01
freq.    1295.91  E(vib)   ...       0.01
freq.    1375.57  E(vib)   ...       0.01
freq.    1415.92  E(vib)   ...       0.00
freq.    1439.85  E(vib)   ...       0.00
freq.    1503.06  E(vib)   ...       0.00
freq.    1561.54  E(vib)   ...       0.00
freq.    2219.18  E(vib)   ...       0.00
freq.    2310.07  E(vib)   ...       0.00
freq.    3176.81  E(vib)   ...       0.00
freq.    3202.35  E(vib)   ...       0.00
freq.    3215.87  E(vib)   ...       0.00
freq.    3223.08  E(vib)   ...       0.00

------------
INNER ENERGY
------------

The inner energy is: U= E(el) + E(ZPE) + E(vib) + E(rot) + E(trans)
    E(el)   - is the total energy from the electronic structure calculation
              = E(kin-el) + E(nuc-el) + E(el-el) + E(nuc-nuc)
    E(ZPE)  - the the zero temperature vibrational energy from the frequency calculation
    E(vib)  - the the finite temperature correction to E(ZPE) due to population
              of excited vibrational states
    E(rot)  - is the rotational thermal energy
    E(trans)- is the translational thermal energy

Summary of contributions to the inner energy U:
Electronic energy                ...   -416.04186480 Eh
Zero point energy                ...      0.09462579 Eh      59.38 kcal/mol
Thermal vibrational correction   ...      0.00534256 Eh       3.35 kcal/mol
Thermal rotational correction    ...      0.00141627 Eh       0.89 kcal/mol
Thermal translational correction ...      0.00141627 Eh       0.89 kcal/mol
-----------------------------------------------------------------------
Total thermal energy                   -415.93906391 Eh

Summary of corrections to the electronic energy:
(perhaps to be used in another calculation)
Total thermal correction                  0.00817510 Eh       5.13 kcal/mol
Non-thermal (ZPE) correction              0.09462579 Eh      59.38 kcal/mol
-----------------------------------------------------------------------
Total correction                          0.10280089 Eh      64.51 kcal/mol

--------
ENTHALPY
--------

The enthalpy is H = U + kB*T
                kB is Boltzmann's constant
Total thermal energy              ...   -415.93906391 Eh
Thermal Enthalpy correction       ...      0.00094421 Eh       0.59 kcal/mol
-----------------------------------------------------------------------
Total Enthalpy                    ...   -415.93811970 Eh

Note: Rotational entropy computed according to Herzberg
Infrared and Raman Spectra, Chapter V,1, Van Nostrand Reinhold, 1945
Point Group:  C2, Symmetry Number:   2
Rotational constants in cm-1:     0.086792     0.030455     0.022545

Vibrational entropy computed according to the QRRHO of S. Grimme
Chem.Eur.J. 2012 18 9955 using a reference frequency of 100.0 cm-1

-------
ENTROPY
-------

The entropy contributions are T*S = T*(S(el)+S(vib)+S(rot)+S(trans))
     S(el)   - electronic entropy
     S(vib)  - vibrational entropy
     S(rot)  - rotational entropy
     S(trans)- translational entropy
The entropies will be listed as multiplied by the temperature to get
units of energy

Electronic entropy                ...      0.00065446 Eh      0.41 kcal/mol
Vibrational entropy               ...      0.00892633 Eh      5.60 kcal/mol
Rotational entropy                ...      0.01344885 Eh      8.44 kcal/mol
Translational entropy             ...      0.01922234 Eh     12.06 kcal/mol
-----------------------------------------------------------------------
Final entropy term                ...      0.04225198 Eh     26.51 kcal/mol

In case the symmetry of your molecule has not been determined correctly
or in case you have a reason to use a different symmetry number we print
out the resulting rotational entropy values for sn=1,12:

 non-linear molecules -----------------------------------
|  sn= 1 | S(rot)=       0.01410330 Eh      8.85 kcal/mol|
|  sn= 2 | S(rot)=       0.01344885 Eh      8.44 kcal/mol|
|  sn= 3 | S(rot)=       0.01306602 Eh      8.20 kcal/mol|
|  sn= 4 | S(rot)=       0.01279439 Eh      8.03 kcal/mol|
|  sn= 5 | S(rot)=       0.01258370 Eh      7.90 kcal/mol|
|  sn= 6 | S(rot)=       0.01241156 Eh      7.79 kcal/mol|
|  sn= 7 | S(rot)=       0.01226601 Eh      7.70 kcal/mol|
|  sn= 8 | S(rot)=       0.01213994 Eh      7.62 kcal/mol|
|  sn= 9 | S(rot)=       0.01202873 Eh      7.55 kcal/mol|
|  sn=10 | S(rot)=       0.01192925 Eh      7.49 kcal/mol|
|  sn=11 | S(rot)=       0.01183926 Eh      7.43 kcal/mol|
|  sn=12 | S(rot)=       0.01175710 Eh      7.38 kcal/mol|
 linear molecules ---------------------------------------
|  Dinfh | S(rot)=       0.00890639 Eh      5.59 kcal/mol|
|  Cinfv | S(rot)=       0.00956085 Eh      6.00 kcal/mol|
 --------------------------------------------------------

-------------------
GIBBS FREE ENERGY
-------------------

The Gibbs free energy is G = H - T*S

Total enthalpy                    ...   -415.93811970 Eh
Total entropy correction          ...     -0.04225198 Eh    -26.51 kcal/mol
-----------------------------------------------------------------------
Final Gibbs free energy         ...   -415.98037168 Eh

                             ****ORCA TERMINATED NORMALLY****
TOTAL RUN TIME: 0 days 0 hours 8 minutes 22 seconds 493 msec
