                         Program Version 6.0.0  -   RELEASE  -
|  1> !r2SCANh aug-cc-pVTZ d3 TightSCF SlowConv RIJCOSX defgrid2
|  2>
|  3> %pal
|  4> nprocs 4
|  5> end
|  6>
|  7> %scf
|  8> MaxIter 1500
|  9> end
| 10>
| 11> %maxcore 3000
| 12>
| 13> !CPCM
| 14> %cpcm smd true
| 15> SMDsolvent "MeCN"
| 16> surfacetype gepol_ses
| 17> rsolv 2.19
| 18> end
| 19>
| 20> * xyz -1 2
| 21> C          -1.22535307927293     -0.03882807002799     -0.00002255469277
| 22> C          -1.22206264378164      1.41582015720061     -0.00002423880206
| 23> C           0.00004637420421      2.08121905033007     -0.00000415463824
| 24> C           1.22212161683371      1.41575862792076      0.00002170232485
| 25> C           1.22534433396412     -0.03888819251674      0.00002507087618
| 26> C          -0.00002135567409     -0.71608207495025      0.00000157424078
| 27> H          -0.00004774645346     -1.81053735349218      0.00000261550832
| 28> C           2.43402384370652     -0.77080587803239      0.00007579493229
| 29> N           3.44413671726320     -1.36247120639636      0.00011250089172
| 30> H           2.16848850432676      1.96074544120089      0.00003301965359
| 31> H           0.00007494156619      3.17901522614598     -0.00000842096167
| 32> H          -2.16840192148197      1.96085605610510     -0.00003754989011
| 33> C          -2.43406244869294     -0.77069683887805     -0.00005052688718
| 34> N          -3.44419623650770     -1.36232524460946     -0.00007393255569
| 35> *
| 36>
| 37>                          ****END OF INPUT****

CARTESIAN COORDINATES (ANGSTROEM)
---------------------------------
  C     -1.225353   -0.038828   -0.000023
  C     -1.222063    1.415820   -0.000024
  C      0.000046    2.081219   -0.000004
  C      1.222122    1.415759    0.000022
  C      1.225344   -0.038888    0.000025
  C     -0.000021   -0.716082    0.000002
  H     -0.000048   -1.810537    0.000003
  C      2.434024   -0.770806    0.000076
  N      3.444137   -1.362471    0.000113
  H      2.168489    1.960745    0.000033
  H      0.000075    3.179015   -0.000008
  H     -2.168402    1.960856   -0.000038
  C     -2.434062   -0.770697   -0.000051
  N     -3.444196   -1.362325   -0.000074

 Total Charge           Charge          ....   -1
 Multiplicity           Mult            ....    2
 Number of Electrons    NEL             ....   67
 Basis Dimension        Dim             ....  552

ORBITAL ENERGIES
----------------
                 SPIN UP ORBITALS
  NO   OCC          E(Eh)            E(eV)
   0   1.0000     -14.286009      -388.7421
   1   1.0000     -14.286007      -388.7420
   2   1.0000     -10.187006      -277.2025
   3   1.0000     -10.187002      -277.2024
   4   1.0000     -10.175041      -276.8769
   5   1.0000     -10.173978      -276.8480
   6   1.0000     -10.173864      -276.8449
   7   1.0000     -10.151595      -276.2390
   8   1.0000     -10.146476      -276.0997
   9   1.0000     -10.146452      -276.0990
  10   1.0000      -0.897586       -24.4246
  11   1.0000      -0.894291       -24.3349
  12   1.0000      -0.848393       -23.0859
  13   1.0000      -0.762517       -20.7492
  14   1.0000      -0.750989       -20.4355
  15   1.0000      -0.635530       -17.2936
  16   1.0000      -0.619912       -16.8687
  17   1.0000      -0.551776       -15.0146
  18   1.0000      -0.472717       -12.8633
  19   1.0000      -0.464338       -12.6353
  20   1.0000      -0.439994       -11.9728
  21   1.0000      -0.409323       -11.1383
  22   1.0000      -0.392588       -10.6829
  23   1.0000      -0.362819        -9.8728
  24   1.0000      -0.361083        -9.8256
  25   1.0000      -0.358957        -9.7677
  26   1.0000      -0.344394        -9.3714
  27   1.0000      -0.343041        -9.3346
  28   1.0000      -0.320831        -8.7303
  29   1.0000      -0.313910        -8.5419
  30   1.0000      -0.307909        -8.3786
  31   1.0000      -0.254735        -6.9317
  32   1.0000      -0.249838        -6.7984
  33   1.0000      -0.103642        -2.8202
  34   0.0000      -0.044062        -1.1990
  35   0.0000       0.007951         0.2164
  36   0.0000       0.014844         0.4039
  37   0.0000       0.025291         0.6882
  38   0.0000       0.027734         0.7547

                 SPIN DOWN ORBITALS
  NO   OCC          E(Eh)            E(eV)
   0   1.0000     -14.283606      -388.6767
   1   1.0000     -14.283604      -388.6766
   2   1.0000     -10.186952      -277.2011
   3   1.0000     -10.186948      -277.2009
   4   1.0000     -10.175730      -276.8957
   5   1.0000     -10.172218      -276.8001
   6   1.0000     -10.172188      -276.7993
   7   1.0000     -10.154436      -276.3163
   8   1.0000     -10.139483      -275.9094
   9   1.0000     -10.139480      -275.9093
  10   1.0000      -0.893996       -24.3269
  11   1.0000      -0.890872       -24.2419
  12   1.0000      -0.843248       -22.9459
  13   1.0000      -0.753237       -20.4966
  14   1.0000      -0.747019       -20.3274
  15   1.0000      -0.619870       -16.8675
  16   1.0000      -0.618116       -16.8198
  17   1.0000      -0.551346       -15.0029
  18   1.0000      -0.467060       -12.7094
  19   1.0000      -0.462245       -12.5783
  20   1.0000      -0.437638       -11.9087
  21   1.0000      -0.408819       -11.1245
  22   1.0000      -0.379431       -10.3248
  23   1.0000      -0.359301        -9.7771
  24   1.0000      -0.357706        -9.7337
  25   1.0000      -0.347423        -9.4539
  26   1.0000      -0.341646        -9.2967
  27   1.0000      -0.341350        -9.2886
  28   1.0000      -0.312670        -8.5082
  29   1.0000      -0.307470        -8.3667
  30   1.0000      -0.306575        -8.3423
  31   1.0000      -0.246227        -6.7002
  32   1.0000      -0.218717        -5.9516
  33   0.0000      -0.040203        -1.0940
  34   0.0000      -0.039944        -1.0869
  35   0.0000       0.010058         0.2737
  36   0.0000       0.016581         0.4512
  37   0.0000       0.028070         0.7638

MULLIKEN ATOMIC CHARGES AND SPIN POPULATIONS
--------------------------------------------
   0 C :    1.390682    0.107050
   1 C :   -0.926273    0.480919
   2 C :   -0.480307   -0.230984
   3 C :   -0.926674    0.480923
   4 C :    1.391216    0.107056
   5 C :   -1.137166   -0.046604
   6 H :   -0.197642    0.005060
   7 C :    0.461470   -0.022055
   8 N :   -0.899880    0.100566
   9 H :    0.131962   -0.014912
  10 H :    0.498774   -0.030641
  11 H :    0.132031   -0.014895
  12 C :    0.461352   -0.022053
  13 N :   -0.899545    0.100568
Sum of atomic charges         :   -1.0000000

LOEWDIN ATOMIC CHARGES AND SPIN POPULATIONS
-------------------------------------------
   0 C :   -0.257344    0.102461
   1 C :    0.153997    0.206030
   2 C :    0.125498    0.045548
   3 C :    0.153993    0.206029
   4 C :   -0.257345    0.102462
   5 C :    0.139512    0.014413
   6 H :   -0.166011   -0.000379
   7 C :   -0.322905    0.043291
   8 N :    0.165098    0.075852
   9 H :   -0.198090    0.047652
  10 H :   -0.180510   -0.010153
  11 H :   -0.198089    0.047653
  12 C :   -0.322903    0.043290
  13 N :    0.165099    0.075851

  Mayer bond orders larger than 0.100000
B(  0-C ,  2-C ) :   0.2295 B(  0-C ,  4-C ) :   0.4652 B(  0-C ,  5-C ) :   0.3694
B(  0-C ,  6-H ) :  -0.2487 B(  0-C , 11-H ) :  -0.1918 B(  0-C , 12-C ) :   0.7276
B(  0-C , 13-N ) :   0.1516 B(  1-C ,  2-C ) :   1.0919 B(  1-C ,  3-C ) :  -0.1196
B(  1-C ,  5-C ) :  -0.2382 B(  1-C , 11-H ) :   1.2529 B(  1-C , 12-C ) :   0.4000
B(  2-C ,  3-C ) :   1.0929 B(  2-C ,  4-C ) :   0.2294 B(  2-C ,  6-H ) :  -0.1017
B(  2-C ,  9-H ) :  -0.1426 B(  2-C , 10-H ) :   0.6402 B(  2-C , 11-H ) :  -0.1425
B(  3-C ,  5-C ) :  -0.2380 B(  3-C ,  7-C ) :   0.4005 B(  3-C ,  9-H ) :   1.2530
B(  4-C ,  5-C ) :   0.3699 B(  4-C ,  6-H ) :  -0.2488 B(  4-C ,  7-C ) :   0.7268
B(  4-C ,  8-N ) :   0.1514 B(  4-C ,  9-H ) :  -0.1917 B(  5-C ,  6-H ) :   1.7166
B(  5-C ,  7-C ) :   0.1674 B(  5-C ,  8-N ) :   0.1078 B(  5-C ,  9-H ) :   0.1329
B(  5-C , 11-H ) :   0.1327 B(  5-C , 12-C ) :   0.1678 B(  5-C , 13-N ) :   0.1079
B(  6-H ,  9-H ) :   0.1072 B(  6-H , 11-H ) :   0.1072 B(  7-C ,  8-N ) :   1.6190
B(  7-C , 12-C ) :   0.2706 B( 12-C , 13-N ) :   1.6196

Dispersion correction           -0.005021697
FINAL SINGLE POINT ENERGY      -416.731709384693

DIPOLE MOMENT
-------------

Method             : SCF
Type of density    : Electron Density
Multiplicity       :   2
Irrep              :   0
Energy             :  -416.7266876876629453 Eh
Relativity type    :
Basis              : AO
                                X                 Y                 Z
Electronic contribution:     -0.000104272      -3.115838989       0.000009983
Nuclear contribution   :      0.000114608       5.003113123      -0.000033044
                        -----------------------------------------
Total Dipole Moment    :      0.000010337       1.887274134      -0.000023061
                        -----------------------------------------
Magnitude (a.u.)       :      1.887274134
Magnitude (Debye)      :      4.797069618

Rotational constants in cm-1:             0.086960             0.030317             0.022480
Rotational constants in MHz :          2607.004234           908.865871           673.920567

                             ****ORCA TERMINATED NORMALLY****
TOTAL RUN TIME: 0 days 0 hours 6 minutes 6 seconds 310 msec
