                         Program Version 6.0.0  -   RELEASE  -
|  1> !r2SCANh freq aug-cc-pVTZ d3 TightSCF SlowConv RIJCOSX defgrid2
|  2>
|  3> %pal
|  4> nprocs 12
|  5> end
|  6>
|  7> %scf
|  8> MaxIter 1500
|  9> end
| 10>
| 11> %maxcore 5000
| 12>
| 13> !CPCM
| 14> %cpcm smd true
| 15> SMDsolvent "MeCN"
| 16> surfacetype gepol_ses
| 17> rsolv 2.19
| 18> end
| 19>
| 20> * xyz 0 1
| 21> C          -1.19600268037892     -0.02006185584475      0.00011220145698
| 22> C          -1.20072252739902      1.37706428858666      0.00043813950044
| 23> C           0.00003428007495      2.06519228969437      0.00002159077070
| 24> C           1.20076556455560      1.37702137945702     -0.00050023836627
| 25> C           1.19599869299976     -0.02010372846011     -0.00035992081493
| 26> C          -0.00001451037934     -0.73084640211822     -0.00019933996811
| 27> H          -0.00003293786207     -1.81006944493765     -0.00027990438683
| 28> C           2.42884668239573     -0.72968881378549     -0.00015023314068
| 29> N           3.42936195452712     -1.30096307597477      0.00133670636846
| 30> H           2.13987837370872      1.91027793938704     -0.00063889676957
| 31> H           0.00005523990379      3.14504824441257      0.00010439197280
| 32> H          -2.13981497728523      1.91035424463643      0.00065159877559
| 33> C          -2.42887591538103     -0.72960389262251     -0.00002793053209
| 34> N          -3.42941303948003     -1.30084167243060     -0.00044806486647
| 35> *
| 36>
| 37>                          ****END OF INPUT****

CARTESIAN COORDINATES (ANGSTROEM)
---------------------------------
  C     -1.196003   -0.020062    0.000112
  C     -1.200723    1.377064    0.000438
  C      0.000034    2.065192    0.000022
  C      1.200766    1.377021   -0.000500
  C      1.195999   -0.020104   -0.000360
  C     -0.000015   -0.730846   -0.000199
  H     -0.000033   -1.810069   -0.000280
  C      2.428847   -0.729689   -0.000150
  N      3.429362   -1.300963    0.001337
  H      2.139878    1.910278   -0.000639
  H      0.000055    3.145048    0.000104
  H     -2.139815    1.910354    0.000652
  C     -2.428876   -0.729604   -0.000028
  N     -3.429413   -1.300842   -0.000448

 Total Charge           Charge          ....    0
 Multiplicity           Mult            ....    1
 Number of Electrons    NEL             ....   66
 Basis Dimension        Dim             ....  552

ORBITAL ENERGIES
----------------

  NO   OCC          E(Eh)            E(eV)
   0   2.0000     -14.317741      -389.6055
   1   2.0000     -14.317739      -389.6055
   2   2.0000     -10.221192      -278.1328
   3   2.0000     -10.221179      -278.1324
   4   2.0000     -10.214746      -277.9574
   5   2.0000     -10.214740      -277.9572
   6   2.0000     -10.204006      -277.6651
   7   2.0000     -10.196043      -277.4484
   8   2.0000     -10.196022      -277.4479
   9   2.0000     -10.184082      -277.1229
  10   2.0000      -0.935485       -25.4559
  11   2.0000      -0.929991       -25.3063
  12   2.0000      -0.898153       -24.4400
  13   2.0000      -0.810160       -22.0456
  14   2.0000      -0.791738       -21.5443
  15   2.0000      -0.669551       -18.2194
  16   2.0000      -0.664778       -18.0895
  17   2.0000      -0.594605       -16.1800
  18   2.0000      -0.507870       -13.8198
  19   2.0000      -0.501919       -13.6579
  20   2.0000      -0.490250       -13.3404
  21   2.0000      -0.446531       -12.1507
  22   2.0000      -0.426590       -11.6081
  23   2.0000      -0.392868       -10.6905
  24   2.0000      -0.388660       -10.5760
  25   2.0000      -0.386626       -10.5206
  26   2.0000      -0.377034       -10.2596
  27   2.0000      -0.371763       -10.1162
  28   2.0000      -0.349547        -9.5117
  29   2.0000      -0.346544        -9.4299
  30   2.0000      -0.346519        -9.4293
  31   2.0000      -0.282042        -7.6748
  32   2.0000      -0.277366        -7.5475
  33   0.0000      -0.087034        -2.3683
  34   0.0000      -0.071369        -1.9421
  35   0.0000      -0.003466        -0.0943
  36   0.0000       0.006545         0.1781
  37   0.0000       0.012167         0.3311

MULLIKEN ATOMIC CHARGES
-----------------------
   0 C :    1.495118
   1 C :   -0.779335
   2 C :   -0.525787
   3 C :   -0.778907
   4 C :    1.496230
   5 C :   -0.950792
   6 H :   -0.023150
   7 C :    0.476426
   8 N :   -0.852818
   9 H :    0.123696
  10 H :    0.571936
  11 H :    0.123591
  12 C :    0.476922
  13 N :   -0.853130
Sum of atomic charges:    0.0000000

LOEWDIN ATOMIC CHARGES
----------------------
   0 C :   -0.183543
   1 C :    0.237649
   2 C :    0.248635
   3 C :    0.237647
   4 C :   -0.183544
   5 C :    0.226571
   6 H :   -0.147534
   7 C :   -0.237095
   8 N :    0.251594
   9 H :   -0.152603
  10 H :   -0.159671
  11 H :   -0.152604
  12 C :   -0.237096
  13 N :    0.251594

  Mayer bond orders larger than 0.100000
B(  0-C ,  1-C ) :   0.1935 B(  0-C ,  2-C ) :   0.1266 B(  0-C ,  4-C ) :   0.3644
B(  0-C ,  5-C ) :   0.3403 B(  0-C ,  6-H ) :  -0.1837 B(  0-C , 11-H ) :  -0.1574
B(  0-C , 12-C ) :   0.6148 B(  1-C ,  2-C ) :   1.1451 B(  1-C ,  3-C ) :  -0.1999
B(  1-C ,  5-C ) :  -0.2108 B(  1-C , 11-H ) :   1.2416 B(  1-C , 12-C ) :   0.3230
B(  1-C , 13-N ) :   0.1305 B(  2-C ,  3-C ) :   1.1460 B(  2-C ,  4-C ) :   0.1268
B(  2-C , 10-H ) :   0.5001 B(  3-C ,  4-C ) :   0.1927 B(  3-C ,  5-C ) :  -0.2114
B(  3-C ,  7-C ) :   0.3233 B(  3-C ,  8-N ) :   0.1298 B(  3-C ,  9-H ) :   1.2417
B(  4-C ,  5-C ) :   0.3396 B(  4-C ,  6-H ) :  -0.1835 B(  4-C ,  7-C ) :   0.6144
B(  4-C ,  9-H ) :  -0.1577 B(  5-C ,  6-H ) :   1.3883 B(  5-C ,  8-N ) :   0.1035
B(  5-C , 13-N ) :   0.1027 B(  7-C ,  8-N ) :   1.7146 B(  7-C , 12-C ) :   0.2404
B( 12-C , 13-N ) :   1.7138

Dispersion correction           -0.005056067
FINAL SINGLE POINT ENERGY      -416.637548292035

DIPOLE MOMENT
-------------

Method             : SCF
Type of density    : Electron Density
Multiplicity       :   1
Irrep              :   0
Energy             :  -416.6324922254565308 Eh
Relativity type    :
Basis              : AO
                                X                 Y                 Z
Electronic contribution:     -0.000038618      -2.405890401      -0.000585450
Nuclear contribution   :      0.000088161       4.826965064      -0.000273775
                        -----------------------------------------
Total Dipole Moment    :      0.000049543       2.421074663      -0.000859224
                        -----------------------------------------
Magnitude (a.u.)       :      2.421074816
Magnitude (Debye)      :      6.153883124

VIBRATIONAL FREQUENCIES
-----------------------

Scaling factor for frequencies =  1.000000000  (already applied!)

     0:       0.00 cm**-1
     1:       0.00 cm**-1
     2:       0.00 cm**-1
     3:       0.00 cm**-1
     4:       0.00 cm**-1
     5:       0.00 cm**-1
     6:     114.71 cm**-1
     7:     116.35 cm**-1
     8:     153.94 cm**-1
     9:     193.29 cm**-1
    10:     382.82 cm**-1
    11:     389.30 cm**-1
    12:     465.59 cm**-1
    13:     466.55 cm**-1
    14:     531.44 cm**-1
    15:     550.76 cm**-1
    16:     619.57 cm**-1
    17:     639.43 cm**-1
    18:     690.31 cm**-1
    19:     718.08 cm**-1
    20:     817.81 cm**-1
    21:     919.24 cm**-1
    22:     921.20 cm**-1
    23:     956.48 cm**-1
    24:    1019.14 cm**-1
    25:    1020.81 cm**-1
    26:    1123.91 cm**-1
    27:    1174.20 cm**-1
    28:    1190.36 cm**-1
    29:    1272.01 cm**-1
    30:    1325.93 cm**-1
    31:    1371.93 cm**-1
    32:    1456.34 cm**-1
    33:    1514.12 cm**-1
    34:    1623.45 cm**-1
    35:    1651.89 cm**-1
    36:    2339.98 cm**-1
    37:    2342.74 cm**-1
    38:    3217.06 cm**-1
    39:    3226.14 cm**-1
    40:    3232.50 cm**-1
    41:    3235.23 cm**-1

IR SPECTRUM
-----------

 Mode   freq       eps      Int      T**2         TX        TY        TZ
       cm**-1   L/(mol*cm) km/mol    a.u.
----------------------------------------------------------------------------
  6:    114.71   0.003742   18.91  0.010179  (-0.000001  0.100882  0.001246)
  7:    116.35   0.002070   10.46  0.005553  (-0.000102 -0.001639  0.074501)
  8:    153.94   0.000000    0.00  0.000000  (-0.000028  0.000177 -0.000001)
  9:    193.29   0.000742    3.75  0.001199  ( 0.034621  0.000002  0.000221)
 10:    382.82   0.000000    0.00  0.000000  ( 0.000070  0.000102 -0.000014)
 11:    389.30   0.000165    0.84  0.000133  ( 0.000098  0.000036  0.011515)
 12:    465.59   0.000032    0.16  0.000022  (-0.004659  0.000047 -0.000208)
 13:    466.55   0.000238    1.20  0.000159  ( 0.000017  0.012618  0.000020)
 14:    531.44   0.006963   35.19  0.004089  (-0.000108  0.000047  0.063942)
 15:    550.76   0.000470    2.38  0.000266  ( 0.000003  0.016324 -0.000067)
 16:    619.57   0.000381    1.92  0.000192  (-0.013847  0.000003  0.000322)
 17:    639.43   0.000000    0.00  0.000000  ( 0.000068 -0.000029  0.000003)
 18:    690.31   0.011120   56.20  0.005027  (-0.000137 -0.000001  0.070900)
 19:    718.08   0.000057    0.29  0.000025  ( 0.000000 -0.004974 -0.000005)
 20:    817.81   0.009295   46.97  0.003547  (-0.000052 -0.000009  0.059556)
 21:    919.24   0.004240   21.43  0.001439  (-0.001987 -0.000011  0.037888)
 22:    921.20   0.002283   11.54  0.000773  ( 0.027677 -0.000001  0.002709)
 23:    956.48   0.000001    0.00  0.000000  ( 0.000013  0.000426  0.000001)
 24:   1019.14   0.000015    0.07  0.000005  ( 0.000097 -0.000015 -0.002120)
 25:   1020.81   0.000322    1.63  0.000098  ( 0.000001  0.009916 -0.000007)
 26:   1123.91   0.002731   13.80  0.000758  (-0.000001 -0.027537  0.000000)
 27:   1174.20   0.002610   13.19  0.000694  ( 0.026339 -0.000002  0.000130)
 28:   1190.36   0.000648    3.27  0.000170  ( 0.013030  0.000000  0.000135)
 29:   1272.01   0.000878    4.44  0.000215  (-0.000000  0.014675  0.000002)
 30:   1325.93   0.000039    0.20  0.000009  (-0.003032 -0.000001 -0.000064)
 31:   1371.93   0.001050    5.31  0.000239  (-0.015456  0.000001 -0.000015)
 32:   1456.34   0.002168   10.96  0.000465  (-0.000001 -0.021553 -0.000001)
 33:   1514.12   0.003225   16.30  0.000665  ( 0.025783 -0.000001  0.000034)
 34:   1623.45   0.000056    0.28  0.000011  ( 0.000000 -0.003276 -0.000001)
 35:   1651.89   0.002644   13.36  0.000500  (-0.022350 -0.000000  0.000081)
 36:   2339.98   0.050645  255.94  0.006754  ( 0.082183  0.000033 -0.000030)
 37:   2342.74   0.013440   67.92  0.001790  ( 0.000066 -0.042312 -0.000002)
 38:   3217.06   0.000160    0.81  0.000016  ( 0.000001 -0.003939 -0.000000)
 39:   3226.14   0.000038    0.19  0.000004  (-0.001904 -0.000002  0.000065)
 40:   3232.50   0.000122    0.61  0.000012  (-0.000000  0.003426 -0.000001)
 41:   3235.23   0.000445    2.25  0.000043  (-0.000000  0.006552 -0.000000)

--------------------------
THERMOCHEMISTRY AT 298.15K
--------------------------

Temperature         ...   298.15 K
Pressure            ...     1.00 atm
Total Mass          ...   128.13 AMU
Quasi RRHO          ...     True
Cut-Off Frequency   ...     1.00 cm^-1

Throughout the following assumptions are being made:
  (1) The electronic state is orbitally nondegenerate
  (2) There are no thermally accessible electronically excited states
  (3) Hindered rotations indicated by low frequency modes are not
      treated as such but are treated as vibrations and this may
      cause some error
  (4) All equations used are the standard statistical mechanics
      equations for an ideal gas
  (5) All vibrations are strictly harmonic

freq.     114.71  E(vib)   ...       0.44
freq.     116.35  E(vib)   ...       0.44
freq.     153.94  E(vib)   ...       0.40
freq.     193.29  E(vib)   ...       0.36
freq.     382.82  E(vib)   ...       0.20
freq.     389.30  E(vib)   ...       0.20
freq.     465.59  E(vib)   ...       0.16
freq.     466.55  E(vib)   ...       0.16
freq.     531.44  E(vib)   ...       0.13
freq.     550.76  E(vib)   ...       0.12
freq.     619.57  E(vib)   ...       0.09
freq.     639.43  E(vib)   ...       0.09
freq.     690.31  E(vib)   ...       0.07
freq.     718.08  E(vib)   ...       0.07
freq.     817.81  E(vib)   ...       0.05
freq.     919.24  E(vib)   ...       0.03
freq.     921.20  E(vib)   ...       0.03
freq.     956.48  E(vib)   ...       0.03
freq.    1019.14  E(vib)   ...       0.02
freq.    1020.81  E(vib)   ...       0.02
freq.    1123.91  E(vib)   ...       0.01
freq.    1174.20  E(vib)   ...       0.01
freq.    1190.36  E(vib)   ...       0.01
freq.    1272.01  E(vib)   ...       0.01
freq.    1325.93  E(vib)   ...       0.01
freq.    1371.93  E(vib)   ...       0.01
freq.    1456.34  E(vib)   ...       0.00
freq.    1514.12  E(vib)   ...       0.00
freq.    1623.45  E(vib)   ...       0.00
freq.    1651.89  E(vib)   ...       0.00
freq.    2339.98  E(vib)   ...       0.00
freq.    2342.74  E(vib)   ...       0.00
freq.    3217.06  E(vib)   ...       0.00
freq.    3226.14  E(vib)   ...       0.00
freq.    3232.50  E(vib)   ...       0.00
freq.    3235.23  E(vib)   ...       0.00

------------
INNER ENERGY
------------

The inner energy is: U= E(el) + E(ZPE) + E(vib) + E(rot) + E(trans)
    E(el)   - is the total energy from the electronic structure calculation
              = E(kin-el) + E(nuc-el) + E(el-el) + E(nuc-nuc)
    E(ZPE)  - the the zero temperature vibrational energy from the frequency calculation
    E(vib)  - the the finite temperature correction to E(ZPE) due to population
              of excited vibrational states
    E(rot)  - is the rotational thermal energy
    E(trans)- is the translational thermal energy

Summary of contributions to the inner energy U:
Electronic energy                ...   -416.63754829 Eh
Zero point energy                ...      0.09792616 Eh      61.45 kcal/mol
Thermal vibrational correction   ...      0.00505943 Eh       3.17 kcal/mol
Thermal rotational correction    ...      0.00141627 Eh       0.89 kcal/mol
Thermal translational correction ...      0.00141627 Eh       0.89 kcal/mol
-----------------------------------------------------------------------
Total thermal energy                   -416.53173015 Eh

Summary of corrections to the electronic energy:
(perhaps to be used in another calculation)
Total thermal correction                  0.00789198 Eh       4.95 kcal/mol
Non-thermal (ZPE) correction              0.09792616 Eh      61.45 kcal/mol
-----------------------------------------------------------------------
Total correction                          0.10581814 Eh      66.40 kcal/mol

--------
ENTHALPY
--------

The enthalpy is H = U + kB*T
                kB is Boltzmann's constant
Total thermal energy              ...   -416.53173015 Eh
Thermal Enthalpy correction       ...      0.00094421 Eh       0.59 kcal/mol
-----------------------------------------------------------------------
Total Enthalpy                    ...   -416.53078595 Eh

Note: Only C1 symmetry has been detected, increase convergence thresholds
      if your molecule has a higher symmetry. Symmetry factor of 1.0 is
      used for the rotational entropy correction.

Note: Rotational entropy computed according to Herzberg
Infrared and Raman Spectra, Chapter V,1, Van Nostrand Reinhold, 1945
Point Group:  C1, Symmetry Number:   1
Rotational constants in cm-1:     0.091602     0.030683     0.022984

Vibrational entropy computed according to the QRRHO of S. Grimme
Chem.Eur.J. 2012 18 9955 using a reference frequency of 100.0 cm-1

-------
ENTROPY
-------

The entropy contributions are T*S = T*(S(el)+S(vib)+S(rot)+S(trans))
     S(el)   - electronic entropy
     S(vib)  - vibrational entropy
     S(rot)  - rotational entropy
     S(trans)- translational entropy
The entropies will be listed as multiplied by the temperature to get
units of energy

Electronic entropy                ...      0.00000000 Eh      0.00 kcal/mol
Vibrational entropy               ...      0.00849148 Eh      5.33 kcal/mol
Rotational entropy                ...      0.01406520 Eh      8.83 kcal/mol
Translational entropy             ...      0.01922234 Eh     12.06 kcal/mol
-----------------------------------------------------------------------
Final entropy term                ...      0.04177903 Eh     26.22 kcal/mol

In case the symmetry of your molecule has not been determined correctly
or in case you have a reason to use a different symmetry number we print
out the resulting rotational entropy values for sn=1,12:

 non-linear molecules -----------------------------------
|  sn= 1 | S(rot)=       0.01406520 Eh      8.83 kcal/mol|
|  sn= 2 | S(rot)=       0.01341074 Eh      8.42 kcal/mol|
|  sn= 3 | S(rot)=       0.01302791 Eh      8.18 kcal/mol|
|  sn= 4 | S(rot)=       0.01275629 Eh      8.00 kcal/mol|
|  sn= 5 | S(rot)=       0.01254560 Eh      7.87 kcal/mol|
|  sn= 6 | S(rot)=       0.01237345 Eh      7.76 kcal/mol|
|  sn= 7 | S(rot)=       0.01222791 Eh      7.67 kcal/mol|
|  sn= 8 | S(rot)=       0.01210183 Eh      7.59 kcal/mol|
|  sn= 9 | S(rot)=       0.01199062 Eh      7.52 kcal/mol|
|  sn=10 | S(rot)=       0.01189114 Eh      7.46 kcal/mol|
|  sn=11 | S(rot)=       0.01180115 Eh      7.41 kcal/mol|
|  sn=12 | S(rot)=       0.01171900 Eh      7.35 kcal/mol|
 linear molecules ---------------------------------------
|  Dinfh | S(rot)=       0.00888814 Eh      5.58 kcal/mol|
|  Cinfv | S(rot)=       0.00954260 Eh      5.99 kcal/mol|
 --------------------------------------------------------

-------------------
GIBBS FREE ENERGY
-------------------

The Gibbs free energy is G = H - T*S

                             ****ORCA TERMINATED NORMALLY****
TOTAL RUN TIME: 0 days 0 hours 25 minutes 53 seconds 89 msec
