                         Program Version 6.0.0  -   RELEASE  -
|  1> !r2SCAN aug-cc-pVTZ d3 TightSCF SlowConv RIJCOSX defgrid2
|  2>
|  3> %pal
|  4> nprocs 4
|  5> end
|  6>
|  7> %scf
|  8> MaxIter 1500
|  9> end
| 10>
| 11> %maxcore 3000
| 12>
| 13> !CPCM
| 14> %cpcm smd true
| 15> SMDsolvent "MeCN"
| 16> surfacetype gepol_ses
| 17> rsolv 2.19
| 18> end
| 19>
| 20> * xyz 0 1
| 21> C           1.57085042838004     -1.17474438788844     -0.33321365208336
| 22> C           2.96192041551293     -1.15651629940685     -0.31860147015010
| 23> C           3.64782695539498      0.00855864334947      0.02599003748590
| 24> C           2.92361947907694      1.15458909719340      0.34785674698480
| 25> C           1.53060388669529      1.13435322432905      0.32993520415109
| 26> C           0.82328467622844     -0.03397612396155      0.00340161993556
| 27> C          -0.65741272614693     -0.04733327290659      0.00534536563332
| 28> C          -1.35282390658214     -1.16758358658154      0.27962064543062
| 29> C          -2.84853700806778     -1.25828591796901      0.30847424531628
| 30> C          -3.51990150406660      0.11087068594057      0.31565142940002
| 31> C          -2.83381225328130      1.04341808051259     -0.67327419385531
| 32> C          -1.37142433850592      1.25026584913834     -0.29589644947955
| 33> H          -0.83991530281643      1.78116962585690     -1.10618334228773
| 34> H          -1.30989672858064      1.91765444185113      0.58676465237026
| 35> H          -3.35148405171204      2.01729252554914     -0.71973408682922
| 36> H          -2.89053837289839      0.60490265207129     -1.68762863260766
| 37> H          -4.59471066896096      0.01138665951998      0.08467603040594
| 38> H          -3.45292200027469      0.54772553729573      1.33001780873961
| 39> H          -3.19002868806132     -1.84280149491509     -0.57088642583127
| 40> H          -3.16602339134086     -1.84941487747488      1.18737448619474
| 41> H          -0.80474635256816     -2.08768769328037      0.51396987653596
| 42> H           0.98362946668811      2.04390039060663      0.59144870231404
| 43> H           3.44740931149543      2.07717728450666      0.61616083395012
| 44> H           4.74164950120465      0.02477698912015      0.03349122220482
| 45> H           3.51725863806072     -2.05891161890825     -0.59221005705267
| 46> H           1.04979053512663     -2.08648421354846     -0.63790469687620
| 47> *
| 48>
| 49>                          ****END OF INPUT****

CARTESIAN COORDINATES (ANGSTROEM)
---------------------------------
  C      1.570850   -1.174744   -0.333214
  C      2.961920   -1.156516   -0.318601
  C      3.647827    0.008559    0.025990
  C      2.923619    1.154589    0.347857
  C      1.530604    1.134353    0.329935
  C      0.823285   -0.033976    0.003402
  C     -0.657413   -0.047333    0.005345
  C     -1.352824   -1.167584    0.279621
  C     -2.848537   -1.258286    0.308474
  C     -3.519902    0.110871    0.315651
  C     -2.833812    1.043418   -0.673274
  C     -1.371424    1.250266   -0.295896
  H     -0.839915    1.781170   -1.106183
  H     -1.309897    1.917654    0.586765
  H     -3.351484    2.017293   -0.719734
  H     -2.890538    0.604903   -1.687629
  H     -4.594711    0.011387    0.084676
  H     -3.452922    0.547726    1.330018
  H     -3.190029   -1.842801   -0.570886
  H     -3.166023   -1.849415    1.187374
  H     -0.804746   -2.087688    0.513970
  H      0.983629    2.043900    0.591449
  H      3.447409    2.077177    0.616161
  H      4.741650    0.024777    0.033491
  H      3.517259   -2.058912   -0.592210
  H      1.049791   -2.086484   -0.637905

 Total Charge           Charge          ....    0
 Multiplicity           Mult            ....    1
 Number of Electrons    NEL             ....   86
 Basis Dimension        Dim             ....  874

ORBITAL ENERGIES
----------------

  NO   OCC          E(Eh)            E(eV)
   0   2.0000     -10.049797      -273.4689
   1   2.0000     -10.040405      -273.2133
   2   2.0000     -10.038918      -273.1728
   3   2.0000     -10.038842      -273.1708
   4   2.0000     -10.037219      -273.1266
   5   2.0000     -10.037148      -273.1247
   6   2.0000     -10.037056      -273.1222
   7   2.0000     -10.029923      -272.9281
   8   2.0000     -10.029894      -272.9273
   9   2.0000     -10.029439      -272.9149
  10   2.0000     -10.024625      -272.7839
  11   2.0000     -10.023926      -272.7649
  12   2.0000      -0.828314       -22.5396
  13   2.0000      -0.796691       -21.6791
  14   2.0000      -0.737733       -20.0747
  15   2.0000      -0.713424       -19.4132
  16   2.0000      -0.702273       -19.1098
  17   2.0000      -0.681935       -18.5564
  18   2.0000      -0.592068       -16.1110
  19   2.0000      -0.582920       -15.8621
  20   2.0000      -0.556758       -15.1501
  21   2.0000      -0.543583       -14.7917
  22   2.0000      -0.489119       -13.3096
  23   2.0000      -0.471478       -12.8296
  24   2.0000      -0.440813       -11.9951
  25   2.0000      -0.420945       -11.4545
  26   2.0000      -0.416697       -11.3389
  27   2.0000      -0.398375       -10.8403
  28   2.0000      -0.389786       -10.6066
  29   2.0000      -0.382510       -10.4086
  30   2.0000      -0.375737       -10.2243
  31   2.0000      -0.362618        -9.8673
  32   2.0000      -0.351797        -9.5729
  33   2.0000      -0.342538        -9.3209
  34   2.0000      -0.337093        -9.1728
  35   2.0000      -0.314767        -8.5652
  36   2.0000      -0.306304        -8.3350
  37   2.0000      -0.289679        -7.8826
  38   2.0000      -0.280080        -7.6214
  39   2.0000      -0.272112        -7.4045
  40   2.0000      -0.255137        -6.9426
  41   2.0000      -0.238301        -6.4845
  42   2.0000      -0.200812        -5.4644
  43   0.0000      -0.054163        -1.4738
  44   0.0000      -0.036268        -0.9869
  45   0.0000       0.003870         0.1053
  46   0.0000       0.013485         0.3669
  47   0.0000       0.019299         0.5251

MULLIKEN ATOMIC CHARGES
-----------------------
   0 C :   -0.980781
   1 C :   -0.836340
   2 C :   -0.133155
   3 C :   -0.926546
   4 C :   -0.923832
   5 C :    2.185938
   6 C :    1.962495
   7 C :   -1.174022
   8 C :   -0.102498
   9 C :   -0.255286
  10 C :   -0.452415
  11 C :   -0.231682
  12 H :    0.129089
  13 H :    0.184883
  14 H :    0.152627
  15 H :    0.083523
  16 H :    0.191464
  17 H :    0.104707
  18 H :    0.125115
  19 H :    0.147024
  20 H :   -0.261497
  21 H :   -0.187100
  22 H :    0.440995
  23 H :    0.520819
  24 H :    0.464935
  25 H :   -0.228458
Sum of atomic charges:   -0.0000000

LOEWDIN ATOMIC CHARGES
----------------------
   0 C :    0.202454
   1 C :    0.188704
   2 C :    0.180239
   3 C :    0.189324
   4 C :    0.204900
   5 C :   -0.125156
   6 C :   -0.082745
   7 C :    0.253520
   8 C :    0.267584
   9 C :    0.271410
  10 C :    0.277263
  11 C :    0.263405
  12 H :   -0.131538
  13 H :   -0.129113
  14 H :   -0.128367
  15 H :   -0.126031
  16 H :   -0.130358
  17 H :   -0.128526
  18 H :   -0.130831
  19 H :   -0.137275
  20 H :   -0.174431
  21 H :   -0.178955
  22 H :   -0.171367
  23 H :   -0.174573
  24 H :   -0.171602
  25 H :   -0.177939

  Mayer bond orders larger than 0.100000
B(  0-C ,  1-C ) :   1.1565 B(  0-C ,  2-C ) :  -0.1530 B(  0-C ,  4-C ) :  -0.8499
B(  0-C ,  5-C ) :  -0.1600 B(  0-C ,  6-C ) :   0.3649 B(  0-C , 21-H ) :   0.1478
B(  0-C , 24-H ) :  -0.1244 B(  0-C , 25-H ) :   1.9462 B(  1-C ,  2-C ) :   1.0950
B(  1-C ,  3-C ) :   0.2737 B(  1-C ,  6-C ) :  -0.1277 B(  1-C , 21-H ) :  -0.1931
B(  1-C , 23-H ) :  -0.1043 B(  1-C , 24-H ) :   0.5245 B(  1-C , 25-H ) :  -0.1035
B(  2-C ,  3-C ) :   1.1011 B(  2-C ,  4-C ) :  -0.1347 B(  2-C ,  5-C ) :  -0.1972
B(  2-C ,  6-C ) :   0.2854 B(  2-C , 23-H ) :   0.5234 B(  3-C ,  4-C ) :   1.0259
B(  3-C , 21-H ) :  -0.1317 B(  3-C , 22-H ) :   0.5613 B(  3-C , 25-H ) :  -0.1306
B(  4-C ,  5-C ) :  -0.2293 B(  4-C ,  6-C ) :   0.3116 B(  4-C ,  7-C ) :   0.1066
B(  4-C , 21-H ) :   1.9614 B(  4-C , 22-H ) :  -0.1176 B(  5-C ,  6-C ) :  -0.5609
B(  5-C ,  7-C ) :   0.4727 B(  5-C , 21-H ) :  -0.2903 B(  5-C , 22-H ) :   0.1558
B(  5-C , 24-H ) :   0.1299 B(  5-C , 25-H ) :  -0.2782 B(  6-C ,  9-C ) :  -0.1217
B(  6-C , 11-C ) :   0.5077 B(  6-C , 12-H ) :  -0.1091 B(  6-C , 13-H ) :  -0.1181
B(  6-C , 20-H ) :  -0.6473 B(  6-C , 21-H ) :  -0.2930 B(  6-C , 25-H ) :  -0.2922
B(  7-C ,  8-C ) :   0.6224 B(  7-C ,  9-C ) :   0.1603 B(  7-C , 11-C ) :  -0.1563
B(  7-C , 18-H ) :  -0.1007 B(  7-C , 19-H ) :  -0.1557 B(  7-C , 20-H ) :   1.8651
B(  8-C ,  9-C ) :   0.8860 B(  8-C , 10-C ) :   0.1205 B(  8-C , 18-H ) :   1.0221
B(  8-C , 19-H ) :   1.0171 B(  8-C , 20-H ) :  -0.1573 B(  9-C , 10-C ) :   0.9024
B(  9-C , 16-H ) :   0.9395 B(  9-C , 17-H ) :   1.0245 B( 10-C , 11-C ) :   0.9175
B( 10-C , 14-H ) :   0.9602 B( 10-C , 15-H ) :   1.0556 B( 11-C , 12-H ) :   1.0118
B( 11-C , 13-H ) :   0.9970 B( 21-H , 25-H ) :   0.2723

Dispersion correction           -0.009112035
FINAL SINGLE POINT ENERGY      -465.606806757231

DIPOLE MOMENT
-------------

Method             : SCF
Type of density    : Electron Density
Multiplicity       :   1
Irrep              :   0
Energy             :  -465.5976947221545288 Eh
Relativity type    :
Basis              : AO
                                X                 Y                 Z
Electronic contribution:      8.858519450      -1.027190667       0.287770651
Nuclear contribution   :     -9.297439936       1.076513750      -0.312023061
                        -----------------------------------------
Total Dipole Moment    :     -0.438920486       0.049323083      -0.024252409
                        -----------------------------------------
Magnitude (a.u.)       :      0.442348437
Magnitude (Debye)      :      1.124360372

Rotational constants in cm-1:             0.085540             0.017249             0.015002
Rotational constants in MHz :          2564.428727           517.115238           449.743228

                             ****ORCA TERMINATED NORMALLY****
TOTAL RUN TIME: 0 days 0 hours 5 minutes 46 seconds 165 msec
