                         Program Version 6.0.0  -   RELEASE  -
|  1> !r2SCANh aug-cc-pVTZ d3 TightSCF SlowConv RIJCOSX defgrid2
|  2>
|  3> %pal
|  4> nprocs 4
|  5> end
|  6>
|  7> %scf
|  8> MaxIter 1500
|  9> end
| 10>
| 11> %maxcore 3000
| 12>
| 13> !CPCM
| 14> %cpcm smd true
| 15> SMDsolvent "MeCN"
| 16> surfacetype gepol_ses
| 17> rsolv 2.19
| 18> end
| 19>
| 20> * xyz 0 1
| 21> C          -0.69471715027891      1.20160424367180      0.00254330764544
| 22> C           0.69612063581105      1.19291899288814      0.00968566042107
| 23> C           1.42778733631965      0.00018404946816      0.01007822944484
| 24> C           2.93063058367763     -0.00027863689039     -0.01829178119376
| 25> H           3.34402418608942      0.90078695962724      0.46603728071123
| 26> H           3.31730142827762     -0.02014085009214     -1.05503454463859
| 27> H           3.34459568522108     -0.88206330588670      0.50008328858434
| 28> C           0.69618993551697     -1.19280776592252      0.00927470210724
| 29> C          -0.69448057691314     -1.20162515498911      0.00211243242400
| 30> C          -1.42112887903605      0.00001156196422     -0.00389874102897
| 31> N          -2.80457629708089     -0.00021726257641     -0.05900293362540
| 32> H          -3.26571318600359     -0.84658941152166      0.25460910629618
| 33> H          -3.26597866165769      0.84602614670405      0.25456635083211
| 34> H          -1.23244316710201     -2.15552812692684      0.00133757208656
| 35> H           1.23001055078301     -2.14947021386169      0.01854947119546
| 36> H           1.22985485991374      2.14960675922401      0.01926471808220
| 37> H          -1.23272228353791      2.15547551511983      0.00212038065604
| 38> *
| 39>
| 40>                          ****END OF INPUT****

CARTESIAN COORDINATES (ANGSTROEM)
---------------------------------
  C     -0.694717    1.201604    0.002543
  C      0.696121    1.192919    0.009686
  C      1.427787    0.000184    0.010078
  C      2.930631   -0.000279   -0.018292
  H      3.344024    0.900787    0.466037
  H      3.317301   -0.020141   -1.055035
  H      3.344596   -0.882063    0.500083
  C      0.696190   -1.192808    0.009275
  C     -0.694481   -1.201625    0.002112
  C     -1.421129    0.000012   -0.003899
  N     -2.804576   -0.000217   -0.059003
  H     -3.265713   -0.846589    0.254609
  H     -3.265979    0.846026    0.254566
  H     -1.232443   -2.155528    0.001338
  H      1.230011   -2.149470    0.018549
  H      1.229855    2.149607    0.019265
  H     -1.232722    2.155476    0.002120

 Total Charge           Charge          ....    0
 Multiplicity           Mult            ....    1
 Number of Electrons    NEL             ....   58
 Basis Dimension        Dim             ....  575

ORBITAL ENERGIES
----------------

  NO   OCC          E(Eh)            E(eV)
   0   2.0000     -14.302683      -389.1958
   1   2.0000     -10.196433      -277.4590
   2   2.0000     -10.156259      -276.3659
   3   2.0000     -10.153705      -276.2964
   4   2.0000     -10.153656      -276.2950
   5   2.0000     -10.150150      -276.1996
   6   2.0000     -10.150088      -276.1979
   7   2.0000     -10.143898      -276.0295
   8   2.0000      -0.916428       -24.9373
   9   2.0000      -0.839832       -22.8530
  10   2.0000      -0.750050       -20.4099
  11   2.0000      -0.739311       -20.1177
  12   2.0000      -0.665157       -18.0998
  13   2.0000      -0.603646       -16.4260
  14   2.0000      -0.572476       -15.5779
  15   2.0000      -0.506082       -13.7712
  16   2.0000      -0.495436       -13.4815
  17   2.0000      -0.446599       -12.1526
  18   2.0000      -0.423300       -11.5186
  19   2.0000      -0.411824       -11.2063
  20   2.0000      -0.402279       -10.9466
  21   2.0000      -0.399450       -10.8696
  22   2.0000      -0.370518       -10.0823
  23   2.0000      -0.360136        -9.7998
  24   2.0000      -0.337565        -9.1856
  25   2.0000      -0.316232        -8.6051
  26   2.0000      -0.296349        -8.0641
  27   2.0000      -0.249035        -6.7766
  28   2.0000      -0.194847        -5.3020
  29   0.0000      -0.022683        -0.6172
  30   0.0000      -0.003972        -0.1081
  31   0.0000       0.010520         0.2863
  32   0.0000       0.021519         0.5856
  33   0.0000       0.027758         0.7553

MULLIKEN ATOMIC CHARGES
-----------------------
   0 C :   -0.874788
   1 C :   -0.812833
   2 C :    1.516914
   3 C :   -0.766965
   4 H :    0.206346
   5 H :    0.241002
   6 H :    0.206952
   7 C :   -0.825922
   8 C :   -0.880139
   9 C :    1.337874
  10 N :   -0.659599
  11 H :    0.046442
  12 H :    0.046131
  13 H :    0.459075
  14 H :    0.152138
  15 H :    0.145174
  16 H :    0.462198
Sum of atomic charges:    0.0000000

LOEWDIN ATOMIC CHARGES
----------------------
   0 C :    0.202850
   1 C :    0.183931
   2 C :   -0.162782
   3 C :    0.559521
   4 H :   -0.169032
   5 H :   -0.156466
   6 H :   -0.168393
   7 C :    0.183928
   8 C :    0.202864
   9 C :   -0.275947
  10 N :    0.850495
  11 H :   -0.287368
  12 H :   -0.287356
  13 H :   -0.170238
  14 H :   -0.167674
  15 H :   -0.168062
  16 H :   -0.170270

  Mayer bond orders larger than 0.100000
B(  0-C ,  1-C ) :   1.1890 B(  0-C ,  2-C ) :   0.2319 B(  0-C ,  7-C ) :  -0.1373
B(  0-C ,  8-C ) :   0.3280 B(  0-C ,  9-C ) :   0.7143 B(  0-C , 16-H ) :   0.4124
B(  1-C ,  2-C ) :   0.3778 B(  1-C ,  3-C ) :   0.1481 B(  1-C ,  7-C ) :  -0.1728
B(  1-C ,  8-C ) :  -0.1268 B(  1-C ,  9-C ) :  -0.2478 B(  1-C , 15-H ) :   1.1536
B(  2-C ,  3-C ) :   0.1953 B(  2-C ,  7-C ) :   0.3769 B(  2-C ,  8-C ) :   0.2279
B(  2-C ,  9-C ) :   0.1775 B(  3-C ,  4-H ) :   0.9980 B(  3-C ,  5-H ) :   0.9639
B(  3-C ,  6-H ) :   0.9990 B(  3-C ,  7-C ) :   0.1682 B(  7-C ,  8-C ) :   1.1962
B(  7-C ,  9-C ) :  -0.2468 B(  7-C , 14-H ) :   1.1402 B(  8-C ,  9-C ) :   0.7188
B(  8-C , 13-H ) :   0.4183 B(  9-C , 10-N ) :   0.3734 B(  9-C , 13-H ) :   0.1507
B(  9-C , 16-H ) :   0.1522 B( 10-N , 11-H ) :   1.1059 B( 10-N , 12-H ) :   1.1061

Dispersion correction           -0.005012910
FINAL SINGLE POINT ENERGY      -326.851663669187

DIPOLE MOMENT
-------------

Method             : SCF
Type of density    : Electron Density
Multiplicity       :   1
Irrep              :   0
Energy             :  -326.8466507587692149 Eh
Relativity type    :
Basis              : AO
                                X                 Y                 Z
Electronic contribution:     -3.895450690      -0.000355216      -0.009926716
Nuclear contribution   :      3.276071104      -0.001396692       0.450262688
                        -----------------------------------------
Total Dipole Moment    :     -0.619379586      -0.001751908       0.440335972
                        -----------------------------------------
Magnitude (a.u.)       :      0.759953886
Magnitude (Debye)      :      1.931649268

Rotational constants in cm-1:             0.182492             0.048394             0.038562
Rotational constants in MHz :          5470.963839          1450.824170          1156.068201

                             ****ORCA TERMINATED NORMALLY****
TOTAL RUN TIME: 0 days 0 hours 5 minutes 7 seconds 669 msec
