                         Program Version 6.0.0  -   RELEASE  -
|  1> !TPSSh aug-cc-pVTZ d3 TightSCF SlowConv RIJCOSX defgrid2
|  2>
|  3> %pal
|  4> nprocs 15
|  5> end
|  6>
|  7> %scf
|  8> MaxIter 1500
|  9> end
| 10>
| 11> %maxcore 3500
| 12>
| 13> !CPCM
| 14> %cpcm smd true
| 15> SMDsolvent "WATER"
| 16> surfacetype gepol_ses
| 17> rsolv 1.40
| 18> end
| 19>
| 20> * xyz 0 2
| 21> O           1.88690927477882      3.74806898805585      1.42790289574278
| 22> N           2.66570902784045      2.77513380487914      1.23314234100198
| 23> C           3.71807770622021      2.91486477310037      0.20083862291935
| 24> C           4.06679330721770      1.52187309981258     -0.33561683406574
| 25> C           4.26235980542420      0.51991448657483      0.75657521226637
| 26> C           3.67404864254557      0.65032800080598      1.94644397870158
| 27> C           2.73307636235429      1.76248913631005      2.31086399015079
| 28> C           4.95112257605395      3.58551917484617      0.81923431194237
| 29> C           3.16091226951920      3.78193702577193     -0.92132048240517
| 30> C           3.17395858898893      2.44345537325049      3.61369764885195
| 31> C           1.32073939913320      1.18748524121188      2.48092813116148
| 32> H           4.97513017363378      1.60092795230428     -0.95867141911157
| 33> H           3.26044945528291      1.18093042448815     -1.01431485641457
| 34> H           4.90234278810831     -0.34794900982598      0.56007401454088
| 35> H           3.82972945021685     -0.10316520119785      2.72741095147656
| 36> H           4.65258295126461      4.52123052785349      1.32092945486630
| 37> H           5.44112718582814      2.92720008818477      1.55542007959442
| 38> H           5.68693306335011      3.83067566104788      0.03349341051902
| 39> H           2.94941849475266      4.80089518300529     -0.56613909595122
| 40> H           2.22162992414553      3.35760034153928     -1.31367493520621
| 41> H           3.89642864117668      3.83221617465297     -1.74256230977595
| 42> H           2.49710932074295      3.28563400859979      3.82950614292032
| 43> H           4.20428697805417      2.82730905875215      3.53671032500385
| 44> H           3.13322334174784      1.72739398341330      4.45203000678507
| 45> H           0.61667710656740      2.00289288566967      2.71131797235433
| 46> H           0.99501687952592      0.68921661071683      1.55267423468629
| 47> H           1.30310628552554      0.45079320617666      3.30164820744471
| 48> *
| 49>
| 50>                          ****END OF INPUT****

CARTESIAN COORDINATES (ANGSTROEM)
---------------------------------
  O      1.886909    3.748069    1.427903
  N      2.665709    2.775134    1.233142
  C      3.718078    2.914865    0.200839
  C      4.066793    1.521873   -0.335617
  C      4.262360    0.519914    0.756575
  C      3.674049    0.650328    1.946444
  C      2.733076    1.762489    2.310864
  C      4.951123    3.585519    0.819234
  C      3.160912    3.781937   -0.921320
  C      3.173959    2.443455    3.613698
  C      1.320739    1.187485    2.480928
  H      4.975130    1.600928   -0.958671
  H      3.260449    1.180930   -1.014315
  H      4.902343   -0.347949    0.560074
  H      3.829729   -0.103165    2.727411
  H      4.652583    4.521231    1.320929
  H      5.441127    2.927200    1.555420
  H      5.686933    3.830676    0.033493
  H      2.949418    4.800895   -0.566139
  H      2.221630    3.357600   -1.313675
  H      3.896429    3.832216   -1.742562
  H      2.497109    3.285634    3.829506
  H      4.204287    2.827309    3.536710
  H      3.133223    1.727394    4.452030
  H      0.616677    2.002893    2.711318
  H      0.995017    0.689217    1.552674
  H      1.303106    0.450793    3.301648

 Total Charge           Charge          ....    0
 Multiplicity           Mult            ....    2
 Number of Electrons    NEL             ....   85
 Basis Dimension        Dim             ....  874

ORBITAL ENERGIES
----------------
                 SPIN UP ORBITALS
  NO   OCC          E(Eh)            E(eV)
   0   1.0000     -19.058016      -518.5950
   1   1.0000     -14.343419      -390.3043
   2   1.0000     -10.163784      -276.5706
   3   1.0000     -10.160764      -276.4885
   4   1.0000     -10.115798      -275.2649
   5   1.0000     -10.112994      -275.1885
   6   1.0000     -10.111586      -275.1503
   7   1.0000     -10.104972      -274.9703
   8   1.0000     -10.104961      -274.9700
   9   1.0000     -10.104670      -274.9621
  10   1.0000     -10.101711      -274.8815
  11   1.0000      -1.087927       -29.6040
  12   1.0000      -0.856193       -23.2982
  13   1.0000      -0.800998       -21.7963
  14   1.0000      -0.749452       -20.3936
  15   1.0000      -0.702153       -19.1066
  16   1.0000      -0.673988       -18.3402
  17   1.0000      -0.664748       -18.0887
  18   1.0000      -0.661345       -17.9961
  19   1.0000      -0.580934       -15.8080
  20   1.0000      -0.565095       -15.3770
  21   1.0000      -0.490999       -13.3608
  22   1.0000      -0.477609       -12.9964
  23   1.0000      -0.475145       -12.9294
  24   1.0000      -0.450513       -12.2591
  25   1.0000      -0.430350       -11.7104
  26   1.0000      -0.421335       -11.4651
  27   1.0000      -0.418540       -11.3891
  28   1.0000      -0.394688       -10.7400
  29   1.0000      -0.387504       -10.5445
  30   1.0000      -0.382474       -10.4076
  31   1.0000      -0.371485       -10.1086
  32   1.0000      -0.358564        -9.7570
  33   1.0000      -0.357143        -9.7184
  34   1.0000      -0.353963        -9.6318
  35   1.0000      -0.348501        -9.4832
  36   1.0000      -0.329741        -8.9727
  37   1.0000      -0.326368        -8.8809
  38   1.0000      -0.320240        -8.7142
  39   1.0000      -0.300072        -8.1654
  40   1.0000      -0.247084        -6.7235
  41   1.0000      -0.239082        -6.5057
  42   1.0000      -0.181570        -4.9408
  43   0.0000      -0.006424        -0.1748
  44   0.0000      -0.002739        -0.0745
  45   0.0000       0.008807         0.2396
  46   0.0000       0.009974         0.2714
  47   0.0000       0.015101         0.4109

                 SPIN DOWN ORBITALS
  NO   OCC          E(Eh)            E(eV)
   0   1.0000     -19.045255      -518.2477
   1   1.0000     -14.330333      -389.9482
   2   1.0000     -10.164229      -276.5827
   3   1.0000     -10.161173      -276.4996
   4   1.0000     -10.115618      -275.2600
   5   1.0000     -10.113033      -275.1896
   6   1.0000     -10.111547      -275.1492
   7   1.0000     -10.104592      -274.9599
   8   1.0000     -10.104359      -274.9536
   9   1.0000     -10.103872      -274.9403
  10   1.0000     -10.101596      -274.8784
  11   1.0000      -1.066481       -29.0204
  12   1.0000      -0.847505       -23.0618
  13   1.0000      -0.800017       -21.7696
  14   1.0000      -0.744523       -20.2595
  15   1.0000      -0.690261       -18.7830
  16   1.0000      -0.671589       -18.2749
  17   1.0000      -0.663416       -18.0525
  18   1.0000      -0.660993       -17.9865
  19   1.0000      -0.578739       -15.7483
  20   1.0000      -0.561865       -15.2891
  21   1.0000      -0.482545       -13.1307
  22   1.0000      -0.475468       -12.9381
  23   1.0000      -0.463511       -12.6128
  24   1.0000      -0.434856       -11.8330
  25   1.0000      -0.425713       -11.5842
  26   1.0000      -0.418629       -11.3915
  27   1.0000      -0.413579       -11.2540
  28   1.0000      -0.393394       -10.7048
  29   1.0000      -0.381670       -10.3858
  30   1.0000      -0.378590       -10.3019
  31   1.0000      -0.369929       -10.0663
  32   1.0000      -0.358000        -9.7417
  33   1.0000      -0.352975        -9.6049
  34   1.0000      -0.348097        -9.4722
  35   1.0000      -0.343940        -9.3591
  36   1.0000      -0.327903        -8.9227
  37   1.0000      -0.321433        -8.7466
  38   1.0000      -0.302675        -8.2362
  39   1.0000      -0.297689        -8.1005
  40   1.0000      -0.240151        -6.5348
  41   1.0000      -0.238013        -6.4767
  42   0.0000      -0.072701        -1.9783
  43   0.0000      -0.006073        -0.1653
  44   0.0000      -0.002271        -0.0618
  45   0.0000       0.009682         0.2635
  46   0.0000       0.010249         0.2789

MULLIKEN ATOMIC CHARGES AND SPIN POPULATIONS
--------------------------------------------
   0 O :   -1.222240    0.484774
   1 N :    0.555511    0.485342
   2 C :    1.405248   -0.040839
   3 C :    0.163834    0.009948
   4 C :   -0.409185   -0.006086
   5 C :   -0.549934    0.005876
   6 C :    1.274023   -0.055153
   7 C :   -0.428873    0.034859
   8 C :   -0.714152    0.007333
   9 C :   -0.604808    0.040337
  10 C :   -0.656221    0.018998
  11 H :   -0.013123   -0.000188
  12 H :    0.075349    0.006187
  13 H :    0.475897    0.000936
  14 H :    0.058864   -0.000545
  15 H :    0.057357   -0.003291
  16 H :    0.190829    0.001385
  17 H :   -0.103183    0.011238
  18 H :    0.053012   -0.005478
  19 H :    0.076817   -0.000636
  20 H :    0.000581   -0.000899
  21 H :    0.007782    0.003349
  22 H :    0.161759   -0.000998
  23 H :   -0.011240    0.003370
  24 H :    0.057262    0.000878
  25 H :    0.067503   -0.001176
  26 H :    0.031332    0.000477
Sum of atomic charges         :   -0.0000000

LOEWDIN ATOMIC CHARGES AND SPIN POPULATIONS
-------------------------------------------
   0 O :    0.387599    0.431076
   1 N :   -0.121475    0.401713
   2 C :   -0.452739    0.044292
   3 C :    0.276114    0.005486
   4 C :    0.243834   -0.000003
   5 C :    0.221808    0.002409
   6 C :   -0.475970    0.041466
   7 C :    0.592742    0.021819
   8 C :    0.559617    0.000950
   9 C :    0.581569    0.017397
  10 C :    0.576025    0.009179
  11 H :   -0.123564    0.000636
  12 H :   -0.122969    0.001223
  13 H :   -0.158002   -0.000213
  14 H :   -0.148055    0.000049
  15 H :   -0.144138    0.001563
  16 H :   -0.160824    0.001925
  17 H :   -0.137840    0.006819
  18 H :   -0.173698   -0.000268
  19 H :   -0.149290    0.000627
  20 H :   -0.141207   -0.000137
  21 H :   -0.167116    0.002090
  22 H :   -0.158339    0.001640
  23 H :   -0.143130    0.004460
  24 H :   -0.171748    0.000259
  25 H :   -0.144764    0.001708
  26 H :   -0.144439    0.001833

  Mayer bond orders larger than 0.100000
B(  0-O ,  1-N ) :   0.2907 B(  0-O ,  6-C ) :  -0.1757 B(  0-O , 10-C ) :   0.1079
B(  1-N ,  2-C ) :   0.6785 B(  1-N ,  3-C ) :   0.2946 B(  1-N ,  6-C ) :   0.8485
B(  2-C ,  3-C ) :   0.6546 B(  2-C ,  4-C ) :   0.2422 B(  2-C ,  5-C ) :   0.1912
B(  2-C ,  6-C ) :  -0.1502 B(  2-C ,  7-C ) :   0.7351 B(  2-C ,  8-C ) :   0.5763
B(  2-C , 12-H ) :   0.1107 B(  3-C ,  4-C ) :   0.6036 B(  3-C , 11-H ) :   0.8988
B(  3-C , 12-H ) :   0.9294 B(  3-C , 13-H ) :   0.1994 B(  4-C ,  5-C ) :   1.8144
B(  4-C , 13-H ) :   0.2405 B(  5-C ,  6-C ) :   0.6922 B(  5-C ,  9-C ) :  -0.1192
B(  5-C , 10-C ) :  -0.1068 B(  5-C , 13-H ) :   0.1185 B(  5-C , 14-H ) :   1.1522
B(  6-C ,  9-C ) :   0.8587 B(  6-C , 10-C ) :   0.7319 B(  7-C ,  8-C ) :   0.1262
B(  7-C , 15-H ) :   0.9669 B(  7-C , 16-H ) :   0.9079 B(  7-C , 17-H ) :   1.0940
B(  8-C , 18-H ) :   1.0308 B(  8-C , 19-H ) :   1.0231 B(  8-C , 20-H ) :   1.1008
B(  9-C , 10-C ) :   0.1352 B(  9-C , 21-H ) :   1.0751 B(  9-C , 22-H ) :   0.9124
B(  9-C , 23-H ) :   1.0843 B( 10-C , 24-H ) :   1.0549 B( 10-C , 25-H ) :   0.9985
B( 10-C , 26-H ) :   1.0485

Dispersion correction           -0.035662081
FINAL SINGLE POINT ENERGY      -482.730731485349

DIPOLE MOMENT
-------------

Method             : SCF
Type of density    : Electron Density
Multiplicity       :   2
Irrep              :   0
Energy             :  -482.6950694044566035 Eh
Relativity type    :
Basis              : AO
                                X                 Y                 Z
Electronic contribution:     -1.688332893      -0.881547215      -0.437678397
Nuclear contribution   :      2.934205534      -0.334114235       0.179164827
                        -----------------------------------------
Total Dipole Moment    :      1.245872641      -1.215661450      -0.258513570
                        -----------------------------------------
Magnitude (a.u.)       :      1.759789949
Magnitude (Debye)      :      4.473030573

Rotational constants in cm-1:             0.051691             0.036550             0.029790
Rotational constants in MHz :          1549.648951          1095.742777           893.076591

                             ****ORCA TERMINATED NORMALLY****
TOTAL RUN TIME: 0 days 0 hours 6 minutes 41 seconds 643 msec
