                         Program Version 6.0.0  -   RELEASE  -
|  1> !B3LYP aug-cc-pVTZ d3 TightSCF SlowConv RIJCOSX defgrid2
|  2>
|  3> %pal
|  4> nprocs 6
|  5> end
|  6>
|  7> %scf
|  8> MaxIter 1500
|  9> end
| 10>
| 11> %maxcore 3000
| 12>
| 13> !CPCM
| 14> %cpcm smd true
| 15> SMDsolvent "MeCN"
| 16> surfacetype gepol_ses
| 17> rsolv 2.19
| 18> end
| 19>
| 20> * xyz -1 2
| 21>   C          -1.16908364743389     -1.25106043112589     -0.00046711885945
| 22>   C          -2.51558895662628     -0.94805778331016     -0.00048970260602
| 23>   C          -2.96951415995677      0.38786935411419     -0.00003437372110
| 24>   C          -1.99949719417351      1.41257476413842      0.00046952009611
| 25>   C          -0.64650719425624      1.13368035065037      0.00050575201273
| 26>   C          -0.16707249946699     -0.21739071251225      0.00002200149285
| 27>   C           1.18771930240505     -0.62830725495849      0.00000084051024
| 28>   O           1.69166054938407     -1.73447405522234     -0.00027921149921
| 29>   Cl          2.41415222066200      0.84117378911090      0.00088007792741
| 30>   H           0.08783721642061      1.94210741862158      0.00088650713536
| 31>   H          -2.32239478311716      2.46171169296406      0.00083360203305
| 32>   H          -4.03893270236722      0.62157662484535     -0.00006413910783
| 33>   H          -3.24555265578784     -1.76825494852385     -0.00088549117391
| 34>   H          -0.82790279568582     -2.29013880879190     -0.00083276424023
| 35> *
| 36>
| 37>                          ****END OF INPUT****

CARTESIAN COORDINATES (ANGSTROEM)
---------------------------------
  C     -1.169084   -1.251060   -0.000467
  C     -2.515589   -0.948058   -0.000490
  C     -2.969514    0.387869   -0.000034
  C     -1.999497    1.412575    0.000470
  C     -0.646507    1.133680    0.000506
  C     -0.167072   -0.217391    0.000022
  C      1.187719   -0.628307    0.000001
  O      1.691661   -1.734474   -0.000279
  Cl     2.414152    0.841174    0.000880
  H      0.087837    1.942107    0.000887
  H     -2.322395    2.461712    0.000834
  H     -4.038933    0.621577   -0.000064
  H     -3.245553   -1.768255   -0.000885
  H     -0.827903   -2.290139   -0.000833

 Total Charge           Charge          ....   -1
 Multiplicity           Mult            ....    2
 Number of Electrons    NEL             ....   73
 Basis Dimension        Dim             ....  533

ORBITAL ENERGIES
----------------
                 SPIN UP ORBITALS
  NO   OCC          E(Eh)            E(eV)
   0   1.0000    -101.512585     -2762.2979
   1   1.0000     -19.092433      -519.5315
   2   1.0000     -10.246111      -278.8109
   3   1.0000     -10.165334      -276.6128
   4   1.0000     -10.159551      -276.4554
   5   1.0000     -10.158975      -276.4398
   6   1.0000     -10.156039      -276.3599
   7   1.0000     -10.155974      -276.3581
   8   1.0000     -10.151637      -276.2401
   9   1.0000      -9.417462      -256.2622
  10   1.0000      -7.178618      -195.3401
  11   1.0000      -7.172991      -195.1870
  12   1.0000      -7.172407      -195.1711
  13   1.0000      -1.021508       -27.7966
  14   1.0000      -0.835019       -22.7220
  15   1.0000      -0.788282       -21.4502
  16   1.0000      -0.735634       -20.0176
  17   1.0000      -0.726823       -19.7779
  18   1.0000      -0.624388       -16.9905
  19   1.0000      -0.579136       -15.7591
  20   1.0000      -0.531444       -14.4613
  21   1.0000      -0.483570       -13.1586
  22   1.0000      -0.445249       -12.1158
  23   1.0000      -0.436399       -11.8750
  24   1.0000      -0.411464       -11.1965
  25   1.0000      -0.405471       -11.0334
  26   1.0000      -0.400291       -10.8925
  27   1.0000      -0.392783       -10.6882
  28   1.0000      -0.348023        -9.4702
  29   1.0000      -0.343447        -9.3457
  30   1.0000      -0.314556        -8.5595
  31   1.0000      -0.289312        -7.8726
  32   1.0000      -0.286227        -7.7886
  33   1.0000      -0.253235        -6.8909
  34   1.0000      -0.249590        -6.7917
  35   1.0000      -0.248414        -6.7597
  36   1.0000      -0.109463        -2.9787
  37   0.0000      -0.002974        -0.0809
  38   0.0000       0.000948         0.0258
  39   0.0000       0.012033         0.3274
  40   0.0000       0.016929         0.4607
  41   0.0000       0.027891         0.7590

                 SPIN DOWN ORBITALS
  NO   OCC          E(Eh)            E(eV)
   0   1.0000    -101.512564     -2762.2973
   1   1.0000     -19.087023      -519.3843
   2   1.0000     -10.241345      -278.6812
   3   1.0000     -10.164947      -276.6023
   4   1.0000     -10.160765      -276.4885
   5   1.0000     -10.160106      -276.4705
   6   1.0000     -10.153408      -276.2883
   7   1.0000     -10.153351      -276.2867
   8   1.0000     -10.147479      -276.1269
   9   1.0000      -9.417441      -256.2616
  10   1.0000      -7.178831      -195.3459
  11   1.0000      -7.172681      -195.1786
  12   1.0000      -7.172405      -195.1711
  13   1.0000      -1.011371       -27.5208
  14   1.0000      -0.830805       -22.6073
  15   1.0000      -0.785848       -21.3840
  16   1.0000      -0.730186       -19.8694
  17   1.0000      -0.723379       -19.6841
  18   1.0000      -0.612941       -16.6790
  19   1.0000      -0.577690       -15.7198
  20   1.0000      -0.527428       -14.3520
  21   1.0000      -0.478908       -13.0317
  22   1.0000      -0.442448       -12.0396
  23   1.0000      -0.431337       -11.7373
  24   1.0000      -0.409987       -11.1563
  25   1.0000      -0.399233       -10.8637
  26   1.0000      -0.389770       -10.6062
  27   1.0000      -0.380429       -10.3520
  28   1.0000      -0.341099        -9.2818
  29   1.0000      -0.334010        -9.0889
  30   1.0000      -0.313567        -8.5326
  31   1.0000      -0.285624        -7.7722
  32   1.0000      -0.282341        -7.6829
  33   1.0000      -0.249896        -6.8000
  34   1.0000      -0.239277        -6.5111
  35   1.0000      -0.228848        -6.2273
  36   0.0000      -0.036549        -0.9946
  37   0.0000      -0.002441        -0.0664
  38   0.0000       0.005752         0.1565
  39   0.0000       0.012464         0.3392
  40   0.0000       0.016702         0.4545

MULLIKEN ATOMIC CHARGES AND SPIN POPULATIONS
--------------------------------------------
   0 C :   -0.900285    0.215707
   1 C :   -0.426924   -0.082888
   2 C :   -0.411370    0.301613
   3 C :   -0.629064   -0.078997
   4 C :   -0.893652    0.203863
   5 C :    1.577536    0.052928
   6 C :    0.395951    0.243254
   7 O :   -0.822493    0.200503
   8 Cl:   -0.466206    0.006304
   9 H :    0.161918   -0.018891
  10 H :    0.471133   -0.001931
  11 H :    0.432827   -0.013094
  12 H :    0.399351   -0.004175
  13 H :    0.111276   -0.024198
Sum of atomic charges         :   -1.0000000

LOEWDIN ATOMIC CHARGES AND SPIN POPULATIONS
-------------------------------------------
   0 C :    0.129928    0.095087
   1 C :    0.129530    0.031405
   2 C :    0.142764    0.135338
   3 C :    0.126668    0.032463
   4 C :    0.095743    0.092772
   5 C :   -0.330359    0.115158
   6 C :   -1.142803    0.208983
   7 O :    0.290878    0.194284
   8 Cl:    0.601319    0.028635
   9 H :   -0.273283    0.019114
  10 H :   -0.184456   -0.004508
  11 H :   -0.199114    0.035539
  12 H :   -0.183313   -0.005026
  13 H :   -0.203502    0.020756

  Mayer bond orders larger than 0.100000
B(  0-C ,  1-C ) :   1.2723 B(  0-C ,  4-C ) :  -0.1943 B(  0-C ,  5-C ) :   0.3537
B(  0-C ,  6-C ) :   0.2288 B(  0-C , 12-H ) :  -0.1226 B(  0-C , 13-H ) :   1.0654
B(  1-C ,  2-C ) :   1.0504 B(  1-C , 11-H ) :  -0.1028 B(  1-C , 12-H ) :   0.7479
B(  2-C ,  3-C ) :   1.0854 B(  2-C ,  5-C ) :  -0.1228 B(  2-C ,  6-C ) :   0.1317
B(  2-C , 11-H ) :   0.7309 B(  3-C ,  4-C ) :   1.2358 B(  3-C , 10-H ) :   0.6379
B(  3-C , 11-H ) :  -0.1012 B(  4-C ,  5-C ) :   0.1074 B(  4-C ,  6-C ) :   0.3886
B(  4-C ,  9-H ) :   1.3411 B(  4-C , 10-H ) :  -0.1260 B(  5-C ,  6-C ) :   0.6498
B(  5-C ,  7-O ) :   0.2214 B(  5-C ,  9-H ) :  -0.1020 B(  5-C , 13-H ) :  -0.1018
B(  6-C ,  7-O ) :   0.8494 B(  6-C ,  8-Cl) :   0.6941 B(  7-O ,  8-Cl) :   0.1030
B(  7-O , 13-H ) :   0.1438

Dispersion correction           -0.028043367
FINAL SINGLE POINT ENERGY      -805.218008045750

DIPOLE MOMENT
-------------

Method             : SCF
Type of density    : Electron Density
Multiplicity       :   2
Irrep              :   0
Energy             :  -805.1899646790770930 Eh
Relativity type    :
Basis              : AO
                                X                 Y                 Z
Electronic contribution:     11.120287873       1.065654978       0.001909527
Nuclear contribution   :    -12.989017313      -0.288558488      -0.001883982
                        -----------------------------------------
Total Dipole Moment    :     -1.868729441       0.777096491       0.000025545
                        -----------------------------------------
Magnitude (a.u.)       :      2.023864788
Magnitude (Debye)      :      5.144255470

Rotational constants in cm-1:             0.100365             0.030413             0.023340
Rotational constants in MHz :          3008.857541           911.756969           699.723685

                             ****ORCA TERMINATED NORMALLY****
TOTAL RUN TIME: 0 days 0 hours 3 minutes 50 seconds 589 msec
