                         Program Version 6.0.0  -   RELEASE  -
|  1> !B3LYP aug-cc-pVTZ d3 TightSCF SlowConv RIJCOSX defgrid2
|  2>
|  3> %pal
|  4> nprocs 4
|  5> end
|  6>
|  7> %scf
|  8> MaxIter 1500
|  9> end
| 10>
| 11> %maxcore 3000
| 12>
| 13> !CPCM
| 14> %cpcm smd true
| 15> SMDsolvent "MeCN"
| 16> surfacetype gepol_ses
| 17> rsolv 2.19
| 18> end
| 19>
| 20> * xyz 0 1
| 21> C          -1.45296729722658     -1.28151002156026      0.14194546330159
| 22> C          -0.60306064093871     -0.04446072545809      0.33193281816932
| 23> C          -1.12567582222179      1.18572814043815      0.12630733698000
| 24> C          -2.55837598067552      1.44742458580996     -0.24068448507496
| 25> C          -3.28245282065203      0.19560476706937     -0.72004405890606
| 26> C          -2.94627665247128     -0.98032771771694      0.18458848750905
| 27> H          -3.24213594686381     -0.73932071348069      1.22299729825620
| 28> H          -3.51449794303560     -1.88061999821498     -0.10780941455212
| 29> H          -2.96673003571617     -0.04268032662380     -1.75366325316112
| 30> H          -4.37226581908345      0.36951687899438     -0.75213967938313
| 31> H          -3.09908269921816      1.87422825597419      0.63030428128422
| 32> H          -2.60322712915400      2.23069777526909     -1.02025270689355
| 33> H          -0.49994736161941      2.07353459912717      0.25424693160649
| 34> N           0.69303529191099     -0.28438264709477      0.79958397475949
| 35> C           1.57818723018607      0.82467461252518      1.08644856048943
| 36> H           1.00739506236315      1.66619965765170      1.50706427051622
| 37> C           2.37028080978361      1.23291703973064     -0.15041034302315
| 38> H           3.11077065191675      2.01322480282712      0.09126019237819
| 39> H           1.68417673001968      1.63130127074136     -0.92725467919408
| 40> O           3.09036409417407      0.13568205210303     -0.65709465576006
| 41> C           2.25560936007911     -0.95058613299193     -0.96380125980268
| 42> H           1.55178445834774     -0.67753645106666     -1.78072161009415
| 43> C           1.45943271566799     -1.39404343918770      0.25851152105089
| 44> H           2.16510802761640     -1.74198715640152      1.03622997878760
| 45> H           0.80313522562159     -2.23935561078539      0.00674701884856
| 46> H           2.90949410693522     -1.76130630349583     -1.32634069968529
| 47> H           2.29502525894536      0.49140375143543      1.86065453402124
| 48> H          -1.20950686050662     -1.76150886737077     -0.82651158365816
| 49> H          -1.19559941418460     -2.01612497824744      0.92558666123002
| 50> *
| 51>
| 52>                          ****END OF INPUT****

CARTESIAN COORDINATES (ANGSTROEM)
---------------------------------
  C     -1.452967   -1.281510    0.141945
  C     -0.603061   -0.044461    0.331933
  C     -1.125676    1.185728    0.126307
  C     -2.558376    1.447425   -0.240684
  C     -3.282453    0.195605   -0.720044
  C     -2.946277   -0.980328    0.184588
  H     -3.242136   -0.739321    1.222997
  H     -3.514498   -1.880620   -0.107809
  H     -2.966730   -0.042680   -1.753663
  H     -4.372266    0.369517   -0.752140
  H     -3.099083    1.874228    0.630304
  H     -2.603227    2.230698   -1.020253
  H     -0.499947    2.073535    0.254247
  N      0.693035   -0.284383    0.799584
  C      1.578187    0.824675    1.086449
  H      1.007395    1.666200    1.507064
  C      2.370281    1.232917   -0.150410
  H      3.110771    2.013225    0.091260
  H      1.684177    1.631301   -0.927255
  O      3.090364    0.135682   -0.657095
  C      2.255609   -0.950586   -0.963801
  H      1.551784   -0.677536   -1.780722
  C      1.459433   -1.394043    0.258512
  H      2.165108   -1.741987    1.036230
  H      0.803135   -2.239356    0.006747
  H      2.909494   -1.761306   -1.326341
  H      2.295025    0.491404    1.860655
  H     -1.209507   -1.761509   -0.826512
  H     -1.195599   -2.016125    0.925587

 Total Charge           Charge          ....    0
 Multiplicity           Mult            ....    1
 Number of Electrons    NEL             ....   92
 Basis Dimension        Dim             ....  943

ORBITAL ENERGIES
----------------

  NO   OCC          E(Eh)            E(eV)
   0   2.0000     -19.128103      -520.5021
   1   2.0000     -14.318831      -389.6352
   2   2.0000     -10.208579      -277.7895
   3   2.0000     -10.208102      -277.7766
   4   2.0000     -10.195183      -277.4250
   5   2.0000     -10.190967      -277.3103
   6   2.0000     -10.189028      -277.2575
   7   2.0000     -10.163292      -276.5572
   8   2.0000     -10.158685      -276.4319
   9   2.0000     -10.157864      -276.4095
  10   2.0000     -10.155334      -276.3407
  11   2.0000     -10.141203      -275.9562
  12   2.0000      -1.044108       -28.4116
  13   2.0000      -0.936987       -25.4967
  14   2.0000      -0.819075       -22.2882
  15   2.0000      -0.767249       -20.8779
  16   2.0000      -0.739417       -20.1206
  17   2.0000      -0.729252       -19.8440
  18   2.0000      -0.670050       -18.2330
  19   2.0000      -0.653643       -17.7865
  20   2.0000      -0.607182       -16.5223
  21   2.0000      -0.594057       -16.1651
  22   2.0000      -0.560279       -15.2460
  23   2.0000      -0.516720       -14.0607
  24   2.0000      -0.497129       -13.5276
  25   2.0000      -0.472002       -12.8438
  26   2.0000      -0.469217       -12.7680
  27   2.0000      -0.457672       -12.4539
  28   2.0000      -0.456032       -12.4092
  29   2.0000      -0.439596       -11.9620
  30   2.0000      -0.418785       -11.3957
  31   2.0000      -0.413936       -11.2638
  32   2.0000      -0.400920       -10.9096
  33   2.0000      -0.390328       -10.6214
  34   2.0000      -0.380609       -10.3569
  35   2.0000      -0.367996       -10.0137
  36   2.0000      -0.364548        -9.9198
  37   2.0000      -0.348520        -9.4837
  38   2.0000      -0.344362        -9.3706
  39   2.0000      -0.322404        -8.7731
  40   2.0000      -0.316670        -8.6170
  41   2.0000      -0.311321        -8.4715
  42   2.0000      -0.298492        -8.1224
  43   2.0000      -0.283032        -7.7017
  44   2.0000      -0.253475        -6.8974
  45   2.0000      -0.181577        -4.9410
  46   0.0000      -0.004507        -0.1226
  47   0.0000       0.006960         0.1894
  48   0.0000       0.008388         0.2283
  49   0.0000       0.010524         0.2864
  50   0.0000       0.023137         0.6296

MULLIKEN ATOMIC CHARGES
-----------------------
   0 C :   -0.152202
   1 C :    1.707062
   2 C :   -0.800472
   3 C :   -0.312466
   4 C :   -0.316360
   5 C :   -0.570007
   6 H :    0.112007
   7 H :    0.184687
   8 H :    0.137334
   9 H :    0.197908
  10 H :    0.146228
  11 H :    0.175875
  12 H :   -0.206252
  13 N :   -0.099339
  14 C :   -0.692027
  15 H :    0.134761
  16 C :   -0.038383
  17 H :    0.292291
  18 H :    0.219345
  19 O :   -0.783194
  20 C :   -0.090167
  21 H :    0.228356
  22 C :   -0.588816
  23 H :    0.207580
  24 H :    0.192964
  25 H :    0.248025
  26 H :    0.149099
  27 H :    0.157239
  28 H :    0.158924
Sum of atomic charges:   -0.0000000

LOEWDIN ATOMIC CHARGES
----------------------
   0 C :    0.263024
   1 C :   -0.191522
   2 C :    0.239323
   3 C :    0.237009
   4 C :    0.258332
   5 C :    0.269997
   6 H :   -0.124230
   7 H :   -0.125937
   8 H :   -0.127518
   9 H :   -0.129335
  10 H :   -0.136111
  11 H :   -0.141050
  12 H :   -0.198478
  13 N :    0.276906
  14 C :    0.167526
  15 H :   -0.150674
  16 C :    0.029221
  17 H :   -0.140439
  18 H :   -0.141029
  19 O :    0.592759
  20 C :    0.029016
  21 H :   -0.131313
  22 C :    0.175064
  23 H :   -0.121544
  24 H :   -0.157465
  25 H :   -0.141164
  26 H :   -0.124985
  27 H :   -0.123335
  28 H :   -0.132046

  Mayer bond orders larger than 0.100000
B(  0-C ,  1-C ) :   0.6639 B(  0-C ,  2-C ) :  -0.1378 B(  0-C ,  5-C ) :   0.8720
B(  0-C , 27-H ) :   1.0419 B(  0-C , 28-H ) :   0.9920 B(  1-C ,  2-C ) :   0.2913
B(  1-C ,  3-C ) :  -0.1239 B(  1-C , 12-H ) :  -0.3084 B(  1-C , 13-N ) :   0.1711
B(  1-C , 14-C ) :  -0.1635 B(  2-C ,  3-C ) :   0.5994 B(  2-C ,  4-C ) :   0.1149
B(  2-C , 12-H ) :   1.6879 B(  2-C , 13-N ) :  -0.1390 B(  3-C ,  4-C ) :   0.9733
B(  3-C , 10-H ) :   1.0373 B(  3-C , 11-H ) :   0.9904 B(  3-C , 12-H ) :  -0.1388
B(  4-C ,  5-C ) :   0.9816 B(  4-C ,  8-H ) :   1.0265 B(  4-C ,  9-H ) :   0.9571
B(  5-C ,  6-H ) :   1.0933 B(  5-C ,  7-H ) :   0.9500 B( 13-N , 14-C ) :   1.0744
B( 13-N , 22-C ) :   0.9193 B( 14-C , 15-H ) :   1.0516 B( 14-C , 16-C ) :   0.8744
B( 14-C , 19-O ) :   0.1387 B( 14-C , 22-C ) :   0.2479 B( 14-C , 26-H ) :   1.0002
B( 16-C , 17-H ) :   0.9261 B( 16-C , 18-H ) :   0.9964 B( 16-C , 19-O ) :   0.7385
B( 19-O , 20-C ) :   0.7907 B( 19-O , 22-C ) :   0.1178 B( 20-C , 21-H ) :   0.9771
B( 20-C , 22-C ) :   0.9693 B( 20-C , 25-H ) :   0.9535 B( 22-C , 23-H ) :   0.9929
B( 22-C , 24-H ) :   0.9550

Dispersion correction           -0.053009793
FINAL SINGLE POINT ENERGY      -521.160737212702

DIPOLE MOMENT
-------------

Method             : SCF
Type of density    : Electron Density
Multiplicity       :   1
Irrep              :   0
Energy             :  -521.1077274199340081 Eh
Relativity type    :
Basis              : AO
                                X                 Y                 Z
Electronic contribution:      6.397852667       0.179055393       0.923943206
Nuclear contribution   :     -6.702563356      -0.526145010      -0.941660721
                        -----------------------------------------
Total Dipole Moment    :     -0.304710688      -0.347089617      -0.017717515
                        -----------------------------------------
Magnitude (a.u.)       :      0.462205275
Magnitude (Debye)      :      1.174832443

Rotational constants in cm-1:             0.066375             0.019173             0.017047
Rotational constants in MHz :          1989.867281           574.782651           511.066485

                             ****ORCA TERMINATED NORMALLY****
TOTAL RUN TIME: 0 days 0 hours 11 minutes 22 seconds 347 msec
