                         Program Version 6.0.0  -   RELEASE  -
|  1> !r2SCAN opt aug-cc-pVTZ d3 TightSCF SlowConv RIJCOSX defgrid2
|  2>
|  3> %pal
|  4> nprocs 8
|  5> end
|  6>
|  7> %scf
|  8> MaxIter 1500
|  9> end
| 10>
| 11> %maxcore 3500
| 12>
| 13> !CPCM
| 14> %cpcm smd true
| 15> SMDsolvent "MeCN"
| 16> surfacetype gepol_ses
| 17> rsolv 2.19
| 18> end
| 19>
| 20> * xyz 0 1
| 21>   C          -0.32929488413657      0.79958569403428      0.00044273535199
| 22>   C          -1.62064273901710      0.26512523742046     -0.00020576169036
| 23>   C          -1.80432551351291     -1.11702937985967      0.00040659700901
| 24>   C          -0.67721002406201     -1.94268452957353      0.00208797584013
| 25>   C           0.60475083946867     -1.41996105828678      0.00282182676021
| 26>   C           0.79623097182594     -0.02620793764457      0.00167680462721
| 27>   C           2.12003001414923      0.60623088110746      0.00195889667842
| 28>   C           3.30641276426241     -0.01400237289311     -0.00198378489099
| 29>   C           4.62380142061727      0.68911900588518     -0.00119207997422
| 30>   H           5.21449119138271      0.41087526655385     -0.88079707373311
| 31>   H           5.21822793733002      0.40102406633612      0.87271923920832
| 32>   H           4.50188721530458      1.77395550003908      0.00505557433799
| 33>   H           3.34867776156783     -1.10033674308372     -0.00638425570909
| 34>   H           2.10706040858269      1.69424506736667      0.00536777232973
| 35>   H           1.45418527737287     -2.09083281621199      0.00484806129512
| 36>   H          -0.81713692626644     -3.01746919504622      0.00321379625985
| 37>   H          -2.79302535743489     -1.55356575501186     -0.00063295864249
| 38>   O          -2.63724047795254      1.17280763041773     -0.00143754498251
| 39>   C          -3.97281153020014      0.65970820471451     -0.00151714938107
| 40>   H          -4.62235565773561      1.53218843498021     -0.00192511531647
| 41>   H          -4.16125459990047      0.06074074115443      0.89321910754182
| 42>   H          -4.16079480798000      0.06040695045440     -0.89606844083238
| 43>   H          -0.21249908366553      1.87744010714706     -0.00041962208710
| 44> *
| 45>
| 46>                          ****END OF INPUT****
 Total Charge           Charge          ....    0
 Multiplicity           Mult            ....    1
 Number of Electrons    NEL             ....   80
Dispersion correction           -0.006990262
FINAL SINGLE POINT ENERGY      -463.406336084058
Dispersion correction             ... done (  0.1 sec)
Dispersion correction           -0.006994545
FINAL SINGLE POINT ENERGY      -463.406375413783
Dispersion correction             ... done (  0.0 sec)
Dispersion correction           -0.006994891
FINAL SINGLE POINT ENERGY      -463.406383205074
Dispersion correction             ... done (  0.0 sec)
                    ***********************HURRAY********************

CARTESIAN COORDINATES (ANGSTROEM)
---------------------------------
  C     -0.329873    0.798303    0.000818
  C     -1.620559    0.263143   -0.000164
  C     -1.803224   -1.119274    0.000640
  C     -0.675357   -1.942330    0.002846
  C      0.605677   -1.419594    0.003877
  C      0.796916   -0.025708    0.002473
  C      2.117191    0.605477    0.002984
  C      3.304696   -0.012498   -0.002891
  C      4.616648    0.689114   -0.001778
  H      5.208555    0.411728   -0.880245
  H      5.213629    0.398486    0.868955
  H      4.496784    1.773568    0.006657
  H      3.348416   -1.099180   -0.009342
  H      2.104873    1.694275    0.008092
  H      1.455045   -2.090878    0.006528
  H     -0.814286   -3.017687    0.004259
  H     -2.790848   -1.558218   -0.000568
  O     -2.631988    1.170195   -0.001844
  C     -3.966350    0.662531   -0.002326
  H     -4.614967    1.535327   -0.003173
  H     -4.159671    0.064165    0.891665
  H     -4.158515    0.063434   -0.896014
  H     -0.215629    1.876984   -0.000195

 Multiplicity           Mult            ....    1
 Number of Electrons    NEL             ....   80
 Basis Dimension        Dim             ....  782

ORBITAL ENERGIES
----------------

  NO   OCC          E(Eh)            E(eV)
   0   2.0000     -18.989422      -516.7284
   1   2.0000     -10.098192      -274.7858
   2   2.0000     -10.074826      -274.1499
   3   2.0000     -10.051620      -273.5185
   4   2.0000     -10.039412      -273.1863
   5   2.0000     -10.038554      -273.1630
   6   2.0000     -10.033023      -273.0124
   7   2.0000     -10.032744      -273.0048
   8   2.0000     -10.032210      -272.9903
   9   2.0000     -10.029406      -272.9140
  10   2.0000     -10.023653      -272.7575
  11   2.0000      -1.030860       -28.0511
  12   2.0000      -0.825414       -22.4607
  13   2.0000      -0.766851       -20.8671
  14   2.0000      -0.723095       -19.6764
  15   2.0000      -0.716892       -19.5076
  16   2.0000      -0.658838       -17.9279
  17   2.0000      -0.646488       -17.5918
  18   2.0000      -0.572872       -15.5886
  19   2.0000      -0.567043       -15.4300
  20   2.0000      -0.516416       -14.0524
  21   2.0000      -0.490044       -13.3348
  22   2.0000      -0.453403       -12.3377
  23   2.0000      -0.446452       -12.1486
  24   2.0000      -0.430729       -11.7207
  25   2.0000      -0.427439       -11.6312
  26   2.0000      -0.398704       -10.8493
  27   2.0000      -0.385688       -10.4951
  28   2.0000      -0.378944       -10.3116
  29   2.0000      -0.365823        -9.9545
  30   2.0000      -0.357118        -9.7177
  31   2.0000      -0.352728        -9.5982
  32   2.0000      -0.335942        -9.1414
  33   2.0000      -0.320259        -8.7147
  34   2.0000      -0.311789        -8.4842
  35   2.0000      -0.304649        -8.2899
  36   2.0000      -0.292663        -7.9638
  37   2.0000      -0.269193        -7.3251
  38   2.0000      -0.212521        -5.7830
  39   2.0000      -0.199289        -5.4229
  40   0.0000      -0.058702        -1.5974
  41   0.0000      -0.030370        -0.8264
  42   0.0000       0.007188         0.1956
  43   0.0000       0.018532         0.5043
  44   0.0000       0.020964         0.5705

MULLIKEN ATOMIC CHARGES
-----------------------
   0 C :   -1.185618
   1 C :    0.881130
   2 C :    0.006583
   3 C :   -0.951234
   4 C :   -0.544964
   5 C :    2.089059
   6 C :   -0.133301
   7 C :   -0.192985
   8 C :   -0.788566
   9 H :    0.154902
  10 H :    0.156816
  11 H :    0.246245
  12 H :    0.066417
  13 H :   -0.133146
  14 H :    0.114058
  15 H :    0.437071
  16 H :    0.222052
  17 O :   -0.609769
  18 C :   -0.619845
  19 H :    0.218612
  20 H :    0.249443
  21 H :    0.248553
  22 H :    0.068488
Sum of atomic charges:   -0.0000000

LOEWDIN ATOMIC CHARGES
----------------------
   0 C :    0.208413
   1 C :   -0.402123
   2 C :    0.202775
   3 C :    0.189577
   4 C :    0.200471
   5 C :   -0.159720
   6 C :    0.205213
   7 C :    0.208425
   8 C :    0.566472
   9 H :   -0.169603
  10 H :   -0.169672
  11 H :   -0.179100
  12 H :   -0.189776
  13 H :   -0.190397
  14 H :   -0.196087
  15 H :   -0.176739
  16 H :   -0.202476
  17 O :    0.596092
  18 C :    0.358789
  19 H :   -0.179332
  20 H :   -0.171639
  21 H :   -0.171679
  22 H :   -0.177883

  Mayer bond orders larger than 0.100000
B(  0-C ,  1-C ) :   0.5396 B(  0-C ,  4-C ) :  -0.2831 B(  0-C ,  5-C ) :  -0.1949
B(  0-C ,  6-C ) :  -0.1709 B(  0-C ,  7-C ) :   0.2283 B(  0-C , 17-O ) :   0.3174
B(  0-C , 22-H ) :   1.2733 B(  1-C ,  2-C ) :   0.9563 B(  1-C ,  4-C ) :  -0.2389
B(  1-C , 17-O ) :   0.1708 B(  1-C , 18-C ) :   0.1163 B(  1-C , 22-H ) :  -0.1229
B(  2-C ,  3-C ) :   0.8106 B(  2-C , 16-H ) :   0.9779 B(  2-C , 17-O ) :  -0.2226
B(  2-C , 18-C ) :  -0.1805 B(  3-C ,  4-C ) :   0.8832 B(  3-C ,  5-C ) :  -0.1593
B(  3-C ,  6-C ) :   0.1200 B(  3-C ,  7-C ) :  -0.1414 B(  3-C , 14-H ) :  -0.1557
B(  3-C , 15-H ) :   0.5513 B(  4-C ,  5-C ) :   0.2929 B(  4-C , 14-H ) :   1.1501
B(  5-C ,  7-C ) :  -0.1869 B(  5-C ,  8-C ) :   0.1181 B(  5-C , 12-H ) :  -0.2188
B(  5-C , 13-H ) :  -0.1375 B(  5-C , 14-H ) :  -0.1405 B(  5-C , 17-O ) :   0.1299
B(  5-C , 22-H ) :  -0.1550 B(  6-C ,  7-C ) :   0.9217 B(  6-C , 13-H ) :   1.4331
B(  6-C , 22-H ) :  -0.1025 B(  7-C ,  8-C ) :   0.4796 B(  7-C , 12-H ) :   1.4883
B(  7-C , 13-H ) :  -0.1952 B(  8-C ,  9-H ) :   1.0793 B(  8-C , 10-H ) :   1.0768
B(  8-C , 11-H ) :   0.9444 B(  8-C , 12-H ) :  -0.1754 B( 16-H , 18-C ) :  -0.1495
B( 17-O , 18-C ) :   0.9795 B( 18-C , 19-H ) :   0.9836 B( 18-C , 20-H ) :   0.9340
B( 18-C , 21-H ) :   0.9348

Dispersion correction           -0.006994420
FINAL SINGLE POINT ENERGY      -463.406384564330

DIPOLE MOMENT
-------------

Method             : SCF
Type of density    : Electron Density
Multiplicity       :   1
Irrep              :   0
Energy             :  -463.3993901440330205 Eh
Relativity type    :
Basis              : AO
                                X                 Y                 Z
Electronic contribution:     -5.071028870      -0.339501235       0.005184291
Nuclear contribution   :      4.752184428       0.009214282      -0.006616308
                        -----------------------------------------
Total Dipole Moment    :     -0.318844442      -0.330286952      -0.001432017
                        -----------------------------------------
Magnitude (a.u.)       :      0.459078752
Magnitude (Debye)      :      1.166885453

Rotational constants in cm-1:             0.103371             0.017006             0.014683
Rotational constants in MHz :          3098.985221           509.812587           440.196782

                             ****ORCA TERMINATED NORMALLY****
TOTAL RUN TIME: 0 days 0 hours 8 minutes 43 seconds 437 msec
