                         Program Version 6.0.0  -   RELEASE  -
|  1> !PBE0 aug-cc-pVTZ d3 TightSCF SlowConv RIJCOSX defgrid2
|  2>
|  3> %pal
|  4> nprocs 4
|  5> end
|  6>
|  7> %scf
|  8> MaxIter 1500
|  9> end
| 10>
| 11> %maxcore 3000
| 12>
| 13> !CPCM
| 14> %cpcm smd true
| 15> SMDsolvent "MeCN"
| 16> surfacetype gepol_ses
| 17> rsolv 2.19
| 18> end
| 19>
| 20> * xyz 1 2
| 21> C           1.84281234672153     -0.00006597869847      0.01285546623039
| 22> C           1.14355368564506     -1.23902490190253      0.00158488089103
| 23> C          -0.22635786234437     -1.24013111711704     -0.01699413586169
| 24> C          -0.95506719113591     -0.00029607647166     -0.02822657050256
| 25> C          -2.42493771335276     -0.00015694603531     -0.01540251479795
| 26> H          -2.85288988584861      0.90688759110700     -0.47308067341050
| 27> H          -2.85357110348468     -0.91037144459146     -0.46576655952987
| 28> H          -2.75683389603493      0.00504463864823      1.05046901822320
| 29> C          -0.22649470626097      1.23969602067318     -0.01458794729593
| 30> C           1.14339815090709      1.23878434923716      0.00398375524291
| 31> H           1.70466297579754      2.17704577622432      0.01138483317017
| 32> H          -0.78522490872320      2.18007136225477     -0.02327385957075
| 33> H          -0.78496408789097     -2.18055191214167     -0.02751919353185
| 34> H           1.70496196149810     -2.17721430622763      0.00716529435102
| 35> H           2.93762583450709      0.00000044504112      0.02964230639238
| 36> *
| 37>
| 38>                          ****END OF INPUT****

CARTESIAN COORDINATES (ANGSTROEM)
---------------------------------
  C      1.842812   -0.000066    0.012855
  C      1.143554   -1.239025    0.001585
  C     -0.226358   -1.240131   -0.016994
  C     -0.955067   -0.000296   -0.028227
  C     -2.424938   -0.000157   -0.015403
  H     -2.852890    0.906888   -0.473081
  H     -2.853571   -0.910371   -0.465767
  H     -2.756834    0.005045    1.050469
  C     -0.226495    1.239696   -0.014588
  C      1.143398    1.238784    0.003984
  H      1.704663    2.177046    0.011385
  H     -0.785225    2.180071   -0.023274
  H     -0.784964   -2.180552   -0.027519
  H      1.704962   -2.177214    0.007165
  H      2.937626    0.000000    0.029642

 Total Charge           Charge          ....    1
 Multiplicity           Mult            ....    2
 Number of Electrons    NEL             ....   49
 Basis Dimension        Dim             ....  506

ORBITAL ENERGIES
----------------
                 SPIN UP ORBITALS
  NO   OCC          E(Eh)            E(eV)
   0   1.0000     -10.329516      -281.0804
   1   1.0000     -10.310704      -280.5685
   2   1.0000     -10.282992      -279.8144
   3   1.0000     -10.282940      -279.8130
   4   1.0000     -10.278621      -279.6955
   5   1.0000     -10.278561      -279.6939
   6   1.0000     -10.247119      -278.8383
   7   1.0000      -0.938484       -25.5375
   8   1.0000      -0.848747       -23.0956
   9   1.0000      -0.819564       -22.3015
  10   1.0000      -0.745484       -20.2857
  11   1.0000      -0.666876       -18.1466
  12   1.0000      -0.646445       -17.5907
  13   1.0000      -0.563572       -15.3356
  14   1.0000      -0.523960       -14.2577
  15   1.0000      -0.503486       -13.7006
  16   1.0000      -0.475573       -12.9410
  17   1.0000      -0.473293       -12.8789
  18   1.0000      -0.460440       -12.5292
  19   1.0000      -0.423746       -11.5307
  20   1.0000      -0.416814       -11.3421
  21   1.0000      -0.400401       -10.8955
  22   1.0000      -0.386799       -10.5253
  23   1.0000      -0.316949        -8.6246
  24   1.0000      -0.315859        -8.5950
  25   0.0000      -0.077468        -2.1080
  26   0.0000      -0.048679        -1.3246
  27   0.0000      -0.001116        -0.0304
  28   0.0000       0.012072         0.3285
  29   0.0000       0.016050         0.4367

                 SPIN DOWN ORBITALS
  NO   OCC          E(Eh)            E(eV)
   0   1.0000     -10.323439      -280.9151
   1   1.0000     -10.303748      -280.3792
   2   1.0000     -10.281708      -279.7795
   3   1.0000     -10.281667      -279.7784
   4   1.0000     -10.279094      -279.7084
   5   1.0000     -10.279045      -279.7070
   6   1.0000     -10.247031      -278.8359
   7   1.0000      -0.927124       -25.2283
   8   1.0000      -0.834101       -22.6971
   9   1.0000      -0.817627       -22.2488
  10   1.0000      -0.735906       -20.0250
  11   1.0000      -0.661133       -17.9903
  12   1.0000      -0.638664       -17.3789
  13   1.0000      -0.560364       -15.2483
  14   1.0000      -0.520262       -14.1571
  15   1.0000      -0.499446       -13.5906
  16   1.0000      -0.475188       -12.9305
  17   1.0000      -0.455626       -12.3982
  18   1.0000      -0.450179       -12.2500
  19   1.0000      -0.421892       -11.4803
  20   1.0000      -0.398772       -10.8512
  21   1.0000      -0.390358       -10.6222
  22   1.0000      -0.383502       -10.4356
  23   1.0000      -0.312161        -8.4943
  24   0.0000      -0.210823        -5.7368
  25   0.0000      -0.036071        -0.9815
  26   0.0000      -0.034130        -0.9287
  27   0.0000      -0.000199        -0.0054
  28   0.0000       0.012999         0.3537

MULLIKEN ATOMIC CHARGES AND SPIN POPULATIONS
--------------------------------------------
   0 C :   -0.307671    0.427050
   1 C :   -0.557026   -0.025857
   2 C :   -0.747793    0.064515
   3 C :    0.928000    0.454480
   4 C :   -0.578836   -0.033499
   5 H :    0.291396    0.006630
   6 H :    0.290725    0.006135
   7 H :    0.304220    0.056800
   8 C :   -0.748743    0.065559
   9 C :   -0.555972   -0.026636
  10 H :    0.649467    0.004981
  11 H :    0.405248   -0.004635
  12 H :    0.404158   -0.004818
  13 H :    0.651537    0.005014
  14 H :    0.571291    0.004280
Sum of atomic charges         :    1.0000000

LOEWDIN ATOMIC CHARGES AND SPIN POPULATIONS
-------------------------------------------
   0 C :    0.309042    0.233515
   1 C :    0.276861    0.071134
   2 C :    0.290843    0.097377
   3 C :   -0.037353    0.229154
   4 C :    0.632878    0.083435
   5 H :   -0.135276    0.008627
   6 H :   -0.135546    0.008422
   7 H :   -0.106386    0.029184
   8 C :    0.290805    0.097576
   9 C :    0.276799    0.070903
  10 H :   -0.138106    0.000385
  11 H :   -0.132170    0.009996
  12 H :   -0.132287    0.009939
  13 H :   -0.138067    0.000455
  14 H :   -0.122036    0.049899

  Mayer bond orders larger than 0.100000
B(  0-C ,  1-C ) :   1.1972 B(  0-C ,  9-C ) :   1.1941 B(  0-C , 14-H ) :   0.5060
B(  1-C ,  2-C ) :   1.5471 B(  1-C ,  9-C ) :   0.1085 B(  1-C , 13-H ) :   0.3242
B(  2-C ,  3-C ) :   0.7458 B(  2-C , 12-H ) :   0.7415 B(  3-C ,  4-C ) :   0.7704
B(  3-C ,  8-C ) :   0.7462 B(  4-C ,  5-H ) :   0.8829 B(  4-C ,  6-H ) :   0.8842
B(  4-C ,  7-H ) :   0.8476 B(  8-C ,  9-C ) :   1.5478 B(  8-C , 11-H ) :   0.7391
B(  9-C , 10-H ) :   0.3271

Dispersion correction           -0.012166652
FINAL SINGLE POINT ENERGY      -271.110234071033

DIPOLE MOMENT
-------------

Method             : SCF
Type of density    : Electron Density
Multiplicity       :   2
Irrep              :   0
Energy             :  -271.0980674187827049 Eh
Relativity type    :
Basis              : AO
                                X                 Y                 Z
Electronic contribution:      3.472500518      -0.000866680      -0.053908715
Nuclear contribution   :     -3.446153110       0.001949667       0.148888103
                        -----------------------------------------
Total Dipole Moment    :      0.026347408       0.001082987       0.094979388
                        -----------------------------------------
Magnitude (a.u.)       :      0.098572019
Magnitude (Debye)      :      0.250550161

Rotational constants in cm-1:             0.175281             0.085805             0.058230
Rotational constants in MHz :          5254.798892          2572.379074          1745.693725

                             ****ORCA TERMINATED NORMALLY****
TOTAL RUN TIME: 0 days 0 hours 4 minutes 2 seconds 952 msec
