                         Program Version 6.0.0  -   RELEASE  -
|  1> !PBE0 aug-cc-pVTZ d3 TightSCF SlowConv RIJCOSX defgrid2
|  2>
|  3> %pal
|  4> nprocs 4
|  5> end
|  6>
|  7> %scf
|  8> MaxIter 1500
|  9> end
| 10>
| 11> %maxcore 3000
| 12>
| 13> !CPCM
| 14> %cpcm smd true
| 15> SMDsolvent "MeCN"
| 16> surfacetype gepol_ses
| 17> rsolv 2.19
| 18> end
| 19>
| 20> * xyz 0 1
| 21> C           0.89625463995169     -1.41558669005642      0.00000212581931
| 22> C           2.11505403593339     -0.74430991173074     -0.00000149555587
| 23> C           2.17542044953981      0.66118914619392      0.00000118790347
| 24> C           1.02073349490689      1.43411488081899      0.00000740816991
| 25> C          -0.21978579987357      0.78024255664200      0.00000882693723
| 26> C          -0.24734548849214     -0.62587635066739      0.00000530658827
| 27> O          -1.52601546021974     -1.07032389872869      0.00001342203642
| 28> C          -2.31826979056253      0.02952741578344      0.00002075604744
| 29> C          -1.60215379632981      1.18293934552638      0.00000260268759
| 30> H          -2.00251324968155      2.19537072670951     -0.00000431996804
| 31> H          -3.38877681335679     -0.16931307117016      0.00002936397660
| 32> H           1.07767380530056      2.52621447644394      0.00000712336235
| 33> H           3.15304280126425      1.15182904763925     -0.00000361572869
| 34> H           3.04441141911605     -1.32116718166862     -0.00000606251848
| 35> H           0.83131985250349     -2.50587419173540      0.00000217024247
| 36> *
| 37>
| 38>                          ****END OF INPUT****

CARTESIAN COORDINATES (ANGSTROEM)
---------------------------------
  C      0.896255   -1.415587    0.000002
  C      2.115054   -0.744310   -0.000001
  C      2.175420    0.661189    0.000001
  C      1.020733    1.434115    0.000007
  C     -0.219786    0.780243    0.000009
  C     -0.247345   -0.625876    0.000005
  O     -1.526015   -1.070324    0.000013
  C     -2.318270    0.029527    0.000021
  C     -1.602154    1.182939    0.000003
  H     -2.002513    2.195371   -0.000004
  H     -3.388777   -0.169313    0.000029
  H      1.077674    2.526214    0.000007
  H      3.153043    1.151829   -0.000004
  H      3.044411   -1.321167   -0.000006
  H      0.831320   -2.505874    0.000002

 Total Charge           Charge          ....    0
 Multiplicity           Mult            ....    1
 Number of Electrons    NEL             ....   62
 Basis Dimension        Dim             ....  552

ORBITAL ENERGIES
----------------

  NO   OCC          E(Eh)            E(eV)
   0   2.0000     -19.282736      -524.7099
   1   2.0000     -10.286209      -279.9020
   2   2.0000     -10.285277      -279.8766
   3   2.0000     -10.240761      -278.6653
   4   2.0000     -10.236713      -278.5551
   5   2.0000     -10.235180      -278.5134
   6   2.0000     -10.233216      -278.4600
   7   2.0000     -10.230556      -278.3876
   8   2.0000     -10.229687      -278.3639
   9   2.0000      -1.154380       -31.4123
  10   2.0000      -0.886804       -24.1312
  11   2.0000      -0.827141       -22.5076
  12   2.0000      -0.776211       -21.1218
  13   2.0000      -0.753758       -20.5108
  14   2.0000      -0.656091       -17.8531
  15   2.0000      -0.621072       -16.9002
  16   2.0000      -0.603181       -16.4134
  17   2.0000      -0.538827       -14.6622
  18   2.0000      -0.510651       -13.8955
  19   2.0000      -0.492934       -13.4134
  20   2.0000      -0.486446       -13.2369
  21   2.0000      -0.451642       -12.2898
  22   2.0000      -0.437826       -11.9139
  23   2.0000      -0.420348       -11.4383
  24   2.0000      -0.403215       -10.9720
  25   2.0000      -0.376592       -10.2476
  26   2.0000      -0.375445       -10.2164
  27   2.0000      -0.350753        -9.5445
  28   2.0000      -0.314379        -8.5547
  29   2.0000      -0.258084        -7.0228
  30   2.0000      -0.238796        -6.4980
  31   0.0000      -0.027528        -0.7491
  32   0.0000       0.002779         0.0756
  33   0.0000       0.003587         0.0976
  34   0.0000       0.014779         0.4022
  35   0.0000       0.018325         0.4986

MULLIKEN ATOMIC CHARGES
-----------------------
   0 C :   -1.069020
   1 C :   -0.298975
   2 C :   -0.631655
   3 C :   -0.661621
   4 C :    0.898344
   5 C :    0.298155
   6 O :   -0.498972
   7 C :   -0.481015
   8 C :   -0.726531
   9 H :    0.467241
  10 H :    0.634393
  11 H :    0.198602
  12 H :    0.700849
  13 H :    0.475437
  14 H :    0.694766
Sum of atomic charges:    0.0000000

LOEWDIN ATOMIC CHARGES
----------------------
   0 C :    0.218166
   1 C :    0.171177
   2 C :    0.172387
   3 C :    0.211210
   4 C :   -0.171062
   5 C :   -0.410070
   6 O :    0.617586
   7 C :   -0.023452
   8 C :    0.220605
   9 H :   -0.165910
  10 H :   -0.167892
  11 H :   -0.162413
  12 H :   -0.174910
  13 H :   -0.172966
  14 H :   -0.162454

  Mayer bond orders larger than 0.100000
B(  0-C ,  1-C ) :   1.4487 B(  0-C ,  2-C ) :   0.3681 B(  0-C ,  4-C ) :   0.1896
B(  0-C ,  5-C ) :   1.1979 B(  0-C ,  6-O ) :   0.1333 B(  1-C ,  2-C ) :   1.2552
B(  1-C ,  3-C ) :  -0.3618 B(  1-C ,  5-C ) :  -0.5958 B(  1-C ,  8-C ) :   0.1058
B(  1-C , 12-H ) :   0.1547 B(  1-C , 13-H ) :   0.6289 B(  1-C , 14-H ) :   0.1652
B(  2-C ,  3-C ) :   1.2144 B(  2-C ,  5-C ) :   0.1982 B(  2-C ,  8-C ) :   0.1760
B(  2-C , 12-H ) :   0.1899 B(  2-C , 13-H ) :  -0.1058 B(  3-C ,  4-C ) :   0.8484
B(  3-C ,  5-C ) :  -0.6677 B(  3-C ,  9-H ) :   0.1273 B(  3-C , 11-H ) :   1.2526
B(  3-C , 12-H ) :  -0.1034 B(  3-C , 14-H ) :   0.1286 B(  4-C ,  5-C ) :   1.2591
B(  4-C ,  7-C ) :  -0.3114 B(  4-C ,  8-C ) :   0.6247 B(  4-C , 13-H ) :  -0.1222
B(  5-C ,  6-O ) :   0.5467 B(  5-C ,  8-C ) :   0.2359 B(  5-C , 11-H ) :   0.1423
B(  5-C , 13-H ) :   0.1493 B(  6-O ,  7-C ) :   1.2672 B(  7-C ,  8-C ) :   1.3326
B(  7-C , 10-H ) :   0.5088 B(  8-C ,  9-H ) :   0.7113

Dispersion correction           -0.013704299
FINAL SINGLE POINT ENERGY      -383.386284808733

DIPOLE MOMENT
-------------

Method             : SCF
Type of density    : Electron Density
Multiplicity       :   1
Irrep              :   0
Energy             :  -383.3725805097668626 Eh
Relativity type    :
Basis              : AO
                                X                 Y                 Z
Electronic contribution:     -2.715136495      -1.411283315       0.000423107
Nuclear contribution   :      2.516077808       1.725635815      -0.000014921
                        -----------------------------------------
Total Dipole Moment    :     -0.199058687       0.314352500       0.000408186
                        -----------------------------------------
Magnitude (a.u.)       :      0.372077978
Magnitude (Debye)      :      0.945747059

Rotational constants in cm-1:             0.131103             0.055537             0.039011
Rotational constants in MHz :          3930.375234          1664.953413          1169.527667

                             ****ORCA TERMINATED NORMALLY****
TOTAL RUN TIME: 0 days 0 hours 3 minutes 29 seconds 950 msec
