                         Program Version 6.0.0  -   RELEASE  -
|  1> !r2SCANh aug-cc-pVTZ d3 TightSCF SlowConv RIJCOSX defgrid2
|  2>
|  3> %pal
|  4> nprocs 4
|  5> end
|  6>
|  7> %scf
|  8> MaxIter 1500
|  9> end
| 10>
| 11> %maxcore 3000
| 12>
| 13> !CPCM
| 14> %cpcm smd true
| 15> SMDsolvent "MeCN"
| 16> surfacetype gepol_ses
| 17> rsolv 2.19
| 18> end
| 19>
| 20> * xyz 1 2
| 21> C           0.87744843065952     -1.21883020305656     -0.00000377931808
| 22> C           1.23614385256415      0.16954678831828     -0.00005753568123
| 23> C           0.19424149048169      1.13860709962105     -0.00010423188513
| 24> C          -1.13871229830849      0.78765011017298     -0.00010761886515
| 25> C          -1.47639805753200     -0.61212175919558     -0.00004559988331
| 26> C          -0.44313247207265     -1.58385318757954     -0.00000224391858
| 27> H          -0.71685810144297     -2.64212602539406      0.00003056402544
| 28> C          -2.89571606376255     -1.03893857261662      0.00008867922043
| 29> H          -3.00213765434000     -2.13324643661373     -0.00058232712929
| 30> H          -3.42610981706820     -0.62983884560970     -0.88112182092760
| 31> H          -3.42539618531857     -0.63109402296886      0.88234176195400
| 32> C          -2.21290888782919      1.82515453001126     -0.00014347524999
| 33> H          -2.86411247883622      1.72648441322314      0.88680265880356
| 34> H          -2.86402349010390      1.72654581117049     -0.88716064088710
| 35> H          -1.78890328618740      2.84026297434392     -0.00008728403417
| 36> H           0.46977060139751      2.19725330423840     -0.00014030748002
| 37> C           2.58814654556121      0.62001515372005     -0.00006319236512
| 38> C           3.70337676945614     -0.17841322402212     -0.00002927580579
| 39> H           3.65253331490638     -1.27227115038024      0.00001025225905
| 40> H           4.70281234102144      0.26973736826902     -0.00003315173613
| 41> H           2.73668489690756      1.70605493317894     -0.00009332036310
| 42> H           1.65048734984656     -1.99000785883051      0.00003538926729
| 43> *
| 44>
| 45>                          ****END OF INPUT****

CARTESIAN COORDINATES (ANGSTROEM)
---------------------------------
  C      0.877448   -1.218830   -0.000004
  C      1.236144    0.169547   -0.000058
  C      0.194241    1.138607   -0.000104
  C     -1.138712    0.787650   -0.000108
  C     -1.476398   -0.612122   -0.000046
  C     -0.443132   -1.583853   -0.000002
  H     -0.716858   -2.642126    0.000031
  C     -2.895716   -1.038939    0.000089
  H     -3.002138   -2.133246   -0.000582
  H     -3.426110   -0.629839   -0.881122
  H     -3.425396   -0.631094    0.882342
  C     -2.212909    1.825155   -0.000143
  H     -2.864112    1.726484    0.886803
  H     -2.864023    1.726546   -0.887161
  H     -1.788903    2.840263   -0.000087
  H      0.469771    2.197253   -0.000140
  C      2.588147    0.620015   -0.000063
  C      3.703377   -0.178413   -0.000029
  H      3.652533   -1.272271    0.000010
  H      4.702812    0.269737   -0.000033
  H      2.736685    1.706055   -0.000093
  H      1.650487   -1.990008    0.000035

 Total Charge           Charge          ....    1
 Multiplicity           Mult            ....    2
 Number of Electrons    NEL             ....   71
 Basis Dimension        Dim             ....  736

ORBITAL ENERGIES
----------------
                 SPIN UP ORBITALS
  NO   OCC          E(Eh)            E(eV)
   0   1.0000     -10.233782      -278.4754
   1   1.0000     -10.229424      -278.3568
   2   1.0000     -10.214597      -277.9533
   3   1.0000     -10.210956      -277.8542
   4   1.0000     -10.210930      -277.8535
   5   1.0000     -10.207598      -277.7629
   6   1.0000     -10.195547      -277.4349
   7   1.0000     -10.192084      -277.3407
   8   1.0000     -10.168333      -276.6944
   9   1.0000     -10.163184      -276.5543
  10   1.0000      -0.909357       -24.7449
  11   1.0000      -0.848170       -23.0799
  12   1.0000      -0.801256       -21.8033
  13   1.0000      -0.786122       -21.3915
  14   1.0000      -0.726541       -19.7702
  15   1.0000      -0.695943       -18.9376
  16   1.0000      -0.637091       -17.3361
  17   1.0000      -0.624988       -17.0068
  18   1.0000      -0.569579       -15.4990
  19   1.0000      -0.523762       -14.2523
  20   1.0000      -0.506851       -13.7921
  21   1.0000      -0.473953       -12.8969
  22   1.0000      -0.452796       -12.3212
  23   1.0000      -0.449039       -12.2190
  24   1.0000      -0.437393       -11.9021
  25   1.0000      -0.430278       -11.7085
  26   1.0000      -0.404063       -10.9951
  27   1.0000      -0.398642       -10.8476
  28   1.0000      -0.395422       -10.7600
  29   1.0000      -0.391188       -10.6448
  30   1.0000      -0.379674       -10.3315
  31   1.0000      -0.359173        -9.7736
  32   1.0000      -0.349305        -9.5051
  33   1.0000      -0.332865        -9.0577
  34   1.0000      -0.281946        -7.6721
  35   1.0000      -0.268352        -7.3022
  36   0.0000      -0.111121        -3.0238
  37   0.0000      -0.051399        -1.3986
  38   0.0000      -0.010024        -0.2728
  39   0.0000       0.006803         0.1851
  40   0.0000       0.016909         0.4601

                 SPIN DOWN ORBITALS
  NO   OCC          E(Eh)            E(eV)
   0   1.0000     -10.228065      -278.3198
   1   1.0000     -10.225647      -278.2540
   2   1.0000     -10.212666      -277.9008
   3   1.0000     -10.210583      -277.8441
   4   1.0000     -10.206268      -277.7267
   5   1.0000     -10.205183      -277.6971
   6   1.0000     -10.195697      -277.4390
   7   1.0000     -10.193244      -277.3723
   8   1.0000     -10.168494      -276.6988
   9   1.0000     -10.163187      -276.5544
  10   1.0000      -0.901588       -24.5335
  11   1.0000      -0.838972       -22.8296
  12   1.0000      -0.799996       -21.7690
  13   1.0000      -0.774275       -21.0691
  14   1.0000      -0.721496       -19.6329
  15   1.0000      -0.689569       -18.7641
  16   1.0000      -0.631301       -17.1786
  17   1.0000      -0.620884       -16.8951
  18   1.0000      -0.564542       -15.3620
  19   1.0000      -0.522643       -14.2218
  20   1.0000      -0.504568       -13.7300
  21   1.0000      -0.470716       -12.8088
  22   1.0000      -0.446570       -12.1518
  23   1.0000      -0.440809       -11.9950
  24   1.0000      -0.435526       -11.8513
  25   1.0000      -0.429704       -11.6928
  26   1.0000      -0.399137       -10.8611
  27   1.0000      -0.393703       -10.7132
  28   1.0000      -0.390865       -10.6360
  29   1.0000      -0.382435       -10.4066
  30   1.0000      -0.378211       -10.2917
  31   1.0000      -0.358524        -9.7559
  32   1.0000      -0.347391        -9.4530
  33   1.0000      -0.309126        -8.4117
  34   1.0000      -0.277277        -7.5451
  35   0.0000      -0.200294        -5.4503
  36   0.0000      -0.073733        -2.0064
  37   0.0000      -0.042009        -1.1431
  38   0.0000       0.007740         0.2106
  39   0.0000       0.012760         0.3472

MULLIKEN ATOMIC CHARGES AND SPIN POPULATIONS
--------------------------------------------
   0 C :   -0.157676    0.132262
   1 C :    2.163749    0.272050
   2 C :   -1.026464   -0.021945
   3 C :    0.789759    0.023449
   4 C :    0.956803    0.366313
   5 C :   -1.142983   -0.109263
   6 H :    0.012463   -0.005023
   7 C :   -0.731596   -0.054556
   8 H :    0.086756   -0.008111
   9 H :    0.238788    0.032336
  10 H :    0.239997    0.032398
  11 C :   -0.726909   -0.011784
  12 H :    0.229345    0.005140
  13 H :    0.229325    0.005141
  14 H :    0.093813    0.000422
  15 H :   -0.387921    0.003026
  16 C :    0.095249   -0.073281
  17 C :   -0.865133    0.380758
  18 H :    0.249586   -0.005534
  19 H :    0.318196    0.049605
  20 H :    0.133591   -0.006867
  21 H :    0.201263   -0.006534
Sum of atomic charges         :    1.0000000

LOEWDIN ATOMIC CHARGES AND SPIN POPULATIONS
-------------------------------------------
   0 C :    0.278540    0.089973
   1 C :   -0.080909    0.119824
   2 C :    0.280273    0.030251
   3 C :   -0.050912    0.053783
   4 C :   -0.035603    0.163034
   5 C :    0.285360    0.034339
   6 H :   -0.146324   -0.005203
   7 C :    0.622039    0.053236
   8 H :   -0.148713    0.001136
   9 H :   -0.133587    0.012815
  10 H :   -0.133484    0.012838
  11 C :    0.606890    0.005146
  12 H :   -0.142168    0.001810
  13 H :   -0.142172    0.001809
  14 H :   -0.153188   -0.000030
  15 H :   -0.144616    0.000275
  16 C :    0.254019    0.066664
  17 C :    0.642594    0.244373
  18 H :   -0.181360    0.050168
  19 H :   -0.163333    0.055035
  20 H :   -0.155652   -0.004620
  21 H :   -0.157694    0.013344

  Mayer bond orders larger than 0.100000
B(  0-C ,  2-C ) :  -0.8369 B(  0-C ,  3-C ) :  -0.2533 B(  0-C ,  5-C ) :   0.8133
B(  0-C ,  6-H ) :  -0.1091 B(  0-C , 16-C ) :   0.2663 B(  0-C , 17-C ) :  -0.1007
B(  0-C , 18-H ) :  -0.1344 B(  0-C , 21-H ) :   1.4553 B(  1-C ,  2-C ) :  -0.6342
B(  1-C ,  3-C ) :   0.4948 B(  1-C ,  4-C ) :  -0.4545 B(  1-C ,  7-C ) :   0.1027
B(  1-C , 15-H ) :  -0.4992 B(  1-C , 16-C ) :   0.1421 B(  2-C ,  3-C ) :   0.7506
B(  2-C ,  4-C ) :  -0.2855 B(  2-C ,  5-C ) :   0.1685 B(  2-C , 11-C ) :  -0.2847
B(  2-C , 14-H ) :  -0.1028 B(  2-C , 15-H ) :   2.4471 B(  2-C , 17-C ) :   0.1057
B(  2-C , 20-H ) :  -0.1456 B(  3-C ,  4-C ) :   1.1779 B(  3-C ,  5-C ) :   0.1691
B(  3-C ,  7-C ) :   0.1505 B(  3-C , 15-H ) :  -0.2121 B(  3-C , 20-H ) :   0.1459
B(  3-C , 21-H ) :  -0.2327 B(  4-C ,  5-C ) :   0.4649 B(  4-C ,  7-C ) :   0.3032
B(  4-C , 11-C ) :   0.3820 B(  4-C , 15-H ) :  -0.1049 B(  4-C , 16-C ) :   0.1877
B(  4-C , 21-H ) :  -0.1066 B(  5-C ,  6-H ) :   1.2787 B(  5-C ,  7-C ) :  -0.2257
B(  5-C , 17-C ) :  -0.1219 B(  5-C , 21-H ) :  -0.1808 B(  7-C ,  8-H ) :   1.0902
B(  7-C ,  9-H ) :   0.9686 B(  7-C , 10-H ) :   0.9659 B( 11-C , 12-H ) :   0.9946
B( 11-C , 13-H ) :   0.9940 B( 11-C , 14-H ) :   1.0577 B( 15-H , 16-C ) :  -0.2186
B( 15-H , 20-H ) :  -0.1186 B( 16-C , 17-C ) :   0.6251 B( 16-C , 20-H ) :   1.0517
B( 17-C , 18-H ) :   1.1445 B( 17-C , 19-H ) :   0.8069 B( 17-C , 20-H ) :  -0.2317

Dispersion correction           -0.007372314
FINAL SINGLE POINT ENERGY      -387.971760644884

DIPOLE MOMENT
-------------

Method             : SCF
Type of density    : Electron Density
Multiplicity       :   2
Irrep              :   0
Energy             :  -387.9643883309034322 Eh
Relativity type    :
Basis              : AO
                                X                 Y                 Z
Electronic contribution:      5.399142547      -1.241120199      -0.000572182
Nuclear contribution   :     -4.597722468       1.088585918       0.000480466
                        -----------------------------------------
Total Dipole Moment    :      0.801420080      -0.152534282      -0.000091717
                        -----------------------------------------
Magnitude (a.u.)       :      0.815806876
Magnitude (Debye)      :      2.073616287

Rotational constants in cm-1:             0.095239             0.029097             0.022475
Rotational constants in MHz :          2855.203991           872.315502           673.794268

                             ****ORCA TERMINATED NORMALLY****
TOTAL RUN TIME: 0 days 0 hours 13 minutes 8 seconds 518 msec
