                         Program Version 6.0.0  -   RELEASE  -
|  1> !PBE0 def2-SV(p) Opt Freq d3 TightSCF SlowConv RIJCOSX defgrid2
|  2>
|  3> %pal
|  4> nprocs 4
|  5> end
|  6>
|  7> %scf
|  8> MaxIter 1500
|  9> end
| 10>
| 11> %maxcore 3000
| 12>
| 13>
| 14>
| 15> * xyz 1 2
| 16> C     2.4362412   -0.6939161    0.0000057
| 17> C     2.4362591    0.6938558    0.0000072
| 18> C     1.2323480    1.3966829    0.0000048
| 19> C     0.0000109    0.7126605    0.0000052
| 20> C    -1.2323086    1.3967147    0.0000070
| 21> C    -2.4362377    0.6939186    0.0000024
| 22> C    -2.4362557   -0.6938533    0.0000013
| 23> C    -1.2323446   -1.3966805   -0.0000010
| 24> C    -0.0000074   -0.7126581    0.0000034
| 25> C     1.2323120   -1.3967123    0.0000065
| 26> H     1.2362716   -2.4769487    0.0000136
| 27> H    -1.2363320   -2.4769168   -0.0000106
| 28> H    -3.3703754   -1.2342011    0.0000010
| 29> H    -3.3703436    1.2342903    0.0000014
| 30> H    -1.2362681    2.4769511    0.0000168
| 31> H     1.2363354    2.4769192   -0.0000025
| 32> H     3.3703788    1.2342036    0.0000089
| 33> H     3.3703471   -1.2342878    0.0000055
| 34> *
| 35>
| 36>                          ****END OF INPUT****
 Total Charge           Charge          ....    1
 Multiplicity           Mult            ....    2
 Number of Electrons    NEL             ....   67
Dispersion correction           -0.018538175
FINAL SINGLE POINT ENERGY      -384.866746206869
Dispersion correction             ... done (  0.1 sec)
Dispersion correction           -0.018473293
FINAL SINGLE POINT ENERGY      -384.868245561960
Dispersion correction             ... done (  0.1 sec)
Dispersion correction           -0.018469221
FINAL SINGLE POINT ENERGY      -384.868266642775
Dispersion correction             ... done (  0.1 sec)
Dispersion correction           -0.018468606
FINAL SINGLE POINT ENERGY      -384.868270975310
Dispersion correction             ... done (  0.1 sec)
                    ***********************HURRAY********************

CARTESIAN COORDINATES (ANGSTROEM)
---------------------------------
  C      2.448304   -0.695276    0.000009
  C      2.448322    0.695216    0.000010
  C      1.233525    1.400251    0.000006
  C      0.000011    0.714532    0.000003
  C     -1.233483    1.400283    0.000001
  C     -2.448301    0.695279    0.000007
  C     -2.448321   -0.695215    0.000005
  C     -1.233521   -1.400250   -0.000004
  C     -0.000007   -0.714527   -0.000005
  C      1.233487   -1.400282   -0.000001
  H      1.239357   -2.494548    0.000001
  H     -1.239423   -2.494517   -0.000005
  H     -3.393402   -1.244896    0.000008
  H     -3.393367    1.244983    0.000009
  H     -1.239355    2.494551    0.000002
  H      1.239428    2.494516    0.000003
  H      3.393403    1.244895    0.000013
  H      3.393372   -1.244973    0.000016

 Multiplicity           Mult            ....    2
 Number of Electrons    NEL             ....   67
 Basis Dimension        Dim             ....  156

ORBITAL ENERGIES
----------------
                 SPIN UP ORBITALS
  NO   OCC          E(Eh)            E(eV)
   0   1.0000     -10.448722      -284.3242
   1   1.0000     -10.448719      -284.3241
   2   1.0000     -10.448639      -284.3219
   3   1.0000     -10.448608      -284.3211
   4   1.0000     -10.436263      -283.9852
   5   1.0000     -10.435974      -283.9773
   6   1.0000     -10.431386      -283.8524
   7   1.0000     -10.431377      -283.8522
   8   1.0000     -10.430926      -283.8399
   9   1.0000     -10.430925      -283.8399
  10   1.0000      -1.094054       -29.7707
  11   1.0000      -1.037974       -28.2447
  12   1.0000      -0.990533       -26.9538
  13   1.0000      -0.952426       -25.9168
  14   1.0000      -0.930265       -25.3138
  15   1.0000      -0.837555       -22.7910
  16   1.0000      -0.817713       -22.2511
  17   1.0000      -0.805382       -21.9156
  18   1.0000      -0.721162       -19.6238
  19   1.0000      -0.710406       -19.3311
  20   1.0000      -0.701118       -19.0784
  21   1.0000      -0.649950       -17.6860
  22   1.0000      -0.648428       -17.6446
  23   1.0000      -0.626684       -17.0529
  24   1.0000      -0.623000       -16.9527
  25   1.0000      -0.607178       -16.5222
  26   1.0000      -0.593889       -16.1605
  27   1.0000      -0.575122       -15.6499
  28   1.0000      -0.541091       -14.7238
  29   1.0000      -0.540767       -14.7150
  30   1.0000      -0.535680       -14.5766
  31   1.0000      -0.504996       -13.7417
  32   1.0000      -0.450383       -12.2555
  33   1.0000      -0.432752       -11.7758
  34   0.0000      -0.250483        -6.8160
  35   0.0000      -0.196208        -5.3391
  36   0.0000      -0.170693        -4.6448
  37   0.0000      -0.094482        -2.5710
  38   0.0000      -0.079818        -2.1719

                 SPIN DOWN ORBITALS
  NO   OCC          E(Eh)            E(eV)
   0   1.0000     -10.444434      -284.2075
   1   1.0000     -10.444419      -284.2071
   2   1.0000     -10.444356      -284.2054
   3   1.0000     -10.444317      -284.2043
   4   1.0000     -10.437543      -284.0200
   5   1.0000     -10.437256      -284.0122
   6   1.0000     -10.430848      -283.8378
   7   1.0000     -10.430840      -283.8376
   8   1.0000     -10.430374      -283.8249
   9   1.0000     -10.430372      -283.8249
  10   1.0000      -1.089358       -29.6429
  11   1.0000      -1.031043       -28.0561
  12   1.0000      -0.981506       -26.7081
  13   1.0000      -0.951893       -25.9023
  14   1.0000      -0.917130       -24.9564
  15   1.0000      -0.832905       -22.6645
  16   1.0000      -0.813942       -22.1485
  17   1.0000      -0.800793       -21.7907
  18   1.0000      -0.718007       -19.5380
  19   1.0000      -0.706187       -19.2163
  20   1.0000      -0.698887       -19.0177
  21   1.0000      -0.647799       -17.6275
  22   1.0000      -0.647438       -17.6177
  23   1.0000      -0.624307       -16.9882
  24   1.0000      -0.619880       -16.8678
  25   1.0000      -0.592968       -16.1355
  26   1.0000      -0.591268       -16.0892
  27   1.0000      -0.574055       -15.6208
  28   1.0000      -0.538355       -14.6494
  29   1.0000      -0.534913       -14.5557
  30   1.0000      -0.519189       -14.1278
  31   1.0000      -0.472772       -12.8648
  32   1.0000      -0.450444       -12.2572
  33   0.0000      -0.349707        -9.5160
  34   0.0000      -0.220890        -6.0107
  35   0.0000      -0.187480        -5.1016
  36   0.0000      -0.149022        -4.0551
  37   0.0000      -0.078699        -2.1415

MULLIKEN ATOMIC CHARGES AND SPIN POPULATIONS
--------------------------------------------
   0 C :   -0.050133    0.026638
   1 C :   -0.050134    0.026633
   2 C :   -0.060817    0.297849
   3 C :    0.062125   -0.115608
   4 C :   -0.060816    0.297848
   5 C :   -0.050136    0.026637
   6 C :   -0.050135    0.026634
   7 C :   -0.060817    0.297850
   8 C :    0.062121   -0.115608
   9 C :   -0.060815    0.297848
  10 H :    0.158450   -0.013755
  11 H :    0.158451   -0.013755
  12 H :    0.171440   -0.002925
  13 H :    0.171438   -0.002925
  14 H :    0.158451   -0.013755
  15 H :    0.158449   -0.013755
  16 H :    0.171438   -0.002925
  17 H :    0.171438   -0.002925
Sum of atomic charges         :    1.0000000

LOEWDIN ATOMIC CHARGES AND SPIN POPULATIONS
-------------------------------------------
   0 C :   -0.063805    0.046143
   1 C :   -0.063806    0.046139
   2 C :    0.000321    0.238012
   3 C :   -0.040625   -0.051246
   4 C :    0.000320    0.238012
   5 C :   -0.063805    0.046142
   6 C :   -0.063806    0.046140
   7 C :    0.000320    0.238013
   8 C :   -0.040624   -0.051246
   9 C :    0.000320    0.238012
  10 H :    0.165639   -0.007034
  11 H :    0.165639   -0.007034
  12 H :    0.168159   -0.001496
  13 H :    0.168159   -0.001496
  14 H :    0.165639   -0.007034
  15 H :    0.165639   -0.007034
  16 H :    0.168159   -0.001496
  17 H :    0.168158   -0.001496

  Mayer bond orders larger than 0.100000
B(  0-C ,  1-C ) :   1.4142 B(  0-C ,  9-C ) :   1.3150 B(  0-C , 17-H ) :   0.9499
B(  1-C ,  2-C ) :   1.3150 B(  1-C , 16-H ) :   0.9499 B(  2-C ,  3-C ) :   1.2686
B(  2-C , 15-H ) :   0.9526 B(  3-C ,  4-C ) :   1.2686 B(  3-C ,  8-C ) :   1.2063
B(  4-C ,  5-C ) :   1.3150 B(  4-C , 14-H ) :   0.9526 B(  5-C ,  6-C ) :   1.4142
B(  5-C , 13-H ) :   0.9499 B(  6-C ,  7-C ) :   1.3150 B(  6-C , 12-H ) :   0.9499
B(  7-C ,  8-C ) :   1.2686 B(  7-C , 11-H ) :   0.9526 B(  8-C ,  9-C ) :   1.2686
B(  9-C , 10-H ) :   0.9526

Dispersion correction           -0.018468744
FINAL SINGLE POINT ENERGY      -384.868271610921

DIPOLE MOMENT
-------------

Method             : SCF
Type of density    : Electron Density
Multiplicity       :   2
Irrep              :   0
Energy             :  -384.8498028664342314 Eh
Relativity type    :
Basis              : AO
                                X                 Y                 Z
Electronic contribution:     -0.000000608      -0.000001297      -0.000014655
Nuclear contribution   :     -0.000000135       0.000002239       0.000018059
                        -----------------------------------------
Total Dipole Moment    :     -0.000000744       0.000000942       0.000003403
                        -----------------------------------------
Magnitude (a.u.)       :      0.000003609
Magnitude (Debye)      :      0.000009173

VIBRATIONAL FREQUENCIES
-----------------------

Scaling factor for frequencies =  1.000000000  (already applied!)

     0:       0.00 cm**-1
     1:       0.00 cm**-1
     2:       0.00 cm**-1
     3:       0.00 cm**-1
     4:       0.00 cm**-1
     5:       0.00 cm**-1
     6:     157.98 cm**-1
     7:     184.03 cm**-1
     8:     358.15 cm**-1
     9:     379.22 cm**-1
    10:     432.32 cm**-1
    11:     444.89 cm**-1
    12:     473.72 cm**-1
    13:     516.18 cm**-1
    14:     572.69 cm**-1
    15:     605.28 cm**-1
    16:     756.53 cm**-1
    17:     771.62 cm**-1
    18:     781.68 cm**-1
    19:     788.48 cm**-1
    20:     808.86 cm**-1
    21:     884.98 cm**-1
    22:     939.12 cm**-1
    23:     953.40 cm**-1
    24:     991.32 cm**-1
    25:    1014.06 cm**-1
    26:    1042.59 cm**-1
    27:    1046.74 cm**-1
    28:    1055.91 cm**-1
    29:    1079.87 cm**-1
    30:    1125.66 cm**-1
    31:    1127.25 cm**-1
    32:    1183.85 cm**-1
    33:    1192.33 cm**-1
    34:    1244.70 cm**-1
    35:    1264.40 cm**-1
    36:    1305.89 cm**-1
    37:    1433.86 cm**-1
    38:    1472.48 cm**-1
    39:    1475.02 cm**-1
    40:    1478.96 cm**-1
    41:    1507.39 cm**-1
    42:    1546.59 cm**-1
    43:    1586.46 cm**-1
    44:    1597.51 cm**-1
    45:    1671.31 cm**-1
    46:    3216.39 cm**-1
    47:    3217.27 cm**-1
    48:    3219.84 cm**-1
    49:    3220.56 cm**-1
    50:    3231.75 cm**-1
    51:    3231.80 cm**-1
    52:    3241.82 cm**-1
    53:    3241.85 cm**-1

IR SPECTRUM
-----------

 Mode   freq       eps      Int      T**2         TX        TY        TZ
       cm**-1   L/(mol*cm) km/mol    a.u.
----------------------------------------------------------------------------
  6:    157.98   0.000576    2.91  0.001139  (-0.000001  0.000001 -0.033745)
  7:    184.03   0.000000    0.00  0.000000  ( 0.000001 -0.000000  0.000005)
  8:    358.15   0.000043    0.22  0.000037  (-0.000001 -0.006121 -0.000004)
  9:    379.22   0.000000    0.00  0.000000  (-0.000001  0.000000 -0.000003)
 10:    432.32   0.004336   21.91  0.003130  ( 0.000001 -0.000002  0.055945)
 11:    444.89   0.000000    0.00  0.000000  (-0.000000 -0.000001  0.000001)
 12:    473.72   0.000000    0.00  0.000000  ( 0.000001 -0.000000  0.000001)
 13:    516.18   0.000000    0.00  0.000000  ( 0.000002  0.000000 -0.000003)
 14:    572.69   0.000000    0.00  0.000000  (-0.000000 -0.000000 -0.000001)
 15:    605.28   0.002177   11.00  0.001123  ( 0.033504  0.000000  0.000000)
 16:    756.53   0.000000    0.00  0.000000  (-0.000000 -0.000000  0.000031)
 17:    771.62   0.000000    0.00  0.000000  (-0.000000 -0.000001  0.000008)
 18:    781.68   0.017356   87.71  0.006929  ( 0.000000  0.000000  0.083240)
 19:    788.48   0.000000    0.00  0.000000  ( 0.000000 -0.000001  0.000027)
 20:    808.86   0.000012    0.06  0.000005  ( 0.000001 -0.002123  0.000008)
 21:    884.98   0.000000    0.00  0.000000  (-0.000002  0.000000 -0.000001)
 22:    939.12   0.000000    0.00  0.000000  ( 0.000001  0.000001 -0.000000)
 23:    953.40   0.000000    0.00  0.000000  ( 0.000000 -0.000000 -0.000001)
 24:    991.32   0.000000    0.00  0.000000  ( 0.000001  0.000000 -0.000002)
 25:   1014.06   0.000233    1.18  0.000072  (-0.000001  0.000000 -0.008473)
 26:   1042.59   0.000000    0.00  0.000000  ( 0.000000  0.000000  0.000001)
 27:   1046.74   0.000000    0.00  0.000000  ( 0.000004  0.000000  0.000000)
 28:   1055.91   0.002280   11.52  0.000674  (-0.025956  0.000001 -0.000000)
 29:   1079.87   0.000000    0.00  0.000000  (-0.000007  0.000000 -0.000000)
 30:   1125.66   0.000000    0.00  0.000000  (-0.000001 -0.000005 -0.000000)
 31:   1127.25   0.000461    2.33  0.000128  (-0.000004 -0.011296 -0.000000)
 32:   1183.85   0.002496   12.62  0.000658  (-0.025652  0.000001 -0.000000)
 33:   1192.33   0.000000    0.00  0.000000  ( 0.000014 -0.000001  0.000000)
 34:   1244.70   0.049515  250.23  0.012414  ( 0.111418 -0.000000 -0.000000)
 35:   1264.40   0.000000    0.00  0.000000  ( 0.000016  0.000003  0.000000)
 36:   1305.89   0.002150   10.87  0.000514  ( 0.000007 -0.022668 -0.000000)
 37:   1433.86   0.006916   34.95  0.001505  (-0.000004 -0.038796  0.000000)
 38:   1472.48   0.000000    0.00  0.000000  ( 0.000005 -0.000005 -0.000000)
 39:   1475.02   0.005123   25.89  0.001084  (-0.032922  0.000004  0.000000)
 40:   1478.96   0.000000    0.00  0.000000  (-0.000007 -0.000002 -0.000000)
 41:   1507.39   0.000000    0.00  0.000000  (-0.000001 -0.000003  0.000000)
 42:   1546.59   0.000000    0.00  0.000000  (-0.000000 -0.000001  0.000000)
 43:   1586.46   0.017319   87.52  0.003407  ( 0.000005  0.058367  0.000000)
 44:   1597.51   0.009436   47.69  0.001843  (-0.042934  0.000007 -0.000000)
 45:   1671.31   0.000000    0.00  0.000000  ( 0.000001  0.000001 -0.000000)
 46:   3216.39   0.000000    0.00  0.000000  (-0.000002 -0.000070 -0.000000)
 47:   3217.27   0.000301    1.52  0.000029  (-0.000007 -0.005401  0.000000)
 48:   3219.84   0.000290    1.47  0.000028  ( 0.005301 -0.000005  0.000000)
 49:   3220.56   0.000000    0.00  0.000000  (-0.000088 -0.000002  0.000000)
 50:   3231.75   0.000013    0.07  0.000001  (-0.000003  0.001131  0.000000)
 51:   3231.80   0.000818    4.14  0.000079  ( 0.000007  0.008889 -0.000000)
 52:   3241.82   0.001557    7.87  0.000150  ( 0.012241 -0.000005  0.000000)
 53:   3241.85   0.000059    0.30  0.000006  (-0.002378  0.000003  0.000000)

--------------------------
THERMOCHEMISTRY AT 298.15K
--------------------------

Temperature         ...   298.15 K
Pressure            ...     1.00 atm
Total Mass          ...   128.17 AMU
Quasi RRHO          ...     True
Cut-Off Frequency   ...     1.00 cm^-1

Throughout the following assumptions are being made:
  (1) The electronic state is orbitally nondegenerate
      but the spin degeneracy is treated
  (2) There are no thermally accessible electronically excited states
  (3) Hindered rotations indicated by low frequency modes are not
      treated as such but are treated as vibrations and this may
      cause some error
  (4) All equations used are the standard statistical mechanics
      equations for an ideal gas
  (5) All vibrations are strictly harmonic

freq.     157.98  E(vib)   ...       0.40
freq.     184.03  E(vib)   ...       0.37
freq.     358.15  E(vib)   ...       0.22
freq.     379.22  E(vib)   ...       0.21
freq.     432.32  E(vib)   ...       0.18
freq.     444.89  E(vib)   ...       0.17
freq.     473.72  E(vib)   ...       0.15
freq.     516.18  E(vib)   ...       0.13
freq.     572.69  E(vib)   ...       0.11
freq.     605.28  E(vib)   ...       0.10
freq.     756.53  E(vib)   ...       0.06
freq.     771.62  E(vib)   ...       0.05
freq.     781.68  E(vib)   ...       0.05
freq.     788.48  E(vib)   ...       0.05
freq.     808.86  E(vib)   ...       0.05
freq.     884.98  E(vib)   ...       0.04
freq.     939.12  E(vib)   ...       0.03
freq.     953.40  E(vib)   ...       0.03
freq.     991.32  E(vib)   ...       0.02
freq.    1014.06  E(vib)   ...       0.02
freq.    1042.59  E(vib)   ...       0.02
freq.    1046.74  E(vib)   ...       0.02
freq.    1055.91  E(vib)   ...       0.02
freq.    1079.87  E(vib)   ...       0.02
freq.    1125.66  E(vib)   ...       0.01
freq.    1127.25  E(vib)   ...       0.01
freq.    1183.85  E(vib)   ...       0.01
freq.    1192.33  E(vib)   ...       0.01
freq.    1244.70  E(vib)   ...       0.01
freq.    1264.40  E(vib)   ...       0.01
freq.    1305.89  E(vib)   ...       0.01
freq.    1433.86  E(vib)   ...       0.00
freq.    1472.48  E(vib)   ...       0.00
freq.    1475.02  E(vib)   ...       0.00
freq.    1478.96  E(vib)   ...       0.00
freq.    1507.39  E(vib)   ...       0.00
freq.    1546.59  E(vib)   ...       0.00
freq.    1586.46  E(vib)   ...       0.00
freq.    1597.51  E(vib)   ...       0.00
freq.    1671.31  E(vib)   ...       0.00
freq.    3216.39  E(vib)   ...       0.00
freq.    3217.27  E(vib)   ...       0.00
freq.    3219.84  E(vib)   ...       0.00
freq.    3220.56  E(vib)   ...       0.00
freq.    3231.75  E(vib)   ...       0.00
freq.    3231.80  E(vib)   ...       0.00
freq.    3241.82  E(vib)   ...       0.00
freq.    3241.85  E(vib)   ...       0.00

------------
INNER ENERGY
------------

The inner energy is: U= E(el) + E(ZPE) + E(vib) + E(rot) + E(trans)
    E(el)   - is the total energy from the electronic structure calculation
              = E(kin-el) + E(nuc-el) + E(el-el) + E(nuc-nuc)
    E(ZPE)  - the the zero temperature vibrational energy from the frequency calculation
    E(vib)  - the the finite temperature correction to E(ZPE) due to population
              of excited vibrational states
    E(rot)  - is the rotational thermal energy
    E(trans)- is the translational thermal energy

Summary of contributions to the inner energy U:
Electronic energy                ...   -384.86827161 Eh
Zero point energy                ...      0.14825081 Eh      93.03 kcal/mol
Thermal vibrational correction   ...      0.00415375 Eh       2.61 kcal/mol
Thermal rotational correction    ...      0.00141627 Eh       0.89 kcal/mol
Thermal translational correction ...      0.00141627 Eh       0.89 kcal/mol
-----------------------------------------------------------------------
Total thermal energy                   -384.71303451 Eh

Summary of corrections to the electronic energy:
(perhaps to be used in another calculation)
Total thermal correction                  0.00698629 Eh       4.38 kcal/mol
Non-thermal (ZPE) correction              0.14825081 Eh      93.03 kcal/mol
-----------------------------------------------------------------------
Total correction                          0.15523710 Eh      97.41 kcal/mol

--------
ENTHALPY
--------

The enthalpy is H = U + kB*T
                kB is Boltzmann's constant
Total thermal energy              ...   -384.71303451 Eh
Thermal Enthalpy correction       ...      0.00094421 Eh       0.59 kcal/mol
-----------------------------------------------------------------------
Total Enthalpy                    ...   -384.71209030 Eh

Note: Rotational entropy computed according to Herzberg
Infrared and Raman Spectra, Chapter V,1, Van Nostrand Reinhold, 1945
Point Group:  D2h, Symmetry Number:   4
Rotational constants in cm-1:     0.104687     0.040748     0.029331

Vibrational entropy computed according to the QRRHO of S. Grimme
Chem.Eur.J. 2012 18 9955 using a reference frequency of 100.0 cm-1

-------
ENTROPY
-------

The entropy contributions are T*S = T*(S(el)+S(vib)+S(rot)+S(trans))
     S(el)   - electronic entropy
     S(vib)  - vibrational entropy
     S(rot)  - rotational entropy
     S(trans)- translational entropy
The entropies will be listed as multiplied by the temperature to get
units of energy

Electronic entropy                ...      0.00065446 Eh      0.41 kcal/mol
Vibrational entropy               ...      0.00633733 Eh      3.98 kcal/mol
Rotational entropy                ...      0.01244422 Eh      7.81 kcal/mol
Translational entropy             ...      0.01922279 Eh     12.06 kcal/mol
-----------------------------------------------------------------------
Final entropy term                ...      0.03865879 Eh     24.26 kcal/mol

In case the symmetry of your molecule has not been determined correctly
or in case you have a reason to use a different symmetry number we print
out the resulting rotational entropy values for sn=1,12:

 non-linear molecules -----------------------------------
|  sn= 1 | S(rot)=       0.01375313 Eh      8.63 kcal/mol|
|  sn= 2 | S(rot)=       0.01309868 Eh      8.22 kcal/mol|
|  sn= 3 | S(rot)=       0.01271584 Eh      7.98 kcal/mol|
|  sn= 4 | S(rot)=       0.01244422 Eh      7.81 kcal/mol|
|  sn= 5 | S(rot)=       0.01223353 Eh      7.68 kcal/mol|
|  sn= 6 | S(rot)=       0.01206139 Eh      7.57 kcal/mol|
|  sn= 7 | S(rot)=       0.01191584 Eh      7.48 kcal/mol|
|  sn= 8 | S(rot)=       0.01178976 Eh      7.40 kcal/mol|
|  sn= 9 | S(rot)=       0.01167855 Eh      7.33 kcal/mol|
|  sn=10 | S(rot)=       0.01157908 Eh      7.27 kcal/mol|
|  sn=11 | S(rot)=       0.01148909 Eh      7.21 kcal/mol|
|  sn=12 | S(rot)=       0.01140693 Eh      7.16 kcal/mol|
 linear molecules ---------------------------------------
|  Dinfh | S(rot)=       0.00865793 Eh      5.43 kcal/mol|
|  Cinfv | S(rot)=       0.00931238 Eh      5.84 kcal/mol|
 --------------------------------------------------------

                             ****ORCA TERMINATED NORMALLY****
TOTAL RUN TIME: 0 days 0 hours 10 minutes 14 seconds 155 msec
