                         Program Version 6.0.0  -   RELEASE  -
|  1> !r2SCAN aug-cc-pVTZ d3 TightSCF SlowConv RIJCOSX defgrid2
|  2>
|  3> %pal
|  4> nprocs 4
|  5> end
|  6>
|  7> %scf
|  8> MaxIter 1500
|  9> end
| 10>
| 11> %maxcore 3000
| 12>
| 13> !CPCM
| 14> %cpcm smd true
| 15> SMDsolvent "MeCN"
| 16> surfacetype gepol_ses
| 17> rsolv 2.19
| 18> end
| 19>
| 20> * xyz -1 2
| 21> C          -0.04188476412109      1.20649591058260     -0.03059416435324
| 22> C          -1.42758997777244      1.20900092946328     -0.03204837740890
| 23> C          -2.18692767221781      0.02207756810286      0.00778089457379
| 24> C          -1.45245337452024     -1.19449457929778      0.04973241541109
| 25> C          -0.07593539048064     -1.21797796728122      0.05192894437349
| 26> C           0.70678686425334     -0.01719078736669      0.01222307749959
| 27> C           2.13722784115349     -0.10484845335572      0.01744599702996
| 28> O           2.77208408754572     -1.18919588733710      0.05436257040856
| 29> C           2.92761835814378      1.20197912887557     -0.02401472346093
| 30> H           3.99999527748817      0.94544780793909     -0.00555889368703
| 31> H           2.70732243738998      1.86415452535943      0.83824522074103
| 32> H           2.72299463114472      1.79839278568954     -0.93685074419013
| 33> H           0.47712353923980     -2.16170105523587      0.08479607463559
| 34> H          -2.00439456793065     -2.14494416213367      0.08164110604136
| 35> C          -3.68607504217989      0.02910769331193      0.00570061758528
| 36> H          -4.12174618431185     -0.45223229822142      0.90826315907933
| 37> H          -4.07802845542654      1.06256533456533     -0.02773326831382
| 38> H          -4.11993664787437     -0.50875039977053     -0.86531963898993
| 39> H          -1.95661019184379      2.17233863527966     -0.06580811854855
| 40> H           0.48615773232032      2.16549327083070     -0.06358124842653
| 41> *
| 42>
| 43>                          ****END OF INPUT****

CARTESIAN COORDINATES (ANGSTROEM)
---------------------------------
  C     -0.041885    1.206496   -0.030594
  C     -1.427590    1.209001   -0.032048
  C     -2.186928    0.022078    0.007781
  C     -1.452453   -1.194495    0.049732
  C     -0.075935   -1.217978    0.051929
  C      0.706787   -0.017191    0.012223
  C      2.137228   -0.104848    0.017446
  O      2.772084   -1.189196    0.054363
  C      2.927618    1.201979   -0.024015
  H      3.999995    0.945448   -0.005559
  H      2.707322    1.864155    0.838245
  H      2.722995    1.798393   -0.936851
  H      0.477124   -2.161701    0.084796
  H     -2.004395   -2.144944    0.081641
  C     -3.686075    0.029108    0.005701
  H     -4.121746   -0.452232    0.908263
  H     -4.078028    1.062565   -0.027733
  H     -4.119937   -0.508750   -0.865320
  H     -1.956610    2.172339   -0.065808
  H      0.486158    2.165493   -0.063581

 Total Charge           Charge          ....   -1
 Multiplicity           Mult            ....    2
 Number of Electrons    NEL             ....   73
 Basis Dimension        Dim             ....  690

ORBITAL ENERGIES
----------------
                 SPIN UP ORBITALS
  NO   OCC          E(Eh)            E(eV)
   0   1.0000     -18.873347      -513.5699
   1   1.0000     -10.047371      -273.4029
   2   1.0000     -10.017192      -272.5817
   3   1.0000     -10.016085      -272.5515
   4   1.0000     -10.012948      -272.4662
   5   1.0000     -10.012606      -272.4569
   6   1.0000     -10.011392      -272.4238
   7   1.0000     -10.008154      -272.3357
   8   1.0000     -10.004006      -272.2228
   9   1.0000     -10.001574      -272.1567
  10   1.0000      -0.926398       -25.2086
  11   1.0000      -0.793071       -21.5805
  12   1.0000      -0.719215       -19.5708
  13   1.0000      -0.687351       -18.7038
  14   1.0000      -0.667059       -18.1516
  15   1.0000      -0.627291       -17.0695
  16   1.0000      -0.548686       -14.9305
  17   1.0000      -0.539150       -14.6710
  18   1.0000      -0.484137       -13.1740
  19   1.0000      -0.426907       -11.6167
  20   1.0000      -0.405180       -11.0255
  21   1.0000      -0.387884       -10.5548
  22   1.0000      -0.375584       -10.2202
  23   1.0000      -0.371074       -10.0974
  24   1.0000      -0.368041       -10.0149
  25   1.0000      -0.357096        -9.7171
  26   1.0000      -0.342733        -9.3262
  27   1.0000      -0.320176        -8.7124
  28   1.0000      -0.317790        -8.6475
  29   1.0000      -0.314453        -8.5567
  30   1.0000      -0.294567        -8.0156
  31   1.0000      -0.281440        -7.6584
  32   1.0000      -0.267370        -7.2755
  33   1.0000      -0.221445        -6.0258
  34   1.0000      -0.204790        -5.5726
  35   1.0000      -0.171626        -4.6702
  36   1.0000      -0.074392        -2.0243
  37   0.0000      -0.015251        -0.4150
  38   0.0000       0.004750         0.1293
  39   0.0000       0.017835         0.4853
  40   0.0000       0.023322         0.6346
  41   0.0000       0.025145         0.6842

                 SPIN DOWN ORBITALS
  NO   OCC          E(Eh)            E(eV)
   0   1.0000     -18.867130      -513.4007
   1   1.0000     -10.042477      -273.2697
   2   1.0000     -10.017619      -272.5933
   3   1.0000     -10.014524      -272.5091
   4   1.0000     -10.014097      -272.4974
   5   1.0000     -10.010640      -272.4034
   6   1.0000     -10.008396      -272.3423
   7   1.0000     -10.005606      -272.2664
   8   1.0000     -10.004429      -272.2344
   9   1.0000     -10.000428      -272.1255
  10   1.0000      -0.916332       -24.9347
  11   1.0000      -0.788681       -21.4611
  12   1.0000      -0.712303       -19.3828
  13   1.0000      -0.684396       -18.6234
  14   1.0000      -0.663445       -18.0533
  15   1.0000      -0.626727       -17.0541
  16   1.0000      -0.540709       -14.7134
  17   1.0000      -0.536521       -14.5995
  18   1.0000      -0.479998       -13.0614
  19   1.0000      -0.422463       -11.4958
  20   1.0000      -0.403855       -10.9894
  21   1.0000      -0.384119       -10.4524
  22   1.0000      -0.370187       -10.0733
  23   1.0000      -0.366065        -9.9611
  24   1.0000      -0.360592        -9.8122
  25   1.0000      -0.356353        -9.6969
  26   1.0000      -0.340706        -9.2711
  27   1.0000      -0.317998        -8.6532
  28   1.0000      -0.316353        -8.6084
  29   1.0000      -0.305914        -8.3243
  30   1.0000      -0.292332        -7.9547
  31   1.0000      -0.266225        -7.2444
  32   1.0000      -0.261457        -7.1146
  33   1.0000      -0.213777        -5.8172
  34   1.0000      -0.187062        -5.0902
  35   1.0000      -0.166873        -4.5408
  36   0.0000      -0.036479        -0.9926
  37   0.0000      -0.010612        -0.2888
  38   0.0000       0.007830         0.2131
  39   0.0000       0.020763         0.5650
  40   0.0000       0.025968         0.7066

MULLIKEN ATOMIC CHARGES AND SPIN POPULATIONS
--------------------------------------------
   0 C :   -0.581865    0.288667
   1 C :   -0.952267   -0.174856
   2 C :    1.764004    0.377313
   3 C :   -1.114473   -0.153461
   4 C :   -1.477522    0.235419
   5 C :    2.038898    0.037449
   6 C :    0.653191    0.256507
   7 O :   -1.116275    0.222198
   8 C :   -0.547804   -0.057091
   9 H :    0.141824   -0.007129
  10 H :    0.198214    0.021878
  11 H :    0.197603    0.022282
  12 H :   -0.205610   -0.020057
  13 H :    0.288210   -0.003309
  14 C :   -0.764968   -0.064068
  15 H :    0.180828    0.022350
  16 H :    0.162130   -0.005464
  17 H :    0.182712    0.022511
  18 H :    0.032560   -0.010076
  19 H :   -0.079390   -0.011061
Sum of atomic charges         :   -1.0000000

LOEWDIN ATOMIC CHARGES AND SPIN POPULATIONS
-------------------------------------------
   0 C :    0.149609    0.098208
   1 C :    0.152182    0.025035
   2 C :   -0.179585    0.134123
   3 C :    0.153282    0.020592
   4 C :    0.134365    0.081114
   5 C :   -0.216183    0.117976
   6 C :   -0.680787    0.186742
   7 O :    0.333789    0.191814
   8 C :    0.494174    0.035392
   9 H :   -0.205898   -0.000904
  10 H :   -0.181281    0.009264
  11 H :   -0.180515    0.009381
  12 H :   -0.217065    0.018353
  13 H :   -0.181504   -0.005332
  14 C :    0.528747    0.041178
  15 H :   -0.164786    0.010116
  16 H :   -0.180845    0.000550
  17 H :   -0.164661    0.010167
  18 H :   -0.185447   -0.005898
  19 H :   -0.207593    0.022128

  Mayer bond orders larger than 0.100000
B(  0-C ,  1-C ) :   1.1863 B(  0-C ,  3-C ) :  -0.3578 B(  0-C ,  4-C ) :  -0.6734
B(  0-C ,  6-C ) :   0.2454 B(  0-C , 19-H ) :   1.5842 B(  1-C ,  2-C ) :   0.3502
B(  1-C ,  3-C ) :  -0.1370 B(  1-C ,  4-C ) :   0.1885 B(  1-C ,  6-C ) :  -0.1029
B(  1-C , 12-H ) :  -0.1169 B(  1-C , 14-C ) :  -0.1361 B(  1-C , 18-H ) :   1.3278
B(  2-C ,  3-C ) :   0.4131 B(  2-C ,  5-C ) :   0.1007 B(  2-C ,  6-C ) :   0.1684
B(  2-C , 12-H ) :  -0.1274 B(  2-C , 15-H ) :  -0.1244 B(  2-C , 17-H ) :  -0.1231
B(  2-C , 18-H ) :  -0.1423 B(  3-C ,  4-C ) :   1.5879 B(  3-C , 13-H ) :   0.8861
B(  3-C , 14-C ) :   0.2704 B(  3-C , 19-H ) :  -0.1235 B(  4-C ,  5-C ) :  -0.5689
B(  4-C ,  6-C ) :   0.3790 B(  4-C , 12-H ) :   1.6762 B(  4-C , 19-H ) :   0.1288
B(  5-C ,  6-C ) :   0.4597 B(  5-C ,  7-O ) :   0.3506 B(  5-C , 12-H ) :  -0.3077
B(  5-C , 14-C ) :   0.1155 B(  5-C , 19-H ) :  -0.3263 B(  6-C ,  7-O ) :   0.4341
B(  6-C ,  8-C ) :   0.8887 B(  6-C , 12-H ) :  -0.1392 B(  6-C , 13-H ) :   0.1644
B(  7-O , 12-H ) :   0.1992 B(  8-C ,  9-H ) :   0.9489 B(  8-C , 10-H ) :   0.9864
B(  8-C , 11-H ) :   0.9860 B( 12-H , 19-H ) :   0.1158 B( 14-C , 15-H ) :   1.0340
B( 14-C , 16-H ) :   1.0239 B( 14-C , 17-H ) :   1.0314

Dispersion correction           -0.006192165
FINAL SINGLE POINT ENERGY      -424.221516641289

DIPOLE MOMENT
-------------

Method             : SCF
Type of density    : Electron Density
Multiplicity       :   2
Irrep              :   0
Energy             :  -424.2153244766649323 Eh
Relativity type    :
Basis              : AO
                                X                 Y                 Z
Electronic contribution:      3.108620123      -3.068228244       0.103895099
Nuclear contribution   :     -5.565601107       4.473854075      -0.154054051
                        -----------------------------------------
Total Dipole Moment    :     -2.456980984       1.405625832      -0.050158952
                        -----------------------------------------
Magnitude (a.u.)       :      2.831087327
Magnitude (Debye)      :      7.196052106

Rotational constants in cm-1:             0.119092             0.025902             0.021447
Rotational constants in MHz :          3570.280980           776.510270           642.950997

                             ****ORCA TERMINATED NORMALLY****
TOTAL RUN TIME: 0 days 0 hours 5 minutes 51 seconds 968 msec
