                         Program Version 6.0.0  -   RELEASE  -
|  1> !PBE0 def2-SV(p) Opt Freq d3 TightSCF SlowConv RIJCOSX defgrid2
|  2>
|  3> %pal
|  4> nprocs 4
|  5> end
|  6>
|  7> %scf
|  8> MaxIter 1500
|  9> end
| 10>
| 11> %maxcore 3000
| 12>
| 13>
| 14>
| 15> * xyz 1 2
| 16> N    -0.1356111    0.0525827   -0.1955367
| 17> C    -1.3061565   -0.0855386    0.5985711
| 18> C    -2.5655864    0.3721289   -0.1736100
| 19> H    -3.4323660    0.2285298    0.4651894
| 20> H    -2.6874617   -0.2244391   -1.0745309
| 21> H    -2.5026884    1.4213578   -0.4471339
| 22> H    -1.4354897   -1.1300547    0.8873137
| 23> H    -1.2165357    0.5399595    1.4941569
| 24> C     0.4470815   -1.0937580   -0.8004260
| 25> C     1.1474825   -2.0243372    0.2137243
| 26> H     0.4559204   -2.3983245    0.9630282
| 27> H     1.5593711   -2.8711270   -0.3281649
| 28> H     1.9564765   -1.4964124    0.7109733
| 29> H    -0.3500482   -1.6817299   -1.2759382
| 30> H     1.1668544   -0.7805237   -1.5590476
| 31> C     0.4304485    1.3390918   -0.4036556
| 32> C     1.8236662    1.4745964    0.2454757
| 33> H     2.5401594    0.7875521   -0.1940055
| 34> H     1.7534423    1.2898856    1.3144644
| 35> H     2.1778705    2.4891131    0.0851835
| 36> H     0.5541777    1.5113254   -1.4809576
| 37> H    -0.2326159    2.0998557    0.0105085
| 38> *
| 39>
| 40>                          ****END OF INPUT****
 Total Charge           Charge          ....    1
 Multiplicity           Mult            ....    2
 Number of Electrons    NEL             ....   57
Dispersion correction           -0.016166449
FINAL SINGLE POINT ENERGY      -291.558043658435
Dispersion correction             ... done (  0.1 sec)
Dispersion correction           -0.016046611
FINAL SINGLE POINT ENERGY      -291.560913273109
Dispersion correction             ... done (  0.1 sec)
Dispersion correction           -0.016022452
FINAL SINGLE POINT ENERGY      -291.561420386240
Dispersion correction             ... done (  0.1 sec)
FINAL SINGLE POINT ENERGY      -291.561587283602
FINAL SINGLE POINT ENERGY      -291.561599109067
FINAL SINGLE POINT ENERGY      -291.561603769535
Dispersion correction             ... done (  0.1 sec)
Dispersion correction           -0.016031306
FINAL SINGLE POINT ENERGY      -291.561605869968
Dispersion correction             ... done (  0.1 sec)
Dispersion correction           -0.016030576
FINAL SINGLE POINT ENERGY      -291.561606666198
Dispersion correction             ... done (  0.1 sec)
                    ***********************HURRAY********************

CARTESIAN COORDINATES (ANGSTROEM)
---------------------------------
  N     -0.133306    0.064638   -0.183049
  C     -1.329960   -0.057057    0.614904
  C     -2.574213    0.334812   -0.192570
  H     -3.454810    0.223239    0.460491
  H     -2.705316   -0.323979   -1.066294
  H     -2.528315    1.382141   -0.532261
  H     -1.409876   -1.097411    0.964953
  H     -1.218773    0.605211    1.491134
  C      0.434294   -1.108665   -0.808154
  C      1.148242   -2.026376    0.189047
  H      0.464852   -2.406002    0.965428
  H      1.541013   -2.892227   -0.368007
  H      1.993614   -1.513333    0.673609
  H     -0.401834   -1.654645   -1.284404
  H      1.124679   -0.774767   -1.597541
  C      0.465565    1.363023   -0.388489
  C      1.839699    1.478857    0.276625
  H      2.568244    0.774430   -0.155444
  H      1.771966    1.312060    1.363822
  H      2.214998    2.500902    0.106623
  H      0.562704    1.511554   -1.480613
  H     -0.225077    2.123329    0.005772

 Multiplicity           Mult            ....    2
 Number of Electrons    NEL             ....   57
 Basis Dimension        Dim             ....  128

ORBITAL ENERGIES
----------------
                 SPIN UP ORBITALS
  NO   OCC          E(Eh)            E(eV)
   0   1.0000     -14.698151      -399.9570
   1   1.0000     -10.459292      -284.6118
   2   1.0000     -10.459117      -284.6070
   3   1.0000     -10.458865      -284.6002
   4   1.0000     -10.397593      -282.9329
   5   1.0000     -10.397033      -282.9177
   6   1.0000     -10.396206      -282.8952
   7   1.0000      -1.215209       -33.0675
   8   1.0000      -0.987770       -26.8786
   9   1.0000      -0.985890       -26.8274
  10   1.0000      -0.911910       -24.8143
  11   1.0000      -0.850793       -23.1513
  12   1.0000      -0.841377       -22.8950
  13   1.0000      -0.765412       -20.8279
  14   1.0000      -0.729416       -19.8484
  15   1.0000      -0.709827       -19.3154
  16   1.0000      -0.683374       -18.5955
  17   1.0000      -0.640218       -17.4212
  18   1.0000      -0.629635       -17.1332
  19   1.0000      -0.620450       -16.8833
  20   1.0000      -0.586266       -15.9531
  21   1.0000      -0.582948       -15.8628
  22   1.0000      -0.574539       -15.6340
  23   1.0000      -0.562611       -15.3094
  24   1.0000      -0.556903       -15.1541
  25   1.0000      -0.544412       -14.8142
  26   1.0000      -0.541093       -14.7239
  27   1.0000      -0.535092       -14.5606
  28   1.0000      -0.480596       -13.0777
  29   0.0000      -0.108505        -2.9526
  30   0.0000      -0.075918        -2.0658
  31   0.0000      -0.071320        -1.9407
  32   0.0000      -0.068433        -1.8622
  33   0.0000      -0.049281        -1.3410

                 SPIN DOWN ORBITALS
  NO   OCC          E(Eh)            E(eV)
   0   1.0000     -14.678514      -399.4227
   1   1.0000     -10.459954      -284.6298
   2   1.0000     -10.459774      -284.6249
   3   1.0000     -10.459491      -284.6172
   4   1.0000     -10.395918      -282.8873
   5   1.0000     -10.395547      -282.8772
   6   1.0000     -10.394747      -282.8554
   7   1.0000      -1.180597       -32.1257
   8   1.0000      -0.982763       -26.7423
   9   1.0000      -0.981133       -26.6980
  10   1.0000      -0.901704       -24.5366
  11   1.0000      -0.843744       -22.9594
  12   1.0000      -0.836699       -22.7677
  13   1.0000      -0.755677       -20.5630
  14   1.0000      -0.714169       -19.4335
  15   1.0000      -0.704262       -19.1640
  16   1.0000      -0.656605       -17.8671
  17   1.0000      -0.636297       -17.3145
  18   1.0000      -0.624152       -16.9840
  19   1.0000      -0.609030       -16.5725
  20   1.0000      -0.578362       -15.7380
  21   1.0000      -0.575048       -15.6478
  22   1.0000      -0.569717       -15.5028
  23   1.0000      -0.559737       -15.2312
  24   1.0000      -0.554459       -15.0876
  25   1.0000      -0.542405       -14.7596
  26   1.0000      -0.538724       -14.6594
  27   1.0000      -0.532868       -14.5001
  28   0.0000      -0.322417        -8.7734
  29   0.0000      -0.107213        -2.9174
  30   0.0000      -0.074563        -2.0290
  31   0.0000      -0.069822        -1.8999
  32   0.0000      -0.066910        -1.8207

MULLIKEN ATOMIC CHARGES AND SPIN POPULATIONS
--------------------------------------------
   0 N :   -0.148030    0.831607
   1 C :   -0.195670   -0.046447
   2 C :   -0.365798    0.065518
   3 H :    0.201253    0.008338
   4 H :    0.174976   -0.002327
   5 H :    0.177321   -0.003048
   6 H :    0.190665    0.008770
   7 H :    0.197435    0.027181
   8 C :   -0.186769   -0.048699
   9 C :   -0.372603    0.056931
  10 H :    0.176969   -0.002951
  11 H :    0.199187    0.006204
  12 H :    0.178259   -0.000964
  13 H :    0.198703    0.039388
  14 H :    0.189302    0.004215
  15 C :   -0.186788   -0.048292
  16 C :   -0.376131    0.056470
  17 H :    0.178833   -0.002684
  18 H :    0.175594   -0.000718
  19 H :    0.201139    0.007050
  20 H :    0.203158    0.042124
  21 H :    0.188995    0.002332
Sum of atomic charges         :    1.0000000

LOEWDIN ATOMIC CHARGES AND SPIN POPULATIONS
-------------------------------------------
   0 N :    0.178308    0.750800
   1 C :   -0.158624   -0.005468
   2 C :   -0.334890    0.060800
   3 H :    0.165929    0.005449
   4 H :    0.145090   -0.001902
   5 H :    0.144608   -0.002159
   6 H :    0.152184    0.006912
   7 H :    0.159665    0.021702
   8 C :   -0.158054   -0.006941
   9 C :   -0.338075    0.052620
  10 H :    0.143579   -0.001957
  11 H :    0.165586    0.003887
  12 H :    0.144904   -0.001106
  13 H :    0.162953    0.031105
  14 H :    0.152087    0.003183
  15 C :   -0.157163   -0.006565
  16 C :   -0.338453    0.052596
  17 H :    0.143230   -0.001820
  18 H :    0.146062   -0.001066
  19 H :    0.165890    0.004354
  20 H :    0.164096    0.033680
  21 H :    0.151089    0.001897

  Mayer bond orders larger than 0.100000
B(  0-N ,  1-C ) :   0.9537 B(  0-N ,  8-C ) :   0.9435 B(  0-N , 15-C ) :   0.9510
B(  1-C ,  2-C ) :   1.0802 B(  1-C ,  6-H ) :   0.9082 B(  1-C ,  7-H ) :   0.9011
B(  2-C ,  3-H ) :   0.9295 B(  2-C ,  4-H ) :   0.9377 B(  2-C ,  5-H ) :   0.9370
B(  8-C ,  9-C ) :   1.0879 B(  8-C , 13-H ) :   0.8943 B(  8-C , 14-H ) :   0.9133
B(  9-C , 10-H ) :   0.9334 B(  9-C , 11-H ) :   0.9289 B(  9-C , 12-H ) :   0.9364
B( 15-C , 16-C ) :   1.0885 B( 15-C , 20-H ) :   0.8950 B( 15-C , 21-H ) :   0.9127
B( 16-C , 17-H ) :   0.9327 B( 16-C , 18-H ) :   0.9380 B( 16-C , 19-H ) :   0.9286

Dispersion correction           -0.016029617
FINAL SINGLE POINT ENERGY      -291.561606925291

DIPOLE MOMENT
-------------

Method             : SCF
Type of density    : Electron Density
Multiplicity       :   2
Irrep              :   0
Energy             :  -291.5455773083130566 Eh
Relativity type    :
Basis              : AO
                                X                 Y                 Z
Electronic contribution:     -0.638578625       0.334937877      -0.619540042
Nuclear contribution   :      0.524236393      -0.282986655       0.510171142
                        -----------------------------------------
Total Dipole Moment    :     -0.114342232       0.051951222      -0.109368900
                        -----------------------------------------
Magnitude (a.u.)       :      0.166537179
Magnitude (Debye)      :      0.423303868

VIBRATIONAL FREQUENCIES
-----------------------

Scaling factor for frequencies =  1.000000000  (already applied!)

     0:       0.00 cm**-1
     1:       0.00 cm**-1
     2:       0.00 cm**-1
     3:       0.00 cm**-1
     4:       0.00 cm**-1
     5:       0.00 cm**-1
     6:      47.13 cm**-1
     7:      77.72 cm**-1
     8:     103.37 cm**-1
     9:     160.59 cm**-1
    10:     220.65 cm**-1
    11:     237.42 cm**-1
    12:     262.15 cm**-1
    13:     300.77 cm**-1
    14:     306.06 cm**-1
    15:     426.34 cm**-1
    16:     451.11 cm**-1
    17:     604.74 cm**-1
    18:     739.26 cm**-1
    19:     808.17 cm**-1
    20:     814.66 cm**-1
    21:     817.89 cm**-1
    22:     945.29 cm**-1
    23:     948.93 cm**-1
    24:    1006.71 cm**-1
    25:    1042.45 cm**-1
    26:    1043.64 cm**-1
    27:    1068.28 cm**-1
    28:    1084.81 cm**-1
    29:    1114.16 cm**-1
    30:    1119.86 cm**-1
    31:    1220.88 cm**-1
    32:    1225.17 cm**-1
    33:    1278.94 cm**-1
    34:    1312.89 cm**-1
    35:    1327.27 cm**-1
    36:    1346.26 cm**-1
    37:    1383.29 cm**-1
    38:    1388.79 cm**-1
    39:    1402.99 cm**-1
    40:    1413.73 cm**-1
    41:    1417.12 cm**-1
    42:    1460.72 cm**-1
    43:    1464.70 cm**-1
    44:    1468.82 cm**-1
    45:    1470.94 cm**-1
    46:    1474.97 cm**-1
    47:    1479.18 cm**-1
    48:    1489.48 cm**-1
    49:    1492.03 cm**-1
    50:    1503.74 cm**-1
    51:    3052.07 cm**-1
    52:    3053.86 cm**-1
    53:    3061.53 cm**-1
    54:    3063.67 cm**-1
    55:    3067.65 cm**-1
    56:    3076.11 cm**-1
    57:    3149.80 cm**-1
    58:    3152.95 cm**-1
    59:    3153.68 cm**-1
    60:    3170.29 cm**-1
    61:    3171.28 cm**-1
    62:    3171.68 cm**-1
    63:    3173.67 cm**-1
    64:    3174.44 cm**-1
    65:    3179.19 cm**-1

IR SPECTRUM
-----------

 Mode   freq       eps      Int      T**2         TX        TY        TZ
       cm**-1   L/(mol*cm) km/mol    a.u.
----------------------------------------------------------------------------
  6:     47.13   0.000075    0.38  0.000495  (-0.020260  0.003776  0.008390)
  7:     77.72   0.000089    0.45  0.000359  ( 0.005880 -0.017724 -0.003137)
  8:    103.37   0.000020    0.10  0.000059  (-0.004081 -0.002924  0.005806)
  9:    160.59   0.000180    0.91  0.000349  (-0.018454 -0.002858  0.000368)
 10:    220.65   0.000010    0.05  0.000014  ( 0.003452 -0.001516 -0.000369)
 11:    237.42   0.000003    0.02  0.000004  ( 0.000990  0.001571  0.000880)
 12:    262.15   0.000004    0.02  0.000005  ( 0.000932  0.000345 -0.001880)
 13:    300.77   0.000036    0.18  0.000037  (-0.005111  0.003297  0.000204)
 14:    306.06   0.000002    0.01  0.000002  ( 0.000484  0.001044 -0.000767)
 15:    426.34   0.000101    0.51  0.000074  ( 0.007006 -0.004961 -0.000247)
 16:    451.11   0.000016    0.08  0.000011  ( 0.003276  0.000397  0.000711)
 17:    604.74   0.001398    7.07  0.000722  (-0.024383  0.002667 -0.010951)
 18:    739.26   0.000074    0.37  0.000031  ( 0.005294 -0.001210  0.001341)
 19:    808.17   0.000318    1.61  0.000123  ( 0.002364 -0.009453 -0.005269)
 20:    814.66   0.000953    4.82  0.000365  (-0.014702 -0.003967  0.011541)
 21:    817.89   0.000943    4.76  0.000360  (-0.003375 -0.018606 -0.001425)
 22:    945.29   0.001184    5.99  0.000391  ( 0.002892  0.018965  0.004793)
 23:    948.93   0.000982    4.96  0.000323  ( 0.011691  0.002029 -0.013496)
 24:   1006.71   0.000094    0.47  0.000029  ( 0.003009  0.001711 -0.004130)
 25:   1042.45   0.003441   17.39  0.001030  ( 0.005228 -0.031326 -0.004629)
 26:   1043.64   0.003190   16.12  0.000954  ( 0.029105  0.008349 -0.006080)
 27:   1068.28   0.000238    1.20  0.000069  (-0.003348  0.007314  0.002170)
 28:   1084.81   0.000939    4.74  0.000270  (-0.011334  0.009566  0.007074)
 29:   1114.16   0.001403    7.09  0.000393  (-0.009781 -0.008168  0.015189)
 30:   1119.86   0.000162    0.82  0.000045  ( 0.001417  0.002023 -0.006251)
 31:   1220.88   0.000301    1.52  0.000077  (-0.002353  0.006890  0.004896)
 32:   1225.17   0.000484    2.44  0.000123  ( 0.007575  0.007916  0.001776)
 33:   1278.94   0.000039    0.20  0.000009  (-0.002243  0.000316  0.002090)
 34:   1312.89   0.000398    2.01  0.000095  (-0.001191  0.008378 -0.004803)
 35:   1327.27   0.001298    6.56  0.000305  ( 0.016319 -0.005999 -0.001708)
 36:   1346.26   0.000100    0.51  0.000023  (-0.003283  0.001728 -0.003072)
 37:   1383.29   0.000544    2.75  0.000123  ( 0.009431 -0.002551  0.005214)
 38:   1388.79   0.000323    1.63  0.000073  ( 0.002445  0.005393 -0.006124)
 39:   1402.99   0.000157    0.79  0.000035  ( 0.003232 -0.004402  0.002266)
 40:   1413.73   0.000738    3.73  0.000163  (-0.004885 -0.002980 -0.011413)
 41:   1417.12   0.001482    7.49  0.000326  (-0.003518  0.004846 -0.017042)
 42:   1460.72   0.001536    7.76  0.000328  ( 0.009512 -0.015316 -0.001749)
 43:   1464.70   0.003669   18.54  0.000782  ( 0.027142 -0.006089  0.002816)
 44:   1468.82   0.001623    8.20  0.000345  ( 0.010922 -0.014949 -0.001462)
 45:   1470.94   0.004801   24.26  0.001019  ( 0.017895  0.023715  0.011660)
 46:   1474.97   0.003164   15.99  0.000669  ( 0.017781  0.007307 -0.017317)
 47:   1479.18   0.001953    9.87  0.000412  (-0.002987  0.003702  0.019732)
 48:   1489.48   0.003478   17.58  0.000729  ( 0.004282  0.026318  0.004203)
 49:   1492.03   0.006329   31.99  0.001324  ( 0.001677  0.005777 -0.035883)
 50:   1503.74   0.000286    1.44  0.000059  ( 0.004067 -0.001958  0.006240)
 51:   3052.07   0.000860    4.34  0.000088  (-0.003412 -0.008335  0.002606)
 52:   3053.86   0.000274    1.38  0.000028  ( 0.004234 -0.002453 -0.002003)
 53:   3061.53   0.000193    0.98  0.000020  (-0.000777  0.001016 -0.004252)
 54:   3063.67   0.000294    1.48  0.000030  ( 0.004279 -0.003117  0.001378)
 55:   3067.65   0.000226    1.14  0.000023  (-0.000687  0.001151 -0.004607)
 56:   3076.11   0.000184    0.93  0.000019  ( 0.003561 -0.002297  0.000844)
 57:   3149.80   0.000216    1.09  0.000021  ( 0.000055  0.002921  0.003593)
 58:   3152.95   0.000302    1.52  0.000030  ( 0.000473  0.004863 -0.002447)
 59:   3153.68   0.000199    1.01  0.000020  (-0.001464  0.001213  0.004008)
 60:   3170.29   0.000330    1.67  0.000033  (-0.003714 -0.004068 -0.001475)
 61:   3171.28   0.000465    2.35  0.000046  ( 0.006738  0.000623  0.000009)
 62:   3171.68   0.000107    0.54  0.000011  (-0.000350  0.002712 -0.001742)
 63:   3173.67   0.000091    0.46  0.000009  ( 0.000543  0.002392 -0.001707)
 64:   3174.44   0.000422    2.13  0.000041  (-0.002144  0.006024  0.000742)
 65:   3179.19   0.000513    2.59  0.000050  ( 0.006775 -0.001411 -0.001577)

--------------------------
THERMOCHEMISTRY AT 298.15K
--------------------------

Temperature         ...   298.15 K
Pressure            ...     1.00 atm
Total Mass          ...   101.19 AMU
Quasi RRHO          ...     True
Cut-Off Frequency   ...     1.00 cm^-1

Throughout the following assumptions are being made:
  (1) The electronic state is orbitally nondegenerate
      but the spin degeneracy is treated
  (2) There are no thermally accessible electronically excited states
  (3) Hindered rotations indicated by low frequency modes are not
      treated as such but are treated as vibrations and this may
      cause some error
  (4) All equations used are the standard statistical mechanics
      equations for an ideal gas
  (5) All vibrations are strictly harmonic

freq.      47.13  E(vib)   ...       0.53
freq.      77.72  E(vib)   ...       0.49
freq.     103.37  E(vib)   ...       0.46
freq.     160.59  E(vib)   ...       0.39
freq.     220.65  E(vib)   ...       0.33
freq.     237.42  E(vib)   ...       0.32
freq.     262.15  E(vib)   ...       0.29
freq.     300.77  E(vib)   ...       0.26
freq.     306.06  E(vib)   ...       0.26
freq.     426.34  E(vib)   ...       0.18
freq.     451.11  E(vib)   ...       0.16
freq.     604.74  E(vib)   ...       0.10
freq.     739.26  E(vib)   ...       0.06
freq.     808.17  E(vib)   ...       0.05
freq.     814.66  E(vib)   ...       0.05
freq.     817.89  E(vib)   ...       0.05
freq.     945.29  E(vib)   ...       0.03
freq.     948.93  E(vib)   ...       0.03
freq.    1006.71  E(vib)   ...       0.02
freq.    1042.45  E(vib)   ...       0.02
freq.    1043.64  E(vib)   ...       0.02
freq.    1068.28  E(vib)   ...       0.02
freq.    1084.81  E(vib)   ...       0.02
freq.    1114.16  E(vib)   ...       0.01
freq.    1119.86  E(vib)   ...       0.01
freq.    1220.88  E(vib)   ...       0.01
freq.    1225.17  E(vib)   ...       0.01
freq.    1278.94  E(vib)   ...       0.01
freq.    1312.89  E(vib)   ...       0.01
freq.    1327.27  E(vib)   ...       0.01
freq.    1346.26  E(vib)   ...       0.01
freq.    1383.29  E(vib)   ...       0.00
freq.    1388.79  E(vib)   ...       0.00
freq.    1402.99  E(vib)   ...       0.00
freq.    1413.73  E(vib)   ...       0.00
freq.    1417.12  E(vib)   ...       0.00
freq.    1460.72  E(vib)   ...       0.00
freq.    1464.70  E(vib)   ...       0.00
freq.    1468.82  E(vib)   ...       0.00
freq.    1470.94  E(vib)   ...       0.00
freq.    1474.97  E(vib)   ...       0.00
freq.    1479.18  E(vib)   ...       0.00
freq.    1489.48  E(vib)   ...       0.00
freq.    1492.03  E(vib)   ...       0.00
freq.    1503.74  E(vib)   ...       0.00
freq.    3052.07  E(vib)   ...       0.00
freq.    3053.86  E(vib)   ...       0.00
freq.    3061.53  E(vib)   ...       0.00
freq.    3063.67  E(vib)   ...       0.00
freq.    3067.65  E(vib)   ...       0.00
freq.    3076.11  E(vib)   ...       0.00
freq.    3149.80  E(vib)   ...       0.00
freq.    3152.95  E(vib)   ...       0.00
freq.    3153.68  E(vib)   ...       0.00
freq.    3170.29  E(vib)   ...       0.00
freq.    3171.28  E(vib)   ...       0.00
freq.    3171.68  E(vib)   ...       0.00
freq.    3173.67  E(vib)   ...       0.00
freq.    3174.44  E(vib)   ...       0.00
freq.    3179.19  E(vib)   ...       0.00

------------
INNER ENERGY
------------

The inner energy is: U= E(el) + E(ZPE) + E(vib) + E(rot) + E(trans)
    E(el)   - is the total energy from the electronic structure calculation
              = E(kin-el) + E(nuc-el) + E(el-el) + E(nuc-nuc)
    E(ZPE)  - the the zero temperature vibrational energy from the frequency calculation
    E(vib)  - the the finite temperature correction to E(ZPE) due to population
              of excited vibrational states
    E(rot)  - is the rotational thermal energy
    E(trans)- is the translational thermal energy

Summary of contributions to the inner energy U:
Electronic energy                ...   -291.56160693 Eh
Zero point energy                ...      0.20650672 Eh     129.58 kcal/mol
Thermal vibrational correction   ...      0.00678220 Eh       4.26 kcal/mol
Thermal rotational correction    ...      0.00141627 Eh       0.89 kcal/mol
Thermal translational correction ...      0.00141627 Eh       0.89 kcal/mol
-----------------------------------------------------------------------
Total thermal energy                   -291.34548547 Eh

Summary of corrections to the electronic energy:
(perhaps to be used in another calculation)
Total thermal correction                  0.00961474 Eh       6.03 kcal/mol
Non-thermal (ZPE) correction              0.20650672 Eh     129.58 kcal/mol
-----------------------------------------------------------------------
Total correction                          0.21612146 Eh     135.62 kcal/mol

--------
ENTHALPY
--------

The enthalpy is H = U + kB*T
                kB is Boltzmann's constant
Total thermal energy              ...   -291.34548547 Eh
Thermal Enthalpy correction       ...      0.00094421 Eh       0.59 kcal/mol
-----------------------------------------------------------------------
Total Enthalpy                    ...   -291.34454126 Eh

Note: Only C1 symmetry has been detected, increase convergence thresholds
      if your molecule has a higher symmetry. Symmetry factor of 1.0 is
      used for the rotational entropy correction.

Note: Rotational entropy computed according to Herzberg
Infrared and Raman Spectra, Chapter V,1, Van Nostrand Reinhold, 1945
Point Group:  C1, Symmetry Number:   1
Rotational constants in cm-1:     0.091790     0.068571     0.045776

Vibrational entropy computed according to the QRRHO of S. Grimme
Chem.Eur.J. 2012 18 9955 using a reference frequency of 100.0 cm-1

-------
ENTROPY
-------

The entropy contributions are T*S = T*(S(el)+S(vib)+S(rot)+S(trans))
     S(el)   - electronic entropy
     S(vib)  - vibrational entropy
     S(rot)  - rotational entropy
     S(trans)- translational entropy
The entropies will be listed as multiplied by the temperature to get
units of energy

Electronic entropy                ...      0.00065446 Eh      0.41 kcal/mol
Vibrational entropy               ...      0.01186066 Eh      7.44 kcal/mol
Rotational entropy                ...      0.01335936 Eh      8.38 kcal/mol
Translational entropy             ...      0.01888804 Eh     11.85 kcal/mol
-----------------------------------------------------------------------
Final entropy term                ...      0.04476252 Eh     28.09 kcal/mol

In case the symmetry of your molecule has not been determined correctly
or in case you have a reason to use a different symmetry number we print
out the resulting rotational entropy values for sn=1,12:

                             ****ORCA TERMINATED NORMALLY****
TOTAL RUN TIME: 0 days 0 hours 11 minutes 26 seconds 753 msec
