                         Program Version 6.0.0  -   RELEASE  -
|  1> !TPSSh aug-cc-pVTZ d3 TightSCF SlowConv RIJCOSX defgrid2
|  2>
|  3> %pal
|  4> nprocs 15
|  5> end
|  6>
|  7> %scf
|  8> MaxIter 1500
|  9> end
| 10>
| 11> %maxcore 3500
| 12>
| 13> !CPCM
| 14> %cpcm smd true
| 15> SMDsolvent "WATER"
| 16> surfacetype gepol_ses
| 17> rsolv 1.40
| 18> end
| 19>
| 20> * xyz -1 2
| 21> C          -0.01873170749674      0.04093753406553     -3.52858975972066
| 22> C          -0.08481953761759     -0.05154774136999      0.71463088236912
| 23> C           1.06074238697258      0.22514736046509      1.53440757464188
| 24> C           0.96830356526862      0.17882896728935      2.90786805737149
| 25> C          -0.26470551878929     -0.14423885396115      3.51526371962268
| 26> C          -1.33128436816010     -0.40174847455106      2.63782787275971
| 27> N          -1.27485689979469     -0.36556245628455      1.32561828552698
| 28> H           2.02142786234163      0.47540072062604      1.07674146761929
| 29> H           1.85377788752582      0.39275930361097      3.52001278224486
| 30> H          -0.39061214364026     -0.19370360376422      4.60098661165976
| 31> H          -2.31725327762224     -0.66048458620174      3.06445837201647
| 32> C          -0.03491140317629     -0.01288869194778     -0.72111388392229
| 33> C           1.16270029754736      0.31139406157834     -1.44337296366598
| 34> C           1.16651016564823      0.33657884142632     -2.82048186671520
| 35> C          -1.14232412396102     -0.26425404984996     -2.74235450381628
| 36> N          -1.17775822889852     -0.29650902231833     -1.42933091490151
| 37> H           2.08677406925420      0.54347018773518     -0.90745689096374
| 38> H           2.09048709414386      0.58686162656875     -3.35729468270631
| 39> H          -0.06814499795324      0.04684125814958     -4.62156621654479
| 40> H          -2.09470004459233     -0.50226242026639     -3.24971132087547
| 41> *
| 42>
| 43>                          ****END OF INPUT****

CARTESIAN COORDINATES (ANGSTROEM)
---------------------------------
  C     -0.018732    0.040938   -3.528590
  C     -0.084820   -0.051548    0.714631
  C      1.060742    0.225147    1.534408
  C      0.968304    0.178829    2.907868
  C     -0.264706   -0.144239    3.515264
  C     -1.331284   -0.401748    2.637828
  N     -1.274857   -0.365562    1.325618
  H      2.021428    0.475401    1.076741
  H      1.853778    0.392759    3.520013
  H     -0.390612   -0.193704    4.600987
  H     -2.317253   -0.660485    3.064458
  C     -0.034911   -0.012889   -0.721114
  C      1.162700    0.311394   -1.443373
  C      1.166510    0.336579   -2.820482
  C     -1.142324   -0.264254   -2.742355
  N     -1.177758   -0.296509   -1.429331
  H      2.086774    0.543470   -0.907457
  H      2.090487    0.586862   -3.357295
  H     -0.068145    0.046841   -4.621566
  H     -2.094700   -0.502262   -3.249711

 Total Charge           Charge          ....   -1
 Multiplicity           Mult            ....    2
 Number of Electrons    NEL             ....   83
 Basis Dimension        Dim             ....  736

ORBITAL ENERGIES
----------------
                 SPIN UP ORBITALS
  NO   OCC          E(Eh)            E(eV)
   0   1.0000     -14.214227      -386.7888
   1   1.0000     -14.214196      -386.7879
   2   1.0000     -10.124952      -275.5140
   3   1.0000     -10.124934      -275.5135
   4   1.0000     -10.119423      -275.3635
   5   1.0000     -10.119060      -275.3536
   6   1.0000     -10.105327      -274.9799
   7   1.0000     -10.105312      -274.9795
   8   1.0000     -10.098086      -274.7829
   9   1.0000     -10.098073      -274.7825
  10   1.0000     -10.089800      -274.5574
  11   1.0000     -10.089782      -274.5569
  12   1.0000      -0.901192       -24.5227
  13   1.0000      -0.881044       -23.9744
  14   1.0000      -0.758583       -20.6421
  15   1.0000      -0.752251       -20.4698
  16   1.0000      -0.744320       -20.2540
  17   1.0000      -0.689799       -18.7704
  18   1.0000      -0.614919       -16.7328
  19   1.0000      -0.591767       -16.1028
  20   1.0000      -0.563057       -15.3216
  21   1.0000      -0.553561       -15.0632
  22   1.0000      -0.491738       -13.3809
  23   1.0000      -0.455077       -12.3833
  24   1.0000      -0.447658       -12.1814
  25   1.0000      -0.441772       -12.0212
  26   1.0000      -0.410732       -11.1766
  27   1.0000      -0.396336       -10.7849
  28   1.0000      -0.385444       -10.4885
  29   1.0000      -0.384248       -10.4559
  30   1.0000      -0.358788        -9.7631
  31   1.0000      -0.357560        -9.7297
  32   1.0000      -0.353463        -9.6182
  33   1.0000      -0.324646        -8.8341
  34   1.0000      -0.321112        -8.7379
  35   1.0000      -0.272895        -7.4259
  36   1.0000      -0.261775        -7.1233
  37   1.0000      -0.260098        -7.0776
  38   1.0000      -0.229816        -6.2536
  39   1.0000      -0.208122        -5.6633
  40   1.0000      -0.207108        -5.6357
  41   1.0000      -0.088247        -2.4013
  42   0.0000      -0.025335        -0.6894
  43   0.0000      -0.009589        -0.2609
  44   0.0000      -0.004472        -0.1217
  45   0.0000       0.005840         0.1589
  46   0.0000       0.011734         0.3193

                 SPIN DOWN ORBITALS
  NO   OCC          E(Eh)            E(eV)
   0   1.0000     -14.211265      -386.7082
   1   1.0000     -14.211234      -386.7073
   2   1.0000     -10.126034      -275.5434
   3   1.0000     -10.126016      -275.5429
   4   1.0000     -10.117028      -275.2983
   5   1.0000     -10.116671      -275.2886
   6   1.0000     -10.105185      -274.9761
   7   1.0000     -10.105172      -274.9757
   8   1.0000     -10.097160      -274.7577
   9   1.0000     -10.097147      -274.7573
  10   1.0000     -10.086414      -274.4653
  11   1.0000     -10.086396      -274.4648
  12   1.0000      -0.896392       -24.3921
  13   1.0000      -0.876982       -23.8639
  14   1.0000      -0.754706       -20.5366
  15   1.0000      -0.748213       -20.3599
  16   1.0000      -0.739106       -20.1121
  17   1.0000      -0.686105       -18.6699
  18   1.0000      -0.607505       -16.5311
  19   1.0000      -0.591377       -16.0922
  20   1.0000      -0.561741       -15.2858
  21   1.0000      -0.550598       -14.9825
  22   1.0000      -0.490608       -13.3501
  23   1.0000      -0.453627       -12.3438
  24   1.0000      -0.445784       -12.1304
  25   1.0000      -0.438927       -11.9438
  26   1.0000      -0.409427       -11.1411
  27   1.0000      -0.394916       -10.7462
  28   1.0000      -0.383322       -10.4307
  29   1.0000      -0.372188       -10.1278
  30   1.0000      -0.357822        -9.7368
  31   1.0000      -0.356600        -9.7036
  32   1.0000      -0.343778        -9.3547
  33   1.0000      -0.323691        -8.8081
  34   1.0000      -0.319500        -8.6940
  35   1.0000      -0.257171        -6.9980
  36   1.0000      -0.251019        -6.8306
  37   1.0000      -0.249426        -6.7872
  38   1.0000      -0.226894        -6.1741
  39   1.0000      -0.204062        -5.5528
  40   1.0000      -0.192375        -5.2348
  41   0.0000      -0.046541        -1.2664
  42   0.0000      -0.022827        -0.6211
  43   0.0000      -0.003996        -0.1087
  44   0.0000      -0.002737        -0.0745
  45   0.0000       0.007481         0.2036

MULLIKEN ATOMIC CHARGES AND SPIN POPULATIONS
--------------------------------------------
   0 C :   -0.236739    0.234040
   1 C :    1.548954    0.128010
   2 C :   -0.520556    0.095480
   3 C :   -0.658057   -0.021011
   4 C :   -0.236038    0.233942
   5 C :   -0.480327   -0.057866
   6 N :   -0.884324    0.131015
   7 H :   -0.081065   -0.002278
   8 H :    0.390900   -0.006342
   9 H :    0.071838   -0.007365
  10 H :    0.345312    0.006456
  11 C :    1.559287    0.127986
  12 C :   -0.521730    0.095529
  13 C :   -0.652659   -0.021026
  14 C :   -0.478496   -0.058011
  15 N :   -0.886518    0.131018
  16 H :   -0.077714   -0.002416
  17 H :    0.381534   -0.006332
  18 H :    0.073359   -0.007285
  19 H :    0.343038    0.006457
Sum of atomic charges         :   -1.0000000

LOEWDIN ATOMIC CHARGES AND SPIN POPULATIONS
-------------------------------------------
   0 C :    0.148141    0.110007
   1 C :   -0.361536    0.121472
   2 C :    0.165324    0.060262
   3 C :    0.133692    0.049620
   4 C :    0.148094    0.110021
   5 C :   -0.087366    0.020886
   6 N :    0.305946    0.100286
   7 H :   -0.213149    0.009355
   8 H :   -0.181241    0.004357
   9 H :   -0.206506    0.027818
  10 H :   -0.203311   -0.004048
  11 C :   -0.361478    0.121471
  12 C :    0.165309    0.060260
  13 C :    0.133751    0.049584
  14 C :   -0.087435    0.020895
  15 N :    0.306014    0.100274
  16 H :   -0.213187    0.009361
  17 H :   -0.181204    0.004349
  18 H :   -0.206513    0.027818
  19 H :   -0.203346   -0.004046

  Mayer bond orders larger than 0.100000
B(  0-C , 13-C ) :   1.2482 B(  0-C , 14-C ) :   0.9023 B(  0-C , 15-N ) :  -0.1938
B(  0-C , 16-H ) :  -0.1067 B(  0-C , 18-H ) :   1.0914 B(  1-C ,  2-C ) :   0.5643
B(  1-C ,  3-C ) :  -0.3263 B(  1-C ,  5-C ) :  -0.2507 B(  1-C ,  6-N ) :  -0.7261
B(  1-C , 10-H ) :   0.1139 B(  1-C , 11-C ) :   0.3984 B(  1-C , 13-C ) :   0.1357
B(  1-C , 15-N ) :   0.5021 B(  2-C ,  3-C ) :   1.5646 B(  2-C ,  5-C ) :  -0.1155
B(  2-C ,  7-H ) :   1.4619 B(  2-C ,  8-H ) :   0.1253 B(  2-C , 16-H ) :  -0.1628
B(  3-C ,  4-C ) :   1.2468 B(  3-C ,  5-C ) :   0.3149 B(  3-C ,  6-N ) :   0.1178
B(  3-C ,  7-H ) :  -0.1976 B(  3-C ,  8-H ) :   0.6446 B(  3-C , 11-C ) :   0.1324
B(  4-C ,  5-C ) :   0.9013 B(  4-C ,  6-N ) :  -0.1956 B(  4-C ,  7-H ) :  -0.1076
B(  4-C ,  9-H ) :   1.0921 B(  5-C ,  6-N ) :   1.6882 B(  5-C , 10-H ) :   0.6137
B(  6-N , 10-H ) :  -0.1089 B(  6-N , 11-C ) :   0.4957 B(  6-N , 15-N ) :  -0.3714
B(  7-H ,  9-H ) :   0.1471 B(  7-H , 12-C ) :  -0.1616 B( 11-C , 12-C ) :   0.5615
B( 11-C , 13-C ) :  -0.3282 B( 11-C , 14-C ) :  -0.2509 B( 11-C , 15-N ) :  -0.7371
B( 11-C , 19-H ) :   0.1135 B( 12-C , 13-C ) :   1.5581 B( 12-C , 14-C ) :  -0.1105
B( 12-C , 16-H ) :   1.4618 B( 12-C , 17-H ) :   0.1237 B( 13-C , 14-C ) :   0.3121
B( 13-C , 15-N ) :   0.1128 B( 13-C , 16-H ) :  -0.2015 B( 13-C , 17-H ) :   0.6560
B( 14-C , 15-N ) :   1.6845 B( 14-C , 19-H ) :   0.6167 B( 15-N , 19-H ) :  -0.1075
B( 16-H , 18-H ) :   0.1453

Dispersion correction           -0.027361679
FINAL SINGLE POINT ENERGY      -495.697172113288

DIPOLE MOMENT
-------------

Method             : SCF
Type of density    : Electron Density
Multiplicity       :   2
Irrep              :   0
Energy             :  -495.6698104346247646 Eh
Relativity type    :
Basis              : AO
                                X                 Y                 Z
Electronic contribution:     -1.738909258      -0.447736361      -0.072548971
Nuclear contribution   :      3.614122503       0.929387637       0.150326208
                        -----------------------------------------
Total Dipole Moment    :      1.875213245       0.481651276       0.077777237
                        -----------------------------------------
Magnitude (a.u.)       :      1.937643405
Magnitude (Debye)      :      4.925098132

Rotational constants in cm-1:             0.097712             0.019197             0.016045
Rotational constants in MHz :          2929.325358           575.521768           481.017920

                             ****ORCA TERMINATED NORMALLY****
TOTAL RUN TIME: 0 days 0 hours 5 minutes 52 seconds 395 msec
