                         Program Version 6.0.0  -   RELEASE  -
|  1> !r2SCAN aug-cc-pVTZ d3 TightSCF SlowConv RIJCOSX defgrid2
|  2>
|  3> %pal
|  4> nprocs 4
|  5> end
|  6>
|  7> %scf
|  8> MaxIter 1500
|  9> end
| 10>
| 11> %maxcore 3000
| 12>
| 13> !CPCM
| 14> %cpcm smd true
| 15> SMDsolvent "MeCN"
| 16> surfacetype gepol_ses
| 17> rsolv 2.19
| 18> end
| 19>
| 20> * xyz 1 2
| 21> C          -1.44481249477950     -1.24089869043630     -0.04422599400373
| 22> C          -0.65270604847852     -0.00076368095320      0.28791614725384
| 23> C          -1.30929275863265      1.23982712865771      0.35161568821529
| 24> C          -2.74063823963677      1.43127678213719      0.02585737149656
| 25> C          -3.39505339125515      0.23037622200763     -0.64214547535322
| 26> C          -2.95552826966099     -1.04385052815768      0.05894599867098
| 27> H          -3.25015333818141     -1.00365338980094      1.12375920827710
| 28> H          -3.45411967363569     -1.92734186501785     -0.37018160543262
| 29> H          -3.10809852954095      0.19229025020268     -1.70915885064496
| 30> H          -4.49080288100221      0.33786121592847     -0.61492706244962
| 31> H          -3.25929625917231      1.67756120213297      0.97946727706286
| 32> H          -2.84476148649454      2.35439029011798     -0.57598988497406
| 33> H          -0.76469248652363      2.13141528408385      0.67016269395744
| 34> N           0.66752107988003     -0.10626256742495      0.51040491586712
| 35> C           1.56955562659101      1.00233502677147      0.81026146443154
| 36> H           1.02598182456206      1.94284494841719      0.94569175972172
| 37> C           2.60477512331413      1.13220701827643     -0.31350161995086
| 38> H           3.33201792543053      1.91420413707981     -0.04701570716605
| 39> H           2.09193033727133      1.43067631822316     -1.25179236728035
| 40> O           3.30361867772652     -0.05985085481676     -0.47723954868017
| 41> C           2.46362526797603     -1.12359131694069     -0.79016381810780
| 42> H           1.94257622699126     -0.95317296670009     -1.75539103320005
| 43> C           1.42056299159698     -1.34142967958749      0.31558716197835
| 44> H           1.93714553018002     -1.57576109367006      1.26235030582174
| 45> H           0.75880210570906     -2.17479036012822      0.05847316266350
| 46> H           3.08480888198717     -2.02759057110245     -0.88152456683608
| 47> H           2.08534474449633      0.75971289468002      1.75472159871514
| 48> H          -1.17788242047587     -1.56014085908261     -1.07070698702721
| 49> H          -1.13843616624223     -2.06145349489725      0.62645826697362
| 50> *
| 51>
| 52>                          ****END OF INPUT****

CARTESIAN COORDINATES (ANGSTROEM)
---------------------------------
  C     -1.444812   -1.240899   -0.044226
  C     -0.652706   -0.000764    0.287916
  C     -1.309293    1.239827    0.351616
  C     -2.740638    1.431277    0.025857
  C     -3.395053    0.230376   -0.642145
  C     -2.955528   -1.043851    0.058946
  H     -3.250153   -1.003653    1.123759
  H     -3.454120   -1.927342   -0.370182
  H     -3.108099    0.192290   -1.709159
  H     -4.490803    0.337861   -0.614927
  H     -3.259296    1.677561    0.979467
  H     -2.844761    2.354390   -0.575990
  H     -0.764692    2.131415    0.670163
  N      0.667521   -0.106263    0.510405
  C      1.569556    1.002335    0.810261
  H      1.025982    1.942845    0.945692
  C      2.604775    1.132207   -0.313502
  H      3.332018    1.914204   -0.047016
  H      2.091930    1.430676   -1.251792
  O      3.303619   -0.059851   -0.477240
  C      2.463625   -1.123591   -0.790164
  H      1.942576   -0.953173   -1.755391
  C      1.420563   -1.341430    0.315587
  H      1.937146   -1.575761    1.262350
  H      0.758802   -2.174790    0.058473
  H      3.084809   -2.027591   -0.881525
  H      2.085345    0.759713    1.754722
  H     -1.177882   -1.560141   -1.070707
  H     -1.138436   -2.061453    0.626458

 Total Charge           Charge          ....    1
 Multiplicity           Mult            ....    2
 Number of Electrons    NEL             ....   91
 Basis Dimension        Dim             ....  943

ORBITAL ENERGIES
----------------
                 SPIN UP ORBITALS
  NO   OCC          E(Eh)            E(eV)
   0   1.0000     -18.986247      -516.6420
   1   1.0000     -14.271833      -388.3563
   2   1.0000     -10.128437      -275.6088
   3   1.0000     -10.100576      -274.8507
   4   1.0000     -10.099888      -274.8319
   5   1.0000     -10.092209      -274.6230
   6   1.0000     -10.091843      -274.6130
   7   1.0000     -10.089722      -274.5553
   8   1.0000     -10.057851      -273.6880
   9   1.0000     -10.051897      -273.5260
  10   1.0000     -10.039746      -273.1954
  11   1.0000     -10.036879      -273.1174
  12   1.0000      -1.043711       -28.4008
  13   1.0000      -0.979697       -26.6589
  14   1.0000      -0.826658       -22.4945
  15   1.0000      -0.769354       -20.9352
  16   1.0000      -0.751202       -20.4412
  17   1.0000      -0.736375       -20.0378
  18   1.0000      -0.680858       -18.5271
  19   1.0000      -0.659409       -17.9434
  20   1.0000      -0.608405       -16.5555
  21   1.0000      -0.598897       -16.2968
  22   1.0000      -0.560204       -15.2439
  23   1.0000      -0.532152       -14.4806
  24   1.0000      -0.501002       -13.6330
  25   1.0000      -0.479159       -13.0386
  26   1.0000      -0.469094       -12.7647
  27   1.0000      -0.465214       -12.6591
  28   1.0000      -0.454744       -12.3742
  29   1.0000      -0.444204       -12.0874
  30   1.0000      -0.425602       -11.5812
  31   1.0000      -0.410532       -11.1711
  32   1.0000      -0.408768       -11.1231
  33   1.0000      -0.395256       -10.7555
  34   1.0000      -0.389667       -10.6034
  35   1.0000      -0.370563       -10.0835
  36   1.0000      -0.366958        -9.9854
  37   1.0000      -0.352578        -9.5941
  38   1.0000      -0.342591        -9.3224
  39   1.0000      -0.329179        -8.9574
  40   1.0000      -0.308656        -8.3990
  41   1.0000      -0.306408        -8.3378
  42   1.0000      -0.297875        -8.1056
  43   1.0000      -0.295379        -8.0377
  44   1.0000      -0.255327        -6.9478
  45   1.0000      -0.220723        -6.0062
  46   0.0000      -0.043505        -1.1838
  47   0.0000       0.002796         0.0761
  48   0.0000       0.016036         0.4364
  49   0.0000       0.017455         0.4750
  50   0.0000       0.019072         0.5190

                 SPIN DOWN ORBITALS
  NO   OCC          E(Eh)            E(eV)
   0   1.0000     -18.985590      -516.6242
   1   1.0000     -14.262104      -388.0916
   2   1.0000     -10.130015      -275.6517
   3   1.0000     -10.099934      -274.8332
   4   1.0000     -10.099392      -274.8184
   5   1.0000     -10.092405      -274.6283
   6   1.0000     -10.092034      -274.6182
   7   1.0000     -10.079230      -274.2698
   8   1.0000     -10.057784      -273.6862
   9   1.0000     -10.052233      -273.5352
  10   1.0000     -10.039761      -273.1958
  11   1.0000     -10.036831      -273.1161
  12   1.0000      -1.042275       -28.3618
  13   1.0000      -0.967775       -26.3345
  14   1.0000      -0.819118       -22.2893
  15   1.0000      -0.767624       -20.8881
  16   1.0000      -0.751025       -20.4364
  17   1.0000      -0.728807       -19.8318
  18   1.0000      -0.673278       -18.3208
  19   1.0000      -0.658452       -17.9174
  20   1.0000      -0.606455       -16.5025
  21   1.0000      -0.592187       -16.1142
  22   1.0000      -0.557749       -15.1771
  23   1.0000      -0.528380       -14.3779
  24   1.0000      -0.497136       -13.5278
  25   1.0000      -0.475839       -12.9482
  26   1.0000      -0.463599       -12.6152
  27   1.0000      -0.461228       -12.5507
  28   1.0000      -0.452849       -12.3226
  29   1.0000      -0.440671       -11.9913
  30   1.0000      -0.420038       -11.4298
  31   1.0000      -0.407286       -11.0828
  32   1.0000      -0.404339       -11.0026
  33   1.0000      -0.393281       -10.7017
  34   1.0000      -0.387944       -10.5565
  35   1.0000      -0.364763        -9.9257
  36   1.0000      -0.362697        -9.8695
  37   1.0000      -0.351014        -9.5516
  38   1.0000      -0.340840        -9.2747
  39   1.0000      -0.318954        -8.6792
  40   1.0000      -0.306495        -8.3401
  41   1.0000      -0.303545        -8.2599
  42   1.0000      -0.296041        -8.0557
  43   1.0000      -0.290347        -7.9007
  44   1.0000      -0.247746        -6.7415
  45   0.0000      -0.162735        -4.4282
  46   0.0000      -0.015350        -0.4177
  47   0.0000       0.005669         0.1543
  48   0.0000       0.017868         0.4862
  49   0.0000       0.018788         0.5113

MULLIKEN ATOMIC CHARGES AND SPIN POPULATIONS
--------------------------------------------
   0 C :    0.180735    0.041132
   1 C :    1.364905   -0.082732
   2 C :   -0.595367    0.564877
   3 C :   -0.181019   -0.107851
   4 C :   -0.287881   -0.003409
   5 C :   -0.513424   -0.000343
   6 H :    0.032102   -0.002793
   7 H :    0.206765    0.001151
   8 H :    0.109575   -0.002324
   9 H :    0.172906   -0.000925
  10 H :    0.152985    0.073416
  11 H :    0.153617    0.033298
  12 H :    0.144909    0.034294
  13 N :    0.086820    0.390035
  14 C :   -0.762572   -0.021365
  15 H :    0.193797    0.002907
  16 C :   -0.006344    0.023471
  17 H :    0.254434    0.003169
  18 H :    0.228479    0.003870
  19 O :   -0.664064    0.021704
  20 C :   -0.038809    0.032644
  21 H :    0.226723    0.004054
  22 C :   -0.577517   -0.034079
  23 H :    0.151458    0.015831
  24 H :    0.197427    0.001499
  25 H :    0.249845    0.005356
  26 H :    0.128043    0.013709
  27 H :    0.189939   -0.005697
  28 H :    0.201533   -0.004900
Sum of atomic charges         :    1.0000000

LOEWDIN ATOMIC CHARGES AND SPIN POPULATIONS
-------------------------------------------
   0 C :    0.319362    0.001381
   1 C :   -0.078783    0.099523
   2 C :    0.362148    0.311314
   3 C :    0.303312    0.097361
   4 C :    0.292060    0.004676
   5 C :    0.300594    0.001749
   6 H :   -0.118497    0.000352
   7 H :   -0.120385    0.000173
   8 H :   -0.121491    0.000842
   9 H :   -0.124405    0.000015
  10 H :   -0.110326    0.027545
  11 H :   -0.117436    0.015277
  12 H :   -0.162461    0.058535
  13 N :    0.338529    0.227357
  14 C :    0.271823    0.030879
  15 H :   -0.158209    0.000454
  16 C :    0.066073    0.015621
  17 H :   -0.128094    0.002709
  18 H :   -0.122480    0.001915
  19 O :    0.610695    0.018606
  20 C :    0.066548    0.019218
  21 H :   -0.122932    0.002386
  22 C :    0.269279    0.039095
  23 H :   -0.097614    0.010555
  24 H :   -0.155667    0.001839
  25 H :   -0.127415    0.003677
  26 H :   -0.100167    0.007711
  27 H :   -0.103486    0.000048
  28 H :   -0.130577   -0.000814

  Mayer bond orders larger than 0.100000
B(  0-C ,  1-C ) :   0.6106 B(  0-C ,  2-C ) :  -0.1971 B(  0-C ,  5-C ) :   0.8098
B(  0-C , 27-H ) :   0.9509 B(  0-C , 28-H ) :   0.9284 B(  1-C ,  3-C ) :  -0.2112
B(  1-C ,  4-C ) :  -0.1564 B(  1-C ,  5-C ) :   0.1239 B(  1-C , 14-C ) :  -0.2584
B(  1-C , 22-C ) :  -0.1251 B(  2-C ,  3-C ) :   0.7823 B(  2-C ,  4-C ) :   0.2107
B(  2-C , 12-H ) :   0.8071 B(  2-C , 14-C ) :  -0.1685 B(  2-C , 22-C ) :   0.1034
B(  3-C ,  4-C ) :   0.9211 B(  3-C ,  5-C ) :   0.1104 B(  3-C , 10-H ) :   1.0031
B(  3-C , 11-H ) :   0.9617 B(  3-C , 12-H ) :  -0.1348 B(  4-C ,  5-C ) :   0.9151
B(  4-C ,  8-H ) :   1.0196 B(  4-C ,  9-H ) :   0.9618 B(  5-C ,  6-H ) :   1.0966
B(  5-C ,  7-H ) :   0.9077 B( 12-H , 15-H ) :  -0.1131 B( 13-N , 14-C ) :   1.2420
B( 13-N , 22-C ) :   1.0095 B( 14-C , 15-H ) :   0.9814 B( 14-C , 16-C ) :   0.8431
B( 14-C , 19-O ) :   0.1057 B( 14-C , 22-C ) :   0.2756 B( 14-C , 26-H ) :   1.0148
B( 16-C , 17-H ) :   0.9182 B( 16-C , 18-H ) :   0.9508 B( 16-C , 19-O ) :   0.8170
B( 19-O , 20-C ) :   0.8164 B( 19-O , 22-C ) :   0.1073 B( 20-C , 21-H ) :   0.9476
B( 20-C , 22-C ) :   0.8837 B( 20-C , 25-H ) :   0.9216 B( 22-C , 23-H ) :   0.9627
B( 22-C , 24-H ) :   0.9544

Dispersion correction           -0.009782988
FINAL SINGLE POINT ENERGY      -520.987531396951

DIPOLE MOMENT
-------------

Method             : SCF
Type of density    : Electron Density
Multiplicity       :   2
Irrep              :   0
Energy             :  -520.9777484093332305 Eh
Relativity type    :
Basis              : AO
                                X                 Y                 Z
Electronic contribution:      6.316679915       0.758334025       1.248395080
Nuclear contribution   :     -6.882345932      -0.552455491      -0.747170800
                        -----------------------------------------
Total Dipole Moment    :     -0.565666017       0.205878534       0.501224280
                        -----------------------------------------
Magnitude (a.u.)       :      0.783319726
Magnitude (Debye)      :      1.991040513

Rotational constants in cm-1:             0.071012             0.017984             0.015658
Rotational constants in MHz :          2128.893427           539.145769           469.425599

                             ****ORCA TERMINATED NORMALLY****
TOTAL RUN TIME: 0 days 0 hours 8 minutes 5 seconds 362 msec
