                         Program Version 6.0.0  -   RELEASE  -
|  1> !PBE0 aug-cc-pVTZ d3 TightSCF SlowConv RIJCOSX defgrid2
|  2>
|  3> %pal
|  4> nprocs 4
|  5> end
|  6>
|  7> %scf
|  8> MaxIter 1500
|  9> end
| 10>
| 11> %maxcore 3000
| 12>
| 13> !CPCM
| 14> %cpcm smd true
| 15> SMDsolvent "MeCN"
| 16> surfacetype gepol_ses
| 17> rsolv 2.19
| 18> end
| 19>
| 20> * xyz 0 1
| 21> C           0.40845561541467      1.09654851965361      0.00002153601786
| 22> C           1.22157048240356     -0.02055925058461     -0.00001124146046
| 23> C           0.31627509804411     -1.10552037144195      0.00002465926407
| 24> N          -0.94362721428629     -0.69407804717258     -0.00003818172667
| 25> N          -0.86222699991342      0.63149016796153     -0.00002192547512
| 26> H          -1.71469887339655      1.17729476555237     -0.00003850624553
| 27> H           0.53586137989645     -2.17396458772866      0.00003582780905
| 28> H           2.30976241169899     -0.04700402205514     -0.00001651155181
| 29> H           0.63234930013847      2.16236532581542      0.00003934336862
| 30> *
| 31>
| 32>                          ****END OF INPUT****

CARTESIAN COORDINATES (ANGSTROEM)
---------------------------------
  C      0.408456    1.096549    0.000022
  C      1.221570   -0.020559   -0.000011
  C      0.316275   -1.105520    0.000025
  N     -0.943627   -0.694078   -0.000038
  N     -0.862227    0.631490   -0.000022
  H     -1.714699    1.177295   -0.000039
  H      0.535861   -2.173965    0.000036
  H      2.309762   -0.047004   -0.000017
  H      0.632349    2.162365    0.000039

 Total Charge           Charge          ....    0
 Multiplicity           Mult            ....    1
 Number of Electrons    NEL             ....   36
 Basis Dimension        Dim             ....  322

ORBITAL ENERGIES
----------------

  NO   OCC          E(Eh)            E(eV)
   0   2.0000     -14.458949      -393.4480
   1   2.0000     -14.407318      -392.0431
   2   2.0000     -10.260488      -279.2021
   3   2.0000     -10.243581      -278.7420
   4   2.0000     -10.221000      -278.1276
   5   2.0000      -1.085181       -29.5293
   6   2.0000      -0.841427       -22.8964
   7   2.0000      -0.804469       -21.8907
   8   2.0000      -0.623336       -16.9618
   9   2.0000      -0.615137       -16.7387
  10   2.0000      -0.557789       -15.1782
  11   2.0000      -0.464091       -12.6286
  12   2.0000      -0.454951       -12.3798
  13   2.0000      -0.436703       -11.8833
  14   2.0000      -0.407591       -11.0911
  15   2.0000      -0.317155        -8.6302
  16   2.0000      -0.276295        -7.5184
  17   2.0000      -0.268316        -7.3013
  18   0.0000       0.004949         0.1347
  19   0.0000       0.013233         0.3601
  20   0.0000       0.022153         0.6028
  21   0.0000       0.024413         0.6643
  22   0.0000       0.043668         1.1883

MULLIKEN ATOMIC CHARGES
-----------------------
   0 C :   -0.650579
   1 C :   -0.141447
   2 C :   -0.402231
   3 N :   -0.707235
   4 N :    0.301891
   5 H :    0.139588
   6 H :    0.542708
   7 H :    0.398407
   8 H :    0.518898
Sum of atomic charges:    0.0000000

LOEWDIN ATOMIC CHARGES
----------------------
   0 C :    0.103105
   1 C :    0.164114
   2 C :   -0.061078
   3 N :    0.251959
   4 N :    0.305463
   5 H :   -0.232236
   6 H :   -0.193896
   7 H :   -0.185535
   8 H :   -0.151896

  Mayer bond orders larger than 0.100000
B(  0-C ,  1-C ) :   1.1031 B(  0-C ,  4-N ) :   1.3067 B(  0-C ,  8-H ) :   0.6477
B(  1-C ,  2-C ) :   1.0697 B(  1-C ,  7-H ) :   0.8417 B(  2-C ,  3-N ) :   1.4158
B(  2-C ,  6-H ) :   0.6359 B(  3-N ,  4-N ) :   0.3972 B(  4-N ,  5-H ) :   1.0655

Dispersion correction           -0.005592723
FINAL SINGLE POINT ENERGY      -226.042264624580

DIPOLE MOMENT
-------------

Method             : SCF
Type of density    : Electron Density
Multiplicity       :   1
Irrep              :   0
Energy             :  -226.0366719019682193 Eh
Relativity type    :
Basis              : AO
                                X                 Y                 Z
Electronic contribution:     -1.356400381       0.175551472      -0.001210664
Nuclear contribution   :      1.652068746       1.054919735       0.000040788
                        -----------------------------------------
Total Dipole Moment    :      0.295668364       1.230471207      -0.001169875
                        -----------------------------------------
Magnitude (a.u.)       :      1.265496164
Magnitude (Debye)      :      3.216635619

Rotational constants in cm-1:             0.323621             0.316316             0.159963
Rotational constants in MHz :          9701.899385          9482.912680          4795.578108

                             ****ORCA TERMINATED NORMALLY****
TOTAL RUN TIME: 0 days 0 hours 1 minutes 6 seconds 145 msec
