                         Program Version 6.0.0  -   RELEASE  -
|  1> !PBE0 def2-SV(p) Opt Freq d3 TightSCF SlowConv RIJCOSX defgrid2
|  2>
|  3> %pal
|  4> nprocs 4
|  5> end
|  6>
|  7> %scf
|  8> MaxIter 1500
|  9> end
| 10>
| 11> %maxcore 3000
| 12>
| 13>
| 14>
| 15> * xyz 0 1
| 16> C    -1.2166905    0.6623675    0.0000403
| 17> C    -0.0347438    1.3848185    0.0000181
| 18> C     1.1819348    0.7224986   -0.0000085
| 19> C     1.2166911   -0.6623573   -0.0000064
| 20> C     0.0347439   -1.3848064    0.0000003
| 21> C    -1.1819365   -0.7224872    0.0000263
| 22> H    -2.1038524   -1.2860588    0.0000327
| 23> H     0.0618046   -2.4650026   -0.0000216
| 24> H     2.1656677   -1.1790528    0.0000098
| 25> H     2.1038527    1.2860658   -0.0000097
| 26> H    -0.0618087    2.4650165    0.0000367
| 27> H    -2.1656639    1.1790653    0.0000005
| 28> *
| 29>
| 30>                          ****END OF INPUT****
 Total Charge           Charge          ....    0
 Multiplicity           Mult            ....    1
 Number of Electrons    NEL             ....   42
Dispersion correction           -0.009391586
FINAL SINGLE POINT ENERGY      -231.795736923804
Dispersion correction             ... done (  0.1 sec)
Dispersion correction           -0.009351131
FINAL SINGLE POINT ENERGY      -231.797088191350
Dispersion correction             ... done (  0.1 sec)
Dispersion correction           -0.009348680
FINAL SINGLE POINT ENERGY      -231.797098471017
Dispersion correction             ... done (  0.0 sec)
                    ***********************HURRAY********************

CARTESIAN COORDINATES (ANGSTROEM)
---------------------------------
  C     -1.225291    0.667047    0.000022
  C     -0.034961    1.394699    0.000017
  C      1.190347    0.727638    0.000005
  C      1.225291   -0.667036   -0.000003
  C      0.034962   -1.394688    0.000003
  C     -1.190348   -0.727627    0.000015
  H     -2.124071   -1.298348    0.000019
  H      0.062403   -2.488675   -0.000002
  H      2.186422   -1.190270   -0.000011
  H      2.124071    1.298358    0.000001
  H     -0.062404    2.488686    0.000022
  H     -2.186421    1.190283    0.000030

 Multiplicity           Mult            ....    1
 Number of Electrons    NEL             ....   42
 Basis Dimension        Dim             ....   96

ORBITAL ENERGIES
----------------

  NO   OCC          E(Eh)            E(eV)
   0   2.0000     -10.237155      -278.5671
   1   2.0000     -10.236950      -278.5616
   2   2.0000     -10.236942      -278.5613
   3   2.0000     -10.236474      -278.5486
   4   2.0000     -10.236470      -278.5485
   5   2.0000     -10.236302      -278.5439
   6   2.0000      -0.873220       -23.7615
   7   2.0000      -0.761225       -20.7140
   8   2.0000      -0.761211       -20.7136
   9   2.0000      -0.616265       -16.7694
  10   2.0000      -0.616263       -16.7694
  11   2.0000      -0.539576       -14.6826
  12   2.0000      -0.470955       -12.8153
  13   2.0000      -0.463866       -12.6224
  14   2.0000      -0.435531       -11.8514
  15   2.0000      -0.435520       -11.8511
  16   2.0000      -0.383942       -10.4476
  17   2.0000      -0.357056        -9.7160
  18   2.0000      -0.357045        -9.7157
  19   2.0000      -0.266852        -7.2614
  20   2.0000      -0.266844        -7.2612
  21   0.0000      -0.002704        -0.0736
  22   0.0000      -0.002694        -0.0733
  23   0.0000       0.067869         1.8468
  24   0.0000       0.111591         3.0365
  25   0.0000       0.111597         3.0367

MULLIKEN ATOMIC CHARGES
-----------------------
   0 C :   -0.097601
   1 C :   -0.098049
   2 C :   -0.097651
   3 C :   -0.097600
   4 C :   -0.098050
   5 C :   -0.097651
   6 H :    0.097732
   7 H :    0.097895
   8 H :    0.097674
   9 H :    0.097732
  10 H :    0.097895
  11 H :    0.097674
Sum of atomic charges:    0.0000000

LOEWDIN ATOMIC CHARGES
----------------------
   0 C :   -0.128718
   1 C :   -0.128819
   2 C :   -0.128724
   3 C :   -0.128718
   4 C :   -0.128819
   5 C :   -0.128725
   6 H :    0.128747
   7 H :    0.128784
   8 H :    0.128731
   9 H :    0.128747
  10 H :    0.128784
  11 H :    0.128731

  Mayer bond orders larger than 0.100000
B(  0-C ,  1-C ) :   1.4034 B(  0-C ,  5-C ) :   1.4031 B(  0-C , 11-H ) :   0.9629
B(  1-C ,  2-C ) :   1.4033 B(  1-C , 10-H ) :   0.9627 B(  2-C ,  3-C ) :   1.4031
B(  2-C ,  9-H ) :   0.9629 B(  3-C ,  4-C ) :   1.4034 B(  3-C ,  8-H ) :   0.9629
B(  4-C ,  5-C ) :   1.4033 B(  4-C ,  7-H ) :   0.9627 B(  5-C ,  6-H ) :   0.9629

Dispersion correction           -0.009348435
FINAL SINGLE POINT ENERGY      -231.797098789706

DIPOLE MOMENT
-------------

Method             : SCF
Type of density    : Electron Density
Multiplicity       :   1
Irrep              :   0
Energy             :  -231.7877503551955556 Eh
Relativity type    :
Basis              : AO
                                X                 Y                 Z
Electronic contribution:      0.000001312      -0.000000119      -0.000000300
Nuclear contribution   :     -0.000000373       0.000000984       0.000000374
                        -----------------------------------------
Total Dipole Moment    :      0.000000939       0.000000865       0.000000074
                        -----------------------------------------
Magnitude (a.u.)       :      0.000001279
Magnitude (Debye)      :      0.000003251

VIBRATIONAL FREQUENCIES
-----------------------

Scaling factor for frequencies =  1.000000000  (already applied!)

     0:       0.00 cm**-1
     1:       0.00 cm**-1
     2:       0.00 cm**-1
     3:       0.00 cm**-1
     4:       0.00 cm**-1
     5:       0.00 cm**-1
     6:     416.32 cm**-1
     7:     416.81 cm**-1
     8:     618.05 cm**-1
     9:     618.22 cm**-1
    10:     691.42 cm**-1
    11:     736.71 cm**-1
    12:     870.61 cm**-1
    13:     870.77 cm**-1
    14:     999.37 cm**-1
    15:     999.61 cm**-1
    16:    1014.06 cm**-1
    17:    1035.13 cm**-1
    18:    1036.93 cm**-1
    19:    1071.00 cm**-1
    20:    1071.07 cm**-1
    21:    1164.69 cm**-1
    22:    1191.03 cm**-1
    23:    1191.06 cm**-1
    24:    1372.57 cm**-1
    25:    1402.99 cm**-1
    26:    1526.52 cm**-1
    27:    1526.65 cm**-1
    28:    1685.55 cm**-1
    29:    1685.65 cm**-1
    30:    3187.01 cm**-1
    31:    3197.41 cm**-1
    32:    3197.47 cm**-1
    33:    3212.56 cm**-1
    34:    3212.61 cm**-1
    35:    3221.90 cm**-1

IR SPECTRUM
-----------

 Mode   freq       eps      Int      T**2         TX        TY        TZ
       cm**-1   L/(mol*cm) km/mol    a.u.
----------------------------------------------------------------------------
  6:    416.32   0.000000    0.00  0.000000  ( 0.000000  0.000000 -0.000032)
  7:    416.81   0.000000    0.00  0.000000  ( 0.000000 -0.000000  0.000030)
  8:    618.05   0.000000    0.00  0.000000  ( 0.000000  0.000000 -0.000000)
  9:    618.22   0.000000    0.00  0.000000  ( 0.000000 -0.000000 -0.000000)
 10:    691.42   0.019030   96.17  0.008589  ( 0.000000 -0.000000  0.092676)
 11:    736.71   0.000000    0.00  0.000000  (-0.000000  0.000000 -0.000001)
 12:    870.61   0.000000    0.00  0.000000  ( 0.000000 -0.000000 -0.000000)
 13:    870.77   0.000000    0.00  0.000000  ( 0.000000 -0.000000  0.000000)
 14:    999.37   0.000000    0.00  0.000000  ( 0.000000 -0.000000 -0.000017)
 15:    999.61   0.000000    0.00  0.000000  ( 0.000000 -0.000000 -0.000007)
 16:   1014.06   0.000000    0.00  0.000000  (-0.000007 -0.000048  0.000000)
 17:   1035.13   0.000000    0.00  0.000000  (-0.000000  0.000000 -0.000000)
 18:   1036.93   0.000000    0.00  0.000000  ( 0.000000  0.000000  0.000000)
 19:   1071.00   0.001199    6.06  0.000349  (-0.018519 -0.002518  0.000000)
 20:   1071.07   0.001206    6.09  0.000351  (-0.002525  0.018572  0.000000)
 21:   1164.69   0.000000    0.00  0.000000  (-0.000043  0.000004 -0.000000)
 22:   1191.03   0.000000    0.00  0.000000  (-0.000000 -0.000000 -0.000000)
 23:   1191.06   0.000000    0.00  0.000000  ( 0.000000 -0.000000  0.000000)
 24:   1372.57   0.000000    0.00  0.000000  ( 0.000000  0.000000 -0.000000)
 25:   1402.99   0.000000    0.00  0.000000  ( 0.000018  0.000010 -0.000000)
 26:   1526.52   0.001689    8.54  0.000345  (-0.018574  0.000602  0.000000)
 27:   1526.65   0.001695    8.56  0.000346  ( 0.000602  0.018602  0.000000)
 28:   1685.55   0.000000    0.00  0.000000  ( 0.000000  0.000000  0.000000)
 29:   1685.65   0.000000    0.00  0.000000  ( 0.000000  0.000000 -0.000000)
 30:   3187.01   0.000000    0.00  0.000000  ( 0.000023 -0.000045  0.000000)
 31:   3197.41   0.000000    0.00  0.000000  (-0.000001 -0.000000  0.000000)
 32:   3197.47   0.000000    0.00  0.000000  (-0.000001 -0.000000 -0.000000)
 33:   3212.56   0.005083   25.69  0.000494  (-0.019018 -0.011491  0.000000)
 34:   3212.61   0.005089   25.72  0.000494  ( 0.011444 -0.019061 -0.000000)
 35:   3221.90   0.000000    0.00  0.000000  ( 0.000001 -0.000000  0.000000)

--------------------------
THERMOCHEMISTRY AT 298.15K
--------------------------

Temperature         ...   298.15 K
Pressure            ...     1.00 atm
Total Mass          ...    78.11 AMU
Quasi RRHO          ...     True
Cut-Off Frequency   ...     1.00 cm^-1

Throughout the following assumptions are being made:
  (1) The electronic state is orbitally nondegenerate
  (2) There are no thermally accessible electronically excited states
  (3) Hindered rotations indicated by low frequency modes are not
      treated as such but are treated as vibrations and this may
      cause some error
  (4) All equations used are the standard statistical mechanics
      equations for an ideal gas
  (5) All vibrations are strictly harmonic

freq.     416.32  E(vib)   ...       0.18
freq.     416.81  E(vib)   ...       0.18
freq.     618.05  E(vib)   ...       0.09
freq.     618.22  E(vib)   ...       0.09
freq.     691.42  E(vib)   ...       0.07
freq.     736.71  E(vib)   ...       0.06
freq.     870.61  E(vib)   ...       0.04
freq.     870.77  E(vib)   ...       0.04
freq.     999.37  E(vib)   ...       0.02
freq.     999.61  E(vib)   ...       0.02
freq.    1014.06  E(vib)   ...       0.02
freq.    1035.13  E(vib)   ...       0.02
freq.    1036.93  E(vib)   ...       0.02
freq.    1071.00  E(vib)   ...       0.02
freq.    1071.07  E(vib)   ...       0.02
freq.    1164.69  E(vib)   ...       0.01
freq.    1191.03  E(vib)   ...       0.01
freq.    1191.06  E(vib)   ...       0.01
freq.    1372.57  E(vib)   ...       0.01
freq.    1402.99  E(vib)   ...       0.00
freq.    1526.52  E(vib)   ...       0.00
freq.    1526.65  E(vib)   ...       0.00
freq.    1685.55  E(vib)   ...       0.00
freq.    1685.65  E(vib)   ...       0.00
freq.    3187.01  E(vib)   ...       0.00
freq.    3197.41  E(vib)   ...       0.00
freq.    3197.47  E(vib)   ...       0.00
freq.    3212.56  E(vib)   ...       0.00
freq.    3212.61  E(vib)   ...       0.00
freq.    3221.90  E(vib)   ...       0.00

------------
INNER ENERGY
------------

The inner energy is: U= E(el) + E(ZPE) + E(vib) + E(rot) + E(trans)
    E(el)   - is the total energy from the electronic structure calculation
              = E(kin-el) + E(nuc-el) + E(el-el) + E(nuc-nuc)
    E(ZPE)  - the the zero temperature vibrational energy from the frequency calculation
    E(vib)  - the the finite temperature correction to E(ZPE) due to population
              of excited vibrational states
    E(rot)  - is the rotational thermal energy
    E(trans)- is the translational thermal energy

Summary of contributions to the inner energy U:
Electronic energy                ...   -231.79709879 Eh
Zero point energy                ...      0.10124580 Eh      63.53 kcal/mol
Thermal vibrational correction   ...      0.00153498 Eh       0.96 kcal/mol
Thermal rotational correction    ...      0.00141627 Eh       0.89 kcal/mol
Thermal translational correction ...      0.00141627 Eh       0.89 kcal/mol
-----------------------------------------------------------------------
Total thermal energy                   -231.69148546 Eh

Summary of corrections to the electronic energy:
(perhaps to be used in another calculation)
Total thermal correction                  0.00436753 Eh       2.74 kcal/mol
Non-thermal (ZPE) correction              0.10124580 Eh      63.53 kcal/mol
-----------------------------------------------------------------------
Total correction                          0.10561333 Eh      66.27 kcal/mol

--------
ENTHALPY
--------

The enthalpy is H = U + kB*T
                kB is Boltzmann's constant
Total thermal energy              ...   -231.69148546 Eh
Thermal Enthalpy correction       ...      0.00094421 Eh       0.59 kcal/mol
-----------------------------------------------------------------------
Total Enthalpy                    ...   -231.69054125 Eh

Note: Rotational entropy computed according to Herzberg
Infrared and Raman Spectra, Chapter V,1, Van Nostrand Reinhold, 1945
Point Group:  D6h, Symmetry Number:  12
Rotational constants in cm-1:     0.189685     0.189678     0.094841

Vibrational entropy computed according to the QRRHO of S. Grimme
Chem.Eur.J. 2012 18 9955 using a reference frequency of 100.0 cm-1

-------
ENTROPY
-------

The entropy contributions are T*S = T*(S(el)+S(vib)+S(rot)+S(trans))
     S(el)   - electronic entropy
     S(vib)  - vibrational entropy
     S(rot)  - rotational entropy
     S(trans)- translational entropy
The entropies will be listed as multiplied by the temperature to get
units of energy

Electronic entropy                ...      0.00000000 Eh      0.00 kcal/mol
Vibrational entropy               ...      0.00205678 Eh      1.29 kcal/mol
Rotational entropy                ...      0.00984626 Eh      6.18 kcal/mol
Translational entropy             ...      0.01852142 Eh     11.62 kcal/mol
-----------------------------------------------------------------------
Final entropy term                ...      0.03042446 Eh     19.09 kcal/mol

In case the symmetry of your molecule has not been determined correctly
or in case you have a reason to use a different symmetry number we print
out the resulting rotational entropy values for sn=1,12:

 non-linear molecules -----------------------------------
|  sn= 1 | S(rot)=       0.01219246 Eh      7.65 kcal/mol|
|  sn= 2 | S(rot)=       0.01153801 Eh      7.24 kcal/mol|
|  sn= 3 | S(rot)=       0.01115517 Eh      7.00 kcal/mol|
|  sn= 4 | S(rot)=       0.01088355 Eh      6.83 kcal/mol|
|  sn= 5 | S(rot)=       0.01067286 Eh      6.70 kcal/mol|
|  sn= 6 | S(rot)=       0.01050072 Eh      6.59 kcal/mol|
|  sn= 7 | S(rot)=       0.01035517 Eh      6.50 kcal/mol|
|  sn= 8 | S(rot)=       0.01022909 Eh      6.42 kcal/mol|
|  sn= 9 | S(rot)=       0.01011789 Eh      6.35 kcal/mol|
|  sn=10 | S(rot)=       0.01001841 Eh      6.29 kcal/mol|
|  sn=11 | S(rot)=       0.00992842 Eh      6.23 kcal/mol|
|  sn=12 | S(rot)=       0.00984626 Eh      6.18 kcal/mol|
 linear molecules ---------------------------------------
|  Dinfh | S(rot)=       0.00754988 Eh      4.74 kcal/mol|
|  Cinfv | S(rot)=       0.00820434 Eh      5.15 kcal/mol|
 --------------------------------------------------------

-------------------
GIBBS FREE ENERGY
-------------------

The Gibbs free energy is G = H - T*S

Total enthalpy                    ...   -231.69054125 Eh
Total entropy correction          ...     -0.03042446 Eh    -19.09 kcal/mol
-----------------------------------------------------------------------
Final Gibbs free energy         ...   -231.72096571 Eh

For completeness - the Gibbs free energy minus the electronic energy
G-E(el)                           ...      0.07613308 Eh     47.77 kcal/mol

                             ****ORCA TERMINATED NORMALLY****
TOTAL RUN TIME: 0 days 0 hours 3 minutes 26 seconds 35 msec
