                         Program Version 6.0.0  -   RELEASE  -
|  1> !B3LYP aug-cc-pVTZ d3 TightSCF SlowConv RIJCOSX defgrid2
|  2>
|  3> %pal
|  4> nprocs 15
|  5> end
|  6>
|  7> %scf
|  8> MaxIter 1500
|  9> end
| 10>
| 11> %maxcore 3500
| 12>
| 13> !CPCM
| 14> %cpcm smd true
| 15> SMDsolvent "WATER"
| 16> surfacetype gepol_ses
| 17> rsolv 1.40
| 18> end
| 19>
| 20> * xyz 0 1
| 21> C          -0.05907366598530     -0.02793506437793     -0.04390048443000
| 22> C          -0.02890735437417      1.45710089193008      0.08222581496885
| 23> C           0.02781409212755      2.06300295185481      1.29625580282132
| 24> C           0.05780784816423      1.27059537024470      2.55865678848172
| 25> C           0.02728706606325     -0.21148353395784      2.45495612270071
| 26> C          -0.02843189949116     -0.83640031526210      1.20261036404921
| 27> C          -0.05547047371799     -2.22955810695340      1.11889579291072
| 28> C          -0.02722158045044     -2.99492416088675      2.28117734907788
| 29> C           0.02796540531077     -2.37140543755571      3.53091392418760
| 30> C           0.05520008600593     -0.98250737910286      3.61837358653962
| 31> H           0.09847557758253     -0.46770840832251      4.58128936060527
| 32> H           0.04990261703070     -2.97596484746596      4.44240334694328
| 33> H          -0.04820318575023     -4.08675470796317      2.21598714046560
| 34> H          -0.09870498752579     -2.68915740048288      0.12846959179026
| 35> C           0.06194462166156      3.55006381235348      1.44143215923311
| 36> H          -0.84116618668105      4.01208400301480      1.00272169259353
| 37> H           0.12018684562378      3.82673225712869      2.50411119237925
| 38> H           0.93021072875079      3.98022200468594      0.91048633813469
| 39> C          -0.06163879144342      2.23535286557775     -1.19335579257479
| 40> H           0.84200005659416      2.86322691783085     -1.29721049713274
| 41> H          -0.11947303398066      1.55280359233205     -2.05354858361608
| 42> H          -0.92952293856559      2.91875817267932     -1.21877475276670
| 43> O           0.10605373554418      1.82136872263288      3.64196829309901
| 44> O          -0.10703458249363     -0.56180561393426     -1.13565794046132
| 45> *
| 46>
| 47>                          ****END OF INPUT****

CARTESIAN COORDINATES (ANGSTROEM)
---------------------------------
  C     -0.059074   -0.027935   -0.043900
  C     -0.028907    1.457101    0.082226
  C      0.027814    2.063003    1.296256
  C      0.057808    1.270595    2.558657
  C      0.027287   -0.211484    2.454956
  C     -0.028432   -0.836400    1.202610
  C     -0.055470   -2.229558    1.118896
  C     -0.027222   -2.994924    2.281177
  C      0.027965   -2.371405    3.530914
  C      0.055200   -0.982507    3.618374
  H      0.098476   -0.467708    4.581289
  H      0.049903   -2.975965    4.442403
  H     -0.048203   -4.086755    2.215987
  H     -0.098705   -2.689157    0.128470
  C      0.061945    3.550064    1.441432
  H     -0.841166    4.012084    1.002722
  H      0.120187    3.826732    2.504111
  H      0.930211    3.980222    0.910486
  C     -0.061639    2.235353   -1.193356
  H      0.842000    2.863227   -1.297210
  H     -0.119473    1.552804   -2.053549
  H     -0.929523    2.918758   -1.218775
  O      0.106054    1.821369    3.641968
  O     -0.107035   -0.561806   -1.135658

 Total Charge           Charge          ....    0
 Multiplicity           Mult            ....    1
 Number of Electrons    NEL             ....   98
 Basis Dimension        Dim             ....  874

ORBITAL ENERGIES
----------------

  NO   OCC          E(Eh)            E(eV)
   0   2.0000     -19.134093      -520.6651
   1   2.0000     -19.134063      -520.6643
   2   2.0000     -10.276815      -279.6464
   3   2.0000     -10.276774      -279.6452
   4   2.0000     -10.206135      -277.7231
   5   2.0000     -10.205344      -277.7015
   6   2.0000     -10.199832      -277.5515
   7   2.0000     -10.199255      -277.5358
   8   2.0000     -10.191524      -277.3255
   9   2.0000     -10.191276      -277.3187
  10   2.0000     -10.190849      -277.3071
  11   2.0000     -10.190544      -277.2988
  12   2.0000     -10.167165      -276.6626
  13   2.0000     -10.167122      -276.6614
  14   2.0000      -1.064684       -28.9715
  15   2.0000      -1.062994       -28.9255
  16   2.0000      -0.880087       -23.9484
  17   2.0000      -0.841946       -22.9105
  18   2.0000      -0.777757       -21.1638
  19   2.0000      -0.767453       -20.8835
  20   2.0000      -0.739423       -20.1207
  21   2.0000      -0.689264       -18.7558
  22   2.0000      -0.668484       -18.1904
  23   2.0000      -0.619698       -16.8628
  24   2.0000      -0.602583       -16.3971
  25   2.0000      -0.574592       -15.6354
  26   2.0000      -0.542036       -14.7495
  27   2.0000      -0.508790       -13.8449
  28   2.0000      -0.493843       -13.4382
  29   2.0000      -0.462686       -12.5903
  30   2.0000      -0.459281       -12.4977
  31   2.0000      -0.457603       -12.4520
  32   2.0000      -0.448168       -12.1953
  33   2.0000      -0.439234       -11.9522
  34   2.0000      -0.420661       -11.4468
  35   2.0000      -0.415463       -11.3053
  36   2.0000      -0.408791       -11.1238
  37   2.0000      -0.404424       -11.0049
  38   2.0000      -0.388330       -10.5670
  39   2.0000      -0.385066       -10.4782
  40   2.0000      -0.375581       -10.2201
  41   2.0000      -0.370508       -10.0820
  42   2.0000      -0.359427        -9.7805
  43   2.0000      -0.356434        -9.6991
  44   2.0000      -0.287428        -7.8213
  45   2.0000      -0.283806        -7.7227
  46   2.0000      -0.270250        -7.3539
  47   2.0000      -0.268658        -7.3106
  48   2.0000      -0.261445        -7.1143
  49   0.0000      -0.116742        -3.1767
  50   0.0000      -0.047317        -1.2876
  51   0.0000      -0.022107        -0.6016
  52   0.0000      -0.004749        -0.1292
  53   0.0000       0.005063         0.1378

MULLIKEN ATOMIC CHARGES
-----------------------
   0 C :    1.388596
   1 C :    0.041690
   2 C :    0.019560
   3 C :    1.391360
   4 C :    1.012997
   5 C :    0.994008
   6 C :   -1.158889
   7 C :   -0.385686
   8 C :   -0.367156
   9 C :   -1.169499
  10 H :    0.098800
  11 H :    0.616657
  12 H :    0.615671
  13 H :    0.089375
  14 C :   -0.881915
  15 H :    0.203288
  16 H :    0.188611
  17 H :    0.199825
  18 C :   -0.887349
  19 H :    0.206182
  20 H :    0.174512
  21 H :    0.203024
  22 O :   -1.297984
  23 O :   -1.295678
Sum of atomic charges:    0.0000000

LOEWDIN ATOMIC CHARGES
----------------------
   0 C :   -0.506258
   1 C :   -0.075330
   2 C :   -0.075142
   3 C :   -0.506183
   4 C :   -0.116285
   5 C :   -0.116232
   6 C :    0.219152
   7 C :    0.223959
   8 C :    0.224021
   9 C :    0.219123
  10 H :   -0.173518
  11 H :   -0.157555
  12 H :   -0.157567
  13 H :   -0.173477
  14 C :    0.567648
  15 H :   -0.142632
  16 H :   -0.201224
  17 H :   -0.143709
  18 C :    0.567580
  19 H :   -0.142698
  20 H :   -0.201413
  21 H :   -0.143644
  22 O :    0.505725
  23 O :    0.505657

  Mayer bond orders larger than 0.100000
B(  0-C ,  1-C ) :   1.0681 B(  0-C ,  2-C ) :  -0.3768 B(  0-C ,  3-C ) :   0.8321
B(  0-C ,  4-C ) :  -0.3584 B(  0-C ,  5-C ) :   0.6551 B(  0-C ,  6-C ) :   0.5443
B(  0-C ,  9-C ) :  -0.1330 B(  0-C , 23-O ) :  -0.2306 B(  1-C ,  2-C ) :   1.2891
B(  1-C ,  3-C ) :  -0.3931 B(  1-C ,  4-C ) :  -0.1705 B(  1-C ,  5-C ) :   0.6494
B(  1-C , 14-C ) :   0.1018 B(  1-C , 18-C ) :   0.3376 B(  1-C , 19-H ) :  -0.1482
B(  1-C , 21-H ) :  -0.1472 B(  1-C , 22-O ) :   0.1103 B(  1-C , 23-O ) :   0.3465
B(  2-C ,  3-C ) :   1.0895 B(  2-C ,  4-C ) :   0.6674 B(  2-C ,  5-C ) :  -0.1700
B(  2-C , 14-C ) :   0.3296 B(  2-C , 15-H ) :  -0.1495 B(  2-C , 17-H ) :  -0.1503
B(  2-C , 22-O ) :   0.3514 B(  2-C , 23-O ) :   0.1109 B(  3-C ,  4-C ) :   0.6148
B(  3-C ,  5-C ) :  -0.3322 B(  3-C ,  6-C ) :  -0.1358 B(  3-C ,  9-C ) :   0.5591
B(  3-C , 22-O ) :  -0.2231 B(  4-C ,  5-C ) :   0.8045 B(  4-C ,  6-C ) :  -0.5106
B(  4-C ,  7-C ) :  -0.1170 B(  4-C ,  8-C ) :  -0.1162 B(  4-C ,  9-C ) :  -0.1321
B(  4-C , 22-O ) :   0.3267 B(  5-C ,  6-C ) :  -0.1753 B(  5-C ,  7-C ) :  -0.1072
B(  5-C ,  8-C ) :  -0.1091 B(  5-C ,  9-C ) :  -0.5477 B(  5-C , 23-O ) :   0.3544
B(  6-C ,  7-C ) :   1.1506 B(  6-C , 12-H ) :  -0.1583 B(  6-C , 13-H ) :   1.1179
B(  7-C ,  8-C ) :   1.1271 B(  7-C , 12-H ) :   0.3373 B(  8-C ,  9-C ) :   1.1444
B(  8-C , 11-H ) :   0.3510 B(  9-C , 10-H ) :   1.0994 B(  9-C , 11-H ) :  -0.1429
B( 10-H , 22-O ) :   0.2089 B( 13-H , 23-O ) :   0.2128 B( 14-C , 15-H ) :   1.0609
B( 14-C , 16-H ) :   0.9399 B( 14-C , 17-H ) :   1.0647 B( 18-C , 19-H ) :   1.0556
B( 18-C , 20-H ) :   0.9594 B( 18-C , 21-H ) :   1.0583

Dispersion correction           -0.051136172
FINAL SINGLE POINT ENERGY      -613.671502529559

DIPOLE MOMENT
-------------

Method             : SCF
Type of density    : Electron Density
Multiplicity       :   1
Irrep              :   0
Energy             :  -613.6203663575714700 Eh
Relativity type    :
Basis              : AO
                                X                 Y                 Z
Electronic contribution:     -0.004927061      -6.554204701       3.271704456
Nuclear contribution   :      0.005720256       6.367214391      -3.176836513
                        -----------------------------------------
Total Dipole Moment    :      0.000793195      -0.186990310       0.094867943
                        -----------------------------------------
Magnitude (a.u.)       :      0.209680547
Magnitude (Debye)      :      0.532965595

Rotational constants in cm-1:             0.037375             0.021586             0.013754
Rotational constants in MHz :          1120.461464           647.130480           412.334281

                             ****ORCA TERMINATED NORMALLY****
TOTAL RUN TIME: 0 days 0 hours 5 minutes 25 seconds 342 msec
