                         Program Version 6.0.0  -   RELEASE  -
|  1> !PBE0 aug-cc-pVTZ d3 TightSCF SlowConv RIJCOSX defgrid2
|  2>
|  3> %pal
|  4> nprocs 15
|  5> end
|  6>
|  7> %scf
|  8> MaxIter 1500
|  9> end
| 10>
| 11> %maxcore 3500
| 12>
| 13> !CPCM
| 14> %cpcm smd true
| 15> SMDsolvent "WATER"
| 16> surfacetype gepol_ses
| 17> rsolv 1.40
| 18> end
| 19>
| 20> * xyz 0 2
| 21> O           1.88690927477882      3.74806898805585      1.42790289574278
| 22> N           2.66570902784045      2.77513380487914      1.23314234100198
| 23> C           3.71807770622021      2.91486477310037      0.20083862291935
| 24> C           4.06679330721770      1.52187309981258     -0.33561683406574
| 25> C           4.26235980542420      0.51991448657483      0.75657521226637
| 26> C           3.67404864254557      0.65032800080598      1.94644397870158
| 27> C           2.73307636235429      1.76248913631005      2.31086399015079
| 28> C           4.95112257605395      3.58551917484617      0.81923431194237
| 29> C           3.16091226951920      3.78193702577193     -0.92132048240517
| 30> C           3.17395858898893      2.44345537325049      3.61369764885195
| 31> C           1.32073939913320      1.18748524121188      2.48092813116148
| 32> H           4.97513017363378      1.60092795230428     -0.95867141911157
| 33> H           3.26044945528291      1.18093042448815     -1.01431485641457
| 34> H           4.90234278810831     -0.34794900982598      0.56007401454088
| 35> H           3.82972945021685     -0.10316520119785      2.72741095147656
| 36> H           4.65258295126461      4.52123052785349      1.32092945486630
| 37> H           5.44112718582814      2.92720008818477      1.55542007959442
| 38> H           5.68693306335011      3.83067566104788      0.03349341051902
| 39> H           2.94941849475266      4.80089518300529     -0.56613909595122
| 40> H           2.22162992414553      3.35760034153928     -1.31367493520621
| 41> H           3.89642864117668      3.83221617465297     -1.74256230977595
| 42> H           2.49710932074295      3.28563400859979      3.82950614292032
| 43> H           4.20428697805417      2.82730905875215      3.53671032500385
| 44> H           3.13322334174784      1.72739398341330      4.45203000678507
| 45> H           0.61667710656740      2.00289288566967      2.71131797235433
| 46> H           0.99501687952592      0.68921661071683      1.55267423468629
| 47> H           1.30310628552554      0.45079320617666      3.30164820744471
| 48> *
| 49>
| 50>                          ****END OF INPUT****

CARTESIAN COORDINATES (ANGSTROEM)
---------------------------------
  O      1.886909    3.748069    1.427903
  N      2.665709    2.775134    1.233142
  C      3.718078    2.914865    0.200839
  C      4.066793    1.521873   -0.335617
  C      4.262360    0.519914    0.756575
  C      3.674049    0.650328    1.946444
  C      2.733076    1.762489    2.310864
  C      4.951123    3.585519    0.819234
  C      3.160912    3.781937   -0.921320
  C      3.173959    2.443455    3.613698
  C      1.320739    1.187485    2.480928
  H      4.975130    1.600928   -0.958671
  H      3.260449    1.180930   -1.014315
  H      4.902343   -0.347949    0.560074
  H      3.829729   -0.103165    2.727411
  H      4.652583    4.521231    1.320929
  H      5.441127    2.927200    1.555420
  H      5.686933    3.830676    0.033493
  H      2.949418    4.800895   -0.566139
  H      2.221630    3.357600   -1.313675
  H      3.896429    3.832216   -1.742562
  H      2.497109    3.285634    3.829506
  H      4.204287    2.827309    3.536710
  H      3.133223    1.727394    4.452030
  H      0.616677    2.002893    2.711318
  H      0.995017    0.689217    1.552674
  H      1.303106    0.450793    3.301648

 Total Charge           Charge          ....    0
 Multiplicity           Mult            ....    2
 Number of Electrons    NEL             ....   85
 Basis Dimension        Dim             ....  874

ORBITAL ENERGIES
----------------
                 SPIN UP ORBITALS
  NO   OCC          E(Eh)            E(eV)
   0   1.0000     -19.215563      -522.8820
   1   1.0000     -14.484515      -394.1437
   2   1.0000     -10.278642      -279.6961
   3   1.0000     -10.275758      -279.6176
   4   1.0000     -10.227262      -278.2979
   5   1.0000     -10.226560      -278.2789
   6   1.0000     -10.225410      -278.2476
   7   1.0000     -10.214000      -277.9371
   8   1.0000     -10.213923      -277.9350
   9   1.0000     -10.213421      -277.9213
  10   1.0000     -10.210607      -277.8447
  11   1.0000      -1.147430       -31.2231
  12   1.0000      -0.906121       -24.6568
  13   1.0000      -0.847807       -23.0700
  14   1.0000      -0.794264       -21.6130
  15   1.0000      -0.744269       -20.2526
  16   1.0000      -0.713359       -19.4115
  17   1.0000      -0.703278       -19.1372
  18   1.0000      -0.701137       -19.0789
  19   1.0000      -0.619957       -16.8699
  20   1.0000      -0.602288       -16.3891
  21   1.0000      -0.528851       -14.3908
  22   1.0000      -0.513246       -13.9661
  23   1.0000      -0.511859       -13.9284
  24   1.0000      -0.484282       -13.1780
  25   1.0000      -0.463773       -12.6199
  26   1.0000      -0.452828       -12.3221
  27   1.0000      -0.449317       -12.2265
  28   1.0000      -0.423749       -11.5308
  29   1.0000      -0.417463       -11.3598
  30   1.0000      -0.410866       -11.1802
  31   1.0000      -0.399515       -10.8714
  32   1.0000      -0.386202       -10.5091
  33   1.0000      -0.384636       -10.4665
  34   1.0000      -0.381123       -10.3709
  35   1.0000      -0.376092       -10.2340
  36   1.0000      -0.357168        -9.7190
  37   1.0000      -0.355222        -9.6661
  38   1.0000      -0.348491        -9.4829
  39   1.0000      -0.326949        -8.8967
  40   1.0000      -0.282266        -7.6809
  41   1.0000      -0.263145        -7.1605
  42   1.0000      -0.214157        -5.8275
  43   0.0000       0.001927         0.0524
  44   0.0000       0.008486         0.2309
  45   0.0000       0.014278         0.3885
  46   0.0000       0.015095         0.4108
  47   0.0000       0.021030         0.5723

                 SPIN DOWN ORBITALS
  NO   OCC          E(Eh)            E(eV)
   0   1.0000     -19.202510      -522.5269
   1   1.0000     -14.471269      -393.7833
   2   1.0000     -10.279162      -279.7102
   3   1.0000     -10.276240      -279.6307
   4   1.0000     -10.227299      -278.2990
   5   1.0000     -10.226376      -278.2738
   6   1.0000     -10.225360      -278.2462
   7   1.0000     -10.213622      -277.9268
   8   1.0000     -10.213345      -277.9192
   9   1.0000     -10.212647      -277.9002
  10   1.0000     -10.210489      -277.8415
  11   1.0000      -1.122580       -30.5470
  12   1.0000      -0.895641       -24.3716
  13   1.0000      -0.846449       -23.0330
  14   1.0000      -0.788425       -21.4541
  15   1.0000      -0.730488       -19.8776
  16   1.0000      -0.710613       -19.3368
  17   1.0000      -0.701857       -19.0985
  18   1.0000      -0.700690       -19.0667
  19   1.0000      -0.616593       -16.7783
  20   1.0000      -0.598444       -16.2845
  21   1.0000      -0.518306       -14.1038
  22   1.0000      -0.510618       -13.8946
  23   1.0000      -0.496300       -13.5050
  24   1.0000      -0.466510       -12.6944
  25   1.0000      -0.458529       -12.4772
  26   1.0000      -0.449001       -12.2180
  27   1.0000      -0.444296       -12.0899
  28   1.0000      -0.422331       -11.4922
  29   1.0000      -0.409585       -11.1454
  30   1.0000      -0.406764       -11.0686
  31   1.0000      -0.397312       -10.8114
  32   1.0000      -0.385350       -10.4859
  33   1.0000      -0.379823       -10.3355
  34   1.0000      -0.375604       -10.2207
  35   1.0000      -0.370208       -10.0739
  36   1.0000      -0.355364        -9.6699
  37   1.0000      -0.348611        -9.4862
  38   1.0000      -0.329876        -8.9764
  39   1.0000      -0.324536        -8.8311
  40   1.0000      -0.272209        -7.4072
  41   1.0000      -0.262398        -7.1402
  42   0.0000      -0.052206        -1.4206
  43   0.0000       0.002395         0.0652
  44   0.0000       0.008803         0.2395
  45   0.0000       0.014939         0.4065
  46   0.0000       0.015339         0.4174

MULLIKEN ATOMIC CHARGES AND SPIN POPULATIONS
--------------------------------------------
   0 O :   -1.085387    0.479545
   1 N :    0.386582    0.522840
   2 C :    1.806906   -0.048940
   3 C :   -0.401635    0.000753
   4 C :   -0.686960   -0.005115
   5 C :   -0.745638    0.007039
   6 C :    1.467003   -0.062324
   7 C :   -1.085612    0.031966
   8 C :   -1.338242    0.011792
   9 C :   -1.168892    0.033396
  10 C :   -1.241143    0.017291
  11 H :    0.185712    0.000754
  12 H :    0.227839    0.002322
  13 H :    0.727180    0.000997
  14 H :    0.319967   -0.000502
  15 H :    0.241921   -0.002625
  16 H :    0.332982    0.001983
  17 H :    0.105373    0.008899
  18 H :    0.223672   -0.005672
  19 H :    0.212174    0.000394
  20 H :    0.190816   -0.000377
  21 H :    0.180374    0.003166
  22 H :    0.287636   -0.001473
  23 H :    0.180054    0.002613
  24 H :    0.207543    0.000851
  25 H :    0.232368   -0.000270
  26 H :    0.237409    0.000695
Sum of atomic charges         :   -0.0000000

LOEWDIN ATOMIC CHARGES AND SPIN POPULATIONS
-------------------------------------------
   0 O :    0.388456    0.438240
   1 N :   -0.121133    0.405425
   2 C :   -0.459729    0.042660
   3 C :    0.272213    0.005156
   4 C :    0.239665   -0.000210
   5 C :    0.217607    0.002193
   6 C :   -0.482622    0.039890
   7 C :    0.588862    0.020302
   8 C :    0.555439    0.000322
   9 C :    0.577836    0.016080
  10 C :    0.572155    0.008391
  11 H :   -0.120750    0.000594
  12 H :   -0.119998    0.001170
  13 H :   -0.154464   -0.000239
  14 H :   -0.144586    0.000072
  15 H :   -0.141807    0.001282
  16 H :   -0.158863    0.001814
  17 H :   -0.135552    0.006274
  18 H :   -0.171144   -0.000428
  19 H :   -0.146783    0.000406
  20 H :   -0.138888   -0.000156
  21 H :   -0.164672    0.001779
  22 H :   -0.156417    0.001524
  23 H :   -0.140905    0.004136
  24 H :   -0.169347   -0.000010
  25 H :   -0.142422    0.001615
  26 H :   -0.142151    0.001716

  Mayer bond orders larger than 0.100000
B(  0-O ,  1-N ) :   0.5708 B(  0-O ,  6-C ) :  -0.1678 B(  0-O , 10-C ) :   0.1002
B(  1-N ,  2-C ) :   0.6649 B(  1-N ,  3-C ) :   0.2887 B(  1-N ,  6-C ) :   0.8446
B(  2-C ,  3-C ) :   0.4688 B(  2-C ,  4-C ) :   0.1394 B(  2-C ,  5-C ) :   0.1779
B(  2-C ,  7-C ) :   0.4689 B(  2-C ,  8-C ) :   0.1697 B(  3-C ,  4-C ) :   0.7164
B(  3-C , 11-H ) :   0.9139 B(  3-C , 12-H ) :   0.9596 B(  3-C , 13-H ) :   0.1803
B(  4-C ,  5-C ) :   1.7645 B(  5-C ,  6-C ) :   0.7491 B(  5-C ,  9-C ) :  -0.1226
B(  5-C , 14-H ) :   0.9841 B(  6-C ,  9-C ) :   0.6081 B(  6-C , 10-C ) :   0.4590
B(  7-C ,  8-C ) :   0.1500 B(  7-C , 15-H ) :   0.9310 B(  7-C , 16-H ) :   0.8753
B(  7-C , 17-H ) :   1.0915 B(  8-C , 18-H ) :   0.9871 B(  8-C , 19-H ) :   1.0481
B(  8-C , 20-H ) :   1.0527 B(  9-C , 10-C ) :   0.1580 B(  9-C , 21-H ) :   1.0389
B(  9-C , 22-H ) :   0.9080 B(  9-C , 23-H ) :   1.0371 B( 10-C , 24-H ) :   1.0291
B( 10-C , 25-H ) :   0.9917 B( 10-C , 26-H ) :   0.9836

Dispersion correction           -0.026838162
FINAL SINGLE POINT ENERGY      -482.120958194282

DIPOLE MOMENT
-------------

Method             : SCF
Type of density    : Electron Density
Multiplicity       :   2
Irrep              :   0
Energy             :  -482.0941200323012481 Eh
Relativity type    :
Basis              : AO
                                X                 Y                 Z
Electronic contribution:     -1.686783660      -0.877786715      -0.440438430
Nuclear contribution   :      2.934205534      -0.334114235       0.179164827
                        -----------------------------------------
Total Dipole Moment    :      1.247421875      -1.211900950      -0.261273603
                        -----------------------------------------
Magnitude (a.u.)       :      1.758700981
Magnitude (Debye)      :      4.470262637

Rotational constants in cm-1:             0.051691             0.036550             0.029790
Rotational constants in MHz :          1549.648951          1095.742777           893.076591

                             ****ORCA TERMINATED NORMALLY****
TOTAL RUN TIME: 0 days 0 hours 21 minutes 58 seconds 210 msec
