                         Program Version 6.0.0  -   RELEASE  -
|  1> !r2SCAN aug-cc-pVTZ d3 TightSCF SlowConv RIJCOSX defgrid2
|  2>
|  3> %pal
|  4> nprocs 4
|  5> end
|  6>
|  7> %scf
|  8> MaxIter 1500
|  9> end
| 10>
| 11> %maxcore 3000
| 12>
| 13> !CPCM
| 14> %cpcm smd true
| 15> SMDsolvent "MeCN"
| 16> surfacetype gepol_ses
| 17> rsolv 2.19
| 18> end
| 19>
| 20> * xyz 0 1
| 21> C           0.69340039581910     -1.21642473703122     -0.00210106158208
| 22> C          -0.69454855654644     -1.22021347444475     -0.00107333204799
| 23> C          -1.36154262322334      0.00187791219067      0.00026242389151
| 24> C          -0.68604253118331      1.21670210566519      0.00055618520570
| 25> C           0.70509440805818      1.20392227540601     -0.00053641990430
| 26> C           1.40455093160228     -0.00927557523456     -0.00186311158295
| 27> C           2.90624055769532     -0.08463588452950     -0.00286199019476
| 28> O           3.45693707307488     -1.16143789750676     -0.00328851772908
| 29> C           3.69101592073766      1.20331719293128     -0.00349620755262
| 30> H           3.45502261169039      1.81064521986950      0.88792921534318
| 31> H           4.76399312425029      0.96314274578425     -0.00608195367514
| 32> H           3.45097324706094      1.81300927441323     -0.89217068832087
| 33> H           1.24208602358160      2.15534045576678     -0.00026184416090
| 34> H          -1.25661571978578      2.14643950150070      0.00165091333299
| 35> N          -2.83358313105393      0.00969549364775      0.00154754521515
| 36> O          -3.38285340798047      1.08799719381857      0.00256173004398
| 37> O          -3.39352955523644     -1.06261620732784      0.00148372469125
| 38> H          -1.27233938255821     -2.14567385267397     -0.00122499566180
| 39> H           1.26268251399728     -2.14919824224534     -0.00306631531128
| 40> *
| 41>
| 42>                          ****END OF INPUT****

CARTESIAN COORDINATES (ANGSTROEM)
---------------------------------
  C      0.693400   -1.216425   -0.002101
  C     -0.694549   -1.220213   -0.001073
  C     -1.361543    0.001878    0.000262
  C     -0.686043    1.216702    0.000556
  C      0.705094    1.203922   -0.000536
  C      1.404551   -0.009276   -0.001863
  C      2.906241   -0.084636   -0.002862
  O      3.456937   -1.161438   -0.003289
  C      3.691016    1.203317   -0.003496
  H      3.455023    1.810645    0.887929
  H      4.763993    0.963143   -0.006082
  H      3.450973    1.813009   -0.892171
  H      1.242086    2.155340   -0.000262
  H     -1.256616    2.146440    0.001651
  N     -2.833583    0.009695    0.001548
  O     -3.382853    1.087997    0.002562
  O     -3.393530   -1.062616    0.001484
  H     -1.272339   -2.145674   -0.001225
  H      1.262683   -2.149198   -0.003066

 Total Charge           Charge          ....    0
 Multiplicity           Mult            ....    1
 Number of Electrons    NEL             ....   86
 Basis Dimension        Dim             ....  713

ORBITAL ENERGIES
----------------

  NO   OCC          E(Eh)            E(eV)
   0   2.0000     -18.998288      -516.9697
   1   2.0000     -18.998096      -516.9645
   2   2.0000     -18.952641      -515.7276
   3   2.0000     -14.406878      -392.0311
   4   2.0000     -10.134015      -275.7606
   5   2.0000     -10.106709      -275.0175
   6   2.0000     -10.069766      -274.0123
   7   2.0000     -10.067888      -273.9612
   8   2.0000     -10.067368      -273.9470
   9   2.0000     -10.065751      -273.9030
  10   2.0000     -10.062008      -273.8012
  11   2.0000     -10.033877      -273.0357
  12   2.0000      -1.216139       -33.0928
  13   2.0000      -1.041340       -28.3363
  14   2.0000      -1.019778       -27.7496
  15   2.0000      -0.859757       -23.3952
  16   2.0000      -0.783985       -21.3333
  17   2.0000      -0.740364       -20.1463
  18   2.0000      -0.714482       -19.4420
  19   2.0000      -0.672878       -18.3099
  20   2.0000      -0.598919       -16.2974
  21   2.0000      -0.580710       -15.8019
  22   2.0000      -0.537180       -14.6174
  23   2.0000      -0.527428       -14.3520
  24   2.0000      -0.521304       -14.1854
  25   2.0000      -0.496723       -13.5165
  26   2.0000      -0.459206       -12.4956
  27   2.0000      -0.448366       -12.2007
  28   2.0000      -0.428568       -11.6619
  29   2.0000      -0.417932       -11.3725
  30   2.0000      -0.409873       -11.1532
  31   2.0000      -0.395975       -10.7750
  32   2.0000      -0.385425       -10.4879
  33   2.0000      -0.367752       -10.0070
  34   2.0000      -0.348575        -9.4852
  35   2.0000      -0.338665        -9.2155
  36   2.0000      -0.329532        -8.9670
  37   2.0000      -0.306272        -8.3341
  38   2.0000      -0.288616        -7.8536
  39   2.0000      -0.272889        -7.4257
  40   2.0000      -0.267386        -7.2759
  41   2.0000      -0.260838        -7.0978
  42   2.0000      -0.230517        -6.2727
  43   0.0000      -0.132545        -3.6067
  44   0.0000      -0.076012        -2.0684
  45   0.0000      -0.056993        -1.5509
  46   0.0000       0.003714         0.1011
  47   0.0000       0.006036         0.1643

MULLIKEN ATOMIC CHARGES
-----------------------
   0 C :   -0.886157
   1 C :   -0.299148
   2 C :    0.452746
   3 C :   -0.552390
   4 C :   -0.333627
   5 C :    1.153111
   6 C :    0.816577
   7 O :   -0.955972
   8 C :   -0.531111
   9 H :    0.242617
  10 H :    0.154871
  11 H :    0.241924
  12 H :    0.038302
  13 H :    0.449170
  14 N :    0.805498
  15 O :   -0.681760
  16 O :   -0.682995
  17 H :    0.506273
  18 H :    0.062071
Sum of atomic charges:   -0.0000000

LOEWDIN ATOMIC CHARGES
----------------------
   0 C :    0.218629
   1 C :    0.223979
   2 C :   -0.227031
   3 C :    0.227009
   4 C :    0.234176
   5 C :   -0.111958
   6 C :   -0.533974
   7 O :    0.498040
   8 C :    0.578264
   9 H :   -0.154981
  10 H :   -0.174489
  11 H :   -0.155095
  12 H :   -0.166545
  13 H :   -0.183572
  14 N :   -0.750235
  15 O :    0.421074
  16 O :    0.421264
  17 H :   -0.184468
  18 H :   -0.180087

  Mayer bond orders larger than 0.100000
B(  0-C ,  1-C ) :   1.2146 B(  0-C ,  2-C ) :  -0.3655 B(  0-C ,  4-C ) :  -0.3564
B(  0-C ,  5-C ) :   0.2953 B(  0-C ,  6-C ) :   0.2566 B(  0-C , 18-H ) :   1.1518
B(  1-C ,  2-C ) :   0.9053 B(  1-C ,  4-C ) :  -0.1431 B(  1-C ,  5-C ) :   0.1739
B(  1-C , 14-N ) :  -0.1400 B(  1-C , 17-H ) :   0.3987 B(  2-C ,  3-C ) :   0.7429
B(  2-C ,  4-C ) :  -0.2947 B(  2-C , 14-N ) :   1.1791 B(  2-C , 15-O ) :   0.4188
B(  2-C , 16-O ) :   0.4289 B(  3-C ,  4-C ) :   0.7629 B(  3-C ,  5-C ) :   0.2095
B(  3-C , 13-H ) :   0.4719 B(  3-C , 14-N ) :  -0.2166 B(  4-C ,  5-C ) :   0.5896
B(  4-C ,  6-C ) :   0.1102 B(  4-C , 12-H ) :   1.3037 B(  5-C ,  6-C ) :   0.3255
B(  5-C ,  7-O ) :   0.2491 B(  5-C ,  8-C ) :   0.1089 B(  5-C , 12-H ) :  -0.1728
B(  5-C , 18-H ) :  -0.1246 B(  6-C ,  7-O ) :   0.8026 B(  6-C ,  8-C ) :   0.9239
B(  7-O , 18-H ) :   0.1512 B(  8-C ,  9-H ) :   0.9585 B(  8-C , 10-H ) :   0.9507
B(  8-C , 11-H ) :   0.9591 B( 14-N , 15-O ) :   0.9287 B( 14-N , 16-O ) :   0.9246
B( 15-O , 16-O ) :   0.1874

Dispersion correction           -0.006326394
FINAL SINGLE POINT ENERGY      -589.337100524766

DIPOLE MOMENT
-------------

Method             : SCF
Type of density    : Electron Density
Multiplicity       :   1
Irrep              :   0
Energy             :  -589.3307741305268337 Eh
Relativity type    :
Basis              : AO
                                X                 Y                 Z
Electronic contribution:     -9.527876632      -2.982888621       0.006448019
Nuclear contribution   :     10.904698351       4.303144091      -0.007859468
                        -----------------------------------------
Total Dipole Moment    :      1.376821719       1.320255470      -0.001411449
                        -----------------------------------------
Magnitude (a.u.)       :      1.907541492
Magnitude (Debye)      :      4.848585150

Rotational constants in cm-1:             0.096505             0.015902             0.013688
Rotational constants in MHz :          2893.160990           476.718240           410.340998

                             ****ORCA TERMINATED NORMALLY****
TOTAL RUN TIME: 0 days 0 hours 3 minutes 27 seconds 536 msec
