                         Program Version 6.0.0  -   RELEASE  -
|  1> !r2SCAN aug-cc-pVTZ d3 TightSCF SlowConv RIJCOSX defgrid2
|  2>
|  3> %pal
|  4> nprocs 4
|  5> end
|  6>
|  7> %scf
|  8> MaxIter 1500
|  9> end
| 10>
| 11> %maxcore 3000
| 12>
| 13> !CPCM
| 14> %cpcm smd true
| 15> SMDsolvent "MeCN"
| 16> surfacetype gepol_ses
| 17> rsolv 2.19
| 18> end
| 19>
| 20> * xyz 1 2
| 21> C          -1.37570161970798      1.24248775146081      0.14964467519830
| 22> C          -2.72328606993136      1.33933244972942     -0.12972549489389
| 23> C          -3.50332136231250      0.18456023805622     -0.29662204383798
| 24> C          -2.90850381676726     -1.08060950224510     -0.17914577968731
| 25> C          -1.56009156673199     -1.19946806950118      0.08819160883999
| 26> C          -0.74929788406068     -0.03596298254245      0.25549211350325
| 27> N           0.58169156042701     -0.14755492533350      0.51923516368239
| 28> C           1.35906971560407     -1.35389965269269      0.28665855372844
| 29> H           1.88509976437755     -1.61600692768801      1.22001003582768
| 30> H           0.72298603517521     -2.19210005080425     -0.01631674285562
| 31> C           2.39456488415066     -1.05887336973135     -0.81777740540371
| 32> H           1.85949130432221     -0.86633084185637     -1.77045067834009
| 33> H           3.04102795891331     -1.94051290095387     -0.94478618718467
| 34> O           3.20182115584000      0.01450222304714     -0.46263444369679
| 35> C           2.47636872597331      1.18215324578846     -0.25260675546455
| 36> H           3.18364575605233      1.96931206906534      0.04942966335265
| 37> H           1.95240344881149      1.50557330797809     -1.17560901565404
| 38> C           1.44564375796760      0.96716490649827      0.86894476596378
| 39> H           0.87103596845838      1.87677062866973      1.07105968779003
| 40> H           1.98209056577574      0.68782297194295      1.79196599824839
| 41> H          -1.13914062593493     -2.19705534469310      0.21352347531936
| 42> H          -3.51569254322193     -1.98314623006578     -0.28645384104721
| 43> H          -4.57208793284479      0.27077776097684     -0.51046305441418
| 44> H          -3.18143391858996      2.32714955314318     -0.22534185944500
| 45> H          -0.79875706174547      2.16114869175120      0.25195876047079
| 46> *
| 47>
| 48>                          ****END OF INPUT****

CARTESIAN COORDINATES (ANGSTROEM)
---------------------------------
  C     -1.375702    1.242488    0.149645
  C     -2.723286    1.339332   -0.129725
  C     -3.503321    0.184560   -0.296622
  C     -2.908504   -1.080610   -0.179146
  C     -1.560092   -1.199468    0.088192
  C     -0.749298   -0.035963    0.255492
  N      0.581692   -0.147555    0.519235
  C      1.359070   -1.353900    0.286659
  H      1.885100   -1.616007    1.220010
  H      0.722986   -2.192100   -0.016317
  C      2.394565   -1.058873   -0.817777
  H      1.859491   -0.866331   -1.770451
  H      3.041028   -1.940513   -0.944786
  O      3.201821    0.014502   -0.462634
  C      2.476369    1.182153   -0.252607
  H      3.183646    1.969312    0.049430
  H      1.952403    1.505573   -1.175609
  C      1.445644    0.967165    0.868945
  H      0.871036    1.876771    1.071060
  H      1.982091    0.687823    1.791966
  H     -1.139141   -2.197055    0.213523
  H     -3.515693   -1.983146   -0.286454
  H     -4.572088    0.270778   -0.510463
  H     -3.181434    2.327150   -0.225342
  H     -0.798757    2.161149    0.251959

 Total Charge           Charge          ....    1
 Multiplicity           Mult            ....    2
 Number of Electrons    NEL             ....   87
 Basis Dimension        Dim             ....  851

ORBITAL ENERGIES
----------------
                 SPIN UP ORBITALS
  NO   OCC          E(Eh)            E(eV)
   0   1.0000     -18.992854      -516.8218
   1   1.0000     -14.282676      -388.6514
   2   1.0000     -10.130405      -275.6623
   3   1.0000     -10.105375      -274.9812
   4   1.0000     -10.104935      -274.9692
   5   1.0000     -10.097581      -274.7691
   6   1.0000     -10.097028      -274.7541
   7   1.0000     -10.076906      -274.2066
   8   1.0000     -10.076622      -274.1988
   9   1.0000     -10.074587      -274.1434
  10   1.0000     -10.065073      -273.8846
  11   1.0000     -10.064739      -273.8755
  12   1.0000      -1.050520       -28.5861
  13   1.0000      -0.986499       -26.8440
  14   1.0000      -0.849153       -23.1066
  15   1.0000      -0.774152       -21.0657
  16   1.0000      -0.761800       -20.7296
  17   1.0000      -0.745270       -20.2798
  18   1.0000      -0.687935       -18.7197
  19   1.0000      -0.664505       -18.0821
  20   1.0000      -0.613708       -16.6998
  21   1.0000      -0.595293       -16.1988
  22   1.0000      -0.562532       -15.3073
  23   1.0000      -0.538225       -14.6459
  24   1.0000      -0.489649       -13.3240
  25   1.0000      -0.489283       -13.3141
  26   1.0000      -0.472230       -12.8500
  27   1.0000      -0.469674       -12.7805
  28   1.0000      -0.458697       -12.4818
  29   1.0000      -0.441118       -12.0034
  30   1.0000      -0.429644       -11.6912
  31   1.0000      -0.419402       -11.4125
  32   1.0000      -0.417503       -11.3608
  33   1.0000      -0.386156       -10.5078
  34   1.0000      -0.380463       -10.3529
  35   1.0000      -0.364043        -9.9061
  36   1.0000      -0.353177        -9.6104
  37   1.0000      -0.348431        -9.4813
  38   1.0000      -0.334324        -9.0974
  39   1.0000      -0.326529        -8.8853
  40   1.0000      -0.300961        -8.1896
  41   1.0000      -0.271700        -7.3933
  42   1.0000      -0.262642        -7.1469
  43   1.0000      -0.225765        -6.1434
  44   0.0000      -0.063285        -1.7221
  45   0.0000      -0.058301        -1.5864
  46   0.0000       0.003126         0.0851
  47   0.0000       0.017677         0.4810
  48   0.0000       0.018139         0.4936

                 SPIN DOWN ORBITALS
  NO   OCC          E(Eh)            E(eV)
   0   1.0000     -18.991441      -516.7834
   1   1.0000     -14.270593      -388.3226
   2   1.0000     -10.131655      -275.6963
   3   1.0000     -10.104499      -274.9574
   4   1.0000     -10.104143      -274.9477
   5   1.0000     -10.097644      -274.7709
   6   1.0000     -10.097141      -274.7572
   7   1.0000     -10.073248      -274.1070
   8   1.0000     -10.073044      -274.1015
   9   1.0000     -10.069536      -274.0060
  10   1.0000     -10.067026      -273.9377
  11   1.0000     -10.066751      -273.9302
  12   1.0000      -1.047951       -28.5162
  13   1.0000      -0.971121       -26.4256
  14   1.0000      -0.843715       -22.9587
  15   1.0000      -0.771955       -21.0060
  16   1.0000      -0.758319       -20.6349
  17   1.0000      -0.742267       -20.1981
  18   1.0000      -0.677600       -18.4384
  19   1.0000      -0.663543       -18.0559
  20   1.0000      -0.608783       -16.5658
  21   1.0000      -0.592608       -16.1257
  22   1.0000      -0.558945       -15.2097
  23   1.0000      -0.534876       -14.5547
  24   1.0000      -0.485913       -13.2224
  25   1.0000      -0.484072       -13.1723
  26   1.0000      -0.470537       -12.8040
  27   1.0000      -0.462274       -12.5791
  28   1.0000      -0.455743       -12.4014
  29   1.0000      -0.434574       -11.8254
  30   1.0000      -0.427285       -11.6270
  31   1.0000      -0.418565       -11.3897
  32   1.0000      -0.411693       -11.2027
  33   1.0000      -0.382378       -10.4050
  34   1.0000      -0.372604       -10.1391
  35   1.0000      -0.362296        -9.8586
  36   1.0000      -0.351547        -9.5661
  37   1.0000      -0.346031        -9.4160
  38   1.0000      -0.327067        -8.9000
  39   1.0000      -0.316282        -8.6065
  40   1.0000      -0.293685        -7.9916
  41   1.0000      -0.263660        -7.1745
  42   1.0000      -0.253848        -6.9076
  43   0.0000      -0.183891        -5.0039
  44   0.0000      -0.055016        -1.4971
  45   0.0000      -0.041279        -1.1233
  46   0.0000       0.004275         0.1163
  47   0.0000       0.018854         0.5130

MULLIKEN ATOMIC CHARGES AND SPIN POPULATIONS
--------------------------------------------
   0 C :   -0.299157    0.222199
   1 C :   -0.812374   -0.142721
   2 C :   -0.530679    0.324113
   3 C :   -0.693891   -0.154385
   4 C :   -0.534203    0.238273
   5 C :    1.721956   -0.052493
   6 N :    0.260121    0.448223
   7 C :   -0.592954   -0.023370
   8 H :    0.171491    0.013296
   9 H :    0.213831    0.003751
  10 C :   -0.027430    0.042132
  11 H :    0.217604    0.004488
  12 H :    0.235340    0.006513
  13 O :   -0.640135    0.047117
  14 C :    0.005266    0.035340
  15 H :    0.271616    0.005780
  16 H :    0.239331    0.005030
  17 C :   -0.664263   -0.030222
  18 H :    0.154996   -0.000877
  19 H :    0.164560    0.026318
  20 H :    0.435941   -0.007208
  21 H :    0.380698   -0.004848
  22 H :    0.499751    0.007210
  23 H :    0.311064   -0.002537
  24 H :    0.511519   -0.011122
Sum of atomic charges         :    1.0000000

LOEWDIN ATOMIC CHARGES AND SPIN POPULATIONS
-------------------------------------------
   0 C :    0.272751    0.092125
   1 C :    0.238960    0.017057
   2 C :    0.241991    0.129688
   3 C :    0.238400    0.016028
   4 C :    0.273424    0.093506
   5 C :   -0.134708    0.077098
   6 N :    0.338875    0.285593
   7 C :    0.277668    0.048396
   8 H :   -0.096451    0.010805
   9 H :   -0.154275    0.002258
  10 C :    0.077239    0.028635
  11 H :   -0.120075    0.003338
  12 H :   -0.125079    0.005140
  13 O :    0.617948    0.038667
  14 C :    0.076581    0.027109
  15 H :   -0.125062    0.004520
  16 H :   -0.120361    0.003803
  17 C :    0.273505    0.048068
  18 H :   -0.149589    0.001869
  19 H :   -0.098878    0.012346
  20 H :   -0.171917    0.020403
  21 H :   -0.153051   -0.010026
  22 H :   -0.151719    0.033002
  23 H :   -0.152898   -0.009713
  24 H :   -0.173278    0.020284

  Mayer bond orders larger than 0.100000
B(  0-C ,  1-C ) :   1.0673 B(  0-C ,  2-C ) :   0.3768 B(  0-C ,  3-C ) :  -0.2168
B(  0-C ,  4-C ) :   0.1488 B(  0-C ,  5-C ) :   0.1352 B(  0-C ,  6-N ) :  -0.1580
B(  0-C , 17-C ) :  -0.1018 B(  0-C , 24-H ) :   0.2356 B(  1-C ,  2-C ) :   1.0458
B(  1-C ,  4-C ) :  -0.1944 B(  1-C ,  5-C ) :  -0.4946 B(  1-C , 23-H ) :   0.8352
B(  2-C ,  3-C ) :   1.0204 B(  2-C ,  4-C ) :   0.3441 B(  2-C ,  5-C ) :  -0.3155
B(  2-C , 22-H ) :   0.5080 B(  2-C , 24-H ) :  -0.1269 B(  3-C ,  4-C ) :   1.2335
B(  3-C ,  5-C ) :  -0.3944 B(  3-C , 21-H ) :   0.7074 B(  4-C , 20-H ) :   0.3851
B(  5-C ,  6-N ) :   0.3230 B(  5-C , 17-C ) :  -0.1171 B(  6-N ,  7-C ) :   1.0898
B(  6-N , 17-C ) :   1.0818 B(  6-N , 20-H ) :   0.1118 B(  7-C ,  8-H ) :   0.9540
B(  7-C ,  9-H ) :   0.9355 B(  7-C , 10-C ) :   0.8687 B(  7-C , 13-O ) :   0.1150
B(  7-C , 17-C ) :   0.2487 B( 10-C , 11-H ) :   0.9459 B( 10-C , 12-H ) :   0.9351
B( 10-C , 13-O ) :   0.8282 B( 13-O , 14-C ) :   0.8359 B( 14-C , 15-H ) :   0.9010
B( 14-C , 16-H ) :   0.9433 B( 14-C , 17-C ) :   0.8436 B( 17-C , 18-H ) :   1.0188
B( 17-C , 19-H ) :   0.9391

Dispersion correction           -0.008693564
FINAL SINGLE POINT ENERGY      -518.579913921988

DIPOLE MOMENT
-------------

Method             : SCF
Type of density    : Electron Density
Multiplicity       :   2
Irrep              :   0
Energy             :  -518.5712203580396817 Eh
Relativity type    :
Basis              : AO
                                X                 Y                 Z
Electronic contribution:     -2.564491641      -0.056725403       0.633849717
Nuclear contribution   :      2.207733299      -0.028342032      -0.256093747
                        -----------------------------------------
Total Dipole Moment    :     -0.356758342      -0.085067435       0.377755971
                        -----------------------------------------
Magnitude (a.u.)       :      0.526509788
Magnitude (Debye)      :      1.338281525

Rotational constants in cm-1:             0.077620             0.019238             0.016602
Rotational constants in MHz :          2326.988545           576.750143           497.725802

                             ****ORCA TERMINATED NORMALLY****
TOTAL RUN TIME: 0 days 0 hours 7 minutes 49 seconds 689 msec
