                         Program Version 6.0.0  -   RELEASE  -
|  1> !B3LYP aug-cc-pVTZ d3 TightSCF SlowConv RIJCOSX defgrid2
|  2>
|  3> %pal
|  4> nprocs 15
|  5> end
|  6>
|  7> %scf
|  8> MaxIter 1500
|  9> end
| 10>
| 11> %maxcore 3500
| 12>
| 13> !CPCM
| 14> %cpcm smd true
| 15> SMDsolvent "WATER"
| 16> surfacetype gepol_ses
| 17> rsolv 1.40
| 18> end
| 19>
| 20> * xyz 0 1
| 21> C           0.00636908025291      0.00344693466191     -3.48568134762916
| 22> C          -0.07329586297975     -0.04398063872276      0.74138085624868
| 23> C           1.10272166896467     -0.10799321931825      1.50278690341546
| 24> C           1.00614211679588     -0.13690311443854      2.89048895011345
| 25> C          -0.25700371911238     -0.09995487217630      3.47371798070641
| 26> C          -1.36597504158140     -0.04157282452465      2.62711576918004
| 27> N          -1.28290853833089     -0.01622478520361      1.30443177594435
| 28> H           2.07864268736179     -0.16148217056008      1.01390529605249
| 29> H           1.90787256726744     -0.19674804501795      3.50759598842189
| 30> H          -0.38580781708437     -0.12069403978637      4.55934543988249
| 31> H          -2.37943344126066     -0.01230626984174      3.04845755675130
| 32> C          -0.01960087155986     -0.01156089996578     -0.74687997443611
| 33> C           1.03675391875749      0.62425707841442     -1.41531420429447
| 34> C           1.04680281402184      0.63075677304619     -2.80669132538117
| 35> C          -1.00064817669856     -0.59696094289784     -2.72713929450383
| 36> N          -1.01921053020765     -0.60549492558988     -1.40177260600152
| 37> H           1.82553959271218      1.12971852084172     -0.85261087525814
| 38> H           1.85413972205566      1.12838604917571     -3.35269269539613
| 39> H          -0.03136082161732     -0.01872909991858     -4.57822525423132
| 40> H          -1.83911827075703     -1.10093954717764     -3.22567631758471
| 41> *
| 42>
| 43>                          ****END OF INPUT****

CARTESIAN COORDINATES (ANGSTROEM)
---------------------------------
  C      0.006369    0.003447   -3.485681
  C     -0.073296   -0.043981    0.741381
  C      1.102722   -0.107993    1.502787
  C      1.006142   -0.136903    2.890489
  C     -0.257004   -0.099955    3.473718
  C     -1.365975   -0.041573    2.627116
  N     -1.282909   -0.016225    1.304432
  H      2.078643   -0.161482    1.013905
  H      1.907873   -0.196748    3.507596
  H     -0.385808   -0.120694    4.559345
  H     -2.379433   -0.012306    3.048458
  C     -0.019601   -0.011561   -0.746880
  C      1.036754    0.624257   -1.415314
  C      1.046803    0.630757   -2.806691
  C     -1.000648   -0.596961   -2.727139
  N     -1.019211   -0.605495   -1.401773
  H      1.825540    1.129719   -0.852611
  H      1.854140    1.128386   -3.352693
  H     -0.031361   -0.018729   -4.578225
  H     -1.839118   -1.100940   -3.225676

 Total Charge           Charge          ....    0
 Multiplicity           Mult            ....    1
 Number of Electrons    NEL             ....   82
 Basis Dimension        Dim             ....  736

ORBITAL ENERGIES
----------------

  NO   OCC          E(Eh)            E(eV)
   0   2.0000     -14.317371      -389.5955
   1   2.0000     -14.317353      -389.5950
   2   2.0000     -10.220007      -278.1005
   3   2.0000     -10.219688      -278.0919
   4   2.0000     -10.209258      -277.8080
   5   2.0000     -10.209248      -277.8078
   6   2.0000     -10.192169      -277.3430
   7   2.0000     -10.192125      -277.3418
   8   2.0000     -10.185053      -277.1494
   9   2.0000     -10.185020      -277.1485
  10   2.0000     -10.182938      -277.0918
  11   2.0000     -10.182931      -277.0916
  12   2.0000      -0.962724       -26.1970
  13   2.0000      -0.941091       -25.6084
  14   2.0000      -0.807290       -21.9675
  15   2.0000      -0.801355       -21.8060
  16   2.0000      -0.793578       -21.5944
  17   2.0000      -0.740910       -20.1612
  18   2.0000      -0.653702       -17.7881
  19   2.0000      -0.642442       -17.4817
  20   2.0000      -0.616828       -16.7847
  21   2.0000      -0.599886       -16.3237
  22   2.0000      -0.535871       -14.5818
  23   2.0000      -0.499259       -13.5855
  24   2.0000      -0.498245       -13.5579
  25   2.0000      -0.472360       -12.8536
  26   2.0000      -0.471508       -12.8304
  27   2.0000      -0.440345       -11.9824
  28   2.0000      -0.425990       -11.5918
  29   2.0000      -0.421846       -11.4790
  30   2.0000      -0.404653       -11.0112
  31   2.0000      -0.397894       -10.8272
  32   2.0000      -0.394268       -10.7286
  33   2.0000      -0.373394       -10.1606
  34   2.0000      -0.359342        -9.7782
  35   2.0000      -0.299829        -8.1588
  36   2.0000      -0.292515        -7.9598
  37   2.0000      -0.285248        -7.7620
  38   2.0000      -0.270197        -7.3524
  39   2.0000      -0.260653        -7.0927
  40   2.0000      -0.245433        -6.6786
  41   0.0000      -0.055801        -1.5184
  42   0.0000      -0.032549        -0.8857
  43   0.0000      -0.028060        -0.7635
  44   0.0000      -0.003736        -0.1017
  45   0.0000       0.006015         0.1637

MULLIKEN ATOMIC CHARGES
-----------------------
   0 C :   -0.131243
   1 C :    1.383511
   2 C :   -0.511086
   3 C :   -0.867796
   4 C :   -0.127991
   5 C :   -0.621249
   6 N :   -0.699163
   7 H :    0.100792
   8 H :    0.537651
   9 H :    0.222176
  10 H :    0.590985
  11 C :    1.336957
  12 C :   -0.508457
  13 C :   -0.868505
  14 C :   -0.595543
  15 N :   -0.694330
  16 H :    0.102024
  17 H :    0.544485
  18 H :    0.206350
  19 H :    0.600433
Sum of atomic charges:   -0.0000000

LOEWDIN ATOMIC CHARGES
----------------------
   0 C :    0.203824
   1 C :   -0.324945
   2 C :    0.217497
   3 C :    0.204471
   4 C :    0.203853
   5 C :    0.001440
   6 N :    0.362028
   7 H :   -0.164833
   8 H :   -0.154110
   9 H :   -0.165394
  10 H :   -0.180001
  11 C :   -0.325014
  12 C :    0.217611
  13 C :    0.204458
  14 C :    0.001472
  15 N :    0.362002
  16 H :   -0.164846
  17 H :   -0.154116
  18 H :   -0.165437
  19 H :   -0.179963

  Mayer bond orders larger than 0.100000
B(  0-C , 13-C ) :   1.2685 B(  0-C , 14-C ) :   0.8405 B(  0-C , 15-N ) :  -0.1353
B(  0-C , 18-H ) :   1.0591 B(  1-C ,  2-C ) :   0.6233 B(  1-C ,  3-C ) :  -0.1813
B(  1-C ,  6-N ) :   0.2310 B(  1-C ,  7-H ) :  -0.1344 B(  1-C , 11-C ) :   0.2381
B(  1-C , 15-N ) :   0.1749 B(  2-C ,  3-C ) :   1.3044 B(  2-C ,  5-C ) :  -0.1160
B(  2-C ,  7-H ) :   1.2995 B(  3-C ,  4-C ) :   1.2778 B(  3-C ,  5-C ) :   0.3374
B(  3-C ,  6-N ) :   0.1192 B(  3-C ,  7-H ) :  -0.1375 B(  3-C ,  8-H ) :   0.5675
B(  4-C ,  5-C ) :   0.8517 B(  4-C ,  6-N ) :  -0.1330 B(  4-C ,  9-H ) :   1.0340
B(  5-C ,  6-N ) :   1.5155 B(  5-C , 10-H ) :   0.4178 B(  6-N , 11-C ) :   0.1901
B( 11-C , 12-C ) :   0.6417 B( 11-C , 13-C ) :  -0.1657 B( 11-C , 15-N ) :   0.2486
B( 11-C , 16-H ) :  -0.1319 B( 12-C , 13-C ) :   1.3122 B( 12-C , 14-C ) :  -0.1105
B( 12-C , 16-H ) :   1.2968 B( 13-C , 14-C ) :   0.3386 B( 13-C , 15-N ) :   0.1199
B( 13-C , 16-H ) :  -0.1379 B( 13-C , 17-H ) :   0.5570 B( 14-C , 15-N ) :   1.5183
B( 14-C , 19-H ) :   0.4091 B( 15-N , 19-H ) :  -0.1002 B( 16-H , 18-H ) :   0.1043

Dispersion correction           -0.040416466
FINAL SINGLE POINT ENERGY      -495.302912043650

DIPOLE MOMENT
-------------

Method             : SCF
Type of density    : Electron Density
Multiplicity       :   1
Irrep              :   0
Energy             :  -495.2624955772818680 Eh
Relativity type    :
Basis              : AO
                                X                 Y                 Z
Electronic contribution:     -1.427057350      -0.364867102      -0.059524521
Nuclear contribution   :      3.378460210       0.864564887       0.140838942
                        -----------------------------------------
Total Dipole Moment    :      1.951402860       0.499697785       0.081314421
                        -----------------------------------------
Magnitude (a.u.)       :      2.016006705
Magnitude (Debye)      :      5.124281810

Rotational constants in cm-1:             0.098656             0.019232             0.016535
Rotational constants in MHz :          2957.622560           576.568291           495.704573

                             ****ORCA TERMINATED NORMALLY****
TOTAL RUN TIME: 0 days 0 hours 4 minutes 5 seconds 742 msec
