                         Program Version 6.0.0  -   RELEASE  -
|  1> !B3LYP freq aug-cc-pVTZ d3 TightSCF SlowConv RIJCOSX defgrid2
|  2>
|  3> %pal
|  4> nprocs 12
|  5>
|  6> end
|  7>
|  8> %scf
|  9> MaxIter 1500
| 10> end
| 11>
| 12> %maxcore 5000
| 13>
| 14> !CPCM
| 15> %cpcm smd true
| 16> SMDsolvent "MeCN"
| 17> surfacetype gepol_ses
| 18> rsolv 2.19
| 19> end
| 20>
| 21> * xyz 0 1
| 22> C          -0.22938216892095     -1.20479247925438      0.00396582287321
| 23> C           1.15879280619974     -1.19891994303023      0.00048961089201
| 24> C           1.86692543296502     -0.00003037472508     -0.00010863809047
| 25> C           1.15882121203458      1.19887643003151      0.00049015401401
| 26> C          -0.22935321270406      1.20478320627580      0.00396642138819
| 27> C          -0.94493516370774      0.00000401864968      0.00683465392409
| 28> N          -2.33384911007362      0.00002140996349      0.06967076453689
| 29> H          -2.78456328610784      0.83627561818059     -0.26956666435696
| 30> H          -2.78458344374657     -0.83622309855912     -0.26956350532588
| 31> H          -0.76963731943957      2.14318579133597      0.00409054358837
| 32> H           1.69050558637696      2.14155822553077     -0.00409737662978
| 33> H           2.94806537458929     -0.00004397000581     -0.00404379590803
| 34> H           1.69045199158693     -2.14161615950346     -0.00409990138170
| 35> H          -0.76968909905218     -2.14317967488972      0.00409561047603
| 36> *
| 37>
| 38>                          ****END OF INPUT****

CARTESIAN COORDINATES (ANGSTROEM)
---------------------------------
  C     -0.229382   -1.204792    0.003966
  C      1.158793   -1.198920    0.000490
  C      1.866925   -0.000030   -0.000109
  C      1.158821    1.198876    0.000490
  C     -0.229353    1.204783    0.003966
  C     -0.944935    0.000004    0.006835
  N     -2.333849    0.000021    0.069671
  H     -2.784563    0.836276   -0.269567
  H     -2.784583   -0.836223   -0.269564
  H     -0.769637    2.143186    0.004091
  H      1.690506    2.141558   -0.004097
  H      2.948065   -0.000044   -0.004044
  H      1.690452   -2.141616   -0.004100
  H     -0.769689   -2.143180    0.004096

 Total Charge           Charge          ....    0
 Multiplicity           Mult            ....    1
 Number of Electrons    NEL             ....   50
 Basis Dimension        Dim             ....  483

ORBITAL ENERGIES
----------------

  NO   OCC          E(Eh)            E(eV)
   0   2.0000     -14.314266      -389.5110
   1   2.0000     -10.212670      -277.9009
   2   2.0000     -10.170700      -276.7588
   3   2.0000     -10.170677      -276.7582
   4   2.0000     -10.164598      -276.5928
   5   2.0000     -10.164587      -276.5925
   6   2.0000     -10.160845      -276.4906
   7   2.0000      -0.915244       -24.9051
   8   2.0000      -0.835578       -22.7372
   9   2.0000      -0.742548       -20.2058
  10   2.0000      -0.722498       -19.6602
  11   2.0000      -0.608390       -16.5551
  12   2.0000      -0.594265       -16.1708
  13   2.0000      -0.520940       -14.1755
  14   2.0000      -0.500282       -13.6134
  15   2.0000      -0.472293       -12.8517
  16   2.0000      -0.427895       -11.6436
  17   2.0000      -0.423638       -11.5278
  18   2.0000      -0.413418       -11.2497
  19   2.0000      -0.386908       -10.5283
  20   2.0000      -0.354393        -9.6435
  21   2.0000      -0.336118        -9.1462
  22   2.0000      -0.314590        -8.5604
  23   2.0000      -0.254770        -6.9327
  24   2.0000      -0.208872        -5.6837
  25   0.0000      -0.011678        -0.3178
  26   0.0000      -0.003407        -0.0927
  27   0.0000       0.001881         0.0512
  28   0.0000       0.009439         0.2569
  29   0.0000       0.014486         0.3942

MULLIKEN ATOMIC CHARGES
-----------------------
   0 C :   -0.887546
   1 C :   -0.326257
   2 C :   -0.552725
   3 C :   -0.326442
   4 C :   -0.887076
   5 C :    1.286055
   6 N :   -0.598680
   7 H :    0.050211
   8 H :    0.050364
   9 H :    0.481873
  10 H :    0.366464
  11 H :    0.495158
  12 H :    0.366769
  13 H :    0.481830
Sum of atomic charges:    0.0000000

LOEWDIN ATOMIC CHARGES
----------------------
   0 C :    0.201969
   1 C :    0.166381
   2 C :    0.167210
   3 C :    0.166380
   4 C :    0.201969
   5 C :   -0.264520
   6 N :    0.854778
   7 H :   -0.293280
   8 H :   -0.293280
   9 H :   -0.176891
  10 H :   -0.181383
  11 H :   -0.191059
  12 H :   -0.181382
  13 H :   -0.176893

  Mayer bond orders larger than 0.100000
B(  0-C ,  1-C ) :   1.1886 B(  0-C ,  2-C ) :   0.2512 B(  0-C ,  4-C ) :   0.4568
B(  0-C ,  5-C ) :   0.7115 B(  0-C , 13-H ) :   0.4274 B(  1-C ,  2-C ) :   1.1460
B(  1-C ,  3-C ) :  -0.1051 B(  1-C ,  5-C ) :  -0.2505 B(  1-C , 12-H ) :   0.8262
B(  2-C ,  3-C ) :   1.1457 B(  2-C ,  4-C ) :   0.2510 B(  2-C , 11-H ) :   0.5741
B(  3-C ,  4-C ) :   1.1873 B(  3-C ,  5-C ) :  -0.2507 B(  3-C , 10-H ) :   0.8267
B(  4-C ,  5-C ) :   0.7129 B(  4-C ,  9-H ) :   0.4268 B(  5-C ,  6-N ) :   0.5094
B(  6-N ,  7-H ) :   1.0838 B(  6-N ,  8-H ) :   1.0836

Dispersion correction           -0.022870200
FINAL SINGLE POINT ENERGY      -287.569413514245

DIPOLE MOMENT
-------------

Method             : SCF
Type of density    : Electron Density
Multiplicity       :   1
Irrep              :   0
Energy             :  -287.5465433144328244 Eh
Relativity type    :
Basis              : AO
                                X                 Y                 Z
Electronic contribution:     -0.003771421      -0.000000425       0.048261366
Nuclear contribution   :     -0.738827725       0.000008526      -0.552707494
                        -----------------------------------------
Total Dipole Moment    :     -0.742599146       0.000008102      -0.504446128
                        -----------------------------------------
Magnitude (a.u.)       :      0.897730131
Magnitude (Debye)      :      2.281848651

VIBRATIONAL FREQUENCIES
-----------------------

Scaling factor for frequencies =  1.000000000  (already applied!)

     0:       0.00 cm**-1
     1:       0.00 cm**-1
     2:       0.00 cm**-1
     3:       0.00 cm**-1
     4:       0.00 cm**-1
     5:       0.00 cm**-1
     6:     216.84 cm**-1
     7:     283.30 cm**-1
     8:     379.13 cm**-1
     9:     419.67 cm**-1
    10:     490.79 cm**-1
    11:     532.56 cm**-1
    12:     558.08 cm**-1
    13:     628.45 cm**-1
    14:     704.32 cm**-1
    15:     767.01 cm**-1
    16:     830.41 cm**-1
    17:     836.77 cm**-1
    18:     896.94 cm**-1
    19:     984.55 cm**-1
    20:     999.75 cm**-1
    21:    1011.34 cm**-1
    22:    1038.66 cm**-1
    23:    1056.60 cm**-1
    24:    1127.22 cm**-1
    25:    1161.08 cm**-1
    26:    1184.45 cm**-1
    27:    1292.96 cm**-1
    28:    1343.48 cm**-1
    29:    1360.23 cm**-1
    30:    1494.29 cm**-1
    31:    1520.27 cm**-1
    32:    1618.56 cm**-1
    33:    1623.63 cm**-1
    34:    1636.14 cm**-1
    35:    3156.10 cm**-1
    36:    3158.50 cm**-1
    37:    3170.12 cm**-1
    38:    3174.73 cm**-1
    39:    3190.10 cm**-1
    40:    3542.08 cm**-1
    41:    3634.92 cm**-1

IR SPECTRUM
-----------

 Mode   freq       eps      Int      T**2         TX        TY        TZ
       cm**-1   L/(mol*cm) km/mol    a.u.
----------------------------------------------------------------------------
  6:    216.84   0.002659   13.44  0.003826  ( 0.036685  0.000001 -0.049802)
  7:    283.30   0.007783   39.33  0.008573  (-0.000005 -0.092588  0.000002)
  8:    379.13   0.000132    0.67  0.000109  ( 0.000010  0.010431 -0.000005)
  9:    419.67   0.000012    0.06  0.000009  (-0.000001  0.002976 -0.000002)
 10:    490.79   0.064784  327.39  0.041192  (-0.136319  0.000003  0.150365)
 11:    532.56   0.005872   29.67  0.003441  ( 0.056698 -0.000001 -0.015037)
 12:    558.08   0.053324  269.48  0.029818  ( 0.154963 -0.000004 -0.076185)
 13:    628.45   0.000198    1.00  0.000098  (-0.000014 -0.009909  0.000011)
 14:    704.32   0.012435   62.84  0.005510  (-0.008186  0.000000 -0.073775)
 15:    767.01   0.023935  120.96  0.009738  ( 0.018276 -0.000001 -0.096975)
 16:    830.41   0.002103   10.63  0.000790  (-0.025162  0.000002 -0.012535)
 17:    836.77   0.000012    0.06  0.000004  ( 0.000002 -0.002112  0.000006)
 18:    896.94   0.003474   17.56  0.001209  (-0.004639  0.000000  0.034456)
 19:    984.55   0.000000    0.00  0.000000  (-0.000001 -0.000317  0.000002)
 20:    999.75   0.000057    0.29  0.000018  ( 0.000951 -0.000001 -0.004113)
 21:   1011.34   0.001407    7.11  0.000434  ( 0.020238 -0.000001  0.004961)
 22:   1038.66   0.002643   13.36  0.000794  ( 0.028176  0.000006 -0.000383)
 23:   1056.60   0.001109    5.61  0.000328  ( 0.000002 -0.018102 -0.000001)
 24:   1127.22   0.002704   13.66  0.000748  (-0.000002 -0.027358 -0.000001)
 25:   1161.08   0.000942    4.76  0.000253  (-0.000012 -0.015909 -0.000000)
 26:   1184.45   0.004053   20.48  0.001068  (-0.032659  0.000007 -0.001147)
 27:   1292.96   0.032682  165.16  0.007888  (-0.088779  0.000001 -0.002519)
 28:   1343.48   0.003534   17.86  0.000821  (-0.000012  0.028652 -0.000001)
 29:   1360.23   0.000082    0.41  0.000019  (-0.000021  0.004324 -0.000000)
 30:   1494.29   0.000192    0.97  0.000040  ( 0.000028  0.006333 -0.000001)
 31:   1520.27   0.029157  147.35  0.005985  (-0.077358 -0.000010  0.000903)
 32:   1618.56   0.002826   14.28  0.000545  (-0.000032 -0.023341  0.000016)
 33:   1623.63   0.004598   23.24  0.000884  ( 0.021325  0.000025  0.020712)
 34:   1636.14   0.060416  305.32  0.011523  ( 0.107042 -0.000018  0.008079)
 35:   3156.10   0.004447   22.47  0.000440  ( 0.020968 -0.000030 -0.000228)
 36:   3158.50   0.000248    1.25  0.000024  ( 0.000097  0.004947 -0.000001)
 37:   3170.12   0.002255   11.39  0.000222  (-0.014898  0.000015  0.000052)
 38:   3174.73   0.010339   52.25  0.001016  ( 0.000018  0.031880 -0.000000)
 39:   3190.10   0.003666   18.53  0.000359  ( 0.018937 -0.000004  0.000099)
 40:   3542.08   0.012021   60.75  0.001059  (-0.031232  0.000001 -0.009145)
 41:   3634.92   0.009712   49.08  0.000834  ( 0.000001  0.028876  0.000000)

--------------------------
THERMOCHEMISTRY AT 298.15K
--------------------------

Temperature         ...   298.15 K
Pressure            ...     1.00 atm
Total Mass          ...    93.13 AMU
Quasi RRHO          ...     True
Cut-Off Frequency   ...     1.00 cm^-1

Throughout the following assumptions are being made:
  (1) The electronic state is orbitally nondegenerate
  (2) There are no thermally accessible electronically excited states
  (3) Hindered rotations indicated by low frequency modes are not
      treated as such but are treated as vibrations and this may
      cause some error
  (4) All equations used are the standard statistical mechanics
      equations for an ideal gas
  (5) All vibrations are strictly harmonic

freq.     216.84  E(vib)   ...       0.34
freq.     283.30  E(vib)   ...       0.28
freq.     379.13  E(vib)   ...       0.21
freq.     419.67  E(vib)   ...       0.18
freq.     490.79  E(vib)   ...       0.14
freq.     532.56  E(vib)   ...       0.13
freq.     558.08  E(vib)   ...       0.12
freq.     628.45  E(vib)   ...       0.09
freq.     704.32  E(vib)   ...       0.07
freq.     767.01  E(vib)   ...       0.06
freq.     830.41  E(vib)   ...       0.04
freq.     836.77  E(vib)   ...       0.04
freq.     896.94  E(vib)   ...       0.03
freq.     984.55  E(vib)   ...       0.02
freq.     999.75  E(vib)   ...       0.02
freq.    1011.34  E(vib)   ...       0.02
freq.    1038.66  E(vib)   ...       0.02
freq.    1056.60  E(vib)   ...       0.02
freq.    1127.22  E(vib)   ...       0.01
freq.    1161.08  E(vib)   ...       0.01
freq.    1184.45  E(vib)   ...       0.01
freq.    1292.96  E(vib)   ...       0.01
freq.    1343.48  E(vib)   ...       0.01
freq.    1360.23  E(vib)   ...       0.01
freq.    1494.29  E(vib)   ...       0.00
freq.    1520.27  E(vib)   ...       0.00
freq.    1618.56  E(vib)   ...       0.00
freq.    1623.63  E(vib)   ...       0.00
freq.    1636.14  E(vib)   ...       0.00
freq.    3156.10  E(vib)   ...       0.00
freq.    3158.50  E(vib)   ...       0.00
freq.    3170.12  E(vib)   ...       0.00
freq.    3174.73  E(vib)   ...       0.00
freq.    3190.10  E(vib)   ...       0.00
freq.    3542.08  E(vib)   ...       0.00
freq.    3634.92  E(vib)   ...       0.00

------------
INNER ENERGY
------------

The inner energy is: U= E(el) + E(ZPE) + E(vib) + E(rot) + E(trans)
    E(el)   - is the total energy from the electronic structure calculation
              = E(kin-el) + E(nuc-el) + E(el-el) + E(nuc-nuc)
    E(ZPE)  - the the zero temperature vibrational energy from the frequency calculation
    E(vib)  - the the finite temperature correction to E(ZPE) due to population
              of excited vibrational states
    E(rot)  - is the rotational thermal energy
    E(trans)- is the translational thermal energy

Summary of contributions to the inner energy U:
Electronic energy                ...   -287.56941351 Eh
Zero point energy                ...      0.11624123 Eh      72.94 kcal/mol
Thermal vibrational correction   ...      0.00303181 Eh       1.90 kcal/mol
Thermal rotational correction    ...      0.00141627 Eh       0.89 kcal/mol
Thermal translational correction ...      0.00141627 Eh       0.89 kcal/mol
-----------------------------------------------------------------------
Total thermal energy                   -287.44730794 Eh

Summary of corrections to the electronic energy:
(perhaps to be used in another calculation)
Total thermal correction                  0.00586435 Eh       3.68 kcal/mol
Non-thermal (ZPE) correction              0.11624123 Eh      72.94 kcal/mol
-----------------------------------------------------------------------
Total correction                          0.12210558 Eh      76.62 kcal/mol

--------
ENTHALPY
--------

The enthalpy is H = U + kB*T
                kB is Boltzmann's constant
Total thermal energy              ...   -287.44730794 Eh
Thermal Enthalpy correction       ...      0.00094421 Eh       0.59 kcal/mol
-----------------------------------------------------------------------
Total Enthalpy                    ...   -287.44636373 Eh

Note: Rotational entropy computed according to Herzberg
Infrared and Raman Spectra, Chapter V,1, Van Nostrand Reinhold, 1945
Point Group:  Cs, Symmetry Number:   1
Rotational constants in cm-1:     0.188312     0.086912     0.059553

Vibrational entropy computed according to the QRRHO of S. Grimme
Chem.Eur.J. 2012 18 9955 using a reference frequency of 100.0 cm-1

-------
ENTROPY
-------

The entropy contributions are T*S = T*(S(el)+S(vib)+S(rot)+S(trans))
     S(el)   - electronic entropy
     S(vib)  - vibrational entropy
     S(rot)  - rotational entropy
     S(trans)- translational entropy
The entropies will be listed as multiplied by the temperature to get
units of energy

Electronic entropy                ...      0.00000000 Eh      0.00 kcal/mol
Vibrational entropy               ...      0.00446086 Eh      2.80 kcal/mol
Rotational entropy                ...      0.01278400 Eh      8.02 kcal/mol
Translational entropy             ...      0.01877043 Eh     11.78 kcal/mol
-----------------------------------------------------------------------
Final entropy term                ...      0.03601529 Eh     22.60 kcal/mol

In case the symmetry of your molecule has not been determined correctly
or in case you have a reason to use a different symmetry number we print
out the resulting rotational entropy values for sn=1,12:

 non-linear molecules -----------------------------------
|  sn= 1 | S(rot)=       0.01278400 Eh      8.02 kcal/mol|
|  sn= 2 | S(rot)=       0.01212954 Eh      7.61 kcal/mol|
|  sn= 3 | S(rot)=       0.01174671 Eh      7.37 kcal/mol|
|  sn= 4 | S(rot)=       0.01147509 Eh      7.20 kcal/mol|
|  sn= 5 | S(rot)=       0.01126440 Eh      7.07 kcal/mol|
|  sn= 6 | S(rot)=       0.01109226 Eh      6.96 kcal/mol|
|  sn= 7 | S(rot)=       0.01094671 Eh      6.87 kcal/mol|
|  sn= 8 | S(rot)=       0.01082063 Eh      6.79 kcal/mol|
|  sn= 9 | S(rot)=       0.01070942 Eh      6.72 kcal/mol|
|  sn=10 | S(rot)=       0.01060994 Eh      6.66 kcal/mol|
|  sn=11 | S(rot)=       0.01051995 Eh      6.60 kcal/mol|
|  sn=12 | S(rot)=       0.01043780 Eh      6.55 kcal/mol|
 linear molecules ---------------------------------------
|  Dinfh | S(rot)=       0.00798923 Eh      5.01 kcal/mol|
|  Cinfv | S(rot)=       0.00864368 Eh      5.42 kcal/mol|
 --------------------------------------------------------

-------------------
GIBBS FREE ENERGY
-------------------

The Gibbs free energy is G = H - T*S

Total enthalpy                    ...   -287.44636373 Eh
Total entropy correction          ...     -0.03601529 Eh    -22.60 kcal/mol
-----------------------------------------------------------------------
Final Gibbs free energy         ...   -287.48237902 Eh

                             ****ORCA TERMINATED NORMALLY****
TOTAL RUN TIME: 0 days 0 hours 16 minutes 14 seconds 713 msec
