                         Program Version 6.0.0  -   RELEASE  -
|  1> !TPSSh aug-cc-pVTZ d3 TightSCF SlowConv RIJCOSX defgrid2
|  2>
|  3> %pal
|  4> nprocs 4
|  5> end
|  6>
|  7> %scf
|  8> MaxIter 1500
|  9> end
| 10>
| 11> %maxcore 3000
| 12>
| 13> !CPCM
| 14> %cpcm smd true
| 15> SMDsolvent "MeCN"
| 16> surfacetype gepol_ses
| 17> rsolv 2.19
| 18> end
| 19>
| 20> * xyz 1 2
| 21> C           0.39027202850425     -0.55394955520482     -0.01147318884514
| 22> C           1.46538411398227     -1.41201451226685      0.32843134291825
| 23> C           2.76223371510298     -0.95181499222389      0.33062494963678
| 24> C           3.04842985596685      0.39380533103560     -0.01062127484712
| 25> C           2.02568592855862      1.26931648709972     -0.30266231954854
| 26> C           0.67678776447609      0.85315037925119     -0.22862200210739
| 27> C          -0.33926818993375      1.86220315940674     -0.30117717382418
| 28> C          -1.56489251647505      1.82515242057598      0.30424492715440
| 29> C          -2.56690840928871      2.90896571125331      0.23231417274704
| 30> H          -3.53355272254525      2.51293544975722     -0.13479632863314
| 31> H          -2.77605157275142      3.30247609624592      1.24606137329070
| 32> H          -2.25129259404292      3.73887527736490     -0.41869887051134
| 33> H          -1.81399596674726      0.96710759352235      0.94261722102013
| 34> H          -0.04671759270647      2.79850717185556     -0.79419889631908
| 35> H           2.24475638702766      2.31715758324724     -0.52473414148750
| 36> H           4.08568441615477      0.73993162783082     -0.02214310519638
| 37> H           3.58311040506705     -1.63750220541102      0.55778721997041
| 38> H           1.27533483486936     -2.47214630677441      0.50835511028523
| 39> C          -0.92089212283098     -1.06759805095657     -0.27601443140599
| 40> C          -1.40401796068071     -2.28526831606367      0.13493631580958
| 41> C          -2.74957477405163     -2.79884516770918     -0.18467320513625
| 42> H          -3.33583401509727     -2.10778381332124     -0.80996844556913
| 43> H          -2.66557343194919     -3.77317132724075     -0.70581020687802
| 44> H          -3.31016753031929     -3.01606684555296      0.74550545986431
| 45> H          -0.77234901522658     -2.92837616395213      0.76142767228746
| 46> H          -1.58084503506342     -0.44553323176908     -0.89033947467507
| 47> *
| 48>
| 49>                          ****END OF INPUT****

CARTESIAN COORDINATES (ANGSTROEM)
---------------------------------
  C      0.390272   -0.553950   -0.011473
  C      1.465384   -1.412015    0.328431
  C      2.762234   -0.951815    0.330625
  C      3.048430    0.393805   -0.010621
  C      2.025686    1.269316   -0.302662
  C      0.676788    0.853150   -0.228622
  C     -0.339268    1.862203   -0.301177
  C     -1.564893    1.825152    0.304245
  C     -2.566908    2.908966    0.232314
  H     -3.533553    2.512935   -0.134796
  H     -2.776052    3.302476    1.246061
  H     -2.251293    3.738875   -0.418699
  H     -1.813996    0.967108    0.942617
  H     -0.046718    2.798507   -0.794199
  H      2.244756    2.317158   -0.524734
  H      4.085684    0.739932   -0.022143
  H      3.583110   -1.637502    0.557787
  H      1.275335   -2.472146    0.508355
  C     -0.920892   -1.067598   -0.276014
  C     -1.404018   -2.285268    0.134936
  C     -2.749575   -2.798845   -0.184673
  H     -3.335834   -2.107784   -0.809968
  H     -2.665573   -3.773171   -0.705810
  H     -3.310168   -3.016067    0.745505
  H     -0.772349   -2.928376    0.761428
  H     -1.580845   -0.445533   -0.890339

 Total Charge           Charge          ....    1
 Multiplicity           Mult            ....    2
 Number of Electrons    NEL             ....   85
 Basis Dimension        Dim             ....  874

ORBITAL ENERGIES
----------------
                 SPIN UP ORBITALS
  NO   OCC          E(Eh)            E(eV)
   0   1.0000     -10.177807      -276.9522
   1   1.0000     -10.175587      -276.8918
   2   1.0000     -10.171459      -276.7795
   3   1.0000     -10.165273      -276.6111
   4   1.0000     -10.156498      -276.3724
   5   1.0000     -10.150762      -276.2163
   6   1.0000     -10.150130      -276.1991
   7   1.0000     -10.148519      -276.1552
   8   1.0000     -10.145060      -276.0611
   9   1.0000     -10.142677      -275.9963
  10   1.0000     -10.125312      -275.5238
  11   1.0000     -10.123196      -275.4662
  12   1.0000      -0.881136       -23.9769
  13   1.0000      -0.817872       -22.2554
  14   1.0000      -0.814355       -22.1597
  15   1.0000      -0.762074       -20.7371
  16   1.0000      -0.760893       -20.7049
  17   1.0000      -0.698826       -19.0160
  18   1.0000      -0.677260       -18.4292
  19   1.0000      -0.625202       -17.0126
  20   1.0000      -0.607917       -16.5423
  21   1.0000      -0.562583       -15.3087
  22   1.0000      -0.558536       -15.1985
  23   1.0000      -0.516941       -14.0667
  24   1.0000      -0.485606       -13.2140
  25   1.0000      -0.475485       -12.9386
  26   1.0000      -0.450845       -12.2681
  27   1.0000      -0.437176       -11.8962
  28   1.0000      -0.436083       -11.8664
  29   1.0000      -0.415455       -11.3051
  30   1.0000      -0.411865       -11.2074
  31   1.0000      -0.410610       -11.1733
  32   1.0000      -0.394259       -10.7283
  33   1.0000      -0.390971       -10.6389
  34   1.0000      -0.382789       -10.4162
  35   1.0000      -0.366262        -9.9665
  36   1.0000      -0.360834        -9.8188
  37   1.0000      -0.353284        -9.6133
  38   1.0000      -0.344784        -9.3820
  39   1.0000      -0.315728        -8.5914
  40   1.0000      -0.311730        -8.4826
  41   1.0000      -0.256982        -6.9928
  42   1.0000      -0.237445        -6.4612
  43   0.0000      -0.100694        -2.7400
  44   0.0000      -0.067933        -1.8486
  45   0.0000      -0.018377        -0.5001
  46   0.0000      -0.005647        -0.1537
  47   0.0000       0.000739         0.0201

                 SPIN DOWN ORBITALS
  NO   OCC          E(Eh)            E(eV)
   0   1.0000     -10.175205      -276.8814
   1   1.0000     -10.173248      -276.8282
   2   1.0000     -10.166192      -276.6361
   3   1.0000     -10.161532      -276.5093
   4   1.0000     -10.156432      -276.3706
   5   1.0000     -10.150589      -276.2116
   6   1.0000     -10.148680      -276.1596
   7   1.0000     -10.147477      -276.1269
   8   1.0000     -10.145495      -276.0730
   9   1.0000     -10.143351      -276.0146
  10   1.0000     -10.125536      -275.5298
  11   1.0000     -10.123363      -275.4707
  12   1.0000      -0.876288       -23.8450
  13   1.0000      -0.811350       -22.0779
  14   1.0000      -0.808935       -22.0123
  15   1.0000      -0.758416       -20.6376
  16   1.0000      -0.755797       -20.5663
  17   1.0000      -0.697939       -18.9919
  18   1.0000      -0.673691       -18.3321
  19   1.0000      -0.621204       -16.9038
  20   1.0000      -0.604194       -16.4409
  21   1.0000      -0.558380       -15.1943
  22   1.0000      -0.555643       -15.1198
  23   1.0000      -0.515209       -14.0195
  24   1.0000      -0.483934       -13.1685
  25   1.0000      -0.473720       -12.8906
  26   1.0000      -0.448696       -12.2096
  27   1.0000      -0.435912       -11.8618
  28   1.0000      -0.432144       -11.7592
  29   1.0000      -0.410700       -11.1757
  30   1.0000      -0.404917       -11.0183
  31   1.0000      -0.404086       -10.9957
  32   1.0000      -0.392203       -10.6724
  33   1.0000      -0.382490       -10.4081
  34   1.0000      -0.380111       -10.3433
  35   1.0000      -0.365090        -9.9346
  36   1.0000      -0.359881        -9.7929
  37   1.0000      -0.351889        -9.5754
  38   1.0000      -0.342949        -9.3321
  39   1.0000      -0.305349        -8.3090
  40   1.0000      -0.298764        -8.1298
  41   1.0000      -0.246305        -6.7023
  42   0.0000      -0.192037        -5.2256
  43   0.0000      -0.078893        -2.1468
  44   0.0000      -0.059303        -1.6137
  45   0.0000      -0.008734        -0.2377
  46   0.0000      -0.002039        -0.0555

MULLIKEN ATOMIC CHARGES AND SPIN POPULATIONS
--------------------------------------------
   0 C :    1.136147    0.200251
   1 C :   -0.743030   -0.079629
   2 C :   -0.410397    0.081883
   3 C :   -0.171845    0.097850
   4 C :   -0.678004   -0.068056
   5 C :    0.923104    0.139142
   6 C :   -0.060238    0.004413
   7 C :   -0.214741    0.257434
   8 C :   -0.336989   -0.035763
   9 H :    0.137206    0.018239
  10 H :    0.132907    0.017587
  11 H :    0.132421   -0.002736
  12 H :    0.251508   -0.000962
  13 H :    0.080460    0.004007
  14 H :    0.000640    0.004529
  15 H :    0.462246    0.002272
  16 H :    0.382899    0.002729
  17 H :    0.018990   -0.000101
  18 C :   -0.004553    0.005010
  19 C :   -0.480762    0.362717
  20 C :   -0.309072   -0.056357
  21 H :    0.134935   -0.004664
  22 H :    0.144623    0.027949
  23 H :    0.146495    0.022969
  24 H :    0.126389   -0.002319
  25 H :    0.198660    0.001604
Sum of atomic charges         :    1.0000000

LOEWDIN ATOMIC CHARGES AND SPIN POPULATIONS
-------------------------------------------
   0 C :   -0.062531    0.101884
   1 C :    0.250904    0.017979
   2 C :    0.251946    0.047891
   3 C :    0.250696    0.056157
   4 C :    0.248240    0.013796
   5 C :   -0.072138    0.095943
   6 C :    0.261091    0.065987
   7 C :    0.261214    0.125695
   8 C :    0.598940    0.038811
   9 H :   -0.146179    0.009011
  10 H :   -0.145129    0.009161
  11 H :   -0.158107    0.000888
  12 H :   -0.155247    0.019412
  13 H :   -0.151320    0.005951
  14 H :   -0.150152   -0.004176
  15 H :   -0.148514    0.011255
  16 H :   -0.149293    0.008395
  17 H :   -0.166990   -0.003168
  18 C :    0.252950    0.081669
  19 C :    0.290513    0.178629
  20 C :    0.603662    0.055475
  21 H :   -0.156212    0.001119
  22 H :   -0.142805    0.013905
  23 H :   -0.143331    0.011830
  24 H :   -0.149628    0.030544
  25 H :   -0.172580    0.005956

  Mayer bond orders larger than 0.100000
B(  0-C ,  1-C ) :   0.7633 B(  0-C ,  3-C ) :  -0.1871 B(  0-C ,  5-C ) :   0.8104
B(  0-C , 18-C ) :   0.4535 B(  0-C , 19-C ) :  -0.1046 B(  1-C ,  2-C ) :   1.4713
B(  1-C ,  5-C ) :  -0.1561 B(  1-C , 17-H ) :   1.1142 B(  1-C , 18-C ) :   0.1191
B(  2-C ,  3-C ) :   1.2521 B(  2-C , 16-H ) :   0.6177 B(  3-C ,  4-C ) :   1.2860
B(  3-C , 15-H ) :   0.5531 B(  4-C ,  5-C ) :   0.7381 B(  4-C ,  6-C ) :  -0.2026
B(  4-C , 14-H ) :   1.0852 B(  4-C , 18-C ) :   0.1172 B(  5-C ,  6-C ) :   0.6425
B(  5-C , 14-H ) :   0.1756 B(  5-C , 18-C ) :  -0.2102 B(  6-C ,  7-C ) :   1.1378
B(  6-C , 13-H ) :   0.9592 B(  6-C , 18-C ) :   0.1042 B(  7-C ,  8-C ) :   1.1487
B(  7-C , 11-H ) :   0.1003 B(  7-C , 12-H ) :   0.9909 B(  7-C , 18-C ) :   0.1251
B(  8-C ,  9-H ) :   0.9498 B(  8-C , 10-H ) :   0.9409 B(  8-C , 11-H ) :   0.9462
B( 18-C , 19-C ) :   1.1976 B( 18-C , 24-H ) :   0.1324 B( 18-C , 25-H ) :   0.9976
B( 19-C , 20-C ) :   1.1438 B( 19-C , 24-H ) :   0.9779 B( 20-C , 21-H ) :   0.9576
B( 20-C , 22-H ) :   0.9413 B( 20-C , 23-H ) :   0.9330

Dispersion correction           -0.032843296
FINAL SINGLE POINT ENERGY      -465.721155897198

DIPOLE MOMENT
-------------

Method             : SCF
Type of density    : Electron Density
Multiplicity       :   2
Irrep              :   0
Energy             :  -465.6883126012742764 Eh
Relativity type    :
Basis              : AO
                                X                 Y                 Z
Electronic contribution:      9.422399703      -0.269144739      -0.225391259
Nuclear contribution   :    -10.132740029      -0.046037469       0.378723665
                        -----------------------------------------
Total Dipole Moment    :     -0.710340326      -0.315182208       0.153332406
                        -----------------------------------------
Magnitude (a.u.)       :      0.792107334
Magnitude (Debye)      :      2.013376838

Rotational constants in cm-1:             0.031811             0.026577             0.014887
Rotational constants in MHz :           953.672417           796.765756           446.304428

                             ****ORCA TERMINATED NORMALLY****
TOTAL RUN TIME: 0 days 0 hours 14 minutes 41 seconds 320 msec
