                         Program Version 6.0.0  -   RELEASE  -
|  1> !PBE0 aug-cc-pVTZ d3 TightSCF SlowConv RIJCOSX defgrid2
|  2>
|  3> %pal
|  4> nprocs 4
|  5> end
|  6>
|  7> %scf
|  8> MaxIter 1500
|  9> end
| 10>
| 11> %maxcore 3000
| 12>
| 13> !CPCM
| 14> %cpcm smd true
| 15> SMDsolvent "MeCN"
| 16> surfacetype gepol_ses
| 17> rsolv 2.19
| 18> end
| 19>
| 20> * xyz 0 1
| 21> C           1.36094883267894     -0.66831836744035      0.79166505304401
| 22> C           2.61668489634387     -1.26993624441883      0.83762450630671
| 23> C           3.69751463551123     -0.71498852855237      0.15220113395429
| 24> C           3.51411500210824      0.45521897470958     -0.58452696169930
| 25> C           2.26200602044100      1.06208181225052     -0.64510108123094
| 26> C           1.18681200151517      0.49836983896063      0.04263488062587
| 27> O          -0.00001482572359      1.16979071588351      0.00005454238981
| 28> C          -1.18682038085230      0.49834069380338     -0.04260530375666
| 29> C          -2.26210069770780      1.06211241497205      0.64495038697290
| 30> C          -3.51419441314783      0.45522857582203      0.58430306316011
| 31> C          -3.69749941395526     -0.71506183581738     -0.15231803955518
| 32> C          -2.61658550079969     -1.27006941979564     -0.83755825340367
| 33> C          -1.36085917884001     -0.66843361449673     -0.79152524362506
| 34> H          -0.51558365320611     -1.09715909206061     -1.33585483016717
| 35> H          -2.75062021450227     -2.18281812892327     -1.42596293506599
| 36> H          -4.68044516686291     -1.19217947086648     -0.19470697547587
| 37> H          -4.35472302990288      0.90118829684160      1.12448028512422
| 38> H          -2.09557313650778      1.97752399950586      1.21789909020225
| 39> H           2.09540249638844      1.97742680661202     -1.21813253528145
| 40> H           4.35457955862348      0.90113009122578     -1.12484535245104
| 41> H           4.68047118965145     -1.19208889118135      0.19453111833043
| 42> H           2.75079772312689     -2.18261728806241      1.42611640363857
| 43> H           0.51573555561975     -1.09698553897151      1.33613674796315
| 44> *
| 45>
| 46>                          ****END OF INPUT****

CARTESIAN COORDINATES (ANGSTROEM)
---------------------------------
  C      1.360949   -0.668318    0.791665
  C      2.616685   -1.269936    0.837625
  C      3.697515   -0.714989    0.152201
  C      3.514115    0.455219   -0.584527
  C      2.262006    1.062082   -0.645101
  C      1.186812    0.498370    0.042635
  O     -0.000015    1.169791    0.000055
  C     -1.186820    0.498341   -0.042605
  C     -2.262101    1.062112    0.644950
  C     -3.514194    0.455229    0.584303
  C     -3.697499   -0.715062   -0.152318
  C     -2.616586   -1.270069   -0.837558
  C     -1.360859   -0.668434   -0.791525
  H     -0.515584   -1.097159   -1.335855
  H     -2.750620   -2.182818   -1.425963
  H     -4.680445   -1.192179   -0.194707
  H     -4.354723    0.901188    1.124480
  H     -2.095573    1.977524    1.217899
  H      2.095402    1.977427   -1.218133
  H      4.354580    0.901130   -1.124845
  H      4.680471   -1.192089    0.194531
  H      2.750798   -2.182617    1.426116
  H      0.515736   -1.096986    1.336137

 Total Charge           Charge          ....    0
 Multiplicity           Mult            ....    1
 Number of Electrons    NEL             ....   90
 Basis Dimension        Dim             ....  828

ORBITAL ENERGIES
----------------

  NO   OCC          E(Eh)            E(eV)
   0   2.0000     -19.259512      -524.0780
   1   2.0000     -10.296904      -280.1930
   2   2.0000     -10.296883      -280.1924
   3   2.0000     -10.235681      -278.5270
   4   2.0000     -10.235665      -278.5266
   5   2.0000     -10.235445      -278.5206
   6   2.0000     -10.235427      -278.5201
   7   2.0000     -10.233504      -278.4678
   8   2.0000     -10.233487      -278.4673
   9   2.0000     -10.231991      -278.4266
  10   2.0000     -10.231974      -278.4262
  11   2.0000     -10.228835      -278.3407
  12   2.0000     -10.228820      -278.3403
  13   2.0000      -1.126234       -30.6464
  14   2.0000      -0.893560       -24.3150
  15   2.0000      -0.878319       -23.9003
  16   2.0000      -0.794642       -21.6233
  17   2.0000      -0.777297       -21.1513
  18   2.0000      -0.773105       -21.0372
  19   2.0000      -0.749660       -20.3993
  20   2.0000      -0.662213       -18.0197
  21   2.0000      -0.639960       -17.4142
  22   2.0000      -0.627288       -17.0694
  23   2.0000      -0.599334       -16.3087
  24   2.0000      -0.566537       -15.4163
  25   2.0000      -0.525472       -14.2988
  26   2.0000      -0.502436       -13.6720
  27   2.0000      -0.498349       -13.5608
  28   2.0000      -0.490595       -13.3498
  29   2.0000      -0.457336       -12.4447
  30   2.0000      -0.453604       -12.3432
  31   2.0000      -0.437073       -11.8934
  32   2.0000      -0.436353       -11.8738
  33   2.0000      -0.423888       -11.5346
  34   2.0000      -0.418674       -11.3927
  35   2.0000      -0.386368       -10.5136
  36   2.0000      -0.378397       -10.2967
  37   2.0000      -0.372174       -10.1274
  38   2.0000      -0.370247       -10.0749
  39   2.0000      -0.349900        -9.5213
  40   2.0000      -0.345000        -9.3879
  41   2.0000      -0.277776        -7.5587
  42   2.0000      -0.271271        -7.3817
  43   2.0000      -0.269425        -7.3314
  44   2.0000      -0.236936        -6.4473
  45   0.0000      -0.023249        -0.6326
  46   0.0000      -0.016450        -0.4476
  47   0.0000      -0.007131        -0.1941
  48   0.0000       0.001160         0.0316
  49   0.0000       0.003162         0.0860

MULLIKEN ATOMIC CHARGES
-----------------------
   0 C :   -0.556725
   1 C :   -0.678106
   2 C :   -0.634963
   3 C :   -0.490196
   4 C :   -1.247641
   5 C :    1.243210
   6 O :   -0.784431
   7 C :    1.238097
   8 C :   -1.243243
   9 C :   -0.499633
  10 C :   -0.640954
  11 C :   -0.677883
  12 C :   -0.556701
  13 H :    0.621122
  14 H :    0.515061
  15 H :    0.553540
  16 H :    0.528948
  17 H :    0.551683
  18 H :    0.556564
  19 H :    0.513368
  20 H :    0.554433
  21 H :    0.511309
  22 H :    0.623143
Sum of atomic charges:   -0.0000000

LOEWDIN ATOMIC CHARGES
----------------------
   0 C :    0.194377
   1 C :    0.181630
   2 C :    0.176414
   3 C :    0.175134
   4 C :    0.199247
   5 C :   -0.407773
   6 O :    0.623781
   7 C :   -0.407831
   8 C :    0.199208
   9 C :    0.175128
  10 C :    0.176426
  11 C :    0.181639
  12 C :    0.194359
  13 H :   -0.162090
  14 H :   -0.165129
  15 H :   -0.172130
  16 H :   -0.166442
  17 H :   -0.165054
  18 H :   -0.165057
  19 H :   -0.166461
  20 H :   -0.172143
  21 H :   -0.165142
  22 H :   -0.162090

  Mayer bond orders larger than 0.100000
B(  0-C ,  1-C ) :   1.2835 B(  0-C ,  4-C ) :   0.3119 B(  0-C ,  5-C ) :   1.0067
B(  0-C ,  7-C ) :  -0.1023 B(  0-C , 12-C ) :   0.2809 B(  0-C , 22-H ) :   0.3250
B(  1-C ,  2-C ) :   1.3748 B(  1-C ,  4-C ) :  -0.1172 B(  1-C ,  5-C ) :  -0.2914
B(  1-C , 21-H ) :   0.6159 B(  2-C ,  3-C ) :   1.4086 B(  2-C ,  4-C ) :   0.3791
B(  2-C , 20-H ) :   0.4884 B(  3-C ,  4-C ) :   1.4233 B(  3-C ,  5-C ) :  -0.3509
B(  3-C , 19-H ) :   0.5983 B(  4-C ,  5-C ) :   0.4039 B(  4-C ,  6-O ) :   0.2153
B(  4-C , 18-H ) :   0.2464 B(  5-C ,  6-O ) :   0.5658 B(  6-O ,  7-C ) :   0.5613
B(  6-O ,  8-C ) :   0.2164 B(  7-C ,  8-C ) :   0.4038 B(  7-C ,  9-C ) :  -0.3506
B(  7-C , 11-C ) :  -0.2881 B(  7-C , 12-C ) :   1.0056 B(  8-C ,  9-C ) :   1.4192
B(  8-C , 10-C ) :   0.3765 B(  8-C , 11-C ) :  -0.1211 B(  8-C , 12-C ) :   0.3080
B(  8-C , 17-H ) :   0.2528 B(  9-C , 10-C ) :   1.4123 B(  9-C , 16-H ) :   0.5767
B( 10-C , 11-C ) :   1.3764 B( 10-C , 15-H ) :   0.4902 B( 11-C , 12-C ) :   1.2842
B( 11-C , 14-H ) :   0.6073 B( 12-C , 13-H ) :   0.3281

Dispersion correction           -0.023570901
FINAL SINGLE POINT ENERGY      -538.099507592574

DIPOLE MOMENT
-------------

Method             : SCF
Type of density    : Electron Density
Multiplicity       :   1
Irrep              :   0
Energy             :  -538.0759366913846407 Eh
Relativity type    :
Basis              : AO
                                X                 Y                 Z
Electronic contribution:     -0.000250529       2.473667704      -0.000179591
Nuclear contribution   :      0.000034886      -2.982425974      -0.000176877
                        -----------------------------------------
Total Dipole Moment    :     -0.000215642      -0.508758270      -0.000356467
                        -----------------------------------------
Magnitude (a.u.)       :      0.508758441
Magnitude (Debye)      :      1.293161187

Rotational constants in cm-1:             0.080234             0.014509             0.013552
Rotational constants in MHz :          2405.352266           434.979833           406.266844

                             ****ORCA TERMINATED NORMALLY****
TOTAL RUN TIME: 0 days 0 hours 9 minutes 53 seconds 644 msec
