                         Program Version 6.0.0  -   RELEASE  -
|  1> !B3LYP aug-cc-pVTZ d3 TightSCF SlowConv RIJCOSX defgrid2
|  2>
|  3> %pal
|  4> nprocs 4
|  5> end
|  6>
|  7> %scf
|  8> MaxIter 1500
|  9> end
| 10>
| 11> %maxcore 3000
| 12>
| 13> !CPCM
| 14> %cpcm smd true
| 15> SMDsolvent "MeCN"
| 16> surfacetype gepol_ses
| 17> rsolv 2.19
| 18> end
| 19>
| 20> * xyz 1 2
| 21> C           2.44830417164420     -0.69527642473796      0.00000945881878
| 22> C           2.44832214826430      0.69521603339414      0.00001009734484
| 23> C           1.23352505326865      1.40025135317577      0.00000577718412
| 24> C           0.00001141556131      0.71453178803145      0.00000268426234
| 25> C          -1.23348320904465      1.40028329659239      0.00000107782236
| 26> C          -2.44830108548662      0.69527938835391      0.00000695148737
| 27> C          -2.44832067103510     -0.69521530453956      0.00000530486429
| 28> C          -1.23352061718470     -1.40025032772324     -0.00000393184308
| 29> C          -0.00000717114678     -0.71452684352053     -0.00000494703196
| 30> C           1.23348727294566     -1.40028215170085     -0.00000132918117
| 31> H           1.23935708532449     -2.49454817867840      0.00000050523970
| 32> H          -1.23942268133971     -2.49451730914708     -0.00000545360366
| 33> H          -3.39340211959580     -1.24489598698530      0.00000832828244
| 34> H          -3.39336678788360      1.24498332942293      0.00000859404642
| 35> H          -1.23935478912557      2.49455128204595      0.00000167009943
| 36> H           1.23942795953164      2.49451607920762      0.00000299068588
| 37> H           3.39340268697296      1.24489500413589      0.00001313139295
| 38> H           3.39337233832933     -1.24497302732713      0.00001569012894
| 39> *
| 40>
| 41>                          ****END OF INPUT****

CARTESIAN COORDINATES (ANGSTROEM)
---------------------------------
  C      2.448304   -0.695276    0.000009
  C      2.448322    0.695216    0.000010
  C      1.233525    1.400251    0.000006
  C      0.000011    0.714532    0.000003
  C     -1.233483    1.400283    0.000001
  C     -2.448301    0.695279    0.000007
  C     -2.448321   -0.695215    0.000005
  C     -1.233521   -1.400250   -0.000004
  C     -0.000007   -0.714527   -0.000005
  C      1.233487   -1.400282   -0.000001
  H      1.239357   -2.494548    0.000001
  H     -1.239423   -2.494517   -0.000005
  H     -3.393402   -1.244896    0.000008
  H     -3.393367    1.244983    0.000009
  H     -1.239355    2.494551    0.000002
  H      1.239428    2.494516    0.000003
  H      3.393403    1.244895    0.000013
  H      3.393372   -1.244973    0.000016

 Total Charge           Charge          ....    1
 Multiplicity           Mult            ....    2
 Number of Electrons    NEL             ....   67
 Basis Dimension        Dim             ....  644

ORBITAL ENERGIES
----------------
                 SPIN UP ORBITALS
  NO   OCC          E(Eh)            E(eV)
   0   1.0000     -10.233601      -278.4704
   1   1.0000     -10.233578      -278.4698
   2   1.0000     -10.233553      -278.4691
   3   1.0000     -10.233542      -278.4688
   4   1.0000     -10.221452      -278.1399
   5   1.0000     -10.220984      -278.1271
   6   1.0000     -10.218520      -278.0601
   7   1.0000     -10.218519      -278.0600
   8   1.0000     -10.217905      -278.0433
   9   1.0000     -10.217888      -278.0429
  10   1.0000      -0.916853       -24.9489
  11   1.0000      -0.862399       -23.4671
  12   1.0000      -0.815876       -22.2011
  13   1.0000      -0.780476       -21.2378
  14   1.0000      -0.757140       -20.6028
  15   1.0000      -0.666282       -18.1305
  16   1.0000      -0.645888       -17.5755
  17   1.0000      -0.631460       -17.1829
  18   1.0000      -0.546247       -14.8642
  19   1.0000      -0.541248       -14.7281
  20   1.0000      -0.528132       -14.3712
  21   1.0000      -0.477784       -13.0012
  22   1.0000      -0.476425       -12.9642
  23   1.0000      -0.454959       -12.3801
  24   1.0000      -0.449479       -12.2309
  25   1.0000      -0.435544       -11.8518
  26   1.0000      -0.425273       -11.5723
  27   1.0000      -0.404558       -11.0086
  28   1.0000      -0.372398       -10.1335
  29   1.0000      -0.372240       -10.1292
  30   1.0000      -0.365857        -9.9555
  31   1.0000      -0.334911        -9.1134
  32   1.0000      -0.286040        -7.7835
  33   1.0000      -0.265110        -7.2140
  34   0.0000      -0.098440        -2.6787
  35   0.0000      -0.049639        -1.3507
  36   0.0000      -0.027339        -0.7439
  37   0.0000      -0.006702        -0.1824
  38   0.0000       0.004806         0.1308

                 SPIN DOWN ORBITALS
  NO   OCC          E(Eh)            E(eV)
   0   1.0000     -10.229998      -278.3724
   1   1.0000     -10.229963      -278.3715
   2   1.0000     -10.229956      -278.3712
   3   1.0000     -10.229934      -278.3706
   4   1.0000     -10.222393      -278.1654
   5   1.0000     -10.221926      -278.1528
   6   1.0000     -10.217898      -278.0431
   7   1.0000     -10.217897      -278.0431
   8   1.0000     -10.217272      -278.0261
   9   1.0000     -10.217256      -278.0257
  10   1.0000      -0.912555       -24.8319
  11   1.0000      -0.856114       -23.2961
  12   1.0000      -0.807793       -21.9812
  13   1.0000      -0.779633       -21.2149
  14   1.0000      -0.745563       -20.2878
  15   1.0000      -0.661833       -18.0094
  16   1.0000      -0.642395       -17.4804
  17   1.0000      -0.627339       -17.0708
  18   1.0000      -0.543635       -14.7931
  19   1.0000      -0.537352       -14.6221
  20   1.0000      -0.526046       -14.3144
  21   1.0000      -0.475829       -12.9480
  22   1.0000      -0.475506       -12.9392
  23   1.0000      -0.452633       -12.3168
  24   1.0000      -0.446675       -12.1546
  25   1.0000      -0.423218       -11.5164
  26   1.0000      -0.422734       -11.5032
  27   1.0000      -0.403463       -10.9788
  28   1.0000      -0.369868       -10.0646
  29   1.0000      -0.365024        -9.9328
  30   1.0000      -0.353781        -9.6269
  31   1.0000      -0.308038        -8.3821
  32   1.0000      -0.284900        -7.7525
  33   0.0000      -0.197793        -5.3822
  34   0.0000      -0.074264        -2.0208
  35   0.0000      -0.041620        -1.1325
  36   0.0000      -0.012813        -0.3487
  37   0.0000      -0.006448        -0.1755

MULLIKEN ATOMIC CHARGES AND SPIN POPULATIONS
--------------------------------------------
   0 C :   -0.336465    0.037489
   1 C :   -0.335584    0.037498
   2 C :   -1.031925    0.251750
   3 C :    1.721728   -0.064638
   4 C :   -1.027041    0.251738
   5 C :   -0.336799    0.037497
   6 C :   -0.330860    0.037495
   7 C :   -1.031924    0.251692
   8 C :    1.719138   -0.064678
   9 C :   -1.033886    0.251703
  10 H :    0.117096   -0.006253
  11 H :    0.115493   -0.006363
  12 H :    0.646704   -0.000551
  13 H :    0.626047   -0.000618
  14 H :    0.120187   -0.006334
  15 H :    0.115223   -0.006312
  16 H :    0.639648   -0.000577
  17 H :    0.643221   -0.000538
Sum of atomic charges         :    1.0000000

LOEWDIN ATOMIC CHARGES AND SPIN POPULATIONS
-------------------------------------------
   0 C :    0.272132    0.073198
   1 C :    0.272133    0.073197
   2 C :    0.295123    0.129729
   3 C :   -0.092232    0.030877
   4 C :    0.295125    0.129730
   5 C :    0.272133    0.073198
   6 C :    0.272135    0.073197
   7 C :    0.295129    0.129728
   8 C :   -0.092227    0.030876
   9 C :    0.295127    0.129728
  10 H :   -0.128864    0.024593
  11 H :   -0.128863    0.024593
  12 H :   -0.142280    0.007043
  13 H :   -0.142285    0.007043
  14 H :   -0.128859    0.024593
  15 H :   -0.128865    0.024593
  16 H :   -0.142281    0.007043
  17 H :   -0.142282    0.007043

  Mayer bond orders larger than 0.100000
B(  0-C ,  1-C ) :   1.2109 B(  0-C ,  3-C ) :  -0.2550 B(  0-C ,  9-C ) :   1.0824
B(  0-C , 17-H ) :   0.3303 B(  1-C ,  2-C ) :   1.0774 B(  1-C ,  8-C ) :  -0.2588
B(  1-C , 16-H ) :   0.3339 B(  2-C ,  4-C ) :   0.5396 B(  2-C ,  8-C ) :  -0.3012
B(  2-C , 15-H ) :   1.2963 B(  2-C , 16-H ) :  -0.1898 B(  3-C ,  6-C ) :  -0.2569
B(  3-C ,  7-C ) :  -0.3021 B(  3-C ,  8-C ) :   1.2971 B(  3-C ,  9-C ) :  -0.3001
B(  4-C ,  5-C ) :   1.0701 B(  4-C ,  8-C ) :  -0.3040 B(  4-C , 13-H ) :  -0.1882
B(  4-C , 14-H ) :   1.2897 B(  5-C ,  6-C ) :   1.2031 B(  5-C ,  8-C ) :  -0.2525
B(  5-C , 13-H ) :   0.3563 B(  6-C ,  7-C ) :   1.0789 B(  6-C , 12-H ) :   0.3272
B(  7-C ,  9-C ) :   0.5316 B(  7-C , 11-H ) :   1.3000 B(  7-C , 12-H ) :  -0.1928
B(  9-C , 10-H ) :   1.2940 B(  9-C , 17-H ) :  -0.1903

Dispersion correction           -0.036442072
FINAL SINGLE POINT ENERGY      -385.616236535385

DIPOLE MOMENT
-------------

Method             : SCF
Type of density    : Electron Density
Multiplicity       :   2
Irrep              :   0
Energy             :  -385.5797944629886729 Eh
Relativity type    :
Basis              : AO
                                X                 Y                 Z
Electronic contribution:     -0.000003997      -0.000012824      -0.000015515
Nuclear contribution   :     -0.000000135       0.000002239       0.000018059
                        -----------------------------------------
Total Dipole Moment    :     -0.000004133      -0.000010585       0.000002544
                        -----------------------------------------
Magnitude (a.u.)       :      0.000011644
Magnitude (Debye)      :      0.000029597

Rotational constants in cm-1:             0.104687             0.040748             0.029331
Rotational constants in MHz :          3138.446851          1221.580167           879.321255

                             ****ORCA TERMINATED NORMALLY****
TOTAL RUN TIME: 0 days 0 hours 6 minutes 36 seconds 698 msec
