                         Program Version 6.0.0  -   RELEASE  -
|  1> !PBE0 opt aug-cc-pVTZ d3 TightSCF SlowConv RIJCOSX defgrid2
|  2>
|  3> %pal
|  4> nprocs 8
|  5> end
|  6>
|  7> %scf
|  8> MaxIter 1500
|  9> end
| 10>
| 11> %maxcore 3500
| 12>
| 13> !CPCM
| 14> %cpcm smd true
| 15> SMDsolvent "MeCN"
| 16> surfacetype gepol_ses
| 17> rsolv 2.19
| 18> end
| 19>
| 20> * xyz 0 1
| 21> C           0.89625463995169     -1.41558669005642      0.00000212581931
| 22> C           2.11505403593339     -0.74430991173074     -0.00000149555587
| 23> C           2.17542044953981      0.66118914619392      0.00000118790347
| 24> C           1.02073349490689      1.43411488081899      0.00000740816991
| 25> C          -0.21978579987357      0.78024255664200      0.00000882693723
| 26> C          -0.24734548849214     -0.62587635066739      0.00000530658827
| 27> O          -1.52601546021974     -1.07032389872869      0.00001342203642
| 28> C          -2.31826979056253      0.02952741578344      0.00002075604744
| 29> C          -1.60215379632981      1.18293934552638      0.00000260268759
| 30> H          -2.00251324968155      2.19537072670951     -0.00000431996804
| 31> H          -3.38877681335679     -0.16931307117016      0.00002936397660
| 32> H           1.07767380530056      2.52621447644394      0.00000712336235
| 33> H           3.15304280126425      1.15182904763925     -0.00000361572869
| 34> H           3.04441141911605     -1.32116718166862     -0.00000606251848
| 35> H           0.83131985250349     -2.50587419173540      0.00000217024247
| 36> *
| 37>
| 38>                          ****END OF INPUT****
 Total Charge           Charge          ....    0
 Multiplicity           Mult            ....    1
 Number of Electrons    NEL             ....   62
Dispersion correction           -0.013704299
FINAL SINGLE POINT ENERGY      -383.386284808735
Dispersion correction             ... done (  0.1 sec)
Dispersion correction           -0.013726207
FINAL SINGLE POINT ENERGY      -383.387023442842
Dispersion correction             ... done (  0.1 sec)
Dispersion correction           -0.013729214
FINAL SINGLE POINT ENERGY      -383.387050399425
Dispersion correction             ... done (  0.1 sec)
Dispersion correction           -0.013729942
FINAL SINGLE POINT ENERGY      -383.387056453906
Dispersion correction             ... done (  0.1 sec)
                    ***********************HURRAY********************

CARTESIAN COORDINATES (ANGSTROEM)
---------------------------------
  C      0.896208   -1.411575   -0.000385
  C      2.108680   -0.739924    0.000022
  C      2.166302    0.658987   -0.000091
  C      1.016140    1.428114   -0.000474
  C     -0.216623    0.774022   -0.000691
  C     -0.239590   -0.624784   -0.000765
  O     -1.521733   -1.073084   -0.000557
  C     -2.312804    0.036895   -0.000060
  C     -1.595113    1.177601   -0.000252
  H     -1.991897    2.180341    0.000957
  H     -3.374415   -0.151482    0.001150
  H      1.071593    2.509939   -0.000481
  H      3.134024    1.145879    0.000599
  H      3.029917   -1.309478    0.001169
  H      0.838362   -2.492476   -0.000057

 Multiplicity           Mult            ....    1
 Number of Electrons    NEL             ....   62
 Basis Dimension        Dim             ....  552

ORBITAL ENERGIES
----------------

  NO   OCC          E(Eh)            E(eV)
   0   2.0000     -19.280378      -524.6458
   1   2.0000     -10.284001      -279.8419
   2   2.0000     -10.282597      -279.8037
   3   2.0000     -10.238206      -278.5958
   4   2.0000     -10.233484      -278.4673
   5   2.0000     -10.232001      -278.4269
   6   2.0000     -10.230009      -278.3727
   7   2.0000     -10.227503      -278.3045
   8   2.0000     -10.226256      -278.2706
   9   2.0000      -1.149747       -31.2862
  10   2.0000      -0.889644       -24.2084
  11   2.0000      -0.829127       -22.5617
  12   2.0000      -0.776813       -21.1382
  13   2.0000      -0.755439       -20.5565
  14   2.0000      -0.655972       -17.8499
  15   2.0000      -0.622542       -16.9402
  16   2.0000      -0.605087       -16.4653
  17   2.0000      -0.540334       -14.7032
  18   2.0000      -0.510604       -13.8942
  19   2.0000      -0.494850       -13.4656
  20   2.0000      -0.484447       -13.1825
  21   2.0000      -0.453679       -12.3452
  22   2.0000      -0.439385       -11.9563
  23   2.0000      -0.420171       -11.4334
  24   2.0000      -0.403891       -10.9904
  25   2.0000      -0.376847       -10.2545
  26   2.0000      -0.376357       -10.2412
  27   2.0000      -0.351889        -9.5754
  28   2.0000      -0.315287        -8.5794
  29   2.0000      -0.258291        -7.0285
  30   2.0000      -0.239556        -6.5186
  31   0.0000      -0.026167        -0.7120
  32   0.0000       0.003697         0.1006
  33   0.0000       0.004115         0.1120
  34   0.0000       0.014955         0.4069
  35   0.0000       0.018482         0.5029

MULLIKEN ATOMIC CHARGES
-----------------------
   0 C :   -1.102883
   1 C :   -0.303101
   2 C :   -0.652113
   3 C :   -0.667951
   4 C :    0.923111
   5 C :    0.293394
   6 O :   -0.512983
   7 C :   -0.495221
   8 C :   -0.723269
   9 H :    0.475221
  10 H :    0.645916
  11 H :    0.192885
  12 H :    0.731429
  13 H :    0.474660
  14 H :    0.720906
Sum of atomic charges:    0.0000000

LOEWDIN ATOMIC CHARGES
----------------------
   0 C :    0.221769
   1 C :    0.177116
   2 C :    0.178311
   3 C :    0.216527
   4 C :   -0.170287
   5 C :   -0.408956
   6 O :    0.622524
   7 C :   -0.015266
   8 C :    0.222471
   9 H :   -0.172041
  10 H :   -0.175990
  11 H :   -0.168040
  12 H :   -0.181185
  13 H :   -0.179226
  14 H :   -0.167727

  Mayer bond orders larger than 0.100000
B(  0-C ,  1-C ) :   1.4590 B(  0-C ,  2-C ) :   0.3869 B(  0-C ,  4-C ) :   0.1926
B(  0-C ,  5-C ) :   1.1826 B(  0-C ,  6-O ) :   0.1376 B(  1-C ,  2-C ) :   1.2686
B(  1-C ,  3-C ) :  -0.3790 B(  1-C ,  5-C ) :  -0.6405 B(  1-C ,  8-C ) :   0.1058
B(  1-C , 12-H ) :   0.1629 B(  1-C , 13-H ) :   0.6348 B(  1-C , 14-H ) :   0.1709
B(  2-C ,  3-C ) :   1.1995 B(  2-C ,  5-C ) :   0.1997 B(  2-C ,  8-C ) :   0.1850
B(  2-C , 12-H ) :   0.1376 B(  2-C , 13-H ) :  -0.1066 B(  3-C ,  4-C ) :   0.8359
B(  3-C ,  5-C ) :  -0.6958 B(  3-C ,  9-H ) :   0.1375 B(  3-C , 11-H ) :   1.2848
B(  3-C , 12-H ) :  -0.1348 B(  3-C , 14-H ) :   0.1365 B(  4-C ,  5-C ) :   1.2755
B(  4-C ,  6-O ) :  -0.1016 B(  4-C ,  7-C ) :  -0.3385 B(  4-C ,  8-C ) :   0.6105
B(  4-C , 13-H ) :  -0.1422 B(  5-C ,  6-O ) :   0.5530 B(  5-C ,  8-C ) :   0.2212
B(  5-C , 11-H ) :   0.1487 B(  5-C , 13-H ) :   0.1609 B(  6-O ,  7-C ) :   1.2615
B(  7-C ,  8-C ) :   1.3541 B(  7-C , 10-H ) :   0.4921 B(  8-C ,  9-H ) :   0.6985
B(  8-C , 11-H ) :  -0.1016

Dispersion correction           -0.013729876
FINAL SINGLE POINT ENERGY      -383.387057535874

DIPOLE MOMENT
-------------

Method             : SCF
Type of density    : Electron Density
Multiplicity       :   1
Irrep              :   0
Energy             :  -383.3733276599930377 Eh
Relativity type    :
Basis              : AO
                                X                 Y                 Z
Electronic contribution:     -2.686272266      -1.395453392      -0.002517076
Nuclear contribution   :      2.504237297       1.734411594       0.004935406
                        -----------------------------------------
Total Dipole Moment    :     -0.182034969       0.338958202       0.002418330
                        -----------------------------------------
Magnitude (a.u.)       :      0.384753481
Magnitude (Debye)      :      0.977965628

Rotational constants in cm-1:             0.132034             0.055925             0.039285
Rotational constants in MHz :          3958.275985          1676.597844          1177.743750

                             ****ORCA TERMINATED NORMALLY****
TOTAL RUN TIME: 0 days 0 hours 15 minutes 18 seconds 501 msec
