                         Program Version 6.0.0  -   RELEASE  -
|  1> !PBE0 opt def2-SV(p) d3 TightSCF SlowConv RIJCOSX defgrid2
|  2>
|  3> %pal
|  4> nprocs 8
|  5> end
|  6>
|  7> %scf
|  8> MaxIter 1500
|  9> end
| 10>
| 11> %maxcore 3500
| 12>
| 13> !CPCM
| 14> %cpcm smd true
| 15> SMDsolvent "MeCN"
| 16> surfacetype gepol_ses
| 17> rsolv 2.19
| 18> end
| 19>
| 20> * xyz 0 1
| 21> C           2.39749463161436     -0.83149819893554      0.67669387485363
| 22> C           1.27172397639116     -0.40047992295486     -0.03969915484816
| 23> C           1.38259238776027      0.76303550152059     -0.81642324820039
| 24> C           2.58576374302039      1.45963699946448     -0.89073073539891
| 25> C           3.70030483512470      1.01412413753758     -0.17987702815859
| 26> C           3.60056124987950     -0.13306932613824      0.60654243714533
| 27> H           4.46466138277505     -0.48209902986176      1.17996120108222
| 28> H           4.64383968195764      1.56540648474814     -0.23276704782048
| 29> H           2.65415437190379      2.35888092106518     -1.51038356423303
| 30> H           0.51264382726920      1.11680700092055     -1.37721808377949
| 31> C          -0.00001123541006     -1.16417502511622     -0.00002273576044
| 32> C          -0.00001884782649     -2.50996676952303     -0.00003277235160
| 33> H          -0.93225135885572     -3.07886784376654      0.08064455143521
| 34> H           0.93220419630722     -3.07888213761201     -0.08071574786352
| 35> C          -1.27174210287451     -0.40047320911747      0.03966757754902
| 36> C          -2.39750985071673     -0.83146289450512     -0.67674719863415
| 37> C          -3.60057439169967     -0.13303092760862     -0.60657919634084
| 38> C          -3.70031659242385      1.01413981080717      0.17987332068473
| 39> C          -2.58577653905984      1.45962201354211      0.89074922577948
| 40> C          -1.38260956202413      0.76301589591316      0.81642903255360
| 41> H          -0.51266418903044      1.11676009652396      1.37724534040847
| 42> H          -2.65416367308445      2.35884547498639      1.51043035509866
| 43> H          -4.64384894904450      1.56542539828851      0.23277593005599
| 44> H          -4.46467229568686     -0.48204204645132     -1.18001194866167
| 45> H          -2.31694066862491     -1.71619568559047     -1.31480317865473
| 46> H           2.31692587235889     -1.71625071813661      1.31472229405965
| 47> *
| 48>
| 49>                          ****END OF INPUT****
 Total Charge           Charge          ....    0
 Multiplicity           Mult            ....    1
 Number of Electrons    NEL             ....   96
Dispersion correction           -0.028939982
FINAL SINGLE POINT ENERGY      -539.686667258008
Dispersion correction             ... done (  0.1 sec)
Dispersion correction           -0.028918500
FINAL SINGLE POINT ENERGY      -539.686718756318
Dispersion correction             ... done (  0.1 sec)
Dispersion correction           -0.028906327
FINAL SINGLE POINT ENERGY      -539.686725883294
Dispersion correction             ... done (  0.1 sec)
                    ***********************HURRAY********************

CARTESIAN COORDINATES (ANGSTROEM)
---------------------------------
  C      2.404820   -0.843185    0.665444
  C      1.274873   -0.395476   -0.037118
  C      1.387350    0.778279   -0.800350
  C      2.594474    1.470628   -0.873346
  C      3.711969    1.009974   -0.174850
  C      3.611481   -0.148788    0.596639
  H      4.477763   -0.510976    1.158802
  H      4.657839    1.557796   -0.225894
  H      2.662770    2.377829   -1.481571
  H      0.519459    1.147230   -1.354758
  C     -0.000012   -1.157595    0.000052
  C      0.000038   -2.504414   -0.000021
  H     -0.932547   -3.075458    0.071179
  H      0.932676   -3.075365   -0.071319
  C     -1.274932   -0.395542    0.037232
  C     -2.404831   -0.843172   -0.665447
  C     -3.611456   -0.148697   -0.596765
  C     -3.711963    1.010070    0.174706
  C     -2.594532    1.470632    0.873347
  C     -1.387487    0.778167    0.800493
  H     -0.519667    1.146999    1.355083
  H     -2.662823    2.377826    1.481583
  H     -4.657798    1.557965    0.225626
  H     -4.477698   -0.510839   -1.159016
  H     -2.329595   -1.738332   -1.289805
  H      2.329599   -1.738350    1.289799

 Multiplicity           Mult            ....    1
 Number of Electrons    NEL             ....   96
 Basis Dimension        Dim             ....  220

ORBITAL ENERGIES
----------------

  NO   OCC          E(Eh)            E(eV)
   0   2.0000     -10.254229      -279.0318
   1   2.0000     -10.251132      -278.9475
   2   2.0000     -10.251103      -278.9467
   3   2.0000     -10.238079      -278.5923
   4   2.0000     -10.238054      -278.5916
   5   2.0000     -10.237739      -278.5830
   6   2.0000     -10.237733      -278.5829
   7   2.0000     -10.237298      -278.5710
   8   2.0000     -10.237293      -278.5709
   9   2.0000     -10.237019      -278.5634
  10   2.0000     -10.237009      -278.5632
  11   2.0000     -10.236697      -278.5547
  12   2.0000     -10.236691      -278.5545
  13   2.0000     -10.228308      -278.3264
  14   2.0000      -0.891828       -24.2679
  15   2.0000      -0.875303       -23.8182
  16   2.0000      -0.824110       -22.4252
  17   2.0000      -0.765471       -20.8295
  18   2.0000      -0.765443       -20.8288
  19   2.0000      -0.759599       -20.6697
  20   2.0000      -0.733480       -19.9590
  21   2.0000      -0.647273       -17.6132
  22   2.0000      -0.624148       -16.9839
  23   2.0000      -0.614673       -16.7261
  24   2.0000      -0.612025       -16.6540
  25   2.0000      -0.566104       -15.4045
  26   2.0000      -0.540383       -14.7046
  27   2.0000      -0.514087       -13.9890
  28   2.0000      -0.481296       -13.0967
  29   2.0000      -0.478163       -13.0115
  30   2.0000      -0.465425       -12.6649
  31   2.0000      -0.454169       -12.3586
  32   2.0000      -0.452656       -12.3174
  33   2.0000      -0.433868       -11.8062
  34   2.0000      -0.433427       -11.7941
  35   2.0000      -0.431013       -11.7284
  36   2.0000      -0.396888       -10.7999
  37   2.0000      -0.388967       -10.5843
  38   2.0000      -0.388734       -10.5780
  39   2.0000      -0.369584       -10.0569
  40   2.0000      -0.358632        -9.7589
  41   2.0000      -0.351001        -9.5512
  42   2.0000      -0.345679        -9.4064
  43   2.0000      -0.316887        -8.6229
  44   2.0000      -0.275341        -7.4924
  45   2.0000      -0.271505        -7.3880
  46   2.0000      -0.268709        -7.3119
  47   2.0000      -0.238005        -6.4765
  48   0.0000      -0.040236        -1.0949
  49   0.0000      -0.015195        -0.4135
  50   0.0000      -0.011441        -0.3113
  51   0.0000       0.001007         0.0274
  52   0.0000       0.057610         1.5676

MULLIKEN ATOMIC CHARGES
-----------------------
   0 C :   -0.159495
   1 C :    0.027857
   2 C :   -0.143627
   3 C :   -0.122538
   4 C :   -0.114293
   5 C :   -0.120170
   6 H :    0.125630
   7 H :    0.127018
   8 H :    0.125752
   9 H :    0.123599
  10 C :    0.016834
  11 C :   -0.300862
  12 H :    0.154759
  13 H :    0.154768
  14 C :    0.028083
  15 C :   -0.159527
  16 C :   -0.120160
  17 C :   -0.114295
  18 C :   -0.122306
  19 C :   -0.143534
  20 H :    0.123076
  21 H :    0.125751
  22 H :    0.127007
  23 H :    0.125623
  24 H :    0.117521
  25 H :    0.117529
Sum of atomic charges:    0.0000000

LOEWDIN ATOMIC CHARGES
----------------------
   0 C :   -0.125539
   1 C :   -0.044994
   2 C :   -0.124431
   3 C :   -0.136933
   4 C :   -0.137714
   5 C :   -0.136706
   6 H :    0.142839
   7 H :    0.142386
   8 H :    0.142825
   9 H :    0.141324
  10 C :   -0.040305
  11 C :   -0.245855
  12 H :    0.138367
  13 H :    0.138372
  14 C :   -0.044937
  15 C :   -0.125533
  16 C :   -0.136686
  17 C :   -0.137685
  18 C :   -0.136839
  19 C :   -0.124404
  20 H :    0.141087
  21 H :    0.142828
  22 H :    0.142380
  23 H :    0.142834
  24 H :    0.141658
  25 H :    0.141662

  Mayer bond orders larger than 0.100000
B(  0-C ,  1-C ) :   1.3730 B(  0-C ,  5-C ) :   1.3848 B(  0-C , 25-H ) :   0.9586
B(  1-C ,  2-C ) :   1.3702 B(  1-C , 10-C ) :   1.0006 B(  2-C ,  3-C ) :   1.3921
B(  2-C ,  9-H ) :   0.9540 B(  3-C ,  4-C ) :   1.3750 B(  3-C ,  8-H ) :   0.9629
B(  4-C ,  5-C ) :   1.3756 B(  4-C ,  7-H ) :   0.9643 B(  5-C ,  6-H ) :   0.9626
B( 10-C , 11-C ) :   1.9592 B( 10-C , 14-C ) :   1.0006 B( 11-C , 12-H ) :   0.9071
B( 11-C , 13-H ) :   0.9071 B( 14-C , 15-C ) :   1.3731 B( 14-C , 19-C ) :   1.3702
B( 15-C , 16-C ) :   1.3848 B( 15-C , 24-H ) :   0.9586 B( 16-C , 17-C ) :   1.3756
B( 16-C , 23-H ) :   0.9626 B( 17-C , 18-C ) :   1.3750 B( 17-C , 22-H ) :   0.9643
B( 18-C , 19-C ) :   1.3921 B( 18-C , 21-H ) :   0.9629 B( 19-C , 20-H ) :   0.9541

Dispersion correction           -0.028903309
FINAL SINGLE POINT ENERGY      -539.686728247116

DIPOLE MOMENT
-------------

Method             : SCF
Type of density    : Electron Density
Multiplicity       :   1
Irrep              :   0
Energy             :  -539.6578249378289911 Eh
Relativity type    :
Basis              : AO
                                X                 Y                 Z
Electronic contribution:     -0.000869856       0.612390338      -0.000459805
Nuclear contribution   :      0.000137676      -0.483998563      -0.000269927
                        -----------------------------------------
Total Dipole Moment    :     -0.000732181       0.128391775      -0.000729732
                        -----------------------------------------
Magnitude (a.u.)       :      0.128395937
Magnitude (Debye)      :      0.326356535

Rotational constants in cm-1:             0.053280             0.013933             0.012125
Rotational constants in MHz :          1597.293092           417.711099           363.491438

                             ****ORCA TERMINATED NORMALLY****
TOTAL RUN TIME: 0 days 0 hours 5 minutes 14 seconds 74 msec
