                         Program Version 6.0.0  -   RELEASE  -
|  1> !TPSSh aug-cc-pVTZ d3 TightSCF SlowConv RIJCOSX defgrid2
|  2>
|  3> %pal
|  4> nprocs 4
|  5> end
|  6>
|  7> %scf
|  8> MaxIter 1500
|  9> end
| 10>
| 11> %maxcore 3000
| 12>
| 13> !CPCM
| 14> %cpcm smd true
| 15> SMDsolvent "MeCN"
| 16> surfacetype gepol_ses
| 17> rsolv 2.19
| 18> end
| 19>
| 20> * xyz 1 2
| 21> C           0.46714487133843     -1.31596872615065      0.00043307960453
| 22> C           1.40171557217885     -0.23770807732832      0.00025638478659
| 23> C           0.88407949479514      1.09158487284969      0.00004092926418
| 24> C          -0.46712830128476      1.31604469822195      0.00000295911120
| 25> C          -1.40170089628676      0.23778263147851      0.00017108805360
| 26> C          -0.88406255954178     -1.09151075505496      0.00038804805116
| 27> H          -1.56465680467619     -1.94551717434521      0.00051308611121
| 28> C          -2.79688855585044      0.54394549069400      0.00010405022453
| 29> C          -3.82430179119378     -0.36186733524039      0.00028564609405
| 30> C          -5.25538349314657     -0.00243324194906      0.00029381155554
| 31> H          -5.75917453342121     -0.44813816832529     -0.87970790560214
| 32> H          -5.42346358891650      1.08552343691300     -0.00039098136190
| 33> H          -5.75876746290359     -0.44688449439862      0.88117967002482
| 34> H          -3.59373242007271     -1.43478557196118      0.00051686705574
| 35> H          -3.05807707707141      1.60899060395392     -0.00011509029154
| 36> H          -0.84761071039142      2.34119359797197     -0.00016682822425
| 37> H           1.56466696644477      1.94559472915825     -0.00010365132895
| 38> C           2.79689693733142     -0.54387663280000      0.00029128970272
| 39> C           3.82431604801398      0.36192101310663      0.00012996933116
| 40> C           5.25539100174106      0.00246938598978      0.00017091184030
| 41> H           5.75904846017879      0.44783593741242      0.88042381529925
| 42> H           5.75892633220905      0.44725096613417     -0.88045536326881
| 43> H           5.42345877365595     -1.08548600733987      0.00050393935968
| 44> H           3.59376340127937      1.43483964875828     -0.00005091579321
| 45> H           3.05807564363531     -1.60891817616373      0.00047196102492
| 46> H           0.84762319195501     -2.34111455158529      0.00059172937562
| 47> *
| 48>
| 49>                          ****END OF INPUT****

CARTESIAN COORDINATES (ANGSTROEM)
---------------------------------
  C      0.467145   -1.315969    0.000433
  C      1.401716   -0.237708    0.000256
  C      0.884079    1.091585    0.000041
  C     -0.467128    1.316045    0.000003
  C     -1.401701    0.237783    0.000171
  C     -0.884063   -1.091511    0.000388
  H     -1.564657   -1.945517    0.000513
  C     -2.796889    0.543945    0.000104
  C     -3.824302   -0.361867    0.000286
  C     -5.255383   -0.002433    0.000294
  H     -5.759175   -0.448138   -0.879708
  H     -5.423464    1.085523   -0.000391
  H     -5.758767   -0.446884    0.881180
  H     -3.593732   -1.434786    0.000517
  H     -3.058077    1.608991   -0.000115
  H     -0.847611    2.341194   -0.000167
  H      1.564667    1.945595   -0.000104
  C      2.796897   -0.543877    0.000291
  C      3.824316    0.361921    0.000130
  C      5.255391    0.002469    0.000171
  H      5.759048    0.447836    0.880424
  H      5.758926    0.447251   -0.880455
  H      5.423459   -1.085486    0.000504
  H      3.593763    1.434840   -0.000051
  H      3.058076   -1.608918    0.000472
  H      0.847623   -2.341115    0.000592

 Total Charge           Charge          ....    1
 Multiplicity           Mult            ....    2
 Number of Electrons    NEL             ....   85
 Basis Dimension        Dim             ....  874

ORBITAL ENERGIES
----------------
                 SPIN UP ORBITALS
  NO   OCC          E(Eh)            E(eV)
   0   1.0000     -10.173141      -276.8252
   1   1.0000     -10.173126      -276.8248
   2   1.0000     -10.166904      -276.6555
   3   1.0000     -10.166899      -276.6554
   4   1.0000     -10.149789      -276.1898
   5   1.0000     -10.149773      -276.1894
   6   1.0000     -10.148995      -276.1682
   7   1.0000     -10.148991      -276.1681
   8   1.0000     -10.147853      -276.1371
   9   1.0000     -10.147835      -276.1366
  10   1.0000     -10.123189      -275.4660
  11   1.0000     -10.123188      -275.4660
  12   1.0000      -0.878260       -23.8987
  13   1.0000      -0.829951       -22.5841
  14   1.0000      -0.800846       -21.7921
  15   1.0000      -0.764438       -20.8014
  16   1.0000      -0.758456       -20.6386
  17   1.0000      -0.708712       -19.2850
  18   1.0000      -0.665555       -18.1107
  19   1.0000      -0.630029       -17.1440
  20   1.0000      -0.604177       -16.4405
  21   1.0000      -0.569124       -15.4866
  22   1.0000      -0.551801       -15.0153
  23   1.0000      -0.517646       -14.0859
  24   1.0000      -0.487196       -13.2573
  25   1.0000      -0.475701       -12.9445
  26   1.0000      -0.447235       -12.1699
  27   1.0000      -0.428318       -11.6551
  28   1.0000      -0.426798       -11.6138
  29   1.0000      -0.416824       -11.3424
  30   1.0000      -0.412657       -11.2290
  31   1.0000      -0.411100       -11.1866
  32   1.0000      -0.402191       -10.9442
  33   1.0000      -0.397711       -10.8223
  34   1.0000      -0.376242       -10.2381
  35   1.0000      -0.366107        -9.9623
  36   1.0000      -0.357391        -9.7251
  37   1.0000      -0.355010        -9.6603
  38   1.0000      -0.341642        -9.2965
  39   1.0000      -0.337573        -9.1858
  40   1.0000      -0.281351        -7.6560
  41   1.0000      -0.279143        -7.5959
  42   1.0000      -0.231347        -6.2953
  43   0.0000      -0.108061        -2.9405
  44   0.0000      -0.048335        -1.3153
  45   0.0000      -0.035965        -0.9786
  46   0.0000      -0.005744        -0.1563
  47   0.0000       0.000752         0.0205

                 SPIN DOWN ORBITALS
  NO   OCC          E(Eh)            E(eV)
   0   1.0000     -10.170491      -276.7531
   1   1.0000     -10.170478      -276.7528
   2   1.0000     -10.162160      -276.5264
   3   1.0000     -10.162155      -276.5263
   4   1.0000     -10.149259      -276.1754
   5   1.0000     -10.149244      -276.1750
   6   1.0000     -10.149231      -276.1746
   7   1.0000     -10.149228      -276.1745
   8   1.0000     -10.147654      -276.1317
   9   1.0000     -10.147637      -276.1312
  10   1.0000     -10.123411      -275.4720
  11   1.0000     -10.123411      -275.4720
  12   1.0000      -0.873841       -23.7784
  13   1.0000      -0.823778       -22.4161
  14   1.0000      -0.793623       -21.5956
  15   1.0000      -0.760726       -20.7004
  16   1.0000      -0.754570       -20.5329
  17   1.0000      -0.708112       -19.2687
  18   1.0000      -0.661452       -17.9990
  19   1.0000      -0.626702       -17.0534
  20   1.0000      -0.600306       -16.3351
  21   1.0000      -0.565637       -15.3918
  22   1.0000      -0.548595       -14.9280
  23   1.0000      -0.515830       -14.0365
  24   1.0000      -0.485602       -13.2139
  25   1.0000      -0.473839       -12.8938
  26   1.0000      -0.444936       -12.1073
  27   1.0000      -0.427936       -11.6447
  28   1.0000      -0.425541       -11.5795
  29   1.0000      -0.409232       -11.1358
  30   1.0000      -0.406524       -11.0621
  31   1.0000      -0.403735       -10.9862
  32   1.0000      -0.400776       -10.9057
  33   1.0000      -0.387849       -10.5539
  34   1.0000      -0.374295       -10.1851
  35   1.0000      -0.365304        -9.9404
  36   1.0000      -0.356578        -9.7030
  37   1.0000      -0.354099        -9.6355
  38   1.0000      -0.336146        -9.1470
  39   1.0000      -0.326944        -8.8966
  40   1.0000      -0.275995        -7.5102
  41   1.0000      -0.262335        -7.1385
  42   0.0000      -0.187149        -5.0926
  43   0.0000      -0.085788        -2.3344
  44   0.0000      -0.040849        -1.1116
  45   0.0000      -0.021084        -0.5737
  46   0.0000      -0.005266        -0.1433

MULLIKEN ATOMIC CHARGES AND SPIN POPULATIONS
--------------------------------------------
   0 C :   -0.813662   -0.008431
   1 C :    1.503518    0.188854
   2 C :   -0.482581    0.010899
   3 C :   -0.811420   -0.008316
   4 C :    1.494518    0.188974
   5 C :   -0.472224    0.010857
   6 H :   -0.011211    0.001536
   7 C :    0.305490    0.001553
   8 C :   -0.324607    0.325146
   9 C :   -0.362110   -0.051661
  10 H :    0.142721    0.021215
  11 H :    0.134587   -0.003869
  12 H :    0.142667    0.021207
  13 H :    0.172537   -0.009378
  14 H :    0.065726    0.000996
  15 H :    0.025947    0.001789
  16 H :   -0.008269    0.001607
  17 C :    0.297425    0.001671
  18 C :   -0.319548    0.325063
  19 C :   -0.373226   -0.051606
  20 H :    0.141341    0.021208
  21 H :    0.140440    0.021219
  22 H :    0.140650   -0.003880
  23 H :    0.187559   -0.009503
  24 H :    0.053834    0.001056
  25 H :    0.029899    0.001792
Sum of atomic charges         :    1.0000000

LOEWDIN ATOMIC CHARGES AND SPIN POPULATIONS
-------------------------------------------
   0 C :    0.263239    0.035285
   1 C :   -0.088215    0.093988
   2 C :    0.265896    0.041442
   3 C :    0.263241    0.035285
   4 C :   -0.088222    0.093988
   5 C :    0.265900    0.041443
   6 H :   -0.163883    0.002727
   7 C :    0.265676    0.066540
   8 C :    0.276634    0.157257
   9 C :    0.596141    0.049486
  10 H :   -0.145483    0.011310
  11 H :   -0.159007    0.000955
  12 H :   -0.145419    0.011326
  13 H :   -0.157609    0.026953
  14 H :   -0.160776    0.001012
  15 H :   -0.147189    0.001719
  16 H :   -0.163883    0.002727
  17 C :    0.265672    0.066540
  18 C :    0.276638    0.157256
  19 C :    0.596134    0.049486
  20 H :   -0.145477    0.011315
  21 H :   -0.145428    0.011321
  22 H :   -0.158999    0.000955
  23 H :   -0.157605    0.026953
  24 H :   -0.160785    0.001013
  25 H :   -0.147192    0.001718

  Mayer bond orders larger than 0.100000
B(  0-C ,  1-C ) :   0.2823 B(  0-C ,  2-C ) :  -0.4539 B(  0-C ,  3-C ) :   0.2864
B(  0-C ,  4-C ) :  -0.1237 B(  0-C ,  5-C ) :   1.5385 B(  0-C , 15-H ) :   0.1029
B(  0-C , 17-C ) :  -0.1515 B(  0-C , 25-H ) :   1.2249 B(  1-C ,  2-C ) :   0.5864
B(  1-C ,  3-C ) :  -0.1274 B(  1-C ,  4-C ) :  -0.4012 B(  1-C ,  7-C ) :   0.2877
B(  1-C , 17-C ) :   0.5606 B(  1-C , 18-C ) :  -0.1866 B(  1-C , 23-H ) :  -0.1145
B(  1-C , 24-H ) :   0.1123 B(  2-C ,  3-C ) :   1.5373 B(  2-C ,  5-C ) :  -0.3000
B(  2-C ,  6-H ) :  -0.1502 B(  2-C , 15-H ) :  -0.1206 B(  2-C , 16-H ) :   1.3035
B(  2-C , 17-C ) :   0.1091 B(  2-C , 18-C ) :   0.1532 B(  3-C ,  4-C ) :   0.2884
B(  3-C ,  5-C ) :  -0.4501 B(  3-C ,  7-C ) :  -0.1616 B(  3-C , 15-H ) :   1.2266
B(  3-C , 25-H ) :   0.1016 B(  4-C ,  5-C ) :   0.5912 B(  4-C ,  7-C ) :   0.5797
B(  4-C ,  8-C ) :  -0.1838 B(  4-C , 13-H ) :  -0.1136 B(  4-C , 14-H ) :   0.1164
B(  4-C , 17-C ) :   0.2664 B(  5-C ,  6-H ) :   1.3010 B(  5-C ,  7-C ) :   0.1085
B(  5-C ,  8-C ) :   0.1396 B(  5-C , 16-H ) :  -0.1593 B(  5-C , 25-H ) :  -0.1195
B(  7-C ,  8-C ) :   0.9016 B(  7-C , 14-H ) :   1.0053 B(  8-C ,  9-C ) :   1.1529
B(  8-C , 11-H ) :   0.1138 B(  8-C , 13-H ) :   1.0336 B(  9-C , 10-H ) :   0.9422
B(  9-C , 11-H ) :   0.9328 B(  9-C , 12-H ) :   0.9408 B( 17-C , 18-C ) :   0.9138
B( 17-C , 24-H ) :   1.0134 B( 18-C , 19-C ) :   1.1640 B( 18-C , 22-H ) :   0.1140
B( 18-C , 23-H ) :   1.0143 B( 19-C , 20-H ) :   0.9426 B( 19-C , 21-H ) :   0.9442
B( 19-C , 22-H ) :   0.9273

Dispersion correction           -0.031033549
FINAL SINGLE POINT ENERGY      -465.732925384646

DIPOLE MOMENT
-------------

Method             : SCF
Type of density    : Electron Density
Multiplicity       :   2
Irrep              :   0
Energy             :  -465.7018918358123187 Eh
Relativity type    :
Basis              : AO
                                X                 Y                 Z
Electronic contribution:      0.000001203       0.000047197      -0.000111173
Nuclear contribution   :     -0.000009580      -0.000053351       0.000182982
                        -----------------------------------------
Total Dipole Moment    :     -0.000008377      -0.000006154       0.000071810
                        -----------------------------------------
Magnitude (a.u.)       :      0.000072558
Magnitude (Debye)      :      0.000184428

Rotational constants in cm-1:             0.145084             0.011081             0.010334
Rotational constants in MHz :          4349.508816           332.191507           309.803376

                             ****ORCA TERMINATED NORMALLY****
TOTAL RUN TIME: 0 days 0 hours 15 minutes 3 seconds 405 msec
