                         Program Version 6.0.0  -   RELEASE  -
|  1> !PBE0 def2-SV(p) Opt Freq d3 TightSCF SlowConv RIJCOSX defgrid2
|  2>
|  3> %pal
|  4> nprocs 4
|  5> end
|  6>
|  7> %scf
|  8> MaxIter 1500
|  9> end
| 10>
| 11> %maxcore 3000
| 12>
| 13>
| 14>
| 15> * xyz 1 2
| 16> C    -1.4555077   -1.2757385    0.0412031
| 17> C    -0.6298273   -0.0427659    0.2848952
| 18> C    -1.2113353    1.1968280    0.1722064
| 19> C    -2.6144745    1.4284668   -0.2110365
| 20> C    -3.3543525    0.1782693   -0.6703796
| 21> C    -2.9487049   -0.9918022    0.2138828
| 22> H    -3.1620565   -0.7546624    1.2572787
| 23> H    -3.5134364   -1.8854240   -0.0503574
| 24> H    -3.0979933   -0.0415363   -1.7086792
| 25> H    -4.4303209    0.3420452   -0.6223389
| 26> H    -3.1199950    1.8564482    0.6671723
| 27> H    -2.6558865    2.2179882   -0.9688118
| 28> H    -0.6377029    2.0956690    0.3378947
| 29> N     0.6743020   -0.2043608    0.6256882
| 30> C     1.5544625    0.8626495    1.0242354
| 31> H     1.0155789    1.7416653    1.3679402
| 32> C     2.4798063    1.2114749   -0.1721477
| 33> H     3.2150688    1.9599676    0.1214509
| 34> H     1.8680761    1.5866918   -1.0036919
| 35> O     3.1941429    0.0702835   -0.5501426
| 36> C     2.3568880   -0.9846118   -0.9195083
| 37> H     1.7317961   -0.7078544   -1.7790708
| 38> C     1.4321515   -1.3755646    0.2707396
| 39> H     2.0663934   -1.6694754    1.1115090
| 40> H     0.8025566   -2.2104658   -0.0241456
| 41> H     3.0025579   -1.8227656   -1.1798947
| 42> H     2.1882672    0.4968354    1.8376798
| 43> H    -1.2844436   -1.6400110   -0.9764566
| 44> H    -1.1640190   -2.0618172    0.7405938
| 45> *
| 46>
| 47>                          ****END OF INPUT****
 Total Charge           Charge          ....    1
 Multiplicity           Mult            ....    2
 Number of Electrons    NEL             ....   91
Dispersion correction           -0.027620072
FINAL SINGLE POINT ENERGY      -520.008593764423
Dispersion correction             ... done (  0.1 sec)
Dispersion correction           -0.027487603
FINAL SINGLE POINT ENERGY      -520.011888319739
Dispersion correction             ... done (  0.1 sec)
Dispersion correction           -0.027388755
FINAL SINGLE POINT ENERGY      -520.012807070906
Dispersion correction             ... done (  0.1 sec)
FINAL SINGLE POINT ENERGY      -520.013294190052
FINAL SINGLE POINT ENERGY      -520.013452398718
FINAL SINGLE POINT ENERGY      -520.013557150193
FINAL SINGLE POINT ENERGY      -520.013609535809
Dispersion correction             ... done (  0.1 sec)
Dispersion correction           -0.027176828
FINAL SINGLE POINT ENERGY      -520.013627890689
Dispersion correction             ... done (  0.1 sec)
Dispersion correction           -0.027170469
FINAL SINGLE POINT ENERGY      -520.013631891468
Dispersion correction             ... done (  0.1 sec)
                    ***********************HURRAY********************

CARTESIAN COORDINATES (ANGSTROEM)
---------------------------------
  C     -1.444812   -1.240899   -0.044226
  C     -0.652706   -0.000764    0.287916
  C     -1.309293    1.239827    0.351616
  C     -2.740638    1.431277    0.025857
  C     -3.395053    0.230376   -0.642145
  C     -2.955528   -1.043851    0.058946
  H     -3.250153   -1.003653    1.123759
  H     -3.454120   -1.927342   -0.370182
  H     -3.108099    0.192290   -1.709159
  H     -4.490803    0.337861   -0.614927
  H     -3.259296    1.677561    0.979467
  H     -2.844761    2.354390   -0.575990
  H     -0.764692    2.131415    0.670163
  N      0.667521   -0.106263    0.510405
  C      1.569556    1.002335    0.810261
  H      1.025982    1.942845    0.945692
  C      2.604775    1.132207   -0.313502
  H      3.332018    1.914204   -0.047016
  H      2.091930    1.430676   -1.251792
  O      3.303619   -0.059851   -0.477240
  C      2.463625   -1.123591   -0.790164
  H      1.942576   -0.953173   -1.755391
  C      1.420563   -1.341430    0.315587
  H      1.937146   -1.575761    1.262350
  H      0.758802   -2.174790    0.058473
  H      3.084809   -2.027591   -0.881525
  H      2.085345    0.759713    1.754722
  H     -1.177882   -1.560141   -1.070707
  H     -1.138436   -2.061453    0.626458

 Multiplicity           Mult            ....    2
 Number of Electrons    NEL             ....   91
 Basis Dimension        Dim             ....  202

ORBITAL ENERGIES
----------------
                 SPIN UP ORBITALS
  NO   OCC          E(Eh)            E(eV)
   0   1.0000     -19.368441      -527.0421
   1   1.0000     -14.656559      -398.8252
   2   1.0000     -10.481444      -285.2146
   3   1.0000     -10.440804      -284.1087
   4   1.0000     -10.437166      -284.0097
   5   1.0000     -10.435508      -283.9646
   6   1.0000     -10.432190      -283.8743
   7   1.0000     -10.431975      -283.8685
   8   1.0000     -10.400466      -283.0111
   9   1.0000     -10.388128      -282.6753
  10   1.0000     -10.370750      -282.2025
  11   1.0000     -10.366019      -282.0737
  12   1.0000      -1.235061       -33.6077
  13   1.0000      -1.187486       -32.3131
  14   1.0000      -1.030583       -28.0436
  15   1.0000      -0.970673       -26.4134
  16   1.0000      -0.950819       -25.8731
  17   1.0000      -0.933725       -25.4080
  18   1.0000      -0.876492       -23.8506
  19   1.0000      -0.855347       -23.2752
  20   1.0000      -0.802875       -21.8473
  21   1.0000      -0.793304       -21.5869
  22   1.0000      -0.752612       -20.4796
  23   1.0000      -0.733695       -19.9649
  24   1.0000      -0.697835       -18.9891
  25   1.0000      -0.676111       -18.3979
  26   1.0000      -0.663011       -18.0414
  27   1.0000      -0.659067       -17.9341
  28   1.0000      -0.646893       -17.6029
  29   1.0000      -0.638580       -17.3767
  30   1.0000      -0.615739       -16.7551
  31   1.0000      -0.603190       -16.4136
  32   1.0000      -0.601207       -16.3597
  33   1.0000      -0.592723       -16.1288
  34   1.0000      -0.581980       -15.8365
  35   1.0000      -0.560686       -15.2570
  36   1.0000      -0.558772       -15.2050
  37   1.0000      -0.545611       -14.8468
  38   1.0000      -0.531713       -14.4686
  39   1.0000      -0.521069       -14.1790
  40   1.0000      -0.493201       -13.4207
  41   1.0000      -0.488558       -13.2943
  42   1.0000      -0.481889       -13.1129
  43   1.0000      -0.476070       -12.9545
  44   1.0000      -0.437266       -11.8986
  45   1.0000      -0.404792       -11.0150
  46   0.0000      -0.165990        -4.5168
  47   0.0000      -0.086612        -2.3568
  48   0.0000      -0.062224        -1.6932
  49   0.0000      -0.060316        -1.6413
  50   0.0000      -0.055235        -1.5030

                 SPIN DOWN ORBITALS
  NO   OCC          E(Eh)            E(eV)
   0   1.0000     -19.367853      -527.0261
   1   1.0000     -14.647363      -398.5750
   2   1.0000     -10.483101      -285.2597
   3   1.0000     -10.437458      -284.0177
   4   1.0000     -10.435794      -283.9724
   5   1.0000     -10.431561      -283.8572
   6   1.0000     -10.431497      -283.8555
   7   1.0000     -10.430868      -283.8383
   8   1.0000     -10.400399      -283.0093
   9   1.0000     -10.388592      -282.6880
  10   1.0000     -10.370763      -282.2028
  11   1.0000     -10.365972      -282.0724
  12   1.0000      -1.232381       -33.5348
  13   1.0000      -1.175102       -31.9761
  14   1.0000      -1.021854       -27.8061
  15   1.0000      -0.968180       -26.3455
  16   1.0000      -0.949658       -25.8415
  17   1.0000      -0.926780       -25.2190
  18   1.0000      -0.868840       -23.6423
  19   1.0000      -0.853747       -23.2316
  20   1.0000      -0.799961       -21.7681
  21   1.0000      -0.787152       -21.4195
  22   1.0000      -0.749106       -20.3842
  23   1.0000      -0.728701       -19.8290
  24   1.0000      -0.693235       -18.8639
  25   1.0000      -0.671764       -18.2796
  26   1.0000      -0.657522       -17.8921
  27   1.0000      -0.652138       -17.7456
  28   1.0000      -0.645192       -17.5566
  29   1.0000      -0.634276       -17.2595
  30   1.0000      -0.609832       -16.5944
  31   1.0000      -0.598138       -16.2762
  32   1.0000      -0.597567       -16.2606
  33   1.0000      -0.589928       -16.0528
  34   1.0000      -0.579287       -15.7632
  35   1.0000      -0.555973       -15.1288
  36   1.0000      -0.551265       -15.0007
  37   1.0000      -0.543397       -14.7866
  38   1.0000      -0.530055       -14.4235
  39   1.0000      -0.504791       -13.7361
  40   1.0000      -0.490561       -13.3488
  41   1.0000      -0.485678       -13.2160
  42   1.0000      -0.481057       -13.0902
  43   1.0000      -0.470882       -12.8133
  44   1.0000      -0.425497       -11.5784
  45   0.0000      -0.292869        -7.9694
  46   0.0000      -0.133186        -3.6242
  47   0.0000      -0.084199        -2.2912
  48   0.0000      -0.060861        -1.6561
  49   0.0000      -0.059089        -1.6079

MULLIKEN ATOMIC CHARGES AND SPIN POPULATIONS
--------------------------------------------
   0 C :   -0.261590    0.003606
   1 C :    0.113492   -0.102667
   2 C :   -0.171524    0.674409
   3 C :   -0.205661   -0.062010
   4 C :   -0.225618    0.005077
   5 C :   -0.215747    0.000536
   6 H :    0.149455   -0.000204
   7 H :    0.162881    0.000356
   8 H :    0.146149    0.000944
   9 H :    0.166613   -0.000644
  10 H :    0.184871    0.049683
  11 H :    0.182013    0.025828
  12 H :    0.160480   -0.033310
  13 N :   -0.253776    0.375848
  14 C :   -0.147969   -0.019981
  15 H :    0.186961    0.001037
  16 C :   -0.008009    0.018878
  17 H :    0.179374    0.002204
  18 H :    0.129825   -0.000106
  19 O :   -0.349503    0.018443
  20 C :   -0.005505    0.021282
  21 H :    0.130796    0.002047
  22 C :   -0.157249   -0.021871
  23 H :    0.185413    0.022452
  24 H :    0.191526    0.000632
  25 H :    0.179746    0.003222
  26 H :    0.184474    0.016024
  27 H :    0.178479   -0.000078
  28 H :    0.189603   -0.001638
Sum of atomic charges         :    1.0000000

LOEWDIN ATOMIC CHARGES AND SPIN POPULATIONS
-------------------------------------------
   0 C :   -0.232475    0.002558
   1 C :    0.040180   -0.031210
   2 C :   -0.039338    0.552277
   3 C :   -0.227309   -0.003232
   4 C :   -0.228346    0.002243
   5 C :   -0.222977    0.000158
   6 H :    0.135332   -0.000118
   7 H :    0.147452    0.000443
   8 H :    0.133884    0.000686
   9 H :    0.147745   -0.000581
  10 H :    0.169564    0.043581
  11 H :    0.163193    0.023639
  12 H :    0.151344   -0.015845
  13 N :    0.082050    0.340196
  14 C :   -0.160416   -0.002751
  15 H :    0.146877    0.000514
  16 C :   -0.107288    0.017238
  17 H :    0.150219    0.001526
  18 H :    0.119623    0.000113
  19 O :   -0.148131    0.018080
  20 C :   -0.106478    0.022362
  21 H :    0.119367    0.000752
  22 C :   -0.163346   -0.003035
  23 H :    0.156868    0.017213
  24 H :    0.152331    0.000491
  25 H :    0.150683    0.002051
  26 H :    0.157231    0.012184
  27 H :    0.156323   -0.000305
  28 H :    0.155837   -0.001227

  Mayer bond orders larger than 0.100000
B(  0-C ,  1-C ) :   1.0497 B(  0-C ,  5-C ) :   1.0870 B(  0-C , 27-H ) :   0.8837
B(  0-C , 28-H ) :   0.8919 B(  1-C ,  2-C ) :   1.4063 B(  1-C , 13-N ) :   1.3467
B(  2-C ,  3-C ) :   1.0969 B(  2-C , 12-H ) :   0.9118 B(  3-C ,  4-C ) :   1.0983
B(  3-C , 10-H ) :   0.8691 B(  3-C , 11-H ) :   0.8948 B(  4-C ,  5-C ) :   1.0749
B(  4-C ,  8-H ) :   0.9297 B(  4-C ,  9-H ) :   0.9200 B(  5-C ,  6-H ) :   0.9299
B(  5-C ,  7-H ) :   0.9180 B( 13-N , 14-C ) :   0.9390 B( 13-N , 22-C ) :   0.9399
B( 14-C , 15-H ) :   0.8995 B( 14-C , 16-C ) :   1.0815 B( 14-C , 26-H ) :   0.8956
B( 16-C , 17-H ) :   0.9225 B( 16-C , 18-H ) :   0.9065 B( 16-C , 19-O ) :   1.0017
B( 19-O , 20-C ) :   1.0039 B( 20-C , 21-H ) :   0.9075 B( 20-C , 22-C ) :   1.0798
B( 20-C , 25-H ) :   0.9217 B( 22-C , 23-H ) :   0.8941 B( 22-C , 24-H ) :   0.8958

Dispersion correction           -0.027166649
FINAL SINGLE POINT ENERGY      -520.013633019381

DIPOLE MOMENT
-------------

Method             : SCF
Type of density    : Electron Density
Multiplicity       :   2
Irrep              :   0
Energy             :  -519.9864663703247061 Eh
Relativity type    :
Basis              : AO
                                X                 Y                 Z
Electronic contribution:      6.280776784       0.760688712       1.099921081
Nuclear contribution   :     -6.882345932      -0.552455491      -0.747170800
                        -----------------------------------------
Total Dipole Moment    :     -0.601569148       0.208233221       0.352750281
                        -----------------------------------------
Magnitude (a.u.)       :      0.727790681
Magnitude (Debye)      :      1.849896897

VIBRATIONAL FREQUENCIES
-----------------------

Scaling factor for frequencies =  1.000000000  (already applied!)

     0:       0.00 cm**-1
     1:       0.00 cm**-1
     2:       0.00 cm**-1
     3:       0.00 cm**-1
     4:       0.00 cm**-1
     5:       0.00 cm**-1
     6:      43.61 cm**-1
     7:      55.46 cm**-1
     8:     131.34 cm**-1
     9:     172.08 cm**-1
    10:     193.99 cm**-1
    11:     280.18 cm**-1
    12:     301.49 cm**-1
    13:     321.33 cm**-1
    14:     365.64 cm**-1
    15:     435.27 cm**-1
    16:     452.70 cm**-1
    17:     465.01 cm**-1
    18:     492.27 cm**-1
    19:     502.37 cm**-1
    20:     536.78 cm**-1
    21:     594.59 cm**-1
    22:     652.28 cm**-1
    23:     732.75 cm**-1
    24:     759.47 cm**-1
    25:     841.30 cm**-1
    26:     856.68 cm**-1
    27:     862.68 cm**-1
    28:     897.95 cm**-1
    29:     908.91 cm**-1
    30:     933.63 cm**-1
    31:     938.68 cm**-1
    32:     969.69 cm**-1
    33:     997.77 cm**-1
    34:    1014.56 cm**-1
    35:    1073.37 cm**-1
    36:    1075.51 cm**-1
    37:    1083.62 cm**-1
    38:    1096.51 cm**-1
    39:    1114.13 cm**-1
    40:    1133.51 cm**-1
    41:    1151.59 cm**-1
    42:    1165.93 cm**-1
    43:    1225.77 cm**-1
    44:    1237.02 cm**-1
    45:    1253.62 cm**-1
    46:    1259.86 cm**-1
    47:    1271.48 cm**-1
    48:    1300.60 cm**-1
    49:    1308.11 cm**-1
    50:    1333.48 cm**-1
    51:    1334.90 cm**-1
    52:    1345.79 cm**-1
    53:    1363.23 cm**-1
    54:    1380.51 cm**-1
    55:    1384.88 cm**-1
    56:    1392.86 cm**-1
    57:    1399.96 cm**-1
    58:    1406.97 cm**-1
    59:    1412.79 cm**-1
    60:    1425.14 cm**-1
    61:    1440.00 cm**-1
    62:    1462.59 cm**-1
    63:    1475.60 cm**-1
    64:    1476.27 cm**-1
    65:    1481.48 cm**-1
    66:    1488.40 cm**-1
    67:    1496.44 cm**-1
    68:    1522.87 cm**-1
    69:    1524.28 cm**-1
    70:    2981.00 cm**-1
    71:    3009.83 cm**-1
    72:    3012.25 cm**-1
    73:    3034.71 cm**-1
    74:    3053.32 cm**-1
    75:    3060.29 cm**-1
    76:    3067.60 cm**-1
    77:    3084.30 cm**-1
    78:    3092.15 cm**-1
    79:    3107.97 cm**-1
    80:    3131.56 cm**-1
    81:    3134.77 cm**-1
    82:    3155.12 cm**-1
    83:    3155.99 cm**-1
    84:    3211.82 cm**-1
    85:    3218.08 cm**-1
    86:    3237.21 cm**-1

IR SPECTRUM
-----------

 Mode   freq       eps      Int      T**2         TX        TY        TZ
       cm**-1   L/(mol*cm) km/mol    a.u.
----------------------------------------------------------------------------
  6:     43.61   0.000294    1.48  0.002101  ( 0.023010 -0.006074  0.039169)
  7:     55.46   0.000110    0.56  0.000621  ( 0.021887 -0.008472  0.008351)
  8:    131.34   0.000081    0.41  0.000193  ( 0.012296 -0.004449  0.004693)
  9:    172.08   0.000259    1.31  0.000469  (-0.004855 -0.018444 -0.010253)
 10:    193.99   0.000344    1.74  0.000553  ( 0.005103 -0.019998  0.011267)
 11:    280.18   0.000034    0.17  0.000038  ( 0.000979 -0.003692 -0.004875)
 12:    301.49   0.000090    0.45  0.000093  ( 0.007139 -0.004764  0.004415)
 13:    321.33   0.001814    9.17  0.001761  (-0.007252 -0.009115  0.040320)
 14:    365.64   0.000901    4.55  0.000769  (-0.001932 -0.002735  0.027523)
 15:    435.27   0.000195    0.98  0.000139  ( 0.010414 -0.002487  0.004985)
 16:    452.70   0.000206    1.04  0.000142  (-0.006035 -0.009327 -0.004335)
 17:    465.01   0.000095    0.48  0.000064  (-0.000176  0.001498 -0.007840)
 18:    492.27   0.000023    0.12  0.000015  ( 0.000991 -0.003013 -0.002146)
 19:    502.37   0.000128    0.65  0.000079  ( 0.007148  0.002923 -0.004445)
 20:    536.78   0.000726    3.67  0.000422  (-0.012941  0.002164  0.015812)
 21:    594.59   0.002881   14.56  0.001512  (-0.030842 -0.002728  0.023519)
 22:    652.28   0.001780    8.99  0.000851  (-0.026108 -0.003840  0.012455)
 23:    732.75   0.003549   17.93  0.001511  (-0.028387 -0.007167  0.025575)
 24:    759.47   0.000103    0.52  0.000043  ( 0.003513  0.004804  0.002661)
 25:    841.30   0.000753    3.81  0.000279  (-0.008916 -0.003712 -0.013640)
 26:    856.68   0.000164    0.83  0.000060  ( 0.001759 -0.001983 -0.007259)
 27:    862.68   0.000131    0.66  0.000048  ( 0.004777 -0.004164 -0.002714)
 28:    897.95   0.000133    0.67  0.000046  (-0.000850 -0.004231  0.005245)
 29:    908.91   0.000036    0.18  0.000012  ( 0.003384 -0.000537 -0.000792)
 30:    933.63   0.000212    1.07  0.000071  ( 0.002997 -0.007041 -0.003504)
 31:    938.68   0.002280   11.52  0.000758  (-0.027436 -0.001365  0.001875)
 32:    969.69   0.001996   10.09  0.000642  (-0.013848  0.019988 -0.007155)
 33:    997.77   0.000941    4.76  0.000294  ( 0.014786 -0.005024 -0.007101)
 34:   1014.56   0.013850   69.99  0.004260  (-0.060406 -0.000405  0.024718)
 35:   1073.37   0.009078   45.87  0.002639  ( 0.046690 -0.016742  0.013376)
 36:   1075.51   0.000239    1.21  0.000069  (-0.007406  0.000498 -0.003760)
 37:   1083.62   0.001233    6.23  0.000355  ( 0.006712  0.015855  0.007655)
 38:   1096.51   0.000696    3.52  0.000198  ( 0.006784 -0.004564 -0.011458)
 39:   1114.13   0.000541    2.73  0.000152  ( 0.012187 -0.001635 -0.000596)
 40:   1133.51   0.000269    1.36  0.000074  (-0.003556 -0.000960  0.007769)
 41:   1151.59   0.000223    1.13  0.000061  (-0.000289 -0.001408  0.007647)
 42:   1165.93   0.007593   38.37  0.002032  (-0.005566  0.043933  0.008443)
 43:   1225.77   0.002855   14.43  0.000727  ( 0.008547 -0.024612 -0.006931)
 44:   1237.02   0.002862   14.46  0.000722  ( 0.015348  0.021757  0.003616)
 45:   1253.62   0.004712   23.81  0.001173  (-0.028009 -0.018999 -0.005232)
 46:   1259.86   0.000088    0.45  0.000022  ( 0.002968  0.000026 -0.003615)
 47:   1271.48   0.000472    2.39  0.000116  (-0.002251  0.009274 -0.004981)
 48:   1300.60   0.006907   34.90  0.001657  (-0.011036  0.034803  0.018003)
 49:   1308.11   0.008447   42.69  0.002015  (-0.004419 -0.044568  0.003025)
 50:   1333.48   0.001588    8.03  0.000372  (-0.018533 -0.005072  0.001580)
 51:   1334.90   0.005873   29.68  0.001373  (-0.036341  0.007120  0.001299)
 52:   1345.79   0.000622    3.14  0.000144  (-0.012010 -0.000161 -0.000068)
 53:   1363.23   0.007121   35.99  0.001630  ( 0.036793 -0.003183 -0.016317)
 54:   1380.51   0.000416    2.10  0.000094  (-0.005615 -0.006323 -0.004740)
 55:   1384.88   0.000954    4.82  0.000215  (-0.012531 -0.007605 -0.000404)
 56:   1392.86   0.005965   30.15  0.001336  (-0.032179  0.017090 -0.002990)
 57:   1399.96   0.001411    7.13  0.000314  (-0.007704 -0.015239 -0.004780)
 58:   1406.97   0.000266    1.35  0.000059  ( 0.007039 -0.000513 -0.003043)
 59:   1412.79   0.013366   67.55  0.002952  ( 0.051553 -0.016813 -0.003467)
 60:   1425.14   0.002102   10.62  0.000460  (-0.020740 -0.001948 -0.005132)
 61:   1440.00   0.002551   12.89  0.000553  ( 0.007512 -0.021971 -0.003705)
 62:   1462.59   0.000699    3.53  0.000149  (-0.005026  0.010355  0.004087)
 63:   1475.60   0.002756   13.93  0.000583  (-0.003838 -0.013328  0.019761)
 64:   1476.27   0.000719    3.63  0.000152  (-0.000715 -0.002809 -0.011981)
 65:   1481.48   0.003305   16.70  0.000696  ( 0.025390  0.005676 -0.004392)
 66:   1488.40   0.004243   21.44  0.000890  ( 0.013266 -0.000554 -0.026709)
 67:   1496.44   0.001732    8.75  0.000361  ( 0.008173  0.003692 -0.016758)
 68:   1522.87   0.007126   36.01  0.001460  (-0.035147 -0.007900 -0.012745)
 69:   1524.28   0.004825   24.38  0.000988  ( 0.029036  0.012023 -0.000427)
 70:   2981.00   0.004198   21.22  0.000439  ( 0.020788 -0.001232  0.002414)
 71:   3009.83   0.002365   11.95  0.000245  ( 0.000905  0.015627 -0.000359)
 72:   3012.25   0.006924   34.99  0.000717  (-0.000986  0.002490 -0.026648)
 73:   3034.71   0.001421    7.18  0.000146  ( 0.012076 -0.000270 -0.000507)
 74:   3053.32   0.001365    6.90  0.000140  (-0.010243 -0.003331 -0.004849)
 75:   3060.29   0.002212   11.18  0.000226  ( 0.002558  0.003435 -0.014394)
 76:   3067.60   0.000939    4.74  0.000095  (-0.002907 -0.003294  0.008728)
 77:   3084.30   0.000145    0.73  0.000015  (-0.003508  0.000039 -0.001548)
 78:   3092.15   0.000340    1.72  0.000034  ( 0.004855 -0.001027  0.003108)
 79:   3107.97   0.000220    1.11  0.000022  ( 0.001512 -0.003015  0.003272)
 80:   3131.56   0.000817    4.13  0.000081  (-0.005733 -0.004900 -0.004956)
 81:   3134.77   0.000840    4.25  0.000084  (-0.007236  0.002188  0.005149)
 82:   3155.12   0.000433    2.19  0.000043  ( 0.001157  0.005931  0.002503)
 83:   3155.99   0.000201    1.01  0.000020  ( 0.000906 -0.002808  0.003335)
 84:   3211.82   0.000277    1.40  0.000027  ( 0.001629 -0.004775 -0.001224)
 85:   3218.08   0.000189    0.95  0.000018  ( 0.002557 -0.003428 -0.000100)
 86:   3237.21   0.000533    2.69  0.000051  (-0.006819  0.000821 -0.002048)

--------------------------
THERMOCHEMISTRY AT 298.15K
--------------------------

Temperature         ...   298.15 K
Pressure            ...     1.00 atm
Total Mass          ...   167.25 AMU
Quasi RRHO          ...     True
Cut-Off Frequency   ...     1.00 cm^-1

Throughout the following assumptions are being made:
  (1) The electronic state is orbitally nondegenerate
      but the spin degeneracy is treated
  (2) There are no thermally accessible electronically excited states
  (3) Hindered rotations indicated by low frequency modes are not
      treated as such but are treated as vibrations and this may
      cause some error
  (4) All equations used are the standard statistical mechanics
      equations for an ideal gas
  (5) All vibrations are strictly harmonic

freq.      43.61  E(vib)   ...       0.53
freq.      55.46  E(vib)   ...       0.52
freq.     131.34  E(vib)   ...       0.42
freq.     172.08  E(vib)   ...       0.38
freq.     193.99  E(vib)   ...       0.36
freq.     280.18  E(vib)   ...       0.28
freq.     301.49  E(vib)   ...       0.26
freq.     321.33  E(vib)   ...       0.25
freq.     365.64  E(vib)   ...       0.22
freq.     435.27  E(vib)   ...       0.17
freq.     452.70  E(vib)   ...       0.16
freq.     465.01  E(vib)   ...       0.16
freq.     492.27  E(vib)   ...       0.14
freq.     502.37  E(vib)   ...       0.14
freq.     536.78  E(vib)   ...       0.12
freq.     594.59  E(vib)   ...       0.10
freq.     652.28  E(vib)   ...       0.08
freq.     732.75  E(vib)   ...       0.06
freq.     759.47  E(vib)   ...       0.06
freq.     841.30  E(vib)   ...       0.04
freq.     856.68  E(vib)   ...       0.04
freq.     862.68  E(vib)   ...       0.04
freq.     897.95  E(vib)   ...       0.03
freq.     908.91  E(vib)   ...       0.03
freq.     933.63  E(vib)   ...       0.03
freq.     938.68  E(vib)   ...       0.03
freq.     969.69  E(vib)   ...       0.03
freq.     997.77  E(vib)   ...       0.02
freq.    1014.56  E(vib)   ...       0.02
freq.    1073.37  E(vib)   ...       0.02
freq.    1075.51  E(vib)   ...       0.02
freq.    1083.62  E(vib)   ...       0.02
freq.    1096.51  E(vib)   ...       0.02
freq.    1114.13  E(vib)   ...       0.01
freq.    1133.51  E(vib)   ...       0.01
freq.    1151.59  E(vib)   ...       0.01
freq.    1165.93  E(vib)   ...       0.01
freq.    1225.77  E(vib)   ...       0.01
freq.    1237.02  E(vib)   ...       0.01
freq.    1253.62  E(vib)   ...       0.01
freq.    1259.86  E(vib)   ...       0.01
freq.    1271.48  E(vib)   ...       0.01
freq.    1300.60  E(vib)   ...       0.01
freq.    1308.11  E(vib)   ...       0.01
freq.    1333.48  E(vib)   ...       0.01
freq.    1334.90  E(vib)   ...       0.01
freq.    1345.79  E(vib)   ...       0.01
freq.    1363.23  E(vib)   ...       0.01
freq.    1380.51  E(vib)   ...       0.01
freq.    1384.88  E(vib)   ...       0.00
freq.    1392.86  E(vib)   ...       0.00
freq.    1399.96  E(vib)   ...       0.00
freq.    1406.97  E(vib)   ...       0.00
freq.    1412.79  E(vib)   ...       0.00
freq.    1425.14  E(vib)   ...       0.00
freq.    1440.00  E(vib)   ...       0.00
freq.    1462.59  E(vib)   ...       0.00
freq.    1475.60  E(vib)   ...       0.00
freq.    1476.27  E(vib)   ...       0.00
freq.    1481.48  E(vib)   ...       0.00
freq.    1488.40  E(vib)   ...       0.00
freq.    1496.44  E(vib)   ...       0.00
freq.    1522.87  E(vib)   ...       0.00
freq.    1524.28  E(vib)   ...       0.00
freq.    2981.00  E(vib)   ...       0.00
freq.    3009.83  E(vib)   ...       0.00
freq.    3012.25  E(vib)   ...       0.00
freq.    3034.71  E(vib)   ...       0.00
freq.    3053.32  E(vib)   ...       0.00
freq.    3060.29  E(vib)   ...       0.00
freq.    3067.60  E(vib)   ...       0.00
freq.    3084.30  E(vib)   ...       0.00
freq.    3092.15  E(vib)   ...       0.00
freq.    3107.97  E(vib)   ...       0.00
freq.    3131.56  E(vib)   ...       0.00
freq.    3134.77  E(vib)   ...       0.00
freq.    3155.12  E(vib)   ...       0.00
freq.    3155.99  E(vib)   ...       0.00
freq.    3211.82  E(vib)   ...       0.00
freq.    3218.08  E(vib)   ...       0.00
freq.    3237.21  E(vib)   ...       0.00

------------
INNER ENERGY
------------

The inner energy is: U= E(el) + E(ZPE) + E(vib) + E(rot) + E(trans)
    E(el)   - is the total energy from the electronic structure calculation
              = E(kin-el) + E(nuc-el) + E(el-el) + E(nuc-nuc)
    E(ZPE)  - the the zero temperature vibrational energy from the frequency calculation
    E(vib)  - the the finite temperature correction to E(ZPE) due to population
              of excited vibrational states
    E(rot)  - is the rotational thermal energy
    E(trans)- is the translational thermal energy

Summary of contributions to the inner energy U:
Electronic energy                ...   -520.01363302 Eh
Zero point energy                ...      0.26371495 Eh     165.48 kcal/mol
Thermal vibrational correction   ...      0.00798097 Eh       5.01 kcal/mol
Thermal rotational correction    ...      0.00141627 Eh       0.89 kcal/mol
Thermal translational correction ...      0.00141627 Eh       0.89 kcal/mol
-----------------------------------------------------------------------
Total thermal energy                   -519.73910456 Eh

Summary of corrections to the electronic energy:
(perhaps to be used in another calculation)
Total thermal correction                  0.01081352 Eh       6.79 kcal/mol
Non-thermal (ZPE) correction              0.26371495 Eh     165.48 kcal/mol
-----------------------------------------------------------------------
Total correction                          0.27452846 Eh     172.27 kcal/mol

--------
ENTHALPY
--------

The enthalpy is H = U + kB*T
                kB is Boltzmann's constant
Total thermal energy              ...   -519.73910456 Eh
Thermal Enthalpy correction       ...      0.00094421 Eh       0.59 kcal/mol
-----------------------------------------------------------------------
Total Enthalpy                    ...   -519.73816035 Eh

Note: Only C1 symmetry has been detected, increase convergence thresholds
      if your molecule has a higher symmetry. Symmetry factor of 1.0 is
      used for the rotational entropy correction.

Note: Rotational entropy computed according to Herzberg
Infrared and Raman Spectra, Chapter V,1, Van Nostrand Reinhold, 1945
Point Group:  C1, Symmetry Number:   1
Rotational constants in cm-1:     0.071012     0.017984     0.015658

Vibrational entropy computed according to the QRRHO of S. Grimme
Chem.Eur.J. 2012 18 9955 using a reference frequency of 100.0 cm-1

-------
ENTROPY

                             ****ORCA TERMINATED NORMALLY****
TOTAL RUN TIME: 0 days 0 hours 23 minutes 37 seconds 955 msec
