                         Program Version 6.0.0  -   RELEASE  -
|  1> !r2SCAN aug-cc-pVTZ d3 TightSCF SlowConv RIJCOSX defgrid2
|  2>
|  3> %pal
|  4> nprocs 4
|  5> end
|  6>
|  7> %scf
|  8> MaxIter 1500
|  9> end
| 10>
| 11> %maxcore 3000
| 12>
| 13> !CPCM
| 14> %cpcm smd true
| 15> SMDsolvent "MeCN"
| 16> surfacetype gepol_ses
| 17> rsolv 2.19
| 18> end
| 19>
| 20> * xyz 1 2
| 21> C           1.51758494546740     -1.23435025814247     -0.00000948537283
| 22> C           2.20770781647749      0.00001697777377     -0.00002575082433
| 23> C           1.51757870176219      1.23438133176831     -0.00002376652717
| 24> C           0.14399615849667      1.24528780380919     -0.00000994709932
| 25> C          -0.57050335234681      0.00000980865076      0.00000339046104
| 26> C           0.14400107382655     -1.24526565590726      0.00000274901341
| 27> H          -0.41918051446955     -2.18175157250380      0.00001235664707
| 28> C          -1.95875076928202      0.00001227638427      0.00003168049002
| 29> C          -3.18886914512795      0.00003850956088      0.00015576875982
| 30> H          -4.27093083747358      0.00004174929515      0.00024791741498
| 31> H          -0.41918961682318      2.18177237850725     -0.00001398172647
| 32> H           2.07968932476853      2.17184704992506     -0.00003742036749
| 33> H           3.30249892053071      0.00001489531919     -0.00004324082103
| 34> H           2.07970099419353     -2.17181369444030     -0.00001477004770
| 35> *
| 36>
| 37>                          ****END OF INPUT****

CARTESIAN COORDINATES (ANGSTROEM)
---------------------------------
  C      1.517585   -1.234350   -0.000009
  C      2.207708    0.000017   -0.000026
  C      1.517579    1.234381   -0.000024
  C      0.143996    1.245288   -0.000010
  C     -0.570503    0.000010    0.000003
  C      0.144001   -1.245266    0.000003
  H     -0.419181   -2.181752    0.000012
  C     -1.958751    0.000012    0.000032
  C     -3.188869    0.000039    0.000156
  H     -4.270931    0.000042    0.000248
  H     -0.419190    2.181772   -0.000014
  H      2.079689    2.171847   -0.000037
  H      3.302499    0.000015   -0.000043
  H      2.079701   -2.171814   -0.000015

 Total Charge           Charge          ....    1
 Multiplicity           Mult            ....    2
 Number of Electrons    NEL             ....   53
 Basis Dimension        Dim             ....  506

ORBITAL ENERGIES
----------------
                 SPIN UP ORBITALS
  NO   OCC          E(Eh)            E(eV)
   0   1.0000     -10.141432      -275.9624
   1   1.0000     -10.117252      -275.3044
   2   1.0000     -10.112125      -275.1649
   3   1.0000     -10.108627      -275.0697
   4   1.0000     -10.099758      -274.8284
   5   1.0000     -10.099752      -274.8282
   6   1.0000     -10.085726      -274.4466
   7   1.0000     -10.085722      -274.4465
   8   1.0000      -0.883107       -24.0306
   9   1.0000      -0.810884       -22.0653
  10   1.0000      -0.764749       -20.8099
  11   1.0000      -0.754872       -20.5411
  12   1.0000      -0.648688       -17.6517
  13   1.0000      -0.617367       -16.7994
  14   1.0000      -0.558293       -15.1919
  15   1.0000      -0.521382       -14.1875
  16   1.0000      -0.485832       -13.2202
  17   1.0000      -0.473883       -12.8950
  18   1.0000      -0.436184       -11.8692
  19   1.0000      -0.431067       -11.7299
  20   1.0000      -0.414829       -11.2881
  21   1.0000      -0.366420        -9.9708
  22   1.0000      -0.356555        -9.7024
  23   1.0000      -0.352228        -9.5846
  24   1.0000      -0.307277        -8.3614
  25   1.0000      -0.287195        -7.8150
  26   1.0000      -0.283754        -7.7213
  27   0.0000      -0.128474        -3.4960
  28   0.0000      -0.076382        -2.0785
  29   0.0000      -0.037251        -1.0137
  30   0.0000      -0.003556        -0.0968
  31   0.0000       0.003627         0.0987

                 SPIN DOWN ORBITALS
  NO   OCC          E(Eh)            E(eV)
   0   1.0000     -10.137346      -275.8512
   1   1.0000     -10.110444      -275.1192
   2   1.0000     -10.108591      -275.0687
   3   1.0000     -10.106417      -275.0096
   4   1.0000     -10.098367      -274.7905
   5   1.0000     -10.098361      -274.7904
   6   1.0000     -10.086429      -274.4657
   7   1.0000     -10.086426      -274.4656
   8   1.0000      -0.875062       -23.8116
   9   1.0000      -0.800994       -21.7961
  10   1.0000      -0.763328       -20.7712
  11   1.0000      -0.735690       -20.0192
  12   1.0000      -0.639872       -17.4118
  13   1.0000      -0.614131       -16.7113
  14   1.0000      -0.554682       -15.0937
  15   1.0000      -0.517334       -14.0774
  16   1.0000      -0.483019       -13.1436
  17   1.0000      -0.472250       -12.8506
  18   1.0000      -0.433431       -11.7943
  19   1.0000      -0.431218       -11.7340
  20   1.0000      -0.393695       -10.7130
  21   1.0000      -0.365557        -9.9473
  22   1.0000      -0.355182        -9.6650
  23   1.0000      -0.326007        -8.8711
  24   1.0000      -0.303393        -8.2557
  25   1.0000      -0.283149        -7.7049
  26   0.0000      -0.236984        -6.4487
  27   0.0000      -0.093540        -2.5454
  28   0.0000      -0.068121        -1.8537
  29   0.0000      -0.035832        -0.9750
  30   0.0000       0.004918         0.1338

MULLIKEN ATOMIC CHARGES AND SPIN POPULATIONS
--------------------------------------------
   0 C :   -0.442592   -0.051344
   1 C :    0.086113    0.302124
   2 C :   -0.442606   -0.051347
   3 C :   -1.074610    0.059051
   4 C :    1.479931    0.306303
   5 C :   -1.074642    0.059042
   6 H :   -0.259428    0.008987
   7 C :    1.491089   -0.064459
   8 C :   -0.365952    0.391834
   9 H :    0.368707    0.009783
  10 H :   -0.259426    0.008987
  11 H :    0.519025   -0.004539
  12 H :    0.455355    0.030114
  13 H :    0.519039   -0.004534
Sum of atomic charges         :    1.0000000

LOEWDIN ATOMIC CHARGES AND SPIN POPULATIONS
-------------------------------------------
   0 C :    0.274953    0.043517
   1 C :    0.295773    0.166567
   2 C :    0.274954    0.043516
   3 C :    0.270161    0.067724
   4 C :   -0.140512    0.138620
   5 C :    0.270162    0.067723
   6 H :   -0.135390    0.008208
   7 C :    0.094396    0.111660
   8 C :    0.556901    0.258795
   9 H :   -0.212410    0.052777
  10 H :   -0.135388    0.008208
  11 H :   -0.142390   -0.002041
  12 H :   -0.128821    0.036767
  13 H :   -0.142389   -0.002041

  Mayer bond orders larger than 0.100000
B(  0-C ,  1-C ) :   0.9587 B(  0-C ,  3-C ) :   0.1203 B(  0-C ,  4-C ) :   0.5204
B(  0-C ,  5-C ) :   1.4010 B(  0-C ,  6-H ) :  -0.1054 B(  0-C ,  7-C ) :  -0.2068
B(  0-C ,  8-C ) :  -0.1349 B(  0-C , 13-H ) :   0.5519 B(  1-C ,  2-C ) :   0.9587
B(  1-C ,  3-C ) :  -0.2826 B(  1-C ,  4-C ) :  -0.5054 B(  1-C ,  5-C ) :  -0.2826
B(  1-C ,  7-C ) :   0.5061 B(  1-C ,  8-C ) :   0.2303 B(  1-C , 12-H ) :   0.6476
B(  2-C ,  3-C ) :   1.4010 B(  2-C ,  4-C ) :   0.5204 B(  2-C ,  5-C ) :   0.1204
B(  2-C ,  7-C ) :  -0.2068 B(  2-C ,  8-C ) :  -0.1349 B(  2-C , 10-H ) :  -0.1054
B(  2-C , 11-H ) :   0.5519 B(  3-C ,  4-C ) :   0.3125 B(  3-C ,  5-C ) :  -0.4579
B(  3-C ,  6-H ) :   0.3099 B(  3-C ,  7-C ) :   0.2673 B(  3-C ,  8-C ) :  -0.1958
B(  3-C , 10-H ) :   2.0581 B(  3-C , 11-H ) :  -0.1910 B(  4-C ,  5-C ) :   0.3124
B(  4-C ,  6-H ) :   0.2103 B(  4-C ,  8-C ) :   0.8929 B(  4-C ,  9-H ) :   0.1012
B(  4-C , 10-H ) :   0.2102 B(  5-C ,  6-H ) :   2.0582 B(  5-C ,  7-C ) :   0.2673
B(  5-C ,  8-C ) :  -0.1958 B(  5-C , 10-H ) :   0.3099 B(  5-C , 13-H ) :  -0.1910
B(  6-H ,  7-C ) :  -0.5435 B(  6-H ,  8-C ) :  -0.4878 B(  6-H , 10-H ) :   0.4290
B(  7-C ,  8-C ) :   2.1101 B(  7-C ,  9-H ) :  -0.2196 B(  7-C , 10-H ) :  -0.5435
B(  7-C , 11-H ) :   0.1673 B(  7-C , 13-H ) :   0.1673 B(  8-C ,  9-H ) :   1.1137
B(  8-C , 10-H ) :  -0.4878 B(  8-C , 11-H ) :   0.2089 B(  8-C , 13-H ) :   0.2090

Dispersion correction           -0.004119341
FINAL SINGLE POINT ENERGY      -308.098796522376

DIPOLE MOMENT
-------------

Method             : SCF
Type of density    : Electron Density
Multiplicity       :   2
Irrep              :   0
Energy             :  -308.0946771817116314 Eh
Relativity type    :
Basis              : AO
                                X                 Y                 Z
Electronic contribution:     -2.462713468      -0.000003841      -0.000303692
Nuclear contribution   :      2.200402781       0.000011219       0.000050647
                        -----------------------------------------
Total Dipole Moment    :     -0.262310687       0.000007378      -0.000253045
                        -----------------------------------------
Magnitude (a.u.)       :      0.262310809
Magnitude (Debye)      :      0.666741089

Rotational constants in cm-1:             0.181347             0.051878             0.040338
Rotational constants in MHz :          5436.638218          1555.263096          1209.313806

                             ****ORCA TERMINATED NORMALLY****
TOTAL RUN TIME: 0 days 0 hours 2 minutes 34 seconds 914 msec
