                         Program Version 6.0.0  -   RELEASE  -
|  1> !r2SCAN aug-cc-pVTZ d3 TightSCF SlowConv RIJCOSX defgrid2
|  2>
|  3> %pal
|  4> nprocs 4
|  5> end
|  6>
|  7> %scf
|  8> MaxIter 1500
|  9> end
| 10>
| 11> %maxcore 3000
| 12>
| 13> !CPCM
| 14> %cpcm smd true
| 15> SMDsolvent "MeCN"
| 16> surfacetype gepol_ses
| 17> rsolv 2.19
| 18> end
| 19>
| 20> * xyz 0 1
| 21> C          -0.89224376281729     -0.45495718467486     -0.01145470130558
| 22> C          -2.16594085102826      0.11833701228886      0.04668156393021
| 23> C          -2.30980722961896      1.50552350730743      0.05266514185606
| 24> C          -1.18730292615774      2.32642588045932     -0.00578599682476
| 25> C           0.07848662017989      1.74980637635100     -0.06895843233769
| 26> C           0.26274712675783      0.36232202146058     -0.06567493940899
| 27> C           1.58397696911678     -0.26992063342449     -0.12469546497205
| 28> C           2.76363236463117      0.32107143728729      0.12304590513021
| 29> C           4.08799267811931     -0.36052851109315      0.03291116341555
| 30> H           3.98056842183658     -1.41840521263657     -0.26057190910370
| 31> H           4.74505082715594      0.13479691399593     -0.70730718173092
| 32> H           4.62530006868567     -0.32442135861975      0.99958986880157
| 33> H           2.78503020251791      1.37712737104795      0.42569396767337
| 34> H           1.57849606749139     -1.33419620856152     -0.38398649131753
| 35> H           0.95757732762518      2.39636581691597     -0.14038478463746
| 36> H          -1.29519718094620      3.41448711016187     -0.01311105785373
| 37> H          -3.31277371923385      1.94023584815831      0.09753461625361
| 38> H          -3.05632729029775     -0.51114095186127      0.09086976233295
| 39> O          -0.67674575407500     -1.78893966045310     -0.01378813421896
| 40> C          -1.76950811946695     -2.65856738104043      0.02444914878564
| 41> H          -2.43311749477465     -2.52415123007072     -0.85159816615208
| 42> H          -2.36466392584911     -2.52857531091088      0.94882566481095
| 43> H          -1.35670891985190     -3.67848395208777      0.00674595687332
| 44> *
| 45>
| 46>                          ****END OF INPUT****

CARTESIAN COORDINATES (ANGSTROEM)
---------------------------------
  C     -0.892244   -0.454957   -0.011455
  C     -2.165941    0.118337    0.046682
  C     -2.309807    1.505524    0.052665
  C     -1.187303    2.326426   -0.005786
  C      0.078487    1.749806   -0.068958
  C      0.262747    0.362322   -0.065675
  C      1.583977   -0.269921   -0.124695
  C      2.763632    0.321071    0.123046
  C      4.087993   -0.360529    0.032911
  H      3.980568   -1.418405   -0.260572
  H      4.745051    0.134797   -0.707307
  H      4.625300   -0.324421    0.999590
  H      2.785030    1.377127    0.425694
  H      1.578496   -1.334196   -0.383986
  H      0.957577    2.396366   -0.140385
  H     -1.295197    3.414487   -0.013111
  H     -3.312774    1.940236    0.097535
  H     -3.056327   -0.511141    0.090870
  O     -0.676746   -1.788940   -0.013788
  C     -1.769508   -2.658567    0.024449
  H     -2.433117   -2.524151   -0.851598
  H     -2.364664   -2.528575    0.948826
  H     -1.356709   -3.678484    0.006746

 Total Charge           Charge          ....    0
 Multiplicity           Mult            ....    1
 Number of Electrons    NEL             ....   80
 Basis Dimension        Dim             ....  782

ORBITAL ENERGIES
----------------

  NO   OCC          E(Eh)            E(eV)
   0   2.0000     -18.991769      -516.7923
   1   2.0000     -10.100169      -274.8396
   2   2.0000     -10.078462      -274.2489
   3   2.0000     -10.048191      -273.4252
   4   2.0000     -10.039628      -273.1922
   5   2.0000     -10.039301      -273.1833
   6   2.0000     -10.038728      -273.1677
   7   2.0000     -10.036401      -273.1044
   8   2.0000     -10.033425      -273.0234
   9   2.0000     -10.032853      -273.0078
  10   2.0000     -10.027258      -272.8556
  11   2.0000      -1.042272       -28.3617
  12   2.0000      -0.824144       -22.4261
  13   2.0000      -0.765737       -20.8368
  14   2.0000      -0.724691       -19.7198
  15   2.0000      -0.712957       -19.4005
  16   2.0000      -0.663013       -18.0415
  17   2.0000      -0.640465       -17.4280
  18   2.0000      -0.579856       -15.7787
  19   2.0000      -0.553704       -15.0671
  20   2.0000      -0.514747       -14.0070
  21   2.0000      -0.497824       -13.5465
  22   2.0000      -0.457763       -12.4564
  23   2.0000      -0.446018       -12.1368
  24   2.0000      -0.435086       -11.8393
  25   2.0000      -0.413624       -11.2553
  26   2.0000      -0.401856       -10.9351
  27   2.0000      -0.387065       -10.5326
  28   2.0000      -0.377003       -10.2588
  29   2.0000      -0.371960       -10.1215
  30   2.0000      -0.354998        -9.6600
  31   2.0000      -0.349609        -9.5133
  32   2.0000      -0.330802        -9.0016
  33   2.0000      -0.325664        -8.8618
  34   2.0000      -0.306541        -8.3414
  35   2.0000      -0.295322        -8.0361
  36   2.0000      -0.286731        -7.8023
  37   2.0000      -0.272816        -7.4237
  38   2.0000      -0.220414        -5.9978
  39   2.0000      -0.193207        -5.2574
  40   0.0000      -0.061320        -1.6686
  41   0.0000      -0.022284        -0.6064
  42   0.0000       0.006330         0.1722
  43   0.0000       0.017103         0.4654
  44   0.0000       0.018494         0.5032

MULLIKEN ATOMIC CHARGES
-----------------------
   0 C :    0.601487
   1 C :   -0.634040
   2 C :   -0.276287
   3 C :   -0.815209
   4 C :   -0.595392
   5 C :    1.417822
   6 C :    0.137920
   7 C :   -0.267263
   8 C :   -0.719382
   9 H :    0.239428
  10 H :    0.183984
  11 H :    0.143285
  12 H :    0.139899
  13 H :    0.037200
  14 H :   -0.209963
  15 H :    0.566171
  16 H :    0.333657
  17 H :    0.508547
  18 O :   -0.824052
  19 C :   -0.748193
  20 H :    0.286165
  21 H :    0.289859
  22 H :    0.204355
Sum of atomic charges:    0.0000000

LOEWDIN ATOMIC CHARGES
----------------------
   0 C :   -0.378036
   1 C :    0.198359
   2 C :    0.177485
   3 C :    0.180922
   4 C :    0.187807
   5 C :   -0.139627
   6 C :    0.192986
   7 C :    0.196752
   8 C :    0.551775
   9 H :   -0.174404
  10 H :   -0.164519
  11 H :   -0.164897
  12 H :   -0.181347
  13 H :   -0.207554
  14 H :   -0.181131
  15 H :   -0.177144
  16 H :   -0.171704
  17 H :   -0.194093
  18 O :    0.604824
  19 C :    0.330172
  20 H :   -0.159497
  21 H :   -0.160077
  22 H :   -0.167051

  Mayer bond orders larger than 0.100000
B(  0-C ,  1-C ) :   1.2403 B(  0-C ,  2-C ) :  -0.4948 B(  0-C ,  3-C ) :   0.1403
B(  0-C ,  4-C ) :  -1.2545 B(  0-C ,  5-C ) :   0.5786 B(  0-C ,  7-C ) :   0.2477
B(  0-C , 14-H ) :   0.1110 B(  0-C , 16-H ) :   0.3916 B(  0-C , 17-H ) :  -0.2184
B(  0-C , 18-O ) :   0.5069 B(  1-C ,  2-C ) :   0.6695 B(  1-C ,  3-C ) :   0.3838
B(  1-C ,  4-C ) :  -0.1920 B(  1-C ,  5-C ) :   0.2248 B(  1-C , 14-H ) :  -0.1572
B(  1-C , 17-H ) :   0.1452 B(  1-C , 18-O ) :  -0.1448 B(  1-C , 19-C ) :  -0.1037
B(  2-C ,  3-C ) :   0.9947 B(  2-C ,  4-C ) :  -0.2972 B(  2-C ,  6-C ) :   0.1364
B(  2-C , 15-H ) :   0.1414 B(  2-C , 16-H ) :   0.8892 B(  2-C , 17-H ) :   0.3065
B(  3-C ,  4-C ) :   0.8702 B(  3-C ,  5-C ) :   0.2870 B(  3-C , 14-H ) :  -0.1433
B(  3-C , 15-H ) :   0.2939 B(  3-C , 16-H ) :  -0.1402 B(  3-C , 17-H ) :  -0.2110
B(  4-C ,  5-C ) :   0.7507 B(  4-C ,  6-C ) :   0.2162 B(  4-C , 14-H ) :   1.8718
B(  4-C , 17-H ) :   0.2306 B(  5-C , 12-H ) :  -0.1200 B(  5-C , 14-H ) :  -0.2210
B(  5-C , 16-H ) :  -0.2651 B(  5-C , 17-H ) :   0.1480 B(  6-C ,  7-C ) :   0.8215
B(  6-C , 13-H ) :   1.1520 B(  6-C , 16-H ) :   0.1003 B(  7-C ,  8-C ) :   0.6224
B(  7-C , 12-H ) :   1.2154 B(  7-C , 13-H ) :  -0.1378 B(  8-C ,  9-H ) :   0.9347
B(  8-C , 10-H ) :   1.0235 B(  8-C , 11-H ) :   1.0799 B(  8-C , 12-H ) :  -0.1096
B( 16-H , 18-O ) :  -0.1083 B( 17-H , 19-C ) :  -0.1483 B( 18-O , 19-C ) :   1.1805
B( 19-C , 20-H ) :   0.8927 B( 19-C , 21-H ) :   0.8822 B( 19-C , 22-H ) :   1.0211

Dispersion correction           -0.007169891
FINAL SINGLE POINT ENERGY      -463.403169832562

DIPOLE MOMENT
-------------

Method             : SCF
Type of density    : Electron Density
Multiplicity       :   1
Irrep              :   0
Energy             :  -463.3959999419647033 Eh
Relativity type    :
Basis              : AO
                                X                 Y                 Z
Electronic contribution:     -4.894258437       2.429378897      -0.159319220
Nuclear contribution   :      4.581656227      -2.893948868       0.196564691
                        -----------------------------------------
Total Dipole Moment    :     -0.312602211      -0.464569971       0.037245470
                        -----------------------------------------
Magnitude (a.u.)       :      0.561188582
Magnitude (Debye)      :      1.426428016

Rotational constants in cm-1:             0.050912             0.026902             0.017755
Rotational constants in MHz :          1526.296449           806.510912           532.292368

                             ****ORCA TERMINATED NORMALLY****
TOTAL RUN TIME: 0 days 0 hours 4 minutes 26 seconds 202 msec
