                         Program Version 6.0.0  -   RELEASE  -
|  1> !PBE0 def2-SV(p) Opt Freq d3 TightSCF SlowConv RIJCOSX defgrid2
|  2>
|  3> %pal
|  4> nprocs 4
|  5> end
|  6>
|  7> %scf
|  8> MaxIter 1500
|  9> end
| 10>
| 11> %maxcore 3000
| 12>
| 13>
| 14>
| 15> * xyz 0 1
| 16> C    -0.2273190   -1.2010609   -0.0091853
| 17> C     1.1536828   -1.1961793    0.0012411
| 18> C     1.8534806   -0.0000305    0.0056888
| 19> C     1.1537128    1.1961357    0.0012550
| 20> C    -0.2272891    1.2010528   -0.0091764
| 21> C    -0.9409450    0.0000050   -0.0130172
| 22> N    -2.3182284    0.0000217    0.0503277
| 23> H    -2.7786390    0.8481656   -0.2375823
| 24> H    -2.7786555   -0.8481159   -0.2375725
| 25> H    -0.7677096    2.1372532   -0.0130371
| 26> H     1.6899094    2.1347500    0.0025793
| 27> H     2.9334770   -0.0000442    0.0110488
| 28> H     1.6898562   -2.1348070    0.0025871
| 29> H    -0.7677636   -2.1372472   -0.0130333
| 30> *
| 31>
| 32>                          ****END OF INPUT****
 Total Charge           Charge          ....    0
 Multiplicity           Mult            ....    1
 Number of Electrons    NEL             ....   50
Dispersion correction           -0.011485270
FINAL SINGLE POINT ENERGY      -287.048636909520
Dispersion correction             ... done (  0.1 sec)
Dispersion correction           -0.011434014
FINAL SINGLE POINT ENERGY      -287.049955763141
Dispersion correction             ... done (  0.1 sec)
Dispersion correction           -0.011429988
FINAL SINGLE POINT ENERGY      -287.049981905940
Dispersion correction             ... done (  0.1 sec)
Dispersion correction           -0.011428840
FINAL SINGLE POINT ENERGY      -287.049989325109
Dispersion correction             ... done (  0.1 sec)
                    ***********************HURRAY********************

CARTESIAN COORDINATES (ANGSTROEM)
---------------------------------
  C     -0.229978   -1.206091   -0.000461
  C      1.161284   -1.200313    0.000414
  C      1.872545   -0.000030    0.000720
  C      1.161314    1.200269    0.000414
  C     -0.229947    1.206082   -0.000462
  C     -0.952185    0.000004   -0.000038
  N     -2.333409    0.000022    0.046538
  H     -2.798555    0.848214   -0.254834
  H     -2.798575   -0.848161   -0.254828
  H     -0.773444    2.156762    0.002984
  H      1.698178    2.154199   -0.000797
  H      2.965713   -0.000044    0.000286
  H      1.698125   -2.154255   -0.000797
  H     -0.773498   -2.156758    0.002985

 Multiplicity           Mult            ....    1
 Number of Electrons    NEL             ....   50
 Basis Dimension        Dim             ....  112

ORBITAL ENERGIES
----------------

  NO   OCC          E(Eh)            E(eV)
   0   2.0000     -14.391900      -391.6235
   1   2.0000     -10.273107      -279.5454
   2   2.0000     -10.228672      -278.3363
   3   2.0000     -10.228657      -278.3359
   4   2.0000     -10.223361      -278.1918
   5   2.0000     -10.223357      -278.1917
   6   2.0000     -10.217645      -278.0363
   7   2.0000      -0.937974       -25.5236
   8   2.0000      -0.849707       -23.1217
   9   2.0000      -0.753727       -20.5099
  10   2.0000      -0.735406       -20.0114
  11   2.0000      -0.622409       -16.9366
  12   2.0000      -0.609290       -16.5796
  13   2.0000      -0.538715       -14.6592
  14   2.0000      -0.525935       -14.3114
  15   2.0000      -0.487063       -13.2537
  16   2.0000      -0.440738       -11.9931
  17   2.0000      -0.440021       -11.9736
  18   2.0000      -0.425931       -11.5902
  19   2.0000      -0.397004       -10.8030
  20   2.0000      -0.365813        -9.9543
  21   2.0000      -0.347580        -9.4581
  22   2.0000      -0.322989        -8.7890
  23   2.0000      -0.258753        -7.0410
  24   2.0000      -0.211532        -5.7561
  25   0.0000       0.005626         0.1531
  26   0.0000       0.022499         0.6122
  27   0.0000       0.066476         1.8089
  28   0.0000       0.084075         2.2878
  29   0.0000       0.099146         2.6979

MULLIKEN ATOMIC CHARGES
-----------------------
   0 C :   -0.158148
   1 C :   -0.100788
   2 C :   -0.103800
   3 C :   -0.100787
   4 C :   -0.158151
   5 C :    0.157418
   6 N :   -0.434468
   7 H :    0.245695
   8 H :    0.245695
   9 H :    0.068160
  10 H :    0.091599
  11 H :    0.087815
  12 H :    0.091599
  13 H :    0.068161
Sum of atomic charges:    0.0000000

LOEWDIN ATOMIC CHARGES
----------------------
   0 C :   -0.171280
   1 C :   -0.117442
   2 C :   -0.168174
   3 C :   -0.117442
   4 C :   -0.171280
   5 C :    0.004765
   6 N :   -0.346682
   7 H :    0.231441
   8 H :    0.231441
   9 H :    0.122655
  10 H :    0.126927
  11 H :    0.125490
  12 H :    0.126927
  13 H :    0.122655

  Mayer bond orders larger than 0.100000
B(  0-C ,  1-C ) :   1.4160 B(  0-C ,  5-C ) :   1.3410 B(  0-C , 13-H ) :   0.9620
B(  1-C ,  2-C ) :   1.3849 B(  1-C , 12-H ) :   0.9604 B(  2-C ,  3-C ) :   1.3849
B(  2-C , 11-H ) :   0.9668 B(  3-C ,  4-C ) :   1.4160 B(  3-C , 10-H ) :   0.9604
B(  4-C ,  5-C ) :   1.3410 B(  4-C ,  9-H ) :   0.9620 B(  5-C ,  6-N ) :   1.1969
B(  6-N ,  7-H ) :   0.8811 B(  6-N ,  8-H ) :   0.8811

Dispersion correction           -0.011429003
FINAL SINGLE POINT ENERGY      -287.049990402395

DIPOLE MOMENT
-------------

Method             : SCF
Type of density    : Electron Density
Multiplicity       :   1
Irrep              :   0
Energy             :  -287.0385613992573894 Eh
Relativity type    :
Basis              : AO
                                X                 Y                 Z
Electronic contribution:      0.078320033      -0.000000190       0.122256139
Nuclear contribution   :     -0.743352745       0.000007126      -0.484101489
                        -----------------------------------------
Total Dipole Moment    :     -0.665032711       0.000006936      -0.361845350
                        -----------------------------------------
Magnitude (a.u.)       :      0.757100102
Magnitude (Debye)      :      1.924395526

VIBRATIONAL FREQUENCIES
-----------------------

Scaling factor for frequencies =  1.000000000  (already applied!)

     0:       0.00 cm**-1
     1:       0.00 cm**-1
     2:       0.00 cm**-1
     3:       0.00 cm**-1
     4:       0.00 cm**-1
     5:       0.00 cm**-1
     6:     223.36 cm**-1
     7:     327.60 cm**-1
     8:     386.13 cm**-1
     9:     422.46 cm**-1
    10:     479.41 cm**-1
    11:     535.02 cm**-1
    12:     539.66 cm**-1
    13:     633.04 cm**-1
    14:     715.29 cm**-1
    15:     776.47 cm**-1
    16:     833.62 cm**-1
    17:     845.95 cm**-1
    18:     898.09 cm**-1
    19:     978.83 cm**-1
    20:    1002.60 cm**-1
    21:    1010.14 cm**-1
    22:    1063.26 cm**-1
    23:    1069.90 cm**-1
    24:    1134.39 cm**-1
    25:    1168.40 cm**-1
    26:    1193.88 cm**-1
    27:    1350.30 cm**-1
    28:    1357.83 cm**-1
    29:    1411.07 cm**-1
    30:    1518.95 cm**-1
    31:    1559.87 cm**-1
    32:    1657.06 cm**-1
    33:    1671.78 cm**-1
    34:    1710.57 cm**-1
    35:    3180.80 cm**-1
    36:    3182.21 cm**-1
    37:    3198.62 cm**-1
    38:    3204.22 cm**-1
    39:    3221.73 cm**-1
    40:    3568.11 cm**-1
    41:    3666.39 cm**-1

IR SPECTRUM
-----------

 Mode   freq       eps      Int      T**2         TX        TY        TZ
       cm**-1   L/(mol*cm) km/mol    a.u.
----------------------------------------------------------------------------
  6:    223.36   0.001302    6.58  0.001820  (-0.021013 -0.000000  0.037123)
  7:    327.60   0.003201   16.18  0.003049  ( 0.000005  0.055218 -0.000005)
  8:    386.13   0.000071    0.36  0.000057  (-0.000001 -0.007569  0.000002)
  9:    422.46   0.000044    0.22  0.000032  ( 0.000002  0.005669 -0.000002)
 10:    479.41   0.060736  306.94  0.039535  ( 0.138617 -0.000003 -0.142550)
 11:    535.02   0.004857   24.55  0.002833  (-0.051183  0.000001  0.014608)
 12:    539.66   0.003389   17.13  0.001960  (-0.040850  0.000001  0.017066)
 13:    633.04   0.000068    0.35  0.000034  (-0.000000 -0.005809  0.000000)
 14:    715.29   0.006117   30.91  0.002669  ( 0.000086 -0.000000  0.051659)
 15:    776.47   0.009041   45.69  0.003634  (-0.009149  0.000000  0.059582)
 16:    833.62   0.000012    0.06  0.000004  (-0.000001  0.002093 -0.000000)
 17:    845.95   0.000861    4.35  0.000318  ( 0.017491  0.000000  0.003438)
 18:    898.09   0.001858    9.39  0.000646  (-0.004354  0.000000  0.025033)
 19:    978.83   0.000000    0.00  0.000000  ( 0.000000  0.000091 -0.000000)
 20:   1002.60   0.000055    0.28  0.000017  ( 0.001214  0.000000 -0.003944)
 21:   1010.14   0.000170    0.86  0.000053  ( 0.006539 -0.000000  0.003121)
 22:   1063.26   0.000786    3.97  0.000231  (-0.015185  0.000001  0.000156)
 23:   1069.90   0.000520    2.63  0.000152  ( 0.000001  0.012318  0.000000)
 24:   1134.39   0.001121    5.67  0.000308  ( 0.000000  0.017562 -0.000000)
 25:   1168.40   0.000318    1.61  0.000085  (-0.000001  0.009221  0.000000)
 26:   1193.88   0.001576    7.97  0.000412  (-0.020290 -0.000001 -0.000555)
 27:   1350.30   0.008614   43.53  0.001991  ( 0.044563 -0.000001 -0.002234)
 28:   1357.83   0.000000    0.00  0.000000  (-0.000002 -0.000077  0.000000)
 29:   1411.07   0.002640   13.34  0.000584  (-0.000000  0.024161 -0.000000)
 30:   1518.95   0.000183    0.93  0.000038  (-0.000000 -0.006137 -0.000000)
 31:   1559.87   0.013165   66.53  0.002634  ( 0.051234 -0.000001 -0.002956)
 32:   1657.06   0.011193   56.56  0.002108  (-0.043010  0.000001 -0.016063)
 33:   1671.78   0.001276    6.45  0.000238  (-0.000004 -0.015430 -0.000000)
 34:   1710.57   0.032785  165.68  0.005981  (-0.077214  0.000002 -0.004349)
 35:   3180.80   0.003124   15.79  0.000307  ( 0.017507  0.000002  0.000115)
 36:   3182.21   0.000813    4.11  0.000080  ( 0.000005 -0.008928  0.000000)
 37:   3198.62   0.000449    2.27  0.000044  (-0.006615 -0.000004 -0.000020)
 38:   3204.22   0.005145   26.00  0.000501  (-0.000001  0.022384 -0.000000)
 39:   3221.73   0.001823    9.21  0.000177  ( 0.013289  0.000001  0.000037)
 40:   3568.11   0.006845   34.59  0.000599  (-0.022607  0.000000 -0.009358)
 41:   3666.39   0.004496   22.72  0.000383  (-0.000000  0.019562 -0.000000)

--------------------------
THERMOCHEMISTRY AT 298.15K
--------------------------

Temperature         ...   298.15 K
Pressure            ...     1.00 atm
Total Mass          ...    93.13 AMU
Quasi RRHO          ...     True
Cut-Off Frequency   ...     1.00 cm^-1

Throughout the following assumptions are being made:
  (1) The electronic state is orbitally nondegenerate
  (2) There are no thermally accessible electronically excited states
  (3) Hindered rotations indicated by low frequency modes are not
      treated as such but are treated as vibrations and this may
      cause some error
  (4) All equations used are the standard statistical mechanics
      equations for an ideal gas
  (5) All vibrations are strictly harmonic

freq.     223.36  E(vib)   ...       0.33
freq.     327.60  E(vib)   ...       0.24
freq.     386.13  E(vib)   ...       0.20
freq.     422.46  E(vib)   ...       0.18
freq.     479.41  E(vib)   ...       0.15
freq.     535.02  E(vib)   ...       0.13
freq.     539.66  E(vib)   ...       0.12
freq.     633.04  E(vib)   ...       0.09
freq.     715.29  E(vib)   ...       0.07
freq.     776.47  E(vib)   ...       0.05
freq.     833.62  E(vib)   ...       0.04
freq.     845.95  E(vib)   ...       0.04
freq.     898.09  E(vib)   ...       0.03
freq.     978.83  E(vib)   ...       0.03
freq.    1002.60  E(vib)   ...       0.02
freq.    1010.14  E(vib)   ...       0.02
freq.    1063.26  E(vib)   ...       0.02
freq.    1069.90  E(vib)   ...       0.02
freq.    1134.39  E(vib)   ...       0.01
freq.    1168.40  E(vib)   ...       0.01
freq.    1193.88  E(vib)   ...       0.01
freq.    1350.30  E(vib)   ...       0.01
freq.    1357.83  E(vib)   ...       0.01
freq.    1411.07  E(vib)   ...       0.00
freq.    1518.95  E(vib)   ...       0.00
freq.    1559.87  E(vib)   ...       0.00
freq.    1657.06  E(vib)   ...       0.00
freq.    1671.78  E(vib)   ...       0.00
freq.    1710.57  E(vib)   ...       0.00
freq.    3180.80  E(vib)   ...       0.00
freq.    3182.21  E(vib)   ...       0.00
freq.    3198.62  E(vib)   ...       0.00
freq.    3204.22  E(vib)   ...       0.00
freq.    3221.73  E(vib)   ...       0.00
freq.    3568.11  E(vib)   ...       0.00
freq.    3666.39  E(vib)   ...       0.00

------------
INNER ENERGY
------------

The inner energy is: U= E(el) + E(ZPE) + E(vib) + E(rot) + E(trans)
    E(el)   - is the total energy from the electronic structure calculation
              = E(kin-el) + E(nuc-el) + E(el-el) + E(nuc-nuc)
    E(ZPE)  - the the zero temperature vibrational energy from the frequency calculation
    E(vib)  - the the finite temperature correction to E(ZPE) due to population
              of excited vibrational states
    E(rot)  - is the rotational thermal energy
    E(trans)- is the translational thermal energy

Summary of contributions to the inner energy U:
Electronic energy                ...   -287.04999040 Eh
Zero point energy                ...      0.11777452 Eh      73.90 kcal/mol
Thermal vibrational correction   ...      0.00295051 Eh       1.85 kcal/mol
Thermal rotational correction    ...      0.00141627 Eh       0.89 kcal/mol
Thermal translational correction ...      0.00141627 Eh       0.89 kcal/mol
-----------------------------------------------------------------------
Total thermal energy                   -286.92643283 Eh

Summary of corrections to the electronic energy:
(perhaps to be used in another calculation)
Total thermal correction                  0.00578305 Eh       3.63 kcal/mol
Non-thermal (ZPE) correction              0.11777452 Eh      73.90 kcal/mol
-----------------------------------------------------------------------
Total correction                          0.12355757 Eh      77.53 kcal/mol

--------
ENTHALPY
--------

The enthalpy is H = U + kB*T
                kB is Boltzmann's constant
Total thermal energy              ...   -286.92643283 Eh
Thermal Enthalpy correction       ...      0.00094421 Eh       0.59 kcal/mol
-----------------------------------------------------------------------
Total Enthalpy                    ...   -286.92548863 Eh

Note: Rotational entropy computed according to Herzberg
Infrared and Raman Spectra, Chapter V,1, Van Nostrand Reinhold, 1945
Point Group:  Cs, Symmetry Number:   1
Rotational constants in cm-1:     0.187523     0.086550     0.059285

Vibrational entropy computed according to the QRRHO of S. Grimme
Chem.Eur.J. 2012 18 9955 using a reference frequency of 100.0 cm-1

-------
ENTROPY
-------

The entropy contributions are T*S = T*(S(el)+S(vib)+S(rot)+S(trans))
     S(el)   - electronic entropy
     S(vib)  - vibrational entropy
     S(rot)  - rotational entropy
     S(trans)- translational entropy
The entropies will be listed as multiplied by the temperature to get
units of energy

Electronic entropy                ...      0.00000000 Eh      0.00 kcal/mol
Vibrational entropy               ...      0.00429893 Eh      2.70 kcal/mol
Rotational entropy                ...      0.01279008 Eh      8.03 kcal/mol
Translational entropy             ...      0.01877043 Eh     11.78 kcal/mol
-----------------------------------------------------------------------
Final entropy term                ...      0.03585944 Eh     22.50 kcal/mol

In case the symmetry of your molecule has not been determined correctly
or in case you have a reason to use a different symmetry number we print
out the resulting rotational entropy values for sn=1,12:

 non-linear molecules -----------------------------------
|  sn= 1 | S(rot)=       0.01279008 Eh      8.03 kcal/mol|
|  sn= 2 | S(rot)=       0.01213563 Eh      7.62 kcal/mol|
|  sn= 3 | S(rot)=       0.01175280 Eh      7.37 kcal/mol|
|  sn= 4 | S(rot)=       0.01148117 Eh      7.20 kcal/mol|
|  sn= 5 | S(rot)=       0.01127048 Eh      7.07 kcal/mol|
|  sn= 6 | S(rot)=       0.01109834 Eh      6.96 kcal/mol|
|  sn= 7 | S(rot)=       0.01095279 Eh      6.87 kcal/mol|
|  sn= 8 | S(rot)=       0.01082671 Eh      6.79 kcal/mol|
|  sn= 9 | S(rot)=       0.01071551 Eh      6.72 kcal/mol|
|  sn=10 | S(rot)=       0.01061603 Eh      6.66 kcal/mol|
|  sn=11 | S(rot)=       0.01052604 Eh      6.61 kcal/mol|
|  sn=12 | S(rot)=       0.01044388 Eh      6.55 kcal/mol|
 linear molecules ---------------------------------------
|  Dinfh | S(rot)=       0.00799349 Eh      5.02 kcal/mol|
|  Cinfv | S(rot)=       0.00864795 Eh      5.43 kcal/mol|
 --------------------------------------------------------

-------------------
GIBBS FREE ENERGY
-------------------

The Gibbs free energy is G = H - T*S

Total enthalpy                    ...   -286.92548863 Eh
Total entropy correction          ...     -0.03585944 Eh    -22.50 kcal/mol
-----------------------------------------------------------------------
Final Gibbs free energy         ...   -286.96134807 Eh

                             ****ORCA TERMINATED NORMALLY****
TOTAL RUN TIME: 0 days 0 hours 5 minutes 8 seconds 113 msec
