                         Program Version 6.0.0  -   RELEASE  -
|  1> !B3LYP aug-cc-pVTZ d3 TightSCF SlowConv RIJCOSX defgrid2
|  2>
|  3> %pal
|  4> nprocs 4
|  5> end
|  6>
|  7> %scf
|  8> MaxIter 1500
|  9> end
| 10>
| 11> %maxcore 3000
| 12>
| 13> !CPCM
| 14> %cpcm smd true
| 15> SMDsolvent "MeCN"
| 16> surfacetype gepol_ses
| 17> rsolv 2.19
| 18> end
| 19>
| 20> * xyz 0 1
| 21> C           1.25000164855842     -1.41071448361037     -0.00000168415599
| 22> C           2.42472534447790     -0.69479139615512     -0.00000685047100
| 23> C           2.39854270226079      0.72067524520134     -0.00000877481015
| 24> C           1.20117735810590      1.39751150319993     -0.00000445095683
| 25> C          -0.02745588139686      0.68852480495358      0.00000564240260
| 26> N          -1.18625775877000      1.39381645036295      0.00001070560090
| 27> C          -2.31490188933646      0.73049306279294      0.00001689560908
| 28> C          -2.40570196692451     -0.68397826108981      0.00001755935062
| 29> C          -1.24368635715401     -1.41618109472248      0.00000969922177
| 30> C           0.00094011374072     -0.74022051327369      0.00000330710167
| 31> H          -1.26232776653674     -2.51106064954577      0.00000897425095
| 32> H          -3.38563440939795     -1.16889742637107      0.00002394159015
| 33> H          -3.23552246654660      1.32983924434354      0.00002054423920
| 34> H           1.15201317629262      2.48898402488494     -0.00000554947415
| 35> H           3.34113721025286      1.27611845570769     -0.00001383228755
| 36> H           3.38561855542436     -1.21756928095046     -0.00000963669760
| 37> H           1.26320168694954     -2.50529278572813     -0.00000049051368
| 38> *
| 39>
| 40>                          ****END OF INPUT****

CARTESIAN COORDINATES (ANGSTROEM)
---------------------------------
  C      1.250002   -1.410714   -0.000002
  C      2.424725   -0.694791   -0.000007
  C      2.398543    0.720675   -0.000009
  C      1.201177    1.397512   -0.000004
  C     -0.027456    0.688525    0.000006
  N     -1.186258    1.393816    0.000011
  C     -2.314902    0.730493    0.000017
  C     -2.405702   -0.683978    0.000018
  C     -1.243686   -1.416181    0.000010
  C      0.000940   -0.740221    0.000003
  H     -1.262328   -2.511061    0.000009
  H     -3.385634   -1.168897    0.000024
  H     -3.235522    1.329839    0.000021
  H      1.152013    2.488984   -0.000006
  H      3.341137    1.276118   -0.000014
  H      3.385619   -1.217569   -0.000010
  H      1.263202   -2.505293   -0.000000

 Total Charge           Charge          ....    0
 Multiplicity           Mult            ....    1
 Number of Electrons    NEL             ....   68
 Basis Dimension        Dim             ....  621

ORBITAL ENERGIES
----------------

  NO   OCC          E(Eh)            E(eV)
   0   2.0000     -14.317777      -389.6065
   1   2.0000     -10.214150      -277.9411
   2   2.0000     -10.212259      -277.8897
   3   2.0000     -10.193308      -277.3740
   4   2.0000     -10.192679      -277.3569
   5   2.0000     -10.182621      -277.0832
   6   2.0000     -10.182356      -277.0760
   7   2.0000     -10.182083      -277.0686
   8   2.0000     -10.180479      -277.0249
   9   2.0000     -10.177689      -276.9490
  10   2.0000      -0.951559       -25.8932
  11   2.0000      -0.851740       -23.1770
  12   2.0000      -0.807694       -21.9785
  13   2.0000      -0.752778       -20.4841
  14   2.0000      -0.740840       -20.1593
  15   2.0000      -0.642743       -17.4899
  16   2.0000      -0.630616       -17.1599
  17   2.0000      -0.601469       -16.3668
  18   2.0000      -0.526741       -14.3333
  19   2.0000      -0.514026       -13.9873
  20   2.0000      -0.505266       -13.7490
  21   2.0000      -0.453664       -12.3448
  22   2.0000      -0.437481       -11.9045
  23   2.0000      -0.427529       -11.6337
  24   2.0000      -0.419675       -11.4199
  25   2.0000      -0.407900       -11.0995
  26   2.0000      -0.400160       -10.8889
  27   2.0000      -0.357733        -9.7344
  28   2.0000      -0.348939        -9.4951
  29   2.0000      -0.348450        -9.4818
  30   2.0000      -0.312243        -8.4966
  31   2.0000      -0.266465        -7.2509
  32   2.0000      -0.256572        -6.9817
  33   2.0000      -0.238690        -6.4951
  34   0.0000      -0.061078        -1.6620
  35   0.0000      -0.025788        -0.7017
  36   0.0000      -0.002565        -0.0698
  37   0.0000       0.000865         0.0235
  38   0.0000       0.008481         0.2308

MULLIKEN ATOMIC CHARGES
-----------------------
   0 C :   -0.983980
   1 C :   -0.494010
   2 C :   -0.202677
   3 C :   -0.966333
   4 C :    0.699789
   5 N :   -0.708316
   6 C :   -0.525126
   7 C :   -0.298434
   8 C :   -0.943111
   9 C :    1.777957
  10 H :    0.422171
  11 H :    0.232499
  12 H :    0.575165
  13 H :    0.340705
  14 H :    0.451237
  15 H :    0.594939
  16 H :    0.027524
Sum of atomic charges:    0.0000000

LOEWDIN ATOMIC CHARGES
----------------------
   0 C :    0.213189
   1 C :    0.195612
   2 C :    0.192706
   3 C :    0.199301
   4 C :   -0.320503
   5 N :    0.368648
   6 C :    0.002461
   7 C :    0.214051
   8 C :    0.220927
   9 C :   -0.127531
  10 H :   -0.148089
  11 H :   -0.166846
  12 H :   -0.179147
  13 H :   -0.172023
  14 H :   -0.166803
  15 H :   -0.167265
  16 H :   -0.158687

  Mayer bond orders larger than 0.100000
B(  0-C ,  1-C ) :   1.2204 B(  0-C ,  2-C ) :  -0.2289 B(  0-C ,  4-C ) :  -0.5649
B(  0-C ,  8-C ) :   0.4227 B(  0-C ,  9-C ) :   0.1670 B(  0-C , 15-H ) :  -0.1909
B(  0-C , 16-H ) :   1.5286 B(  1-C ,  2-C ) :   1.0018 B(  1-C ,  9-C ) :   0.1079
B(  1-C , 15-H ) :   0.3980 B(  2-C ,  3-C ) :   1.2262 B(  2-C ,  4-C ) :  -0.2383
B(  2-C ,  7-C ) :   0.1348 B(  2-C ,  8-C ) :   0.1443 B(  2-C ,  9-C ) :  -0.1427
B(  2-C , 14-H ) :   0.6642 B(  3-C ,  4-C ) :   0.6466 B(  3-C ,  5-N ) :   0.2727
B(  3-C ,  9-C ) :   0.2950 B(  3-C , 13-H ) :   0.6509 B(  4-C ,  6-C ) :   0.3031
B(  4-C ,  7-C ) :  -0.1055 B(  4-C ,  8-C ) :   0.6253 B(  4-C ,  9-C ) :   0.7026
B(  4-C , 12-H ) :   0.1001 B(  5-N ,  6-C ) :   1.6832 B(  6-C ,  7-C ) :   0.8038
B(  6-C ,  8-C ) :   0.3206 B(  6-C ,  9-C ) :  -0.4780 B(  6-C , 12-H ) :   0.4250
B(  7-C ,  8-C ) :   1.1885 B(  7-C ,  9-C ) :  -0.3196 B(  7-C , 11-H ) :   1.0334
B(  8-C ,  9-C ) :  -0.2036 B(  8-C , 10-H ) :   0.6735 B(  9-C , 12-H ) :   0.1445
B(  9-C , 16-H ) :  -0.1343

Dispersion correction           -0.034366935
FINAL SINGLE POINT ENERGY      -401.868443466985

DIPOLE MOMENT
-------------

Method             : SCF
Type of density    : Electron Density
Multiplicity       :   1
Irrep              :   0
Energy             :  -401.8340765316820580 Eh
Relativity type    :
Basis              : AO
                                X                 Y                 Z
Electronic contribution:     -1.085931039       0.891104755      -0.000178130
Nuclear contribution   :      1.170564310      -2.171626680      -0.000005487
                        -----------------------------------------
Total Dipole Moment    :      0.084633271      -1.280521925      -0.000183618
                        -----------------------------------------
Magnitude (a.u.)       :      1.283315715
Magnitude (Debye)      :      3.261929318

Rotational constants in cm-1:             0.105214             0.042414             0.030228
Rotational constants in MHz :          3154.234858          1271.541430           906.223008

                             ****ORCA TERMINATED NORMALLY****
TOTAL RUN TIME: 0 days 0 hours 4 minutes 51 seconds 819 msec
