                         Program Version 6.0.0  -   RELEASE  -
|  1> !PBE0 aug-cc-pVTZ d3 TightSCF SlowConv RIJCOSX defgrid2
|  2>
|  3> %pal
|  4> nprocs 4
|  5> end
|  6>
|  7> %scf
|  8> MaxIter 1500
|  9> end
| 10>
| 11> %maxcore 3000
| 12>
| 13> !CPCM
| 14> %cpcm smd true
| 15> SMDsolvent "MeCN"
| 16> surfacetype gepol_ses
| 17> rsolv 2.19
| 18> end
| 19>
| 20> * xyz -1 2
| 21> C           1.11485619102810      1.23346524770146     -0.04246013453408
| 22> C          -0.25819562047262      1.22933924261312     -0.01684176169193
| 23> C          -0.98793269131212      0.01064750984396      0.05369590147558
| 24> C          -0.25058397748058     -1.19914135084411      0.08408385170358
| 25> C           1.12686728083616     -1.19737445120311      0.05863833511697
| 26> C           1.88049207762006      0.02114016337723     -0.00784905676085
| 27> C           3.31422748057564      0.08999258300288     -0.03795740062188
| 28> O           3.95234377580661      1.16292200275802     -0.09390298789975
| 29> C           4.09411941134499     -1.22295178548747      0.00021080612150
| 30> H           3.89267162008921     -1.80863657997959      0.91865553015964
| 31> H           3.85410305658271     -1.88234976738815     -0.85682984004010
| 32> H           5.16792059393726     -0.97680478465363     -0.03317483614463
| 33> H           1.65189479450597     -2.15740095025540      0.09479003543363
| 34> H          -0.78941773964287     -2.15112643070549      0.13915861506264
| 35> C          -2.45525752462587      0.00050473870139     -0.00850205506014
| 36> F          -2.97297788080586     -0.04926536736079     -1.27295539154986
| 37> F          -3.00617659842767     -1.06434755608644      0.61734313114911
| 38> F          -3.01722345304082      1.10181905294511      0.53770926863957
| 39> H          -0.80650005596301      2.17740366385070     -0.04085176525521
| 40> H           1.67725065944470      2.17036951917034     -0.08706394530380
| 41> *
| 42>
| 43>                          ****END OF INPUT****

CARTESIAN COORDINATES (ANGSTROEM)
---------------------------------
  C      1.114856    1.233465   -0.042460
  C     -0.258196    1.229339   -0.016842
  C     -0.987933    0.010648    0.053696
  C     -0.250584   -1.199141    0.084084
  C      1.126867   -1.197374    0.058638
  C      1.880492    0.021140   -0.007849
  C      3.314227    0.089993   -0.037957
  O      3.952344    1.162922   -0.093903
  C      4.094119   -1.222952    0.000211
  H      3.892672   -1.808637    0.918656
  H      3.854103   -1.882350   -0.856830
  H      5.167921   -0.976805   -0.033175
  H      1.651895   -2.157401    0.094790
  H     -0.789418   -2.151126    0.139159
  C     -2.455258    0.000505   -0.008502
  F     -2.972978   -0.049265   -1.272955
  F     -3.006177   -1.064348    0.617343
  F     -3.017223    1.101819    0.537709
  H     -0.806500    2.177404   -0.040852
  H      1.677251    2.170370   -0.087064

 Total Charge           Charge          ....   -1
 Multiplicity           Mult            ....    2
 Number of Electrons    NEL             ....   97
 Basis Dimension        Dim             ....  759

ORBITAL ENERGIES
----------------
                 SPIN UP ORBITALS
  NO   OCC          E(Eh)            E(eV)
   0   1.0000     -24.796014      -674.7338
   1   1.0000     -24.795894      -674.7306
   2   1.0000     -24.788162      -674.5202
   3   1.0000     -19.142089      -520.8827
   4   1.0000     -10.457712      -284.5688
   5   1.0000     -10.255412      -279.0639
   6   1.0000     -10.220091      -278.1028
   7   1.0000     -10.219936      -278.0986
   8   1.0000     -10.218990      -278.0729
   9   1.0000     -10.212417      -277.8940
  10   1.0000     -10.207585      -277.7625
  11   1.0000     -10.204188      -277.6701
  12   1.0000     -10.198307      -277.5100
  13   1.0000      -1.335029       -36.3280
  14   1.0000      -1.248903       -33.9844
  15   1.0000      -1.239578       -33.7306
  16   1.0000      -1.009973       -27.4828
  17   1.0000      -0.869821       -23.6690
  18   1.0000      -0.795471       -21.6459
  19   1.0000      -0.757328       -20.6079
  20   1.0000      -0.736304       -20.0358
  21   1.0000      -0.702896       -19.1268
  22   1.0000      -0.645745       -17.5716
  23   1.0000      -0.617168       -16.7940
  24   1.0000      -0.598675       -16.2908
  25   1.0000      -0.585507       -15.9325
  26   1.0000      -0.567592       -15.4450
  27   1.0000      -0.545221       -14.8362
  28   1.0000      -0.482811       -13.1380
  29   1.0000      -0.480506       -13.0752
  30   1.0000      -0.471139       -12.8203
  31   1.0000      -0.458080       -12.4650
  32   1.0000      -0.443337       -12.0638
  33   1.0000      -0.437036       -11.8923
  34   1.0000      -0.432824       -11.7777
  35   1.0000      -0.426119       -11.5953
  36   1.0000      -0.421013       -11.4563
  37   1.0000      -0.418670       -11.3926
  38   1.0000      -0.412941       -11.2367
  39   1.0000      -0.390718       -10.6320
  40   1.0000      -0.375612       -10.2209
  41   1.0000      -0.372483       -10.1358
  42   1.0000      -0.355819        -9.6823
  43   1.0000      -0.341410        -9.2902
  44   1.0000      -0.324272        -8.8239
  45   1.0000      -0.266237        -7.2447
  46   1.0000      -0.261966        -7.1285
  47   1.0000      -0.230522        -6.2728
  48   1.0000      -0.116824        -3.1789
  49   0.0000       0.002553         0.0695
  50   0.0000       0.004278         0.1164
  51   0.0000       0.015569         0.4237
  52   0.0000       0.018945         0.5155
  53   0.0000       0.027614         0.7514

                 SPIN DOWN ORBITALS
  NO   OCC          E(Eh)            E(eV)
   0   1.0000     -24.795785      -674.7276
   1   1.0000     -24.795673      -674.7246
   2   1.0000     -24.787414      -674.4998
   3   1.0000     -19.136600      -520.7334
   4   1.0000     -10.457710      -284.5687
   5   1.0000     -10.252557      -278.9863
   6   1.0000     -10.220591      -278.1164
   7   1.0000     -10.220434      -278.1121
   8   1.0000     -10.214540      -277.9518
   9   1.0000     -10.210791      -277.8498
  10   1.0000     -10.205855      -277.7154
  11   1.0000     -10.201920      -277.6084
  12   1.0000     -10.198576      -277.5174
  13   1.0000      -1.334187       -36.3051
  14   1.0000      -1.248417       -33.9711
  15   1.0000      -1.238108       -33.6906
  16   1.0000      -0.999585       -27.2001
  17   1.0000      -0.864695       -23.5295
  18   1.0000      -0.787683       -21.4339
  19   1.0000      -0.753627       -20.5072
  20   1.0000      -0.731809       -19.9135
  21   1.0000      -0.701505       -19.0889
  22   1.0000      -0.639599       -17.4044
  23   1.0000      -0.616078       -16.7643
  24   1.0000      -0.595954       -16.2167
  25   1.0000      -0.585007       -15.9189
  26   1.0000      -0.563390       -15.3306
  27   1.0000      -0.541216       -14.7272
  28   1.0000      -0.481772       -13.1097
  29   1.0000      -0.479018       -13.0347
  30   1.0000      -0.468087       -12.7373
  31   1.0000      -0.456115       -12.4115
  32   1.0000      -0.440297       -11.9811
  33   1.0000      -0.435304       -11.8452
  34   1.0000      -0.431756       -11.7487
  35   1.0000      -0.419771       -11.4226
  36   1.0000      -0.417911       -11.3719
  37   1.0000      -0.414487       -11.2788
  38   1.0000      -0.412154       -11.2153
  39   1.0000      -0.386825       -10.5261
  40   1.0000      -0.373020       -10.1504
  41   1.0000      -0.362924        -9.8757
  42   1.0000      -0.353257        -9.6126
  43   1.0000      -0.322958        -8.7881
  44   1.0000      -0.317737        -8.6461
  45   1.0000      -0.254263        -6.9188
  46   1.0000      -0.235144        -6.3986
  47   1.0000      -0.225619        -6.1394
  48   0.0000      -0.035394        -0.9631
  49   0.0000       0.004248         0.1156
  50   0.0000       0.007562         0.2058
  51   0.0000       0.016433         0.4472
  52   0.0000       0.020684         0.5629

MULLIKEN ATOMIC CHARGES AND SPIN POPULATIONS
--------------------------------------------
   0 C :   -1.221399    0.137007
   1 C :   -0.821989   -0.022355
   2 C :    0.548337    0.292841
   3 C :   -0.979154   -0.019763
   4 C :   -0.750381    0.145514
   5 C :    1.450918    0.159700
   6 C :    0.579151    0.140075
   7 O :   -1.037132    0.206888
   8 C :   -0.693067   -0.014604
   9 H :    0.270745    0.008010
  10 H :    0.270469    0.007610
  11 H :    0.169405   -0.000687
  12 H :    0.149132   -0.022281
  13 H :    0.420265    0.000878
  14 C :    1.163224   -0.011690
  15 F :   -0.391650    0.011419
  16 F :   -0.382226    0.002338
  17 F :   -0.382045    0.002376
  18 H :    0.459329   -0.001884
  19 H :    0.178069   -0.021392
Sum of atomic charges         :   -1.0000000

LOEWDIN ATOMIC CHARGES AND SPIN POPULATIONS
-------------------------------------------
   0 C :    0.149202    0.078657
   1 C :    0.147088    0.041194
   2 C :   -0.226148    0.140153
   3 C :    0.148558    0.044352
   4 C :    0.162281    0.079971
   5 C :   -0.195629    0.133460
   6 C :   -0.660018    0.152627
   7 O :    0.367242    0.181225
   8 C :    0.507002    0.026029
   9 H :   -0.172667    0.006376
  10 H :   -0.172798    0.006359
  11 H :   -0.197296   -0.000599
  12 H :   -0.195852    0.014555
  13 H :   -0.186060    0.001247
  14 C :   -1.599059    0.048274
  15 F :    0.482694    0.017625
  16 F :    0.517204    0.006578
  17 F :    0.517622    0.006813
  18 H :   -0.187042    0.000372
  19 H :   -0.206326    0.014730

  Mayer bond orders larger than 0.100000
B(  0-C ,  1-C ) :   1.6270 B(  0-C ,  4-C ) :  -0.4673 B(  0-C ,  5-C ) :   0.1995
B(  0-C ,  6-C ) :   0.2497 B(  0-C , 19-H ) :   1.0924 B(  1-C ,  2-C ) :   0.7838
B(  1-C , 18-H ) :   0.5708 B(  2-C ,  3-C ) :   0.6774 B(  2-C , 14-C ) :   1.1290
B(  2-C , 15-F ) :   0.1299 B(  2-C , 17-F ) :   0.1236 B(  3-C ,  4-C ) :   1.3591
B(  3-C , 13-H ) :   0.6279 B(  4-C ,  5-C ) :   0.3128 B(  4-C ,  6-C ) :   0.1770
B(  4-C , 12-H ) :   1.2720 B(  5-C ,  6-C ) :   0.5493 B(  5-C ,  7-O ) :   0.2579
B(  6-C ,  7-O ) :   0.6410 B(  6-C ,  8-C ) :   0.9667 B(  7-O , 19-H ) :   0.1476
B(  8-C ,  9-H ) :   0.9279 B(  8-C , 10-H ) :   0.9251 B(  8-C , 11-H ) :   0.9697
B( 12-H , 19-H ) :   0.1088 B( 14-C , 15-F ) :   0.6456 B( 14-C , 16-F ) :   0.6643
B( 14-C , 17-F ) :   0.6505

Dispersion correction           -0.018604508
FINAL SINGLE POINT ENERGY      -721.563926010361

DIPOLE MOMENT
-------------

Method             : SCF
Type of density    : Electron Density
Multiplicity       :   2
Irrep              :   0
Energy             :  -721.5453215025316922 Eh
Relativity type    :
Basis              : AO
                                X                 Y                 Z
Electronic contribution:    -24.353094411       2.925174515      -0.167607379
Nuclear contribution   :     22.174393419      -4.340377650       0.286944378
                        -----------------------------------------
Total Dipole Moment    :     -2.178700992      -1.415203135       0.119336999
                        -----------------------------------------
Magnitude (a.u.)       :      2.600726676
Magnitude (Debye)      :      6.610521865

Rotational constants in cm-1:             0.074129             0.012365             0.011236
Rotational constants in MHz :          2222.330337           370.696975           336.858086

                             ****ORCA TERMINATED NORMALLY****
TOTAL RUN TIME: 0 days 0 hours 8 minutes 35 seconds 361 msec
