                         Program Version 6.0.0  -   RELEASE  -
|  1> !r2SCANh freq aug-cc-pVTZ d3 TightSCF SlowConv RIJCOSX defgrid2
|  2>
|  3> %pal
|  4> nprocs 12
|  5> end
|  6>
|  7> %scf
|  8> MaxIter 1500
|  9> end
| 10>
| 11> %maxcore 5000
| 12>
| 13> !CPCM
| 14> %cpcm smd true
| 15> SMDsolvent "MeCN"
| 16> surfacetype gepol_ses
| 17> rsolv 2.19
| 18> end
| 19>
| 20> * xyz 0 1
| 21> C           0.93836894221720     -1.26580971409358     -0.00012760337748
| 22> C           2.30526537036017     -1.02881033925425     -0.00046544275864
| 23> C           2.78373055891943      0.27346087094497     -0.00027889710227
| 24> C           1.88804588428732      1.33965104975220      0.00039618990799
| 25> C           0.52474109644553      1.10829326079383      0.00067771877135
| 26> C           0.03379058876174     -0.20222255198514      0.00029853716140
| 27> C          -1.39004007433151     -0.50780477603816      0.00042690466079
| 28> N          -2.26934083156919      0.41345343027076     -0.00136762062991
| 29> O          -3.55756757572185     -0.11711324752274     -0.00057202198015
| 30> H          -4.11894004998728      0.66776028829028     -0.00124748223421
| 31> H          -1.68926627385403     -1.55471740293419      0.00236204521533
| 32> H          -0.16837893326560      1.93781992086245      0.00134093749962
| 33> H           2.25909206048074      2.35575629102732      0.00015942291083
| 34> H           3.84896249776850      0.46078040870879     -0.00081483129633
| 35> H           2.99534800101894     -1.86158505470857     -0.00083102580281
| 36> H           0.56388313846991     -2.28151073411399      0.00025056905448
| 37> *
| 38>
| 39>                          ****END OF INPUT****

CARTESIAN COORDINATES (ANGSTROEM)
---------------------------------
  C      0.938369   -1.265810   -0.000128
  C      2.305265   -1.028810   -0.000465
  C      2.783731    0.273461   -0.000279
  C      1.888046    1.339651    0.000396
  C      0.524741    1.108293    0.000678
  C      0.033791   -0.202223    0.000299
  C     -1.390040   -0.507805    0.000427
  N     -2.269341    0.413453   -0.001368
  O     -3.557568   -0.117113   -0.000572
  H     -4.118940    0.667760   -0.001247
  H     -1.689266   -1.554717    0.002362
  H     -0.168379    1.937820    0.001341
  H      2.259092    2.355756    0.000159
  H      3.848962    0.460780   -0.000815
  H      2.995348   -1.861585   -0.000831
  H      0.563883   -2.281511    0.000251

 Total Charge           Charge          ....    0
 Multiplicity           Mult            ....    1
 Number of Electrons    NEL             ....   64
 Basis Dimension        Dim             ....  575

ORBITAL ENERGIES
----------------

  NO   OCC          E(Eh)            E(eV)
   0   2.0000     -19.164743      -521.4992
   1   2.0000     -14.360597      -390.7717
   2   2.0000     -10.194144      -277.3968
   3   2.0000     -10.177841      -276.9531
   4   2.0000     -10.164315      -276.5851
   5   2.0000     -10.162764      -276.5429
   6   2.0000     -10.162123      -276.5254
   7   2.0000     -10.161555      -276.5100
   8   2.0000     -10.161240      -276.5014
   9   2.0000      -1.095927       -29.8217
  10   2.0000      -0.887910       -24.1613
  11   2.0000      -0.853601       -23.2277
  12   2.0000      -0.759238       -20.6599
  13   2.0000      -0.751728       -20.4556
  14   2.0000      -0.639087       -17.3904
  15   2.0000      -0.608236       -16.5510
  16   2.0000      -0.564748       -15.3676
  17   2.0000      -0.527306       -14.3487
  18   2.0000      -0.507316       -13.8048
  19   2.0000      -0.464155       -12.6303
  20   2.0000      -0.448387       -12.2012
  21   2.0000      -0.428853       -11.6697
  22   2.0000      -0.419260       -11.4086
  23   2.0000      -0.413274       -11.2458
  24   2.0000      -0.404224       -10.9995
  25   2.0000      -0.375369       -10.2143
  26   2.0000      -0.340784        -9.2732
  27   2.0000      -0.332943        -9.0598
  28   2.0000      -0.296794        -8.0762
  29   2.0000      -0.279775        -7.6131
  30   2.0000      -0.259246        -7.0545
  31   2.0000      -0.230400        -6.2695
  32   0.0000      -0.066363        -1.8058
  33   0.0000      -0.027474        -0.7476
  34   0.0000       0.010311         0.2806
  35   0.0000       0.017985         0.4894
  36   0.0000       0.022487         0.6119

MULLIKEN ATOMIC CHARGES
-----------------------
   0 C :   -1.039488
   1 C :   -0.576239
   2 C :   -0.184882
   3 C :   -0.713196
   4 C :   -0.720210
   5 C :    1.974981
   6 C :    0.000242
   7 N :   -0.510107
   8 O :   -0.311922
   9 H :    0.175651
  10 H :    0.456887
  11 H :    0.002854
  12 H :    0.535806
  13 H :    0.418494
  14 H :    0.534787
  15 H :   -0.043658
Sum of atomic charges:   -0.0000000

LOEWDIN ATOMIC CHARGES
----------------------
   0 C :    0.201534
   1 C :    0.200991
   2 C :    0.197609
   3 C :    0.199218
   4 C :    0.196557
   5 C :   -0.177834
   6 C :   -0.025325
   7 N :    0.136054
   8 O :    0.669745
   9 H :   -0.520264
  10 H :   -0.183536
  11 H :   -0.190464
  12 H :   -0.176835
  13 H :   -0.177586
  14 H :   -0.176708
  15 H :   -0.173155

  Mayer bond orders larger than 0.100000
B(  0-C ,  1-C ) :   1.0927 B(  0-C ,  2-C ) :  -0.1393 B(  0-C ,  4-C ) :  -0.4701
B(  0-C ,  5-C ) :  -0.1099 B(  0-C ,  6-C ) :   0.1141 B(  0-C , 11-H ) :   0.1558
B(  0-C , 13-H ) :   0.1197 B(  0-C , 14-H ) :  -0.2110 B(  0-C , 15-H ) :   1.8169
B(  1-C ,  2-C ) :   1.1609 B(  1-C ,  3-C ) :   0.1415 B(  1-C ,  5-C ) :   0.1067
B(  1-C , 11-H ) :  -0.1067 B(  1-C , 14-H ) :   0.5239 B(  1-C , 15-H ) :  -0.1630
B(  2-C ,  3-C ) :   1.0976 B(  2-C ,  4-C ) :  -0.1609 B(  2-C ,  5-C ) :  -0.1480
B(  2-C ,  6-C ) :   0.1378 B(  2-C , 13-H ) :   0.7183 B(  3-C ,  4-C ) :   1.1028
B(  3-C ,  5-C ) :   0.1351 B(  3-C , 12-H ) :   0.5012 B(  3-C , 15-H ) :  -0.1134
B(  4-C ,  5-C ) :   0.3026 B(  4-C ,  6-C ) :   0.2501 B(  4-C , 11-H ) :   1.3980
B(  4-C , 12-H ) :  -0.1249 B(  4-C , 15-H ) :   0.1493 B(  5-C ,  7-N ) :  -0.1280
B(  5-C , 11-H ) :  -0.2262 B(  5-C , 14-H ) :   0.1360 B(  5-C , 15-H ) :  -0.3092
B(  6-C ,  7-N ) :   1.0811 B(  6-C , 10-H ) :   0.5732 B(  6-C , 11-H ) :  -0.1122
B(  6-C , 15-H ) :  -0.1469 B(  7-N ,  8-O ) :   0.7145 B(  7-N , 10-H ) :  -0.1036
B(  7-N , 11-H ) :   0.1053 B(  8-O ,  9-H ) :   1.0026 B( 11-H , 15-H ) :   0.1908

Dispersion correction           -0.004878386
FINAL SINGLE POINT ENERGY      -400.796836256410

DIPOLE MOMENT
-------------

Method             : SCF
Type of density    : Electron Density
Multiplicity       :   1
Irrep              :   0
Energy             :  -400.7919578709099255 Eh
Relativity type    :
Basis              : AO
                                X                 Y                 Z
Electronic contribution:     -2.978025726       0.149417966      -0.000945016
Nuclear contribution   :      3.391936395      -0.271028975       0.001995035
                        -----------------------------------------
Total Dipole Moment    :      0.413910669      -0.121611009       0.001050019
                        -----------------------------------------
Magnitude (a.u.)       :      0.431407443
Magnitude (Debye)      :      1.096550577

VIBRATIONAL FREQUENCIES
-----------------------

Scaling factor for frequencies =  1.000000000  (already applied!)

     0:       0.00 cm**-1
     1:       0.00 cm**-1
     2:       0.00 cm**-1
     3:       0.00 cm**-1
     4:       0.00 cm**-1
     5:       0.00 cm**-1
     6:      59.07 cm**-1
     7:     144.96 cm**-1
     8:     154.60 cm**-1
     9:     309.67 cm**-1
    10:     380.45 cm**-1
    11:     407.23 cm**-1
    12:     415.49 cm**-1
    13:     445.27 cm**-1
    14:     524.84 cm**-1
    15:     631.95 cm**-1
    16:     658.11 cm**-1
    17:     706.95 cm**-1
    18:     779.58 cm**-1
    19:     865.64 cm**-1
    20:     889.66 cm**-1
    21:     943.39 cm**-1
    22:     986.96 cm**-1
    23:     987.31 cm**-1
    24:    1005.44 cm**-1
    25:    1023.57 cm**-1
    26:    1023.59 cm**-1
    27:    1053.45 cm**-1
    28:    1106.31 cm**-1
    29:    1171.25 cm**-1
    30:    1190.21 cm**-1
    31:    1245.96 cm**-1
    32:    1301.53 cm**-1
    33:    1348.89 cm**-1
    34:    1374.75 cm**-1
    35:    1449.27 cm**-1
    36:    1485.08 cm**-1
    37:    1535.70 cm**-1
    38:    1627.94 cm**-1
    39:    1653.21 cm**-1
    40:    1698.03 cm**-1
    41:    3117.31 cm**-1
    42:    3184.76 cm**-1
    43:    3190.77 cm**-1
    44:    3200.07 cm**-1
    45:    3209.79 cm**-1
    46:    3215.68 cm**-1
    47:    3742.79 cm**-1

IR SPECTRUM
-----------

 Mode   freq       eps      Int      T**2         TX        TY        TZ
       cm**-1   L/(mol*cm) km/mol    a.u.
----------------------------------------------------------------------------
  6:     59.07   0.000001    0.01  0.000007  (-0.000416  0.000335  0.002656)
  7:    144.96   0.000422    2.13  0.000909  ( 0.003499 -0.001276 -0.029920)
  8:    154.60   0.000758    3.83  0.001529  (-0.037117  0.010639 -0.006175)
  9:    309.67   0.000134    0.68  0.000135  (-0.000309  0.000030  0.011602)
 10:    380.45   0.000604    3.05  0.000495  (-0.017849 -0.007975  0.010642)
 11:    407.23   0.012934   65.37  0.009912  ( 0.000368 -0.000604  0.099556)
 12:    415.49   0.024956  126.12  0.018744  (-0.000853  0.000641 -0.136904)
 13:    445.27   0.001425    7.20  0.000999  ( 0.026770 -0.008297 -0.014598)
 14:    524.84   0.003361   16.99  0.001998  (-0.000133  0.000274 -0.044703)
 15:    631.95   0.000004    0.02  0.000002  (-0.001273 -0.000554 -0.000009)
 16:    658.11   0.012469   63.01  0.005913  (-0.076391 -0.008732 -0.000802)
 17:    706.95   0.016176   81.74  0.007140  (-0.000053 -0.000300  0.084500)
 18:    779.58   0.013394   67.69  0.005362  ( 0.000099 -0.000104  0.073224)
 19:    865.64   0.000000    0.00  0.000000  ( 0.000133  0.000095 -0.000166)
 20:    889.66   0.013353   67.48  0.004684  ( 0.067918  0.008420  0.000459)
 21:    943.39   0.000039    0.20  0.000013  (-0.000447  0.000298 -0.003552)
 22:    986.96   0.007825   39.54  0.002474  ( 0.027639 -0.005977  0.040921)
 23:    987.31   0.068220  344.76  0.021563  (-0.143791  0.028768  0.007689)
 24:   1005.44   0.000020    0.10  0.000006  (-0.000054 -0.000415  0.002441)
 25:   1023.57   0.000033    0.17  0.000010  ( 0.000244 -0.001594  0.002755)
 26:   1023.59   0.000099    0.50  0.000030  (-0.000435  0.000856  0.005399)
 27:   1053.45   0.000883    4.46  0.000262  ( 0.015418  0.004899 -0.000078)
 28:   1106.31   0.002711   13.70  0.000765  (-0.010681 -0.025508 -0.000053)
 29:   1171.25   0.000056    0.29  0.000015  (-0.003647  0.001314 -0.000035)
 30:   1190.21   0.000127    0.64  0.000033  ( 0.005746 -0.000425  0.000030)
 31:   1245.96   0.008543   43.17  0.002140  ( 0.046087 -0.003976  0.000051)
 32:   1301.53   0.021793  110.13  0.005225  ( 0.062705  0.035959  0.000538)
 33:   1348.89   0.000014    0.07  0.000003  ( 0.001508 -0.000947 -0.000064)
 34:   1374.75   0.000240    1.21  0.000054  (-0.001400  0.007244  0.000062)
 35:   1449.27   0.001785    9.02  0.000384  (-0.019571  0.001112 -0.000351)
 36:   1485.08   0.003167   16.00  0.000665  (-0.006911 -0.024854 -0.000095)
 37:   1535.70   0.002784   14.07  0.000566  (-0.023770 -0.000818 -0.000064)
 38:   1627.94   0.000255    1.29  0.000049  ( 0.004214 -0.005573  0.000008)
 39:   1653.21   0.000040    0.20  0.000007  ( 0.000591 -0.002667  0.000002)
 40:   1698.03   0.000122    0.62  0.000022  (-0.002133  0.004229 -0.000072)
 41:   3117.31   0.005931   29.97  0.000594  ( 0.015523  0.018782  0.000090)
 42:   3184.76   0.001365    6.90  0.000134  (-0.008497 -0.007842 -0.000103)
 43:   3190.77   0.000158    0.80  0.000015  (-0.003936 -0.000104  0.000010)
 44:   3200.07   0.004451   22.49  0.000434  ( 0.008611  0.018970  0.000112)
 45:   3209.79   0.005721   28.91  0.000556  ( 0.015190 -0.018041 -0.000019)
 46:   3215.68   0.003063   15.48  0.000297  (-0.015531 -0.007487 -0.000031)
 47:   3742.79   0.074445  376.22  0.006207  (-0.069380  0.037329 -0.000045)

--------------------------
THERMOCHEMISTRY AT 298.15K
--------------------------

Temperature         ...   298.15 K
Pressure            ...     1.00 atm
Total Mass          ...   121.14 AMU
Quasi RRHO          ...     True
Cut-Off Frequency   ...     1.00 cm^-1

Throughout the following assumptions are being made:
  (1) The electronic state is orbitally nondegenerate
  (2) There are no thermally accessible electronically excited states
  (3) Hindered rotations indicated by low frequency modes are not
      treated as such but are treated as vibrations and this may
      cause some error
  (4) All equations used are the standard statistical mechanics
      equations for an ideal gas
  (5) All vibrations are strictly harmonic

freq.      59.07  E(vib)   ...       0.51
freq.     144.96  E(vib)   ...       0.41
freq.     154.60  E(vib)   ...       0.40
freq.     309.67  E(vib)   ...       0.26
freq.     380.45  E(vib)   ...       0.21
freq.     407.23  E(vib)   ...       0.19
freq.     415.49  E(vib)   ...       0.18
freq.     445.27  E(vib)   ...       0.17
freq.     524.84  E(vib)   ...       0.13
freq.     631.95  E(vib)   ...       0.09
freq.     658.11  E(vib)   ...       0.08
freq.     706.95  E(vib)   ...       0.07
freq.     779.58  E(vib)   ...       0.05
freq.     865.64  E(vib)   ...       0.04
freq.     889.66  E(vib)   ...       0.04
freq.     943.39  E(vib)   ...       0.03
freq.     986.96  E(vib)   ...       0.02
freq.     987.31  E(vib)   ...       0.02
freq.    1005.44  E(vib)   ...       0.02
freq.    1023.57  E(vib)   ...       0.02
freq.    1023.59  E(vib)   ...       0.02
freq.    1053.45  E(vib)   ...       0.02
freq.    1106.31  E(vib)   ...       0.02
freq.    1171.25  E(vib)   ...       0.01
freq.    1190.21  E(vib)   ...       0.01
freq.    1245.96  E(vib)   ...       0.01
freq.    1301.53  E(vib)   ...       0.01
freq.    1348.89  E(vib)   ...       0.01
freq.    1374.75  E(vib)   ...       0.01
freq.    1449.27  E(vib)   ...       0.00
freq.    1485.08  E(vib)   ...       0.00
freq.    1535.70  E(vib)   ...       0.00
freq.    1627.94  E(vib)   ...       0.00
freq.    1653.21  E(vib)   ...       0.00
freq.    1698.03  E(vib)   ...       0.00
freq.    3117.31  E(vib)   ...       0.00
freq.    3184.76  E(vib)   ...       0.00
freq.    3190.77  E(vib)   ...       0.00
freq.    3200.07  E(vib)   ...       0.00
freq.    3209.79  E(vib)   ...       0.00
freq.    3215.68  E(vib)   ...       0.00
freq.    3742.79  E(vib)   ...       0.00

------------
INNER ENERGY
------------

The inner energy is: U= E(el) + E(ZPE) + E(vib) + E(rot) + E(trans)
    E(el)   - is the total energy from the electronic structure calculation
              = E(kin-el) + E(nuc-el) + E(el-el) + E(nuc-nuc)
    E(ZPE)  - the the zero temperature vibrational energy from the frequency calculation
    E(vib)  - the the finite temperature correction to E(ZPE) due to population
              of excited vibrational states
    E(rot)  - is the rotational thermal energy
    E(trans)- is the translational thermal energy

Summary of contributions to the inner energy U:
Electronic energy                ...   -400.79683626 Eh
Zero point energy                ...      0.12631634 Eh      79.26 kcal/mol
Thermal vibrational correction   ...      0.00488057 Eh       3.06 kcal/mol
Thermal rotational correction    ...      0.00141627 Eh       0.89 kcal/mol
Thermal translational correction ...      0.00141627 Eh       0.89 kcal/mol
-----------------------------------------------------------------------
Total thermal energy                   -400.66280680 Eh

Summary of corrections to the electronic energy:
(perhaps to be used in another calculation)
Total thermal correction                  0.00771311 Eh       4.84 kcal/mol
Non-thermal (ZPE) correction              0.12631634 Eh      79.26 kcal/mol
-----------------------------------------------------------------------
Total correction                          0.13402946 Eh      84.10 kcal/mol

--------
ENTHALPY
--------

The enthalpy is H = U + kB*T
                kB is Boltzmann's constant
Total thermal energy              ...   -400.66280680 Eh
Thermal Enthalpy correction       ...      0.00094421 Eh       0.59 kcal/mol
-----------------------------------------------------------------------
Total Enthalpy                    ...   -400.66186259 Eh

Note: Only C1 symmetry has been detected, increase convergence thresholds
      if your molecule has a higher symmetry. Symmetry factor of 1.0 is
      used for the rotational entropy correction.

Note: Rotational entropy computed according to Herzberg
Infrared and Raman Spectra, Chapter V,1, Van Nostrand Reinhold, 1945
Point Group:  C1, Symmetry Number:   1
Rotational constants in cm-1:     0.174650     0.030051     0.025640

Vibrational entropy computed according to the QRRHO of S. Grimme
Chem.Eur.J. 2012 18 9955 using a reference frequency of 100.0 cm-1

-------
ENTROPY
-------

The entropy contributions are T*S = T*(S(el)+S(vib)+S(rot)+S(trans))
     S(el)   - electronic entropy
     S(vib)  - vibrational entropy
     S(rot)  - rotational entropy
     S(trans)- translational entropy
The entropies will be listed as multiplied by the temperature to get
units of energy

Electronic entropy                ...      0.00000000 Eh      0.00 kcal/mol
Vibrational entropy               ...      0.00807264 Eh      5.07 kcal/mol
Rotational entropy                ...      0.01371875 Eh      8.61 kcal/mol
Translational entropy             ...      0.01914284 Eh     12.01 kcal/mol
-----------------------------------------------------------------------
Final entropy term                ...      0.04093423 Eh     25.69 kcal/mol

In case the symmetry of your molecule has not been determined correctly
or in case you have a reason to use a different symmetry number we print
out the resulting rotational entropy values for sn=1,12:

 non-linear molecules -----------------------------------
|  sn= 1 | S(rot)=       0.01371875 Eh      8.61 kcal/mol|
|  sn= 2 | S(rot)=       0.01306430 Eh      8.20 kcal/mol|
|  sn= 3 | S(rot)=       0.01268147 Eh      7.96 kcal/mol|
|  sn= 4 | S(rot)=       0.01240984 Eh      7.79 kcal/mol|
|  sn= 5 | S(rot)=       0.01219915 Eh      7.66 kcal/mol|
|  sn= 6 | S(rot)=       0.01202701 Eh      7.55 kcal/mol|
|  sn= 7 | S(rot)=       0.01188146 Eh      7.46 kcal/mol|
|  sn= 8 | S(rot)=       0.01175539 Eh      7.38 kcal/mol|
|  sn= 9 | S(rot)=       0.01164418 Eh      7.31 kcal/mol|
|  sn=10 | S(rot)=       0.01154470 Eh      7.24 kcal/mol|
|  sn=11 | S(rot)=       0.01145471 Eh      7.19 kcal/mol|
|  sn=12 | S(rot)=       0.01137255 Eh      7.14 kcal/mol|
 linear molecules ---------------------------------------
|  Dinfh | S(rot)=       0.00878492 Eh      5.51 kcal/mol|
|  Cinfv | S(rot)=       0.00943938 Eh      5.92 kcal/mol|
 --------------------------------------------------------

                             ****ORCA TERMINATED NORMALLY****
TOTAL RUN TIME: 0 days 0 hours 30 minutes 0 seconds 456 msec
