                         Program Version 6.0.0  -   RELEASE  -
|  1> !PBE0 opt aug-cc-pVTZ d3 TightSCF SlowConv RIJCOSX defgrid2
|  2>
|  3> %pal
|  4> nprocs 8
|  5> end
|  6>
|  7> %scf
|  8> MaxIter 1500
|  9> end
| 10>
| 11> %maxcore 3500
| 12>
| 13> !CPCM
| 14> %cpcm smd true
| 15> SMDsolvent "MeCN"
| 16> surfacetype gepol_ses
| 17> rsolv 2.19
| 18> end
| 19>
| 20> * xyz 0 1
| 21>   C           1.35661311001034      0.08242353673381     -0.04830147992154
| 22>   C           0.72528734400678      1.33237499260851      0.02931980589731
| 23>   C          -0.65716684626784      1.42571283843268      0.04302512633637
| 24>   C          -1.44754625606451      0.26653460954742      0.00874339988909
| 25>   C          -0.82552870874395     -0.98502153376474     -0.04770168852446
| 26>   C           0.56772235704198     -1.06633130194090     -0.08313298846277
| 27>   H           1.05006188676245     -2.04577688056741     -0.14354433447971
| 28>   H          -1.41135553820799     -1.90566385705075     -0.07389044457674
| 29>   O          -2.78063858244739      0.45554290336633      0.03645550634804
| 30>   C          -3.62283453444167     -0.66142074230683      0.01078196288993
| 31>   H          -4.65283077190408     -0.27592428677814      0.04102787975267
| 32>   H          -3.48787720923621     -1.25466269618222     -0.91406269819965
| 33>   H          -3.45860421924221     -1.31813897835911      0.88673287617431
| 34>   H          -1.16047233306293      2.39441311771435      0.09515969980486
| 35>   H           1.33361129819119      2.23967992641979      0.08145593960365
| 36>   S           3.13145786803727     -0.06127748319567     -0.01892864657318
| 37>   H           3.36519883556877      0.49010163532289     -1.23773021595817
| 38> *
| 39>
| 40>                          ****END OF INPUT****
 Total Charge           Charge          ....    0
 Multiplicity           Mult            ....    1
 Number of Electrons    NEL             ....   74
Dispersion correction           -0.015963584
FINAL SINGLE POINT ENERGY      -744.584168376884
Dispersion correction             ... done (  0.1 sec)
Dispersion correction           -0.016019657
FINAL SINGLE POINT ENERGY      -744.585221098425
Dispersion correction             ... done (  0.1 sec)
Dispersion correction           -0.016028643
FINAL SINGLE POINT ENERGY      -744.585337664101
Dispersion correction             ... done (  0.1 sec)
FINAL SINGLE POINT ENERGY      -744.585479304955
FINAL SINGLE POINT ENERGY      -744.585628444539
FINAL SINGLE POINT ENERGY      -744.585743103529
FINAL SINGLE POINT ENERGY      -744.585839270330
FINAL SINGLE POINT ENERGY      -744.586012577779
FINAL SINGLE POINT ENERGY      -744.586082244153
FINAL SINGLE POINT ENERGY      -744.586099539319
FINAL SINGLE POINT ENERGY      -744.586108194784
FINAL SINGLE POINT ENERGY      -744.586107792371
Dispersion correction             ... done (  0.1 sec)
Dispersion correction           -0.016043831
FINAL SINGLE POINT ENERGY      -744.586109910053
Dispersion correction             ... done (  0.1 sec)
Dispersion correction           -0.016044128
FINAL SINGLE POINT ENERGY      -744.586109723572
Dispersion correction             ... done (  0.1 sec)
                    ***********************HURRAY********************

CARTESIAN COORDINATES (ANGSTROEM)
---------------------------------
  C      1.336873   -0.005942   -0.216628
  C      0.749420    1.256692   -0.164389
  C     -0.622472    1.384588   -0.071819
  C     -1.439003    0.255001   -0.032708
  C     -0.856957   -1.007028   -0.087452
  C      0.523744   -1.129546   -0.177053
  H      0.959466   -2.121281   -0.215523
  H     -1.461715   -1.902395   -0.059880
  O     -2.768951    0.478728    0.057851
  C     -3.620823   -0.650009    0.103382
  H     -4.634977   -0.261982    0.172182
  H     -3.528231   -1.255931   -0.802251
  H     -3.413246   -1.270530    0.979756
  H     -1.078010    2.366493   -0.029213
  H      1.364655    2.147863   -0.196765
  S      3.088670   -0.235691   -0.340295
  H      3.426653    1.063536   -0.253785

 Multiplicity           Mult            ....    1
 Number of Electrons    NEL             ....   74
 Basis Dimension        Dim             ....  602

ORBITAL ENERGIES
----------------

  NO   OCC          E(Eh)            E(eV)
   0   2.0000     -89.058266     -2423.3986
   1   2.0000     -19.243396      -523.6394
   2   2.0000     -10.288393      -279.9614
   3   2.0000     -10.264234      -279.3040
   4   2.0000     -10.262807      -279.2652
   5   2.0000     -10.235430      -278.5202
   6   2.0000     -10.234873      -278.5051
   7   2.0000     -10.229340      -278.3545
   8   2.0000     -10.228478      -278.3310
   9   2.0000      -8.016439      -218.1384
  10   2.0000      -5.953733      -162.0093
  11   2.0000      -5.950170      -161.9124
  12   2.0000      -5.946183      -161.8039
  13   2.0000      -1.102271       -29.9943
  14   2.0000      -0.896302       -24.3896
  15   2.0000      -0.813687       -22.1415
  16   2.0000      -0.781313       -21.2606
  17   2.0000      -0.746243       -20.3063
  18   2.0000      -0.697649       -18.9840
  19   2.0000      -0.637794       -17.3553
  20   2.0000      -0.604153       -16.4398
  21   2.0000      -0.552652       -15.0384
  22   2.0000      -0.512397       -13.9430
  23   2.0000      -0.484312       -13.1788
  24   2.0000      -0.483206       -13.1487
  25   2.0000      -0.460759       -12.5379
  26   2.0000      -0.440433       -11.9848
  27   2.0000      -0.432236       -11.7617
  28   2.0000      -0.406427       -11.0594
  29   2.0000      -0.402462       -10.9515
  30   2.0000      -0.374178       -10.1819
  31   2.0000      -0.355357        -9.6697
  32   2.0000      -0.352852        -9.6016
  33   2.0000      -0.340541        -9.2666
  34   2.0000      -0.290230        -7.8976
  35   2.0000      -0.276158        -7.5146
  36   2.0000      -0.217598        -5.9211
  37   0.0000      -0.017146        -0.4666
  38   0.0000      -0.002259        -0.0615
  39   0.0000      -0.001068        -0.0291
  40   0.0000       0.009485         0.2581
  41   0.0000       0.016606         0.4519

MULLIKEN ATOMIC CHARGES
-----------------------
   0 C :    0.641852
   1 C :   -0.774655
   2 C :   -0.943651
   3 C :    1.032862
   4 C :   -0.494131
   5 C :   -0.957765
   6 H :    0.547077
   7 H :    0.590820
   8 O :   -0.626745
   9 C :   -0.754750
  10 H :    0.265223
  11 H :    0.314358
  12 H :    0.312148
  13 H :    0.625924
  14 H :    0.533979
  15 S :   -0.444398
  16 H :    0.131854
Sum of atomic charges:   -0.0000000

LOEWDIN ATOMIC CHARGES
----------------------
   0 C :   -0.597916
   1 C :    0.109771
   2 C :    0.191124
   3 C :   -0.415838
   4 C :    0.191672
   5 C :    0.095829
   6 H :   -0.187673
   7 H :   -0.194149
   8 O :    0.598510
   9 C :    0.338643
  10 H :   -0.174927
  11 H :   -0.167693
  12 H :   -0.167008
  13 H :   -0.172264
  14 H :   -0.189774
  15 S :    1.298293
  16 H :   -0.556601

  Mayer bond orders larger than 0.100000
B(  0-C ,  1-C ) :   1.0762 B(  0-C ,  5-C ) :   1.2077 B(  0-C , 15-S ) :   0.5052
B(  1-C ,  2-C ) :   1.5263 B(  1-C ,  3-C ) :  -0.3002 B(  1-C , 14-H ) :   0.4857
B(  2-C ,  3-C ) :   0.7748 B(  2-C ,  4-C ) :   0.1638 B(  2-C ,  8-O ) :   0.2837
B(  2-C , 13-H ) :   0.2413 B(  3-C ,  4-C ) :   1.0680 B(  3-C ,  5-C ) :  -0.2487
B(  3-C ,  7-H ) :   0.1079 B(  3-C ,  8-O ) :   0.4256 B(  4-C ,  5-C ) :   1.1557
B(  4-C ,  7-H ) :   0.2563 B(  5-C ,  6-H ) :   0.5204 B(  8-O ,  9-C ) :   1.0187
B(  9-C , 10-H ) :   0.9684 B(  9-C , 11-H ) :   0.8773 B(  9-C , 12-H ) :   0.8795
B( 15-S , 16-H ) :   1.0565

Dispersion correction           -0.016043809
FINAL SINGLE POINT ENERGY      -744.586108589148

DIPOLE MOMENT
-------------

Method             : SCF
Type of density    : Electron Density
Multiplicity       :   1
Irrep              :   0
Energy             :  -744.5700647796511475 Eh
Relativity type    :
Basis              : AO
                                X                 Y                 Z
Electronic contribution:      7.110185733       0.999609461      -0.517289313
Nuclear contribution   :     -7.930295671      -1.149632116       0.600639699
                        -----------------------------------------
Total Dipole Moment    :     -0.820109938      -0.150022655       0.083350386
                        -----------------------------------------
Magnitude (a.u.)       :      0.837874927
Magnitude (Debye)      :      2.129708814

Rotational constants in cm-1:             0.160035             0.023268             0.020394
Rotational constants in MHz :          4797.733407           697.551033           611.387404

                             ****ORCA TERMINATED NORMALLY****
TOTAL RUN TIME: 0 days 0 hours 55 minutes 30 seconds 890 msec
