                         Program Version 6.0.0  -   RELEASE  -
|  1> !r2SCANh aug-cc-pVTZ d3 TightSCF SlowConv RIJCOSX defgrid2
|  2>
|  3> %pal
|  4> nprocs 15
|  5> end
|  6>
|  7> %scf
|  8> MaxIter 1500
|  9> end
| 10>
| 11> %maxcore 3500
| 12>
| 13> !CPCM
| 14> %cpcm smd true
| 15> SMDsolvent "WATER"
| 16> surfacetype gepol_ses
| 17> rsolv 1.40
| 18> end
| 19>
| 20> * xyz 0 1
| 21> C          -0.05907366598530     -0.02793506437793     -0.04390048443000
| 22> C          -0.02890735437417      1.45710089193008      0.08222581496885
| 23> C           0.02781409212755      2.06300295185481      1.29625580282132
| 24> C           0.05780784816423      1.27059537024470      2.55865678848172
| 25> C           0.02728706606325     -0.21148353395784      2.45495612270071
| 26> C          -0.02843189949116     -0.83640031526210      1.20261036404921
| 27> C          -0.05547047371799     -2.22955810695340      1.11889579291072
| 28> C          -0.02722158045044     -2.99492416088675      2.28117734907788
| 29> C           0.02796540531077     -2.37140543755571      3.53091392418760
| 30> C           0.05520008600593     -0.98250737910286      3.61837358653962
| 31> H           0.09847557758253     -0.46770840832251      4.58128936060527
| 32> H           0.04990261703070     -2.97596484746596      4.44240334694328
| 33> H          -0.04820318575023     -4.08675470796317      2.21598714046560
| 34> H          -0.09870498752579     -2.68915740048288      0.12846959179026
| 35> C           0.06194462166156      3.55006381235348      1.44143215923311
| 36> H          -0.84116618668105      4.01208400301480      1.00272169259353
| 37> H           0.12018684562378      3.82673225712869      2.50411119237925
| 38> H           0.93021072875079      3.98022200468594      0.91048633813469
| 39> C          -0.06163879144342      2.23535286557775     -1.19335579257479
| 40> H           0.84200005659416      2.86322691783085     -1.29721049713274
| 41> H          -0.11947303398066      1.55280359233205     -2.05354858361608
| 42> H          -0.92952293856559      2.91875817267932     -1.21877475276670
| 43> O           0.10605373554418      1.82136872263288      3.64196829309901
| 44> O          -0.10703458249363     -0.56180561393426     -1.13565794046132
| 45> *
| 46>
| 47>                          ****END OF INPUT****

CARTESIAN COORDINATES (ANGSTROEM)
---------------------------------
  C     -0.059074   -0.027935   -0.043900
  C     -0.028907    1.457101    0.082226
  C      0.027814    2.063003    1.296256
  C      0.057808    1.270595    2.558657
  C      0.027287   -0.211484    2.454956
  C     -0.028432   -0.836400    1.202610
  C     -0.055470   -2.229558    1.118896
  C     -0.027222   -2.994924    2.281177
  C      0.027965   -2.371405    3.530914
  C      0.055200   -0.982507    3.618374
  H      0.098476   -0.467708    4.581289
  H      0.049903   -2.975965    4.442403
  H     -0.048203   -4.086755    2.215987
  H     -0.098705   -2.689157    0.128470
  C      0.061945    3.550064    1.441432
  H     -0.841166    4.012084    1.002722
  H      0.120187    3.826732    2.504111
  H      0.930211    3.980222    0.910486
  C     -0.061639    2.235353   -1.193356
  H      0.842000    2.863227   -1.297210
  H     -0.119473    1.552804   -2.053549
  H     -0.929523    2.918758   -1.218775
  O      0.106054    1.821369    3.641968
  O     -0.107035   -0.561806   -1.135658

 Total Charge           Charge          ....    0
 Multiplicity           Mult            ....    1
 Number of Electrons    NEL             ....   98
 Basis Dimension        Dim             ....  874

ORBITAL ENERGIES
----------------

  NO   OCC          E(Eh)            E(eV)
   0   2.0000     -19.124166      -520.3950
   1   2.0000     -19.124135      -520.3942
   2   2.0000     -10.261466      -279.2287
   3   2.0000     -10.261440      -279.2280
   4   2.0000     -10.192604      -277.3549
   5   2.0000     -10.191902      -277.3358
   6   2.0000     -10.185985      -277.1748
   7   2.0000     -10.185484      -277.1611
   8   2.0000     -10.177591      -276.9463
   9   2.0000     -10.177401      -276.9412
  10   2.0000     -10.177033      -276.9311
  11   2.0000     -10.176728      -276.9228
  12   2.0000     -10.151990      -276.2497
  13   2.0000     -10.151959      -276.2488
  14   2.0000      -1.068765       -29.0826
  15   2.0000      -1.067003       -29.0346
  16   2.0000      -0.883177       -24.0325
  17   2.0000      -0.844217       -22.9723
  18   2.0000      -0.779114       -21.2008
  19   2.0000      -0.768965       -20.9246
  20   2.0000      -0.740001       -20.1365
  21   2.0000      -0.688117       -18.7246
  22   2.0000      -0.667268       -18.1573
  23   2.0000      -0.617296       -16.7975
  24   2.0000      -0.599118       -16.3028
  25   2.0000      -0.570361       -15.5203
  26   2.0000      -0.534642       -14.5484
  27   2.0000      -0.502948       -13.6859
  28   2.0000      -0.486206       -13.2303
  29   2.0000      -0.454717       -12.3735
  30   2.0000      -0.452197       -12.3049
  31   2.0000      -0.449907       -12.2426
  32   2.0000      -0.438864       -11.9421
  33   2.0000      -0.430451       -11.7132
  34   2.0000      -0.414415       -11.2768
  35   2.0000      -0.409093       -11.1320
  36   2.0000      -0.399497       -10.8709
  37   2.0000      -0.395824       -10.7709
  38   2.0000      -0.380812       -10.3624
  39   2.0000      -0.375606       -10.2208
  40   2.0000      -0.366058        -9.9609
  41   2.0000      -0.365514        -9.9462
  42   2.0000      -0.348951        -9.4954
  43   2.0000      -0.344890        -9.3849
  44   2.0000      -0.280598        -7.6355
  45   2.0000      -0.275413        -7.4944
  46   2.0000      -0.267816        -7.2877
  47   2.0000      -0.257517        -7.0074
  48   2.0000      -0.256452        -6.9784
  49   0.0000      -0.131706        -3.5839
  50   0.0000      -0.060066        -1.6345
  51   0.0000      -0.034825        -0.9476
  52   0.0000       0.006665         0.1814
  53   0.0000       0.019406         0.5281

MULLIKEN ATOMIC CHARGES
-----------------------
   0 C :    1.462796
   1 C :    0.081639
   2 C :    0.071118
   3 C :    1.462809
   4 C :    1.108138
   5 C :    1.100544
   6 C :   -1.191163
   7 C :   -0.399077
   8 C :   -0.390916
   9 C :   -1.195607
  10 H :    0.039066
  11 H :    0.632970
  12 H :    0.631519
  13 H :    0.033799
  14 C :   -0.928798
  15 H :    0.190122
  16 H :    0.185727
  17 H :    0.184440
  18 C :   -0.931330
  19 H :    0.191405
  20 H :    0.178579
  21 H :    0.185977
  22 O :   -1.352174
  23 O :   -1.351582
Sum of atomic charges:    0.0000000

LOEWDIN ATOMIC CHARGES
----------------------
   0 C :   -0.507492
   1 C :   -0.077894
   2 C :   -0.077724
   3 C :   -0.507412
   4 C :   -0.118537
   5 C :   -0.118497
   6 C :    0.221781
   7 C :    0.227123
   8 C :    0.227148
   9 C :    0.221746
  10 H :   -0.174837
  11 H :   -0.159189
  12 H :   -0.159200
  13 H :   -0.174815
  14 C :    0.578402
  15 H :   -0.144172
  16 H :   -0.202245
  17 H :   -0.145268
  18 C :    0.578334
  19 H :   -0.144246
  20 H :   -0.202410
  21 H :   -0.145191
  22 O :    0.502334
  23 O :    0.502260

  Mayer bond orders larger than 0.100000
B(  0-C ,  1-C ) :   1.0902 B(  0-C ,  2-C ) :  -0.3820 B(  0-C ,  3-C ) :   0.6708
B(  0-C ,  4-C ) :  -0.3075 B(  0-C ,  5-C ) :   0.6696 B(  0-C ,  6-C ) :   0.5743
B(  0-C ,  7-C ) :   0.1195 B(  0-C ,  9-C ) :  -0.1515 B(  0-C , 23-O ) :  -0.2075
B(  1-C ,  2-C ) :   1.5406 B(  1-C ,  3-C ) :  -0.3893 B(  1-C ,  4-C ) :  -0.2501
B(  1-C ,  5-C ) :   0.6991 B(  1-C , 18-C ) :   0.2802 B(  1-C , 19-H ) :  -0.1545
B(  1-C , 21-H ) :  -0.1556 B(  1-C , 22-O ) :   0.1246 B(  1-C , 23-O ) :   0.3208
B(  2-C ,  3-C ) :   1.0972 B(  2-C ,  4-C ) :   0.7084 B(  2-C ,  5-C ) :  -0.2499
B(  2-C , 14-C ) :   0.2783 B(  2-C , 15-H ) :  -0.1554 B(  2-C , 17-H ) :  -0.1572
B(  2-C , 22-O ) :   0.3235 B(  2-C , 23-O ) :   0.1250 B(  3-C ,  4-C ) :   0.6508
B(  3-C ,  5-C ) :  -0.2965 B(  3-C ,  6-C ) :  -0.1510 B(  3-C ,  7-C ) :   0.1001
B(  3-C ,  8-C ) :   0.1191 B(  3-C ,  9-C ) :   0.5835 B(  3-C , 22-O ) :  -0.2015
B(  4-C ,  5-C ) :   0.9531 B(  4-C ,  6-C ) :  -0.6593 B(  4-C ,  7-C ) :  -0.1869
B(  4-C ,  8-C ) :  -0.1076 B(  4-C ,  9-C ) :  -0.2917 B(  4-C , 10-H ) :  -0.1010
B(  4-C , 22-O ) :   0.2600 B(  5-C ,  6-C ) :  -0.3112 B(  5-C ,  7-C ) :  -0.1044
B(  5-C ,  8-C ) :  -0.1849 B(  5-C ,  9-C ) :  -0.6774 B(  5-C , 13-H ) :  -0.1045
B(  5-C , 23-O ) :   0.2734 B(  6-C ,  7-C ) :   1.0813 B(  6-C , 12-H ) :  -0.1312
B(  6-C , 13-H ) :   1.1355 B(  7-C ,  8-C ) :   1.0502 B(  7-C , 12-H ) :   0.2969
B(  8-C ,  9-C ) :   1.0793 B(  8-C , 11-H ) :   0.3028 B(  9-C , 10-H ) :   1.1258
B(  9-C , 11-H ) :  -0.1243 B( 10-H , 22-O ) :   0.2247 B( 13-H , 23-O ) :   0.2269
B( 14-C , 15-H ) :   1.0770 B( 14-C , 16-H ) :   0.9384 B( 14-C , 17-H ) :   1.0834
B( 18-C , 19-H ) :   1.0744 B( 18-C , 20-H ) :   0.9484 B( 18-C , 21-H ) :   1.0801

Dispersion correction           -0.009713808
FINAL SINGLE POINT ENERGY      -613.620606166668

DIPOLE MOMENT
-------------

Method             : SCF
Type of density    : Electron Density
Multiplicity       :   1
Irrep              :   0
Energy             :  -613.6108923589162032 Eh
Relativity type    :
Basis              : AO
                                X                 Y                 Z
Electronic contribution:     -0.004952919      -6.528114928       3.258683767
Nuclear contribution   :      0.005720256       6.367214391      -3.176836513
                        -----------------------------------------
Total Dipole Moment    :      0.000767338      -0.160900537       0.081847254
                        -----------------------------------------
Magnitude (a.u.)       :      0.180522975
Magnitude (Debye)      :      0.458852938

Rotational constants in cm-1:             0.037375             0.021586             0.013754
Rotational constants in MHz :          1120.461464           647.130480           412.334281

                             ****ORCA TERMINATED NORMALLY****
TOTAL RUN TIME: 0 days 0 hours 5 minutes 45 seconds 279 msec
