                         Program Version 6.0.0  -   RELEASE  -
|  1> !r2SCANh aug-cc-pVTZ d3 TightSCF SlowConv RIJCOSX defgrid2
|  2>
|  3> %pal
|  4> nprocs 4
|  5> end
|  6>
|  7> %scf
|  8> MaxIter 1500
|  9> end
| 10>
| 11> %maxcore 3000
| 12>
| 13> !CPCM
| 14> %cpcm smd true
| 15> SMDsolvent "MeCN"
| 16> surfacetype gepol_ses
| 17> rsolv 2.19
| 18> end
| 19>
| 20> * xyz 0 1
| 21> C           0.69340039581910     -1.21642473703122     -0.00210106158208
| 22> C          -0.69454855654644     -1.22021347444475     -0.00107333204799
| 23> C          -1.36154262322334      0.00187791219067      0.00026242389151
| 24> C          -0.68604253118331      1.21670210566519      0.00055618520570
| 25> C           0.70509440805818      1.20392227540601     -0.00053641990430
| 26> C           1.40455093160228     -0.00927557523456     -0.00186311158295
| 27> C           2.90624055769532     -0.08463588452950     -0.00286199019476
| 28> O           3.45693707307488     -1.16143789750676     -0.00328851772908
| 29> C           3.69101592073766      1.20331719293128     -0.00349620755262
| 30> H           3.45502261169039      1.81064521986950      0.88792921534318
| 31> H           4.76399312425029      0.96314274578425     -0.00608195367514
| 32> H           3.45097324706094      1.81300927441323     -0.89217068832087
| 33> H           1.24208602358160      2.15534045576678     -0.00026184416090
| 34> H          -1.25661571978578      2.14643950150070      0.00165091333299
| 35> N          -2.83358313105393      0.00969549364775      0.00154754521515
| 36> O          -3.38285340798047      1.08799719381857      0.00256173004398
| 37> O          -3.39352955523644     -1.06261620732784      0.00148372469125
| 38> H          -1.27233938255821     -2.14567385267397     -0.00122499566180
| 39> H           1.26268251399728     -2.14919824224534     -0.00306631531128
| 40> *
| 41>
| 42>                          ****END OF INPUT****

CARTESIAN COORDINATES (ANGSTROEM)
---------------------------------
  C      0.693400   -1.216425   -0.002101
  C     -0.694549   -1.220213   -0.001073
  C     -1.361543    0.001878    0.000262
  C     -0.686043    1.216702    0.000556
  C      0.705094    1.203922   -0.000536
  C      1.404551   -0.009276   -0.001863
  C      2.906241   -0.084636   -0.002862
  O      3.456937   -1.161438   -0.003289
  C      3.691016    1.203317   -0.003496
  H      3.455023    1.810645    0.887929
  H      4.763993    0.963143   -0.006082
  H      3.450973    1.813009   -0.892171
  H      1.242086    2.155340   -0.000262
  H     -1.256616    2.146440    0.001651
  N     -2.833583    0.009695    0.001548
  O     -3.382853    1.087997    0.002562
  O     -3.393530   -1.062616    0.001484
  H     -1.272339   -2.145674   -0.001225
  H      1.262683   -2.149198   -0.003066

 Total Charge           Charge          ....    0
 Multiplicity           Mult            ....    1
 Number of Electrons    NEL             ....   86
 Basis Dimension        Dim             ....  713

ORBITAL ENERGIES
----------------

  NO   OCC          E(Eh)            E(eV)
   0   2.0000     -19.161487      -521.4106
   1   2.0000     -19.161312      -521.4058
   2   2.0000     -19.114632      -520.1356
   3   2.0000     -14.554152      -396.0386
   4   2.0000     -10.256520      -279.0941
   5   2.0000     -10.228552      -278.3330
   6   2.0000     -10.190835      -277.3067
   7   2.0000     -10.189002      -277.2568
   8   2.0000     -10.188443      -277.2416
   9   2.0000     -10.186670      -277.1934
  10   2.0000     -10.182870      -277.0900
  11   2.0000     -10.153883      -276.3012
  12   2.0000      -1.259793       -34.2807
  13   2.0000      -1.081530       -29.4299
  14   2.0000      -1.060098       -28.8467
  15   2.0000      -0.895510       -24.3681
  16   2.0000      -0.817922       -22.2568
  17   2.0000      -0.772875       -21.0310
  18   2.0000      -0.746462       -20.3123
  19   2.0000      -0.703859       -19.1530
  20   2.0000      -0.627250       -17.0683
  21   2.0000      -0.609769       -16.5926
  22   2.0000      -0.564782       -15.3685
  23   2.0000      -0.554830       -15.0977
  24   2.0000      -0.547397       -14.8954
  25   2.0000      -0.524570       -14.2743
  26   2.0000      -0.484829       -13.1929
  27   2.0000      -0.473111       -12.8740
  28   2.0000      -0.452039       -12.3006
  29   2.0000      -0.439707       -11.9650
  30   2.0000      -0.432546       -11.7702
  31   2.0000      -0.420256       -11.4357
  32   2.0000      -0.407999       -11.1022
  33   2.0000      -0.387630       -10.5479
  34   2.0000      -0.369879       -10.0649
  35   2.0000      -0.358273        -9.7491
  36   2.0000      -0.350262        -9.5311
  37   2.0000      -0.325838        -8.8665
  38   2.0000      -0.313064        -8.5189
  39   2.0000      -0.299105        -8.1391
  40   2.0000      -0.281374        -7.6566
  41   2.0000      -0.274832        -7.4785
  42   2.0000      -0.253262        -6.8916
  43   0.0000      -0.121162        -3.2970
  44   0.0000      -0.061654        -1.6777
  45   0.0000      -0.044567        -1.2127
  46   0.0000       0.007093         0.1930
  47   0.0000       0.021168         0.5760

MULLIKEN ATOMIC CHARGES
-----------------------
   0 C :   -0.913084
   1 C :   -0.334387
   2 C :    0.505805
   3 C :   -0.585049
   4 C :   -0.359337
   5 C :    1.218793
   6 C :    0.782757
   7 O :   -0.959989
   8 C :   -0.589332
   9 H :    0.262983
  10 H :    0.172108
  11 H :    0.262366
  12 H :    0.045602
  13 H :    0.469716
  14 N :    0.788138
  15 O :   -0.682176
  16 O :   -0.682936
  17 H :    0.523355
  18 H :    0.074667
Sum of atomic charges:   -0.0000000

LOEWDIN ATOMIC CHARGES
----------------------
   0 C :    0.218699
   1 C :    0.223963
   2 C :   -0.226289
   3 C :    0.227010
   4 C :    0.233999
   5 C :   -0.111408
   6 C :   -0.533531
   7 O :    0.494752
   8 C :    0.578336
   9 H :   -0.154499
  10 H :   -0.173862
  11 H :   -0.154613
  12 H :   -0.166115
  13 H :   -0.182689
  14 N :   -0.748654
  15 O :    0.418795
  16 O :    0.419007
  17 H :   -0.183591
  18 H :   -0.179311

  Mayer bond orders larger than 0.100000
B(  0-C ,  1-C ) :   1.2507 B(  0-C ,  2-C ) :  -0.3566 B(  0-C ,  4-C ) :  -0.3542
B(  0-C ,  5-C ) :   0.2930 B(  0-C ,  6-C ) :   0.2582 B(  0-C , 18-H ) :   1.1771
B(  1-C ,  2-C ) :   0.9161 B(  1-C ,  4-C ) :  -0.1372 B(  1-C ,  5-C ) :   0.1811
B(  1-C , 14-N ) :  -0.1419 B(  1-C , 17-H ) :   0.4050 B(  2-C ,  3-C ) :   0.7588
B(  2-C ,  4-C ) :  -0.2793 B(  2-C , 14-N ) :   1.1811 B(  2-C , 15-O ) :   0.4040
B(  2-C , 16-O ) :   0.4059 B(  3-C ,  4-C ) :   0.8274 B(  3-C ,  5-C ) :   0.2196
B(  3-C , 13-H ) :   0.4733 B(  3-C , 14-N ) :  -0.2156 B(  4-C ,  5-C ) :   0.5532
B(  4-C ,  6-C ) :   0.1221 B(  4-C , 12-H ) :   1.3345 B(  5-C ,  6-C ) :   0.3310
B(  5-C ,  7-O ) :   0.1992 B(  5-C , 12-H ) :  -0.1795 B(  5-C , 18-H ) :  -0.1351
B(  6-C ,  7-O ) :   0.8413 B(  6-C ,  8-C ) :   0.9341 B(  7-O , 18-H ) :   0.1524
B(  8-C ,  9-H ) :   0.9504 B(  8-C , 10-H ) :   0.9557 B(  8-C , 11-H ) :   0.9512
B( 14-N , 15-O ) :   0.9433 B( 14-N , 16-O ) :   0.9447 B( 15-O , 16-O ) :   0.1789

Dispersion correction           -0.006585400
FINAL SINGLE POINT ENERGY      -589.297713949192

DIPOLE MOMENT
-------------

Method             : SCF
Type of density    : Electron Density
Multiplicity       :   1
Irrep              :   0
Energy             :  -589.2911285495073344 Eh
Relativity type    :
Basis              : AO
                                X                 Y                 Z
Electronic contribution:     -9.518766368      -2.970324831       0.006438028
Nuclear contribution   :     10.904698351       4.303144091      -0.007859468
                        -----------------------------------------
Total Dipole Moment    :      1.385931984       1.332819261      -0.001421440
                        -----------------------------------------
Magnitude (a.u.)       :      1.922814777
Magnitude (Debye)      :      4.887406753

Rotational constants in cm-1:             0.096505             0.015902             0.013688
Rotational constants in MHz :          2893.160990           476.718240           410.340998

                             ****ORCA TERMINATED NORMALLY****
TOTAL RUN TIME: 0 days 0 hours 6 minutes 27 seconds 967 msec
