                         Program Version 6.0.0  -   RELEASE  -
|  1> !PBE0 freq aug-cc-pVTZ d3 TightSCF SlowConv RIJCOSX defgrid2
|  2>
|  3> %pal
|  4> nprocs 12
|  5> end
|  6>
|  7> %scf
|  8> MaxIter 1500
|  9> end
| 10>
| 11> %maxcore 5000
| 12>
| 13> !CPCM
| 14> %cpcm smd true
| 15> SMDsolvent "MeCN"
| 16> surfacetype gepol_ses
| 17> rsolv 2.19
| 18> end
| 19>
| 20> * xyz 0 1
| 21> C          -0.22983211321702     -1.20194257603856      0.00351352012413
| 22> C           1.15543552951121     -1.19585651940848      0.00045961987021
| 23> C           1.86305968046567     -0.00003049952250      0.00007644300944
| 24> C           1.15546534479285      1.19581293104285      0.00046174705532
| 25> C          -0.22980188668804      1.20193455065085      0.00350388702629
| 26> C          -0.94559301604926      0.00000462894661      0.00621485448622
| 27> N          -2.32621482223375      0.00001895339373      0.06731393986084
| 28> H          -2.77700799581236      0.83683156335856     -0.26732606695235
| 29> H          -2.77702539154728     -0.83677747687214     -0.26734569558773
| 30> H          -0.77055034504545      2.14217483039747      0.00344221671250
| 31> H           1.68721875648181      2.14048334391505     -0.00399828902379
| 32> H           2.94585190028097     -0.00004371163066     -0.00364313978631
| 33> H           1.68716382779197     -2.14054174861579     -0.00400836037890
| 34> H          -0.77059986873133     -2.14216926961698      0.00345902358411
| 35> *
| 36>
| 37>                          ****END OF INPUT****

CARTESIAN COORDINATES (ANGSTROEM)
---------------------------------
  C     -0.229832   -1.201943    0.003514
  C      1.155436   -1.195857    0.000460
  C      1.863060   -0.000030    0.000076
  C      1.155465    1.195813    0.000462
  C     -0.229802    1.201935    0.003504
  C     -0.945593    0.000005    0.006215
  N     -2.326215    0.000019    0.067314
  H     -2.777008    0.836832   -0.267326
  H     -2.777025   -0.836777   -0.267346
  H     -0.770550    2.142175    0.003442
  H      1.687219    2.140483   -0.003998
  H      2.945852   -0.000044   -0.003643
  H      1.687164   -2.140542   -0.004008
  H     -0.770600   -2.142169    0.003459

 Total Charge           Charge          ....    0
 Multiplicity           Mult            ....    1
 Number of Electrons    NEL             ....   50
 Basis Dimension        Dim             ....  483

ORBITAL ENERGIES
----------------

  NO   OCC          E(Eh)            E(eV)
   0   2.0000     -14.383465      -391.3940
   1   2.0000     -10.267040      -279.3804
   2   2.0000     -10.225271      -278.2438
   3   2.0000     -10.225248      -278.2431
   4   2.0000     -10.218787      -278.0673
   5   2.0000     -10.218779      -278.0671
   6   2.0000     -10.214957      -277.9631
   7   2.0000      -0.946111       -25.7450
   8   2.0000      -0.864226       -23.5168
   9   2.0000      -0.767896       -20.8955
  10   2.0000      -0.746929       -20.3250
  11   2.0000      -0.629297       -17.1240
  12   2.0000      -0.614854       -16.7310
  13   2.0000      -0.539461       -14.6795
  14   2.0000      -0.517887       -14.0924
  15   2.0000      -0.488189       -13.2843
  16   2.0000      -0.441894       -12.0245
  17   2.0000      -0.438145       -11.9225
  18   2.0000      -0.426522       -11.6063
  19   2.0000      -0.405226       -11.0268
  20   2.0000      -0.366124        -9.9627
  21   2.0000      -0.346355        -9.4248
  22   2.0000      -0.330556        -8.9949
  23   2.0000      -0.267811        -7.2875
  24   2.0000      -0.219875        -5.9831
  25   0.0000      -0.008015        -0.2181
  26   0.0000       0.002273         0.0618
  27   0.0000       0.006255         0.1702
  28   0.0000       0.015174         0.4129
  29   0.0000       0.019264         0.5242

MULLIKEN ATOMIC CHARGES
-----------------------
   0 C :   -0.915537
   1 C :   -0.452943
   2 C :   -0.662659
   3 C :   -0.454783
   4 C :   -0.914543
   5 C :    1.079791
   6 N :   -0.585277
   7 H :    0.063937
   8 H :    0.063704
   9 H :    0.608714
  10 H :    0.473652
  11 H :    0.612412
  12 H :    0.474910
  13 H :    0.608623
Sum of atomic charges:    0.0000000

LOEWDIN ATOMIC CHARGES
----------------------
   0 C :    0.200283
   1 C :    0.162137
   2 C :    0.163606
   3 C :    0.162135
   4 C :    0.200285
   5 C :   -0.275096
   6 N :    0.860679
   7 H :   -0.291812
   8 H :   -0.291812
   9 H :   -0.173280
  10 H :   -0.177950
  11 H :   -0.187944
  12 H :   -0.177948
  13 H :   -0.173282

  Mayer bond orders larger than 0.100000
B(  0-C ,  1-C ) :   1.3449 B(  0-C ,  2-C ) :   0.2443 B(  0-C ,  4-C ) :   0.4163
B(  0-C ,  5-C ) :   0.8427 B(  0-C , 13-H ) :   0.2053 B(  1-C ,  2-C ) :   1.2666
B(  1-C ,  3-C ) :  -0.1068 B(  1-C ,  5-C ) :  -0.2604 B(  1-C , 12-H ) :   0.6728
B(  2-C ,  3-C ) :   1.2669 B(  2-C ,  4-C ) :   0.2437 B(  2-C , 11-H ) :   0.3803
B(  3-C ,  4-C ) :   1.3455 B(  3-C ,  5-C ) :  -0.2601 B(  3-C , 10-H ) :   0.6743
B(  4-C ,  5-C ) :   0.8458 B(  4-C ,  9-H ) :   0.2048 B(  5-C ,  6-N ) :   0.5518
B(  5-C ,  9-H ) :   0.1139 B(  5-C , 13-H ) :   0.1135 B(  6-N ,  7-H ) :   1.0717
B(  6-N ,  8-H ) :   1.0723

Dispersion correction           -0.011472287
FINAL SINGLE POINT ENERGY      -287.390607731028

DIPOLE MOMENT
-------------

Method             : SCF
Type of density    : Electron Density
Multiplicity       :   1
Irrep              :   0
Energy             :  -287.3791354441156045 Eh
Relativity type    :
Basis              : AO
                                X                 Y                 Z
Electronic contribution:     -0.047111403       0.000001306       0.049484998
Nuclear contribution   :     -0.732142991       0.000010229      -0.545932877
                        -----------------------------------------
Total Dipole Moment    :     -0.779254395       0.000011535      -0.496447879
                        -----------------------------------------
Magnitude (a.u.)       :      0.923957742
Magnitude (Debye)      :      2.348513940

VIBRATIONAL FREQUENCIES
-----------------------

Scaling factor for frequencies =  1.000000000  (already applied!)

     0:       0.00 cm**-1
     1:       0.00 cm**-1
     2:       0.00 cm**-1
     3:       0.00 cm**-1
     4:       0.00 cm**-1
     5:       0.00 cm**-1
     6:     216.45 cm**-1
     7:     295.47 cm**-1
     8:     375.07 cm**-1
     9:     418.09 cm**-1
    10:     484.09 cm**-1
    11:     529.71 cm**-1
    12:     548.10 cm**-1
    13:     621.31 cm**-1
    14:     703.85 cm**-1
    15:     769.81 cm**-1
    16:     837.09 cm**-1
    17:     840.41 cm**-1
    18:     899.71 cm**-1
    19:     987.59 cm**-1
    20:    1000.60 cm**-1
    21:    1010.58 cm**-1
    22:    1044.14 cm**-1
    23:    1059.96 cm**-1
    24:    1126.06 cm**-1
    25:    1154.65 cm**-1
    26:    1180.85 cm**-1
    27:    1314.06 cm**-1
    28:    1350.13 cm**-1
    29:    1372.29 cm**-1
    30:    1498.89 cm**-1
    31:    1529.00 cm**-1
    32:    1621.40 cm**-1
    33:    1642.06 cm**-1
    34:    1661.09 cm**-1
    35:    3173.64 cm**-1
    36:    3176.33 cm**-1
    37:    3188.40 cm**-1
    38:    3193.37 cm**-1
    39:    3209.36 cm**-1
    40:    3580.67 cm**-1
    41:    3679.66 cm**-1

IR SPECTRUM
-----------

 Mode   freq       eps      Int      T**2         TX        TY        TZ
       cm**-1   L/(mol*cm) km/mol    a.u.
----------------------------------------------------------------------------
  6:    216.45   0.002782   14.06  0.004011  (-0.037141 -0.000001  0.051294)
  7:    295.47   0.007612   38.47  0.008040  (-0.000002 -0.089664 -0.000014)
  8:    375.07   0.000079    0.40  0.000066  (-0.000016  0.008112  0.000011)
  9:    418.09   0.000008    0.04  0.000006  (-0.000004 -0.002426  0.000005)
 10:    484.09   0.078669  397.56  0.050713  (-0.155603 -0.000003  0.162790)
 11:    529.71   0.004072   20.58  0.002399  (-0.047837 -0.000001  0.010516)
 12:    548.10   0.040478  204.56  0.023046  (-0.139517 -0.000002  0.059843)
 13:    621.31   0.000206    1.04  0.000104  (-0.000002  0.010174  0.000006)
 14:    703.85   0.011746   59.36  0.005208  (-0.008374  0.000002 -0.071676)
 15:    769.81   0.024650  124.57  0.009993  (-0.016202 -0.000000  0.098641)
 16:    837.09   0.002100   10.61  0.000783  (-0.026045  0.000000 -0.010228)
 17:    840.41   0.000012    0.06  0.000004  (-0.000005 -0.002112  0.000005)
 18:    899.71   0.003511   17.74  0.001218  ( 0.003984  0.000000 -0.034666)
 19:    987.59   0.000000    0.00  0.000000  ( 0.000001  0.000251 -0.000001)
 20:   1000.60   0.000055    0.28  0.000017  (-0.000761  0.000000  0.004055)
 21:   1010.58   0.000610    3.08  0.000188  (-0.012943 -0.000007 -0.004565)
 22:   1044.14   0.003178   16.06  0.000950  ( 0.030817 -0.000016 -0.000203)
 23:   1059.96   0.001125    5.69  0.000331  (-0.000008 -0.018200  0.000001)
 24:   1126.06   0.002946   14.89  0.000817  (-0.000009 -0.028575  0.000002)
 25:   1154.65   0.000816    4.12  0.000221  ( 0.000006  0.014851 -0.000000)
 26:   1180.85   0.003900   19.71  0.001031  ( 0.032078 -0.000004  0.001249)
 27:   1314.06   0.027640  139.68  0.006564  (-0.081006  0.000003 -0.001379)
 28:   1350.13   0.000368    1.86  0.000085  ( 0.000032  0.009221  0.000000)
 29:   1372.29   0.003897   19.70  0.000886  (-0.000012 -0.029771 -0.000000)
 30:   1498.89   0.000220    1.11  0.000046  (-0.000039  0.006761  0.000002)
 31:   1529.00   0.033187  167.71  0.006773  (-0.082276  0.000005  0.002025)
 32:   1621.40   0.016543   83.60  0.003184  ( 0.051959  0.000002  0.022005)
 33:   1642.06   0.003061   15.47  0.000582  (-0.000107  0.024120 -0.000008)
 34:   1661.09   0.056659  286.33  0.010644  ( 0.103117  0.000024  0.003373)
 35:   3173.64   0.004148   20.96  0.000408  (-0.020194  0.000019  0.000208)
 36:   3176.33   0.000184    0.93  0.000018  ( 0.000035  0.004249 -0.000000)
 37:   3188.40   0.001716    8.67  0.000168  ( 0.012960  0.000003 -0.000039)
 38:   3193.37   0.008329   42.09  0.000814  (-0.000005 -0.028530 -0.000000)
 39:   3209.36   0.003025   15.29  0.000294  (-0.017151 -0.000003 -0.000114)
 40:   3580.67   0.014181   71.67  0.001236  ( 0.033733  0.000002  0.009901)
 41:   3679.66   0.011301   57.11  0.000958  ( 0.000001 -0.030958 -0.000000)

--------------------------
THERMOCHEMISTRY AT 298.15K
--------------------------

Temperature         ...   298.15 K
Pressure            ...     1.00 atm
Total Mass          ...    93.13 AMU
Quasi RRHO          ...     True
Cut-Off Frequency   ...     1.00 cm^-1

Throughout the following assumptions are being made:
  (1) The electronic state is orbitally nondegenerate
  (2) There are no thermally accessible electronically excited states
  (3) Hindered rotations indicated by low frequency modes are not
      treated as such but are treated as vibrations and this may
      cause some error
  (4) All equations used are the standard statistical mechanics
      equations for an ideal gas
  (5) All vibrations are strictly harmonic

freq.     216.45  E(vib)   ...       0.34
freq.     295.47  E(vib)   ...       0.27
freq.     375.07  E(vib)   ...       0.21
freq.     418.09  E(vib)   ...       0.18
freq.     484.09  E(vib)   ...       0.15
freq.     529.71  E(vib)   ...       0.13
freq.     548.10  E(vib)   ...       0.12
freq.     621.31  E(vib)   ...       0.09
freq.     703.85  E(vib)   ...       0.07
freq.     769.81  E(vib)   ...       0.05
freq.     837.09  E(vib)   ...       0.04
freq.     840.41  E(vib)   ...       0.04
freq.     899.71  E(vib)   ...       0.03
freq.     987.59  E(vib)   ...       0.02
freq.    1000.60  E(vib)   ...       0.02
freq.    1010.58  E(vib)   ...       0.02
freq.    1044.14  E(vib)   ...       0.02
freq.    1059.96  E(vib)   ...       0.02
freq.    1126.06  E(vib)   ...       0.01
freq.    1154.65  E(vib)   ...       0.01
freq.    1180.85  E(vib)   ...       0.01
freq.    1314.06  E(vib)   ...       0.01
freq.    1350.13  E(vib)   ...       0.01
freq.    1372.29  E(vib)   ...       0.01
freq.    1498.89  E(vib)   ...       0.00
freq.    1529.00  E(vib)   ...       0.00
freq.    1621.40  E(vib)   ...       0.00
freq.    1642.06  E(vib)   ...       0.00
freq.    1661.09  E(vib)   ...       0.00
freq.    3173.64  E(vib)   ...       0.00
freq.    3176.33  E(vib)   ...       0.00
freq.    3188.40  E(vib)   ...       0.00
freq.    3193.37  E(vib)   ...       0.00
freq.    3209.36  E(vib)   ...       0.00
freq.    3580.67  E(vib)   ...       0.00
freq.    3679.66  E(vib)   ...       0.00

------------
INNER ENERGY
------------

The inner energy is: U= E(el) + E(ZPE) + E(vib) + E(rot) + E(trans)
    E(el)   - is the total energy from the electronic structure calculation
              = E(kin-el) + E(nuc-el) + E(el-el) + E(nuc-nuc)
    E(ZPE)  - the the zero temperature vibrational energy from the frequency calculation
    E(vib)  - the the finite temperature correction to E(ZPE) due to population
              of excited vibrational states
    E(rot)  - is the rotational thermal energy
    E(trans)- is the translational thermal energy

Summary of contributions to the inner energy U:
Electronic energy                ...   -287.39060773 Eh
Zero point energy                ...      0.11685620 Eh      73.33 kcal/mol
Thermal vibrational correction   ...      0.00303247 Eh       1.90 kcal/mol
Thermal rotational correction    ...      0.00141627 Eh       0.89 kcal/mol
Thermal translational correction ...      0.00141627 Eh       0.89 kcal/mol
-----------------------------------------------------------------------
Total thermal energy                   -287.26788651 Eh

Summary of corrections to the electronic energy:
(perhaps to be used in another calculation)
Total thermal correction                  0.00586502 Eh       3.68 kcal/mol
Non-thermal (ZPE) correction              0.11685620 Eh      73.33 kcal/mol
-----------------------------------------------------------------------
Total correction                          0.12272122 Eh      77.01 kcal/mol

--------
ENTHALPY
--------

The enthalpy is H = U + kB*T
                kB is Boltzmann's constant
Total thermal energy              ...   -287.26788651 Eh
Thermal Enthalpy correction       ...      0.00094421 Eh       0.59 kcal/mol
-----------------------------------------------------------------------
Total Enthalpy                    ...   -287.26694231 Eh

Note: Rotational entropy computed according to Herzberg
Infrared and Raman Spectra, Chapter V,1, Van Nostrand Reinhold, 1945
Point Group:  Cs, Symmetry Number:   1
Rotational constants in cm-1:     0.189078     0.087345     0.059831

Vibrational entropy computed according to the QRRHO of S. Grimme
Chem.Eur.J. 2012 18 9955 using a reference frequency of 100.0 cm-1

-------
ENTROPY
-------

The entropy contributions are T*S = T*(S(el)+S(vib)+S(rot)+S(trans))
     S(el)   - electronic entropy
     S(vib)  - vibrational entropy
     S(rot)  - rotational entropy
     S(trans)- translational entropy
The entropies will be listed as multiplied by the temperature to get
units of energy

Electronic entropy                ...      0.00000000 Eh      0.00 kcal/mol
Vibrational entropy               ...      0.00445632 Eh      2.80 kcal/mol
Rotational entropy                ...      0.01277754 Eh      8.02 kcal/mol
Translational entropy             ...      0.01877043 Eh     11.78 kcal/mol
-----------------------------------------------------------------------
Final entropy term                ...      0.03600429 Eh     22.59 kcal/mol

In case the symmetry of your molecule has not been determined correctly
or in case you have a reason to use a different symmetry number we print
out the resulting rotational entropy values for sn=1,12:

 non-linear molecules -----------------------------------
|  sn= 1 | S(rot)=       0.01277754 Eh      8.02 kcal/mol|
|  sn= 2 | S(rot)=       0.01212308 Eh      7.61 kcal/mol|
|  sn= 3 | S(rot)=       0.01174025 Eh      7.37 kcal/mol|
|  sn= 4 | S(rot)=       0.01146863 Eh      7.20 kcal/mol|
|  sn= 5 | S(rot)=       0.01125794 Eh      7.06 kcal/mol|
|  sn= 6 | S(rot)=       0.01108579 Eh      6.96 kcal/mol|
|  sn= 7 | S(rot)=       0.01094025 Eh      6.87 kcal/mol|
|  sn= 8 | S(rot)=       0.01081417 Eh      6.79 kcal/mol|
|  sn= 9 | S(rot)=       0.01070296 Eh      6.72 kcal/mol|
|  sn=10 | S(rot)=       0.01060348 Eh      6.65 kcal/mol|
|  sn=11 | S(rot)=       0.01051349 Eh      6.60 kcal/mol|
|  sn=12 | S(rot)=       0.01043134 Eh      6.55 kcal/mol|
 linear molecules ---------------------------------------
|  Dinfh | S(rot)=       0.00798484 Eh      5.01 kcal/mol|
|  Cinfv | S(rot)=       0.00863929 Eh      5.42 kcal/mol|
 --------------------------------------------------------

-------------------
GIBBS FREE ENERGY
-------------------

The Gibbs free energy is G = H - T*S

Total enthalpy                    ...   -287.26694231 Eh
Total entropy correction          ...     -0.03600429 Eh    -22.59 kcal/mol
-----------------------------------------------------------------------
Final Gibbs free energy         ...   -287.30294659 Eh

                             ****ORCA TERMINATED NORMALLY****
TOTAL RUN TIME: 0 days 0 hours 38 minutes 21 seconds 853 msec
