                         Program Version 6.0.0  -   RELEASE  -
|  1> !r2SCANh freq aug-cc-pVTZ d3 TightSCF SlowConv RIJCOSX defgrid2
|  2>
|  3> %pal
|  4> nprocs 12
|  5> end
|  6>
|  7> %scf
|  8> MaxIter 1500
|  9> end
| 10>
| 11> %maxcore 5000
| 12>
| 13> !CPCM
| 14> %cpcm smd true
| 15> SMDsolvent "MeCN"
| 16> surfacetype gepol_ses
| 17> rsolv 2.19
| 18> end
| 19>
| 20> * xyz 0 1
| 21> C           1.33715531650310     -0.00513174975922     -0.21308388211190
| 22> C           0.75012660111657      1.25883440193224     -0.16100484309263
| 23> C          -0.62265337921045      1.38578140548857     -0.06935743839473
| 24> C          -1.43837127968310      0.25491973629834     -0.03058738734960
| 25> C          -0.85704107843362     -1.00868489398779     -0.08472570462554
| 26> C           0.52445335942213     -1.13044469897253     -0.17432463840683
| 27> H           0.96074635988510     -2.12012101701317     -0.21340400100018
| 28> H          -1.45985848484122     -1.90315666153470     -0.05713898920724
| 29> O          -2.77074837114406      0.48193249387307      0.05903164971983
| 30> C          -3.62523556371886     -0.65289821551870      0.10081225149331
| 31> H          -4.63620351185025     -0.26311894716201      0.16851804282888
| 32> H          -3.52736450228430     -1.25303784564714     -0.80537246015158
| 33> H          -3.41580453883177     -1.27177293341164      0.97505903290350
| 34> H          -1.07891191878890      2.36559294177842     -0.02718154126006
| 35> H           1.36457621554027      2.14858274905037     -0.19241350455495
| 36> S           3.09159981118548     -0.23696319583968     -0.33261443367075
| 37> H           3.42863266513390      1.06225223042557     -0.27680245311951
| 38> *
| 39>
| 40>                          ****END OF INPUT****

CARTESIAN COORDINATES (ANGSTROEM)
---------------------------------
  C      1.337155   -0.005132   -0.213084
  C      0.750127    1.258834   -0.161005
  C     -0.622653    1.385781   -0.069357
  C     -1.438371    0.254920   -0.030587
  C     -0.857041   -1.008685   -0.084726
  C      0.524453   -1.130445   -0.174325
  H      0.960746   -2.120121   -0.213404
  H     -1.459858   -1.903157   -0.057139
  O     -2.770748    0.481932    0.059032
  C     -3.625236   -0.652898    0.100812
  H     -4.636204   -0.263119    0.168518
  H     -3.527365   -1.253038   -0.805372
  H     -3.415805   -1.271773    0.975059
  H     -1.078912    2.365593   -0.027182
  H      1.364576    2.148583   -0.192414
  S      3.091600   -0.236963   -0.332614
  H      3.428633    1.062252   -0.276802

 Total Charge           Charge          ....    0
 Multiplicity           Mult            ....    1
 Number of Electrons    NEL             ....   74
 Basis Dimension        Dim             ....  602

ORBITAL ENERGIES
----------------

  NO   OCC          E(Eh)            E(eV)
   0   2.0000     -88.909445     -2419.3490
   1   2.0000     -19.150707      -521.1172
   2   2.0000     -10.219000      -278.0731
   3   2.0000     -10.194574      -277.4085
   4   2.0000     -10.194421      -277.4043
   5   2.0000     -10.165549      -276.6187
   6   2.0000     -10.164911      -276.6013
   7   2.0000     -10.159470      -276.4532
   8   2.0000     -10.158552      -276.4283
   9   2.0000      -7.975037      -217.0118
  10   2.0000      -5.896510      -160.4522
  11   2.0000      -5.892828      -160.3520
  12   2.0000      -5.888734      -160.2406
  13   2.0000      -1.073730       -29.2177
  14   2.0000      -0.869953       -23.6726
  15   2.0000      -0.787555       -21.4305
  16   2.0000      -0.757027       -20.5997
  17   2.0000      -0.720269       -19.5995
  18   2.0000      -0.673477       -18.3262
  19   2.0000      -0.613887       -16.7047
  20   2.0000      -0.580663       -15.8006
  21   2.0000      -0.527307       -14.3488
  22   2.0000      -0.487228       -13.2581
  23   2.0000      -0.461963       -12.5706
  24   2.0000      -0.457302       -12.4438
  25   2.0000      -0.438235       -11.9250
  26   2.0000      -0.417552       -11.3622
  27   2.0000      -0.408561       -11.1175
  28   2.0000      -0.384745       -10.4695
  29   2.0000      -0.381576       -10.3832
  30   2.0000      -0.351057        -9.5527
  31   2.0000      -0.334064        -9.0904
  32   2.0000      -0.332508        -9.0480
  33   2.0000      -0.317307        -8.6343
  34   2.0000      -0.270118        -7.3503
  35   2.0000      -0.259882        -7.0718
  36   2.0000      -0.200870        -5.4659
  37   0.0000      -0.031499        -0.8571
  38   0.0000      -0.013098        -0.3564
  39   0.0000       0.000098         0.0027
  40   0.0000       0.014930         0.4063
  41   0.0000       0.019460         0.5295

MULLIKEN ATOMIC CHARGES
-----------------------
   0 C :    0.948281
   1 C :   -0.732571
   2 C :   -0.916323
   3 C :    1.190727
   4 C :   -0.275218
   5 C :   -0.985546
   6 H :    0.405487
   7 H :    0.450773
   8 O :   -0.679604
   9 C :   -0.703261
  10 H :    0.257748
  11 H :    0.277824
  12 H :    0.276732
  13 H :    0.531855
  14 H :    0.297337
  15 S :   -0.479392
  16 H :    0.135152
Sum of atomic charges:   -0.0000000

LOEWDIN ATOMIC CHARGES
----------------------
   0 C :   -0.595541
   1 C :    0.113499
   2 C :    0.193946
   3 C :   -0.411045
   4 C :    0.195309
   5 C :    0.098282
   6 H :   -0.192985
   7 H :   -0.198931
   8 O :    0.592661
   9 C :    0.355272
  10 H :   -0.178788
  11 H :   -0.171403
  12 H :   -0.170842
  13 H :   -0.177200
  14 H :   -0.194678
  15 S :    1.305517
  16 H :   -0.563073

  Mayer bond orders larger than 0.100000
B(  0-C ,  1-C ) :   0.8947 B(  0-C ,  5-C ) :   1.0348 B(  0-C , 15-S ) :   0.2791
B(  1-C ,  2-C ) :   1.2261 B(  1-C ,  3-C ) :  -0.3389 B(  1-C , 14-H ) :   0.7907
B(  2-C ,  3-C ) :   0.6071 B(  2-C ,  4-C ) :   0.2260 B(  2-C ,  8-O ) :   0.2879
B(  2-C , 13-H ) :   0.3838 B(  3-C ,  4-C ) :   0.9203 B(  3-C ,  5-C ) :  -0.2780
B(  3-C ,  7-H ) :   0.1107 B(  3-C ,  8-O ) :   0.3560 B(  4-C ,  5-C ) :   0.8377
B(  4-C ,  7-H ) :   0.4221 B(  4-C ,  8-O ) :  -0.1461 B(  4-C ,  9-C ) :  -0.1224
B(  5-C ,  6-H ) :   0.6965 B(  5-C , 15-S ) :   0.1468 B(  8-O ,  9-C ) :   1.0085
B(  9-C , 10-H ) :   0.9790 B(  9-C , 11-H ) :   0.9077 B(  9-C , 12-H ) :   0.9091
B( 15-S , 16-H ) :   1.0647

Dispersion correction           -0.005709020
FINAL SINGLE POINT ENERGY      -744.881828289816

DIPOLE MOMENT
-------------

Method             : SCF
Type of density    : Electron Density
Multiplicity       :   1
Irrep              :   0
Energy             :  -744.8761192695696991 Eh
Relativity type    :
Basis              : AO
                                X                 Y                 Z
Electronic contribution:      7.093691136       0.999790640      -0.484064651
Nuclear contribution   :     -7.931306471      -1.149710239       0.556463174
                        -----------------------------------------
Total Dipole Moment    :     -0.837615335      -0.149919599       0.072398523
                        -----------------------------------------
Magnitude (a.u.)       :      0.854000516
Magnitude (Debye)      :      2.170696803

VIBRATIONAL FREQUENCIES
-----------------------

Scaling factor for frequencies =  1.000000000  (already applied!)

     0:       0.00 cm**-1
     1:       0.00 cm**-1
     2:       0.00 cm**-1
     3:       0.00 cm**-1
     4:       0.00 cm**-1
     5:       0.00 cm**-1
     6:      73.96 cm**-1
     7:      96.91 cm**-1
     8:     137.37 cm**-1
     9:     199.01 cm**-1
    10:     242.74 cm**-1
    11:     305.02 cm**-1
    12:     338.32 cm**-1
    13:     363.84 cm**-1
    14:     421.03 cm**-1
    15:     504.42 cm**-1
    16:     515.32 cm**-1
    17:     636.27 cm**-1
    18:     650.64 cm**-1
    19:     726.69 cm**-1
    20:     820.64 cm**-1
    21:     821.46 cm**-1
    22:     837.80 cm**-1
    23:     917.98 cm**-1
    24:     949.52 cm**-1
    25:     971.71 cm**-1
    26:    1027.59 cm**-1
    27:    1055.91 cm**-1
    28:    1123.08 cm**-1
    29:    1139.61 cm**-1
    30:    1173.95 cm**-1
    31:    1204.93 cm**-1
    32:    1211.99 cm**-1
    33:    1283.67 cm**-1
    34:    1335.53 cm**-1
    35:    1359.08 cm**-1
    36:    1451.25 cm**-1
    37:    1473.66 cm**-1
    38:    1480.96 cm**-1
    39:    1491.59 cm**-1
    40:    1531.54 cm**-1
    41:    1624.91 cm**-1
    42:    1650.24 cm**-1
    43:    2690.67 cm**-1
    44:    3033.37 cm**-1
    45:    3104.47 cm**-1
    46:    3165.09 cm**-1
    47:    3189.20 cm**-1
    48:    3191.32 cm**-1
    49:    3207.42 cm**-1
    50:    3230.96 cm**-1

IR SPECTRUM
-----------

 Mode   freq       eps      Int      T**2         TX        TY        TZ
       cm**-1   L/(mol*cm) km/mol    a.u.
----------------------------------------------------------------------------
  6:     73.96   0.000098    0.49  0.000412  (-0.004080 -0.000064 -0.019894)
  7:     96.91   0.007016   35.45  0.022591  ( 0.002433  0.006639 -0.150136)
  8:    137.37   0.000027    0.13  0.000060  (-0.003069 -0.001026 -0.007072)
  9:    199.01   0.000867    4.38  0.001360  ( 0.033870 -0.014384 -0.002452)
 10:    242.74   0.000011    0.05  0.000014  ( 0.000759 -0.000736  0.003555)
 11:    305.02   0.000061    0.31  0.000062  ( 0.004808 -0.006223  0.000388)
 12:    338.32   0.001232    6.23  0.001136  (-0.001229  0.000768 -0.033678)
 13:    363.84   0.000221    1.12  0.000189  (-0.000000 -0.013756 -0.000513)
 14:    421.03   0.000064    0.32  0.000048  ( 0.000441 -0.000675  0.006850)
 15:    504.42   0.000226    1.14  0.000140  ( 0.011717  0.001400  0.000590)
 16:    515.32   0.008089   40.88  0.004898  ( 0.003761 -0.000701  0.069883)
 17:    636.27   0.006750   34.11  0.003311  ( 0.055072 -0.016246 -0.003706)
 18:    650.64   0.005153   26.04  0.002472  ( 0.049331 -0.005564 -0.002652)
 19:    726.69   0.000176    0.89  0.000075  ( 0.000531  0.000087  0.008666)
 20:    820.64   0.001746    8.82  0.000664  (-0.005967  0.004811 -0.024599)
 21:    821.46   0.000974    4.92  0.000370  ( 0.008444 -0.012050 -0.012394)
 22:    837.80   0.021734  109.83  0.008095  (-0.005377  0.000581 -0.089811)
 23:    917.98   0.001923    9.72  0.000654  ( 0.004006  0.025251 -0.000321)
 24:    949.52   0.000032    0.16  0.000011  (-0.000487 -0.000009 -0.003232)
 25:    971.71   0.000020    0.10  0.000007  ( 0.000596  0.001209  0.002171)
 26:   1027.59   0.001220    6.16  0.000370  (-0.019019 -0.002585  0.001415)
 27:   1055.91   0.025282  127.77  0.007472  ( 0.067903  0.053357 -0.003769)
 28:   1123.08   0.005844   29.53  0.001624  ( 0.035387 -0.019127 -0.002381)
 29:   1139.61   0.003641   18.40  0.000997  (-0.001780 -0.031526 -0.000087)
 30:   1173.95   0.000198    1.00  0.000053  ( 0.001142 -0.000359  0.007160)
 31:   1204.93   0.003333   16.85  0.000863  ( 0.028729  0.005903 -0.001763)
 32:   1211.99   0.007664   38.73  0.001973  ( 0.040177  0.018815 -0.002280)
 33:   1283.67   0.093011  470.04  0.022611  (-0.149674 -0.010834  0.009574)
 34:   1335.53   0.001244    6.28  0.000291  ( 0.006961 -0.015547 -0.000664)
 35:   1359.08   0.009307   47.03  0.002137  (-0.036968 -0.027697  0.001803)
 36:   1451.25   0.001041    5.26  0.000224  (-0.014758  0.002307  0.000916)
 37:   1473.66   0.006811   34.42  0.001442  ( 0.036776 -0.009315 -0.001735)
 38:   1480.96   0.002970   15.01  0.000626  ( 0.001142 -0.000226 -0.024988)
 39:   1491.59   0.006307   31.87  0.001320  (-0.036132  0.003490  0.001378)
 40:   1531.54   0.059811  302.26  0.012187  (-0.110151 -0.001453  0.007179)
 41:   1624.91   0.005353   27.05  0.001028  (-0.026922  0.017291  0.002048)
 42:   1650.24   0.008569   43.31  0.001620  ( 0.039739  0.005861 -0.002628)
 43:   2690.67   0.002095   10.59  0.000243  ( 0.009015  0.012712  0.000344)
 44:   3033.37   0.015913   80.42  0.001637  (-0.029548 -0.027595  0.001607)
 45:   3104.47   0.010395   52.53  0.001045  (-0.002357  0.000198 -0.032238)
 46:   3165.09   0.005379   27.18  0.000530  (-0.020556  0.010283  0.001438)
 47:   3189.20   0.001839    9.29  0.000180  ( 0.009712 -0.009235 -0.000573)
 48:   3191.32   0.001601    8.09  0.000157  (-0.011896 -0.003844  0.000525)
 49:   3207.42   0.001537    7.76  0.000149  (-0.002938  0.011863  0.000353)
 50:   3230.96   0.000871    4.40  0.000084  ( 0.007417  0.005372 -0.000463)

--------------------------
THERMOCHEMISTRY AT 298.15K
--------------------------

Temperature         ...   298.15 K
Pressure            ...     1.00 atm
Total Mass          ...   140.20 AMU
Quasi RRHO          ...     True
Cut-Off Frequency   ...     1.00 cm^-1

Throughout the following assumptions are being made:
  (1) The electronic state is orbitally nondegenerate
  (2) There are no thermally accessible electronically excited states
  (3) Hindered rotations indicated by low frequency modes are not
      treated as such but are treated as vibrations and this may
      cause some error
  (4) All equations used are the standard statistical mechanics
      equations for an ideal gas
  (5) All vibrations are strictly harmonic

freq.      73.96  E(vib)   ...       0.49
freq.      96.91  E(vib)   ...       0.46
freq.     137.37  E(vib)   ...       0.42
freq.     199.01  E(vib)   ...       0.35
freq.     242.74  E(vib)   ...       0.31
freq.     305.02  E(vib)   ...       0.26
freq.     338.32  E(vib)   ...       0.23
freq.     363.84  E(vib)   ...       0.22
freq.     421.03  E(vib)   ...       0.18
freq.     504.42  E(vib)   ...       0.14
freq.     515.32  E(vib)   ...       0.13
freq.     636.27  E(vib)   ...       0.09
freq.     650.64  E(vib)   ...       0.08
freq.     726.69  E(vib)   ...       0.06
freq.     820.64  E(vib)   ...       0.05
freq.     821.46  E(vib)   ...       0.05
freq.     837.80  E(vib)   ...       0.04
freq.     917.98  E(vib)   ...       0.03
freq.     949.52  E(vib)   ...       0.03
freq.     971.71  E(vib)   ...       0.03
freq.    1027.59  E(vib)   ...       0.02
freq.    1055.91  E(vib)   ...       0.02
freq.    1123.08  E(vib)   ...       0.01
freq.    1139.61  E(vib)   ...       0.01
freq.    1173.95  E(vib)   ...       0.01
freq.    1204.93  E(vib)   ...       0.01
freq.    1211.99  E(vib)   ...       0.01
freq.    1283.67  E(vib)   ...       0.01
freq.    1335.53  E(vib)   ...       0.01
freq.    1359.08  E(vib)   ...       0.01
freq.    1451.25  E(vib)   ...       0.00
freq.    1473.66  E(vib)   ...       0.00
freq.    1480.96  E(vib)   ...       0.00
freq.    1491.59  E(vib)   ...       0.00
freq.    1531.54  E(vib)   ...       0.00
freq.    1624.91  E(vib)   ...       0.00
freq.    1650.24  E(vib)   ...       0.00
freq.    2690.67  E(vib)   ...       0.00
freq.    3033.37  E(vib)   ...       0.00
freq.    3104.47  E(vib)   ...       0.00
freq.    3165.09  E(vib)   ...       0.00
freq.    3189.20  E(vib)   ...       0.00
freq.    3191.32  E(vib)   ...       0.00
freq.    3207.42  E(vib)   ...       0.00
freq.    3230.96  E(vib)   ...       0.00

------------
INNER ENERGY
------------

The inner energy is: U= E(el) + E(ZPE) + E(vib) + E(rot) + E(trans)
    E(el)   - is the total energy from the electronic structure calculation
              = E(kin-el) + E(nuc-el) + E(el-el) + E(nuc-nuc)
    E(ZPE)  - the the zero temperature vibrational energy from the frequency calculation
    E(vib)  - the the finite temperature correction to E(ZPE) due to population
              of excited vibrational states
    E(rot)  - is the rotational thermal energy
    E(trans)- is the translational thermal energy

Summary of contributions to the inner energy U:
Electronic energy                ...   -744.88182829 Eh
Zero point energy                ...      0.13204857 Eh      82.86 kcal/mol
Thermal vibrational correction   ...      0.00605621 Eh       3.80 kcal/mol
Thermal rotational correction    ...      0.00141627 Eh       0.89 kcal/mol
Thermal translational correction ...      0.00141627 Eh       0.89 kcal/mol
-----------------------------------------------------------------------
Total thermal energy                   -744.74089096 Eh

Summary of corrections to the electronic energy:
(perhaps to be used in another calculation)
Total thermal correction                  0.00888876 Eh       5.58 kcal/mol
Non-thermal (ZPE) correction              0.13204857 Eh      82.86 kcal/mol
-----------------------------------------------------------------------
Total correction                          0.14093733 Eh      88.44 kcal/mol

--------
ENTHALPY
--------

The enthalpy is H = U + kB*T
                kB is Boltzmann's constant
Total thermal energy              ...   -744.74089096 Eh
Thermal Enthalpy correction       ...      0.00094421 Eh       0.59 kcal/mol
-----------------------------------------------------------------------
Total Enthalpy                    ...   -744.73994675 Eh

Note: Only C1 symmetry has been detected, increase convergence thresholds
      if your molecule has a higher symmetry. Symmetry factor of 1.0 is
      used for the rotational entropy correction.

Note: Rotational entropy computed according to Herzberg
Infrared and Raman Spectra, Chapter V,1, Van Nostrand Reinhold, 1945
Point Group:  C1, Symmetry Number:   1
Rotational constants in cm-1:     0.159636     0.023234     0.020361

Vibrational entropy computed according to the QRRHO of S. Grimme
Chem.Eur.J. 2012 18 9955 using a reference frequency of 100.0 cm-1

-------
ENTROPY
-------

The entropy contributions are T*S = T*(S(el)+S(vib)+S(rot)+S(trans))
     S(el)   - electronic entropy
     S(vib)  - vibrational entropy
     S(rot)  - rotational entropy
     S(trans)- translational entropy
The entropies will be listed as multiplied by the temperature to get
units of energy

Electronic entropy                ...      0.00000000 Eh      0.00 kcal/mol
Vibrational entropy               ...      0.01027501 Eh      6.45 kcal/mol
Rotational entropy                ...      0.01399149 Eh      8.78 kcal/mol
Translational entropy             ...      0.01934980 Eh     12.14 kcal/mol
-----------------------------------------------------------------------
Final entropy term                ...      0.04361630 Eh     27.37 kcal/mol

In case the symmetry of your molecule has not been determined correctly
or in case you have a reason to use a different symmetry number we print
out the resulting rotational entropy values for sn=1,12:

 non-linear molecules -----------------------------------
|  sn= 1 | S(rot)=       0.01399149 Eh      8.78 kcal/mol|
|  sn= 2 | S(rot)=       0.01333704 Eh      8.37 kcal/mol|
|  sn= 3 | S(rot)=       0.01295421 Eh      8.13 kcal/mol|
|  sn= 4 | S(rot)=       0.01268258 Eh      7.96 kcal/mol|
|  sn= 5 | S(rot)=       0.01247189 Eh      7.83 kcal/mol|
|  sn= 6 | S(rot)=       0.01229975 Eh      7.72 kcal/mol|
|  sn= 7 | S(rot)=       0.01215420 Eh      7.63 kcal/mol|
|  sn= 8 | S(rot)=       0.01202813 Eh      7.55 kcal/mol|
|  sn= 9 | S(rot)=       0.01191692 Eh      7.48 kcal/mol|
|  sn=10 | S(rot)=       0.01181744 Eh      7.42 kcal/mol|
|  sn=11 | S(rot)=       0.01172745 Eh      7.36 kcal/mol|
|  sn=12 | S(rot)=       0.01164529 Eh      7.31 kcal/mol|
 linear molecules ---------------------------------------
|  Dinfh | S(rot)=       0.00900259 Eh      5.65 kcal/mol|
|  Cinfv | S(rot)=       0.00965704 Eh      6.06 kcal/mol|

                             ****ORCA TERMINATED NORMALLY****
TOTAL RUN TIME: 0 days 0 hours 34 minutes 6 seconds 691 msec
