                         Program Version 6.0.0  -   RELEASE  -
|  1> !TPSSh freq aug-cc-pVTZ d3 TightSCF SlowConv RIJCOSX defgrid2
|  2>
|  3> %pal
|  4> nprocs 12
|  5> end
|  6>
|  7> %scf
|  8> MaxIter 1500
|  9> end
| 10>
| 11> %maxcore 5000
| 12>
| 13> !CPCM
| 14> %cpcm smd true
| 15> SMDsolvent "MeCN"
| 16> surfacetype gepol_ses
| 17> rsolv 2.19
| 18> end
| 19>
| 20> * xyz -1 2
| 21> C          -1.21593003665610     -0.03836859219626      0.00000413930932
| 22> C          -1.21902637043602      1.41419822207799     -0.00019854862316
| 23> C           0.00004487667436      2.08018396521126      0.00000318854226
| 24> C           1.21909047160726      1.41414728489572      0.00018919886670
| 25> C           1.21592647644970     -0.03842222570279      0.00001138777514
| 26> C          -0.00001763431116     -0.72601449830352      0.00002195046287
| 27> H          -0.00004164590931     -1.80917454670537      0.00003774717494
| 28> C           2.41707559349581     -0.76454070119494     -0.00015963404855
| 29> N           3.43020477173122     -1.34867864153830     -0.00030953385977
| 30> H           2.15636937792796      1.95340266352403      0.00082418754433
| 31> H           0.00006524343719      3.16549481944437      0.00001086648792
| 32> H          -2.15628114987290      1.95349078405268     -0.00085809167142
| 33> C          -2.41711424083411     -0.76442783757766      0.00016782908860
| 34> N          -3.43027483330392     -1.34851099598722      0.00030621295081
| 35> *
| 36>
| 37>                          ****END OF INPUT****

CARTESIAN COORDINATES (ANGSTROEM)
---------------------------------
  C     -1.215930   -0.038369    0.000004
  C     -1.219026    1.414198   -0.000199
  C      0.000045    2.080184    0.000003
  C      1.219090    1.414147    0.000189
  C      1.215926   -0.038422    0.000011
  C     -0.000018   -0.726014    0.000022
  H     -0.000042   -1.809175    0.000038
  C      2.417076   -0.764541   -0.000160
  N      3.430205   -1.348679   -0.000310
  H      2.156369    1.953403    0.000824
  H      0.000065    3.165495    0.000011
  H     -2.156281    1.953491   -0.000858
  C     -2.417114   -0.764428    0.000168
  N     -3.430275   -1.348511    0.000306

 Total Charge           Charge          ....   -1
 Multiplicity           Mult            ....    2
 Number of Electrons    NEL             ....   67
 Basis Dimension        Dim             ....  552

ORBITAL ENERGIES
----------------
                 SPIN UP ORBITALS
  NO   OCC          E(Eh)            E(eV)
   0   1.0000     -14.229191      -387.1960
   1   1.0000     -14.229189      -387.1959
   2   1.0000     -10.136969      -275.8409
   3   1.0000     -10.136964      -275.8408
   4   1.0000     -10.127732      -275.5896
   5   1.0000     -10.125641      -275.5327
   6   1.0000     -10.125590      -275.5313
   7   1.0000     -10.104939      -274.9694
   8   1.0000     -10.098773      -274.8016
   9   1.0000     -10.098754      -274.8011
  10   1.0000      -0.872158       -23.7326
  11   1.0000      -0.868476       -23.6324
  12   1.0000      -0.825642       -22.4669
  13   1.0000      -0.741424       -20.1752
  14   1.0000      -0.732316       -19.9273
  15   1.0000      -0.618643       -16.8341
  16   1.0000      -0.605217       -16.4688
  17   1.0000      -0.540330       -14.7031
  18   1.0000      -0.465371       -12.6634
  19   1.0000      -0.450110       -12.2481
  20   1.0000      -0.428342       -11.6558
  21   1.0000      -0.404046       -10.9946
  22   1.0000      -0.381839       -10.3904
  23   1.0000      -0.353492        -9.6190
  24   1.0000      -0.350597        -9.5402
  25   1.0000      -0.348500        -9.4832
  26   1.0000      -0.335941        -9.1414
  27   1.0000      -0.334877        -9.1125
  28   1.0000      -0.310559        -8.4507
  29   1.0000      -0.304056        -8.2738
  30   1.0000      -0.300554        -8.1785
  31   1.0000      -0.247623        -6.7382
  32   1.0000      -0.238877        -6.5002
  33   1.0000      -0.095878        -2.6090
  34   0.0000      -0.042466        -1.1555
  35   0.0000      -0.003740        -0.1018
  36   0.0000       0.012360         0.3363
  37   0.0000       0.012797         0.3482
  38   0.0000       0.017077         0.4647

                 SPIN DOWN ORBITALS
  NO   OCC          E(Eh)            E(eV)
   0   1.0000     -14.227177      -387.1412
   1   1.0000     -14.227175      -387.1411
   2   1.0000     -10.136802      -275.8364
   3   1.0000     -10.136798      -275.8363
   4   1.0000     -10.128435      -275.6087
   5   1.0000     -10.123978      -275.4874
   6   1.0000     -10.123957      -275.4869
   7   1.0000     -10.106991      -275.0252
   8   1.0000     -10.092792      -274.6388
   9   1.0000     -10.092788      -274.6387
  10   1.0000      -0.869125       -23.6501
  11   1.0000      -0.865636       -23.5551
  12   1.0000      -0.821344       -22.3499
  13   1.0000      -0.734103       -19.9760
  14   1.0000      -0.728457       -19.8223
  15   1.0000      -0.606731       -16.5100
  16   1.0000      -0.603456       -16.4209
  17   1.0000      -0.539347       -14.6764
  18   1.0000      -0.461047       -12.5457
  19   1.0000      -0.448111       -12.1937
  20   1.0000      -0.425873       -11.5886
  21   1.0000      -0.403519       -10.9803
  22   1.0000      -0.370044       -10.0694
  23   1.0000      -0.350829        -9.5466
  24   1.0000      -0.348038        -9.4706
  25   1.0000      -0.338063        -9.1992
  26   1.0000      -0.334291        -9.0965
  27   1.0000      -0.332672        -9.0525
  28   1.0000      -0.302723        -8.2375
  29   1.0000      -0.299323        -8.1450
  30   1.0000      -0.298185        -8.1140
  31   1.0000      -0.238542        -6.4910
  32   1.0000      -0.213426        -5.8076
  33   0.0000      -0.043208        -1.1758
  34   0.0000      -0.037654        -1.0246
  35   0.0000      -0.001752        -0.0477
  36   0.0000       0.014074         0.3830
  37   0.0000       0.014679         0.3994

MULLIKEN ATOMIC CHARGES AND SPIN POPULATIONS
--------------------------------------------
   0 C :    1.035859    0.066732
   1 C :   -0.721514    0.446631
   2 C :   -0.376509   -0.135521
   3 C :   -0.722041    0.446655
   4 C :    1.034850    0.066745
   5 C :   -0.847328   -0.028431
   6 H :   -0.224076    0.003443
   7 C :    0.802717   -0.004568
   8 N :   -1.092954    0.093893
   9 H :   -0.026380   -0.011925
  10 H :    0.453409   -0.021040
  11 H :   -0.026373   -0.011935
  12 C :    0.803545   -0.004570
  13 N :   -1.093206    0.093891
Sum of atomic charges         :   -1.0000000

LOEWDIN ATOMIC CHARGES AND SPIN POPULATIONS
-------------------------------------------
   0 C :   -0.257339    0.101081
   1 C :    0.163071    0.197018
   2 C :    0.132331    0.058002
   3 C :    0.163073    0.197021
   4 C :   -0.257338    0.101082
   5 C :    0.148193    0.015608
   6 H :   -0.173241   -0.000703
   7 C :   -0.327109    0.047513
   8 N :    0.171362    0.075076
   9 H :   -0.208216    0.045991
  10 H :   -0.190829   -0.006270
  11 H :   -0.208218    0.045991
  12 C :   -0.327107    0.047513
  13 N :    0.171366    0.075076

  Mayer bond orders larger than 0.100000
B(  0-C ,  1-C ) :   0.2101 B(  0-C ,  4-C ) :   0.2092 B(  0-C ,  5-C ) :   0.6397
B(  0-C ,  6-H ) :  -0.1179 B(  0-C , 11-H ) :  -0.1452 B(  0-C , 12-C ) :   0.8859
B(  0-C , 13-N ) :   0.2895 B(  1-C ,  2-C ) :   1.3406 B(  1-C ,  5-C ) :  -0.1060
B(  1-C , 11-H ) :   1.2304 B(  1-C , 12-C ) :   0.2846 B(  2-C ,  3-C ) :   1.3407
B(  2-C , 10-H ) :   0.6289 B(  3-C ,  4-C ) :   0.2113 B(  3-C ,  5-C ) :  -0.1053
B(  3-C ,  7-C ) :   0.2842 B(  3-C ,  9-H ) :   1.2299 B(  4-C ,  5-C ) :   0.6413
B(  4-C ,  6-H ) :  -0.1177 B(  4-C ,  7-C ) :   0.8866 B(  4-C ,  8-N ) :   0.2886
B(  4-C ,  9-H ) :  -0.1451 B(  5-C ,  6-H ) :   1.4219 B(  5-C ,  8-N ) :   0.1088
B(  5-C ,  9-H ) :   0.1026 B(  5-C , 11-H ) :   0.1029 B(  5-C , 13-N ) :   0.1091
B(  7-C ,  8-N ) :   0.9038 B(  7-C , 12-C ) :   0.2303 B( 12-C , 13-N ) :   0.9021

Dispersion correction           -0.018983759
FINAL SINGLE POINT ENERGY      -417.023629618912

DIPOLE MOMENT
-------------

Method             : SCF
Type of density    : Electron Density
Multiplicity       :   2
Irrep              :   0
Energy             :  -417.0046458603463293 Eh
Relativity type    :
Basis              : AO
                                X                 Y                 Z
Electronic contribution:     -0.000082132      -3.132687229       0.000006534
Nuclear contribution   :      0.000112706       4.967759033       0.000000773
                        -----------------------------------------
Total Dipole Moment    :      0.000030573       1.835071804       0.000007307
                        -----------------------------------------
Magnitude (a.u.)       :      1.835071804
Magnitude (Debye)      :      4.664381842

VIBRATIONAL FREQUENCIES
-----------------------

Scaling factor for frequencies =  1.000000000  (already applied!)

     0:       0.00 cm**-1
     1:       0.00 cm**-1
     2:       0.00 cm**-1
     3:       0.00 cm**-1
     4:       0.00 cm**-1
     5:       0.00 cm**-1
     6:     116.08 cm**-1
     7:     118.22 cm**-1
     8:     131.44 cm**-1
     9:     194.37 cm**-1
    10:     326.31 cm**-1
    11:     395.83 cm**-1
    12:     419.58 cm**-1
    13:     464.65 cm**-1
    14:     492.73 cm**-1
    15:     557.91 cm**-1
    16:     565.66 cm**-1
    17:     608.77 cm**-1
    18:     623.65 cm**-1
    19:     657.08 cm**-1
    20:     663.10 cm**-1
    21:     688.48 cm**-1
    22:     875.17 cm**-1
    23:     914.40 cm**-1
    24:     953.19 cm**-1
    25:     979.45 cm**-1
    26:    1039.28 cm**-1
    27:    1091.67 cm**-1
    28:    1138.24 cm**-1
    29:    1264.02 cm**-1
    30:    1285.12 cm**-1
    31:    1350.38 cm**-1
    32:    1397.13 cm**-1
    33:    1402.53 cm**-1
    34:    1471.82 cm**-1
    35:    1518.85 cm**-1
    36:    2112.97 cm**-1
    37:    2213.85 cm**-1
    38:    3148.21 cm**-1
    39:    3176.57 cm**-1
    40:    3189.71 cm**-1
    41:    3196.46 cm**-1

IR SPECTRUM
-----------

 Mode   freq       eps      Int      T**2         TX        TY        TZ
       cm**-1   L/(mol*cm) km/mol    a.u.
----------------------------------------------------------------------------
  6:    116.08   0.003499   17.68  0.009406  (-0.000003 -0.096986 -0.000018)
  7:    118.22   0.001607    8.12  0.004241  (-0.000138  0.000026 -0.065125)
  8:    131.44   0.000000    0.00  0.000000  ( 0.000009 -0.000148  0.000027)
  9:    194.37   0.000719    3.63  0.001155  (-0.033978  0.000006 -0.000165)
 10:    326.31   0.000000    0.00  0.000000  ( 0.000009 -0.000034 -0.000005)
 11:    395.83   0.005188   26.22  0.004090  ( 0.000561 -0.000007 -0.063954)
 12:    419.58   0.016802   84.91  0.012496  (-0.111786  0.000000 -0.000066)
 13:    464.65   0.000082    0.41  0.000055  ( 0.000004  0.007412 -0.000002)
 14:    492.73   0.008691   43.92  0.005504  ( 0.000291  0.000002  0.074188)
 15:    557.91   0.000144    0.73  0.000080  (-0.000004  0.008967  0.000000)
 16:    565.66   0.000000    0.00  0.000000  ( 0.000001 -0.000068 -0.000003)
 17:    608.77   0.000085    0.43  0.000044  ( 0.006378 -0.000001  0.001735)
 18:    623.65   0.028215  142.59  0.014118  (-0.000492  0.000002  0.118819)
 19:    657.08   0.002312   11.69  0.001098  ( 0.000011  0.000000  0.033139)
 20:    663.10   0.000000    0.00  0.000000  ( 0.000005 -0.000127  0.000110)
 21:    688.48   0.000001    0.00  0.000000  (-0.000001  0.000538  0.000001)
 22:    875.17   0.033236  167.96  0.011851  ( 0.108862 -0.000000 -0.000132)
 23:    914.40   0.003492   17.65  0.001192  ( 0.000593 -0.000007 -0.034517)
 24:    953.19   0.000210    1.06  0.000069  (-0.000530 -0.000002 -0.008281)
 25:    979.45   0.000001    0.00  0.000000  ( 0.000017 -0.000520  0.000003)
 26:   1039.28   0.393613  1989.16  0.118190  ( 0.343787 -0.000010  0.000101)
 27:   1091.67   0.001790    9.05  0.000512  (-0.000027 -0.022620  0.000000)
 28:   1138.24   0.016069   81.20  0.004405  ( 0.066373 -0.000002  0.000094)
 29:   1264.02   0.000064    0.32  0.000016  (-0.000004  0.003982  0.000000)
 30:   1285.12   0.063516  320.98  0.015423  ( 0.124191 -0.000005 -0.000125)
 31:   1350.38   0.000789    3.98  0.000182  ( 0.013499 -0.000003 -0.000065)
 32:   1397.13   0.243860  1232.37  0.054468  ( 0.233385 -0.000010 -0.000070)
 33:   1402.53   0.000563    2.84  0.000125  ( 0.000096  0.011190  0.000002)
 34:   1471.82   0.190118  960.78  0.040310  ( 0.200773 -0.000002  0.000014)
 35:   1518.85   0.000237    1.20  0.000049  (-0.000010  0.006973  0.000001)
 36:   2112.97   0.936214  4731.24  0.138269  ( 0.371845 -0.000011 -0.000063)
 37:   2213.85   0.070576  356.66  0.009948  (-0.000003 -0.099742 -0.000001)
 38:   3148.21   0.004636   23.43  0.000460  ( 0.000001 -0.021437 -0.000000)
 39:   3176.57   0.001224    6.18  0.000120  (-0.000001 -0.010964 -0.000000)
 40:   3189.71   0.007840   39.62  0.000767  (-0.027695 -0.000010  0.000062)
 41:   3196.46   0.005237   26.47  0.000511  ( 0.000013 -0.022612  0.000002)

--------------------------
THERMOCHEMISTRY AT 298.15K
--------------------------

Temperature         ...   298.15 K
Pressure            ...     1.00 atm
Total Mass          ...   128.13 AMU
Quasi RRHO          ...     True
Cut-Off Frequency   ...     1.00 cm^-1

Throughout the following assumptions are being made:
  (1) The electronic state is orbitally nondegenerate
      but the spin degeneracy is treated
  (2) There are no thermally accessible electronically excited states
  (3) Hindered rotations indicated by low frequency modes are not
      treated as such but are treated as vibrations and this may
      cause some error
  (4) All equations used are the standard statistical mechanics
      equations for an ideal gas
  (5) All vibrations are strictly harmonic

freq.     116.08  E(vib)   ...       0.44
freq.     118.22  E(vib)   ...       0.44
freq.     131.44  E(vib)   ...       0.42
freq.     194.37  E(vib)   ...       0.36
freq.     326.31  E(vib)   ...       0.24
freq.     395.83  E(vib)   ...       0.20
freq.     419.58  E(vib)   ...       0.18
freq.     464.65  E(vib)   ...       0.16
freq.     492.73  E(vib)   ...       0.14
freq.     557.91  E(vib)   ...       0.12
freq.     565.66  E(vib)   ...       0.11
freq.     608.77  E(vib)   ...       0.10
freq.     623.65  E(vib)   ...       0.09
freq.     657.08  E(vib)   ...       0.08
freq.     663.10  E(vib)   ...       0.08
freq.     688.48  E(vib)   ...       0.07
freq.     875.17  E(vib)   ...       0.04
freq.     914.40  E(vib)   ...       0.03
freq.     953.19  E(vib)   ...       0.03
freq.     979.45  E(vib)   ...       0.03
freq.    1039.28  E(vib)   ...       0.02
freq.    1091.67  E(vib)   ...       0.02
freq.    1138.24  E(vib)   ...       0.01
freq.    1264.02  E(vib)   ...       0.01
freq.    1285.12  E(vib)   ...       0.01
freq.    1350.38  E(vib)   ...       0.01
freq.    1397.13  E(vib)   ...       0.00
freq.    1402.53  E(vib)   ...       0.00
freq.    1471.82  E(vib)   ...       0.00
freq.    1518.85  E(vib)   ...       0.00
freq.    2112.97  E(vib)   ...       0.00
freq.    2213.85  E(vib)   ...       0.00
freq.    3148.21  E(vib)   ...       0.00
freq.    3176.57  E(vib)   ...       0.00
freq.    3189.71  E(vib)   ...       0.00
freq.    3196.46  E(vib)   ...       0.00

------------
INNER ENERGY
------------

The inner energy is: U= E(el) + E(ZPE) + E(vib) + E(rot) + E(trans)
    E(el)   - is the total energy from the electronic structure calculation
              = E(kin-el) + E(nuc-el) + E(el-el) + E(nuc-nuc)
    E(ZPE)  - the the zero temperature vibrational energy from the frequency calculation
    E(vib)  - the the finite temperature correction to E(ZPE) due to population
              of excited vibrational states
    E(rot)  - is the rotational thermal energy
    E(trans)- is the translational thermal energy

Summary of contributions to the inner energy U:
Electronic energy                ...   -417.02362962 Eh
Zero point energy                ...      0.09281909 Eh      58.24 kcal/mol
Thermal vibrational correction   ...      0.00550119 Eh       3.45 kcal/mol
Thermal rotational correction    ...      0.00141627 Eh       0.89 kcal/mol
Thermal translational correction ...      0.00141627 Eh       0.89 kcal/mol
-----------------------------------------------------------------------
Total thermal energy                   -416.92247679 Eh

Summary of corrections to the electronic energy:
(perhaps to be used in another calculation)
Total thermal correction                  0.00833374 Eh       5.23 kcal/mol
Non-thermal (ZPE) correction              0.09281909 Eh      58.24 kcal/mol
-----------------------------------------------------------------------
Total correction                          0.10115283 Eh      63.47 kcal/mol

--------
ENTHALPY
--------

The enthalpy is H = U + kB*T
                kB is Boltzmann's constant
Total thermal energy              ...   -416.92247679 Eh
Thermal Enthalpy correction       ...      0.00094421 Eh       0.59 kcal/mol
-----------------------------------------------------------------------
Total Enthalpy                    ...   -416.92153258 Eh

Note: Rotational entropy computed according to Herzberg
Infrared and Raman Spectra, Chapter V,1, Van Nostrand Reinhold, 1945
Point Group:  C2, Symmetry Number:   2
Rotational constants in cm-1:     0.087597     0.030619     0.022688

Vibrational entropy computed according to the QRRHO of S. Grimme
Chem.Eur.J. 2012 18 9955 using a reference frequency of 100.0 cm-1

-------
ENTROPY
-------

The entropy contributions are T*S = T*(S(el)+S(vib)+S(rot)+S(trans))
     S(el)   - electronic entropy
     S(vib)  - vibrational entropy
     S(rot)  - rotational entropy
     S(trans)- translational entropy
The entropies will be listed as multiplied by the temperature to get
units of energy

Electronic entropy                ...      0.00065446 Eh      0.41 kcal/mol
Vibrational entropy               ...      0.00920003 Eh      5.77 kcal/mol
Rotational entropy                ...      0.01343895 Eh      8.43 kcal/mol
Translational entropy             ...      0.01922234 Eh     12.06 kcal/mol
-----------------------------------------------------------------------
Final entropy term                ...      0.04251579 Eh     26.68 kcal/mol

In case the symmetry of your molecule has not been determined correctly
or in case you have a reason to use a different symmetry number we print
out the resulting rotational entropy values for sn=1,12:

 non-linear molecules -----------------------------------
|  sn= 1 | S(rot)=       0.01409341 Eh      8.84 kcal/mol|
|  sn= 2 | S(rot)=       0.01343895 Eh      8.43 kcal/mol|
|  sn= 3 | S(rot)=       0.01305612 Eh      8.19 kcal/mol|
|  sn= 4 | S(rot)=       0.01278450 Eh      8.02 kcal/mol|
|  sn= 5 | S(rot)=       0.01257381 Eh      7.89 kcal/mol|
|  sn= 6 | S(rot)=       0.01240167 Eh      7.78 kcal/mol|
|  sn= 7 | S(rot)=       0.01225612 Eh      7.69 kcal/mol|
|  sn= 8 | S(rot)=       0.01213004 Eh      7.61 kcal/mol|
|  sn= 9 | S(rot)=       0.01201883 Eh      7.54 kcal/mol|
|  sn=10 | S(rot)=       0.01191935 Eh      7.48 kcal/mol|
|  sn=11 | S(rot)=       0.01182936 Eh      7.42 kcal/mol|
|  sn=12 | S(rot)=       0.01174721 Eh      7.37 kcal/mol|
 linear molecules ---------------------------------------
|  Dinfh | S(rot)=       0.00890038 Eh      5.59 kcal/mol|
|  Cinfv | S(rot)=       0.00955484 Eh      6.00 kcal/mol|
 --------------------------------------------------------

-------------------
GIBBS FREE ENERGY
-------------------

The Gibbs free energy is G = H - T*S

Total enthalpy                    ...   -416.92153258 Eh
Total entropy correction          ...     -0.04251579 Eh    -26.68 kcal/mol
-----------------------------------------------------------------------
Final Gibbs free energy         ...   -416.96404837 Eh

                             ****ORCA TERMINATED NORMALLY****
TOTAL RUN TIME: 0 days 0 hours 41 minutes 25 seconds 498 msec
