                         Program Version 6.0.0  -   RELEASE  -
|  1> !PBE0 def2-SV(p) Opt Freq d3 TightSCF SlowConv RIJCOSX defgrid2
|  2>
|  3> %pal
|  4> nprocs 4
|  5> end
|  6>
|  7> %scf
|  8> MaxIter 1500
|  9> end
| 10>
| 11> %maxcore 3000
| 12>
| 13>
| 14>
| 15> * xyz 0 1
| 16> C     0.2283743   -1.3186107    0.0002769
| 17> C     1.6040066   -1.2148018    0.0003584
| 18> C     2.1968211    0.0504047    0.0000033
| 19> C     1.4066246    1.2027757   -0.0004616
| 20> C     0.0309360    1.0896774   -0.0005105
| 21> C    -0.5642277   -0.1712015   -0.0001373
| 22> C    -2.0421656   -0.3349252   -0.0001762
| 23> O    -2.6039735   -1.4092677   -0.0005067
| 24> O    -2.6867744    0.8303385    0.0004160
| 25> C    -4.1109533    0.7807621    0.0006188
| 26> H    -4.4695663    0.2581602   -0.8879704
| 27> H    -4.4433124    1.8148367    0.0025828
| 28> H    -4.4692153    0.2548649    0.8874024
| 29> H    -0.5890537    1.9714997   -0.0008496
| 30> H     1.8789109    2.1734161   -0.0008034
| 31> C     3.6065575    0.1654930   -0.0001045
| 32> N     4.7499646    0.2593217    0.0003660
| 33> H     2.2244312   -2.0980244    0.0006519
| 34> H    -0.2561441   -2.2831278    0.0005177
| 35> *
| 36>
| 37>                          ****END OF INPUT****
 Total Charge           Charge          ....    0
 Multiplicity           Mult            ....    1
 Number of Electrons    NEL             ....   84
Dispersion correction           -0.018023431
FINAL SINGLE POINT ENERGY      -551.336145879201
Dispersion correction             ... done (  0.0 sec)
Dispersion correction           -0.017961636
FINAL SINGLE POINT ENERGY      -551.337925875624
Dispersion correction             ... done (  0.1 sec)
Dispersion correction           -0.017953047
FINAL SINGLE POINT ENERGY      -551.337972851844
Dispersion correction             ... done (  0.1 sec)
FINAL SINGLE POINT ENERGY      -551.337982235434
Dispersion correction             ... done (  0.1 sec)
Dispersion correction           -0.017951099
FINAL SINGLE POINT ENERGY      -551.337981239853
Dispersion correction             ... done (  0.1 sec)
Dispersion correction           -0.017951762
FINAL SINGLE POINT ENERGY      -551.337983562343
Dispersion correction             ... done (  0.1 sec)
                    ***********************HURRAY********************

CARTESIAN COORDINATES (ANGSTROEM)
---------------------------------
  C      0.215488   -1.312541    0.000104
  C      1.599890   -1.215844   -0.000049
  C      2.207999    0.049269   -0.000171
  C      1.419296    1.209752   -0.000150
  C      0.034288    1.103768    0.000009
  C     -0.571894   -0.156856    0.000129
  C     -2.052447   -0.327179    0.000247
  O     -2.608553   -1.395622    0.000276
  O     -2.698337    0.841204    0.000236
  C     -4.112946    0.765449    0.000319
  H     -4.473590    0.233176   -0.895098
  H     -4.473299    1.803364    0.000851
  H     -4.473450    0.232263    0.895246
  H     -0.589117    1.999811    0.000019
  H      1.901245    2.190152   -0.000257
  C      3.636512    0.156622   -0.000280
  N      4.792473    0.243960    0.000105
  H      2.221055   -2.114483   -0.000067
  H     -0.283371   -2.284673    0.000206

 Multiplicity           Mult            ....    1
 Number of Electrons    NEL             ....   84
 Basis Dimension        Dim             ....  182

ORBITAL ENERGIES
----------------

  NO   OCC          E(Eh)            E(eV)
   0   2.0000     -19.275560      -524.5146
   1   2.0000     -19.212932      -522.8105
   2   2.0000     -14.400598      -391.8602
   3   2.0000     -10.376882      -282.3693
   4   2.0000     -10.302227      -280.3378
   5   2.0000     -10.295539      -280.1559
   6   2.0000     -10.283192      -279.8199
   7   2.0000     -10.278777      -279.6997
   8   2.0000     -10.276215      -279.6300
   9   2.0000     -10.275562      -279.6123
  10   2.0000     -10.271757      -279.5087
  11   2.0000     -10.269342      -279.4430
  12   2.0000      -1.150182       -31.2980
  13   2.0000      -1.053739       -28.6737
  14   2.0000      -0.937349       -25.5066
  15   2.0000      -0.912768       -24.8377
  16   2.0000      -0.830773       -22.6065
  17   2.0000      -0.800177       -21.7739
  18   2.0000      -0.766583       -20.8598
  19   2.0000      -0.693718       -18.8770
  20   2.0000      -0.658294       -17.9131
  21   2.0000      -0.605958       -16.4890
  22   2.0000      -0.593735       -16.1563
  23   2.0000      -0.564851       -15.3704
  24   2.0000      -0.522749       -14.2247
  25   2.0000      -0.521595       -14.1933
  26   2.0000      -0.497003       -13.5241
  27   2.0000      -0.483665       -13.1612
  28   2.0000      -0.470935       -12.8148
  29   2.0000      -0.463201       -12.6043
  30   2.0000      -0.444926       -12.1071
  31   2.0000      -0.423324       -11.5192
  32   2.0000      -0.422464       -11.4958
  33   2.0000      -0.398932       -10.8555
  34   2.0000      -0.385277       -10.4839
  35   2.0000      -0.380765       -10.3611
  36   2.0000      -0.372501       -10.1363
  37   2.0000      -0.357277        -9.7220
  38   2.0000      -0.336038        -9.1441
  39   2.0000      -0.310476        -8.4485
  40   2.0000      -0.302245        -8.2245
  41   2.0000      -0.293222        -7.9790
  42   0.0000      -0.083799        -2.2803
  43   0.0000      -0.035325        -0.9612
  44   0.0000       0.016855         0.4587
  45   0.0000       0.034034         0.9261
  46   0.0000       0.061221         1.6659

MULLIKEN ATOMIC CHARGES
-----------------------
   0 C :   -0.099643
   1 C :   -0.063656
   2 C :   -0.071858
   3 C :   -0.065574
   4 C :   -0.090321
   5 C :   -0.057231
   6 C :    0.294058
   7 O :   -0.236197
   8 O :   -0.320063
   9 C :   -0.148106
  10 H :    0.145114
  11 H :    0.146713
  12 H :    0.145128
  13 H :    0.120249
  14 H :    0.114983
  15 C :   -0.059665
  16 N :    0.002608
  17 H :    0.116587
  18 H :    0.126872
Sum of atomic charges:    0.0000000

LOEWDIN ATOMIC CHARGES
----------------------
   0 C :   -0.083832
   1 C :   -0.089509
   2 C :   -0.068210
   3 C :   -0.090729
   4 C :   -0.093728
   5 C :   -0.070811
   6 C :    0.084402
   7 O :   -0.171660
   8 O :   -0.099856
   9 C :   -0.199900
  10 H :    0.124593
  11 H :    0.125290
  12 H :    0.124600
  13 H :    0.145667
  14 H :    0.146284
  15 C :   -0.019666
  16 N :   -0.060510
  17 H :    0.147040
  18 H :    0.150535

  Mayer bond orders larger than 0.100000
B(  0-C ,  1-C ) :   1.3699 B(  0-C ,  5-C ) :   1.3959 B(  0-C , 18-H ) :   0.9524
B(  1-C ,  2-C ) :   1.3540 B(  1-C , 17-H ) :   0.9652 B(  2-C ,  3-C ) :   1.3613
B(  2-C , 15-C ) :   1.0710 B(  3-C ,  4-C ) :   1.3701 B(  3-C , 14-H ) :   0.9636
B(  4-C ,  5-C ) :   1.3725 B(  4-C , 13-H ) :   0.9552 B(  5-C ,  6-C ) :   0.9429
B(  6-C ,  7-O ) :   2.0635 B(  6-C ,  8-O ) :   1.2088 B(  8-O ,  9-C ) :   0.9091
B(  9-C , 10-H ) :   0.9504 B(  9-C , 11-H ) :   0.9567 B(  9-C , 12-H ) :   0.9504
B( 15-C , 16-N ) :   2.9929

Dispersion correction           -0.017951917
FINAL SINGLE POINT ENERGY      -551.337983643524

DIPOLE MOMENT
-------------

Method             : SCF
Type of density    : Electron Density
Multiplicity       :   1
Irrep              :   0
Energy             :  -551.3200317264792147 Eh
Relativity type    :
Basis              : AO
                                X                 Y                 Z
Electronic contribution:      8.027050805      -1.369492696      -0.000489757
Nuclear contribution   :     -9.614807611       1.929707877       0.000342352
                        -----------------------------------------
Total Dipole Moment    :     -1.587756806       0.560215181      -0.000147405
                        -----------------------------------------
Magnitude (a.u.)       :      1.683690216
Magnitude (Debye)      :      4.279600425

VIBRATIONAL FREQUENCIES
-----------------------

Scaling factor for frequencies =  1.000000000  (already applied!)

     0:       0.00 cm**-1
     1:       0.00 cm**-1
     2:       0.00 cm**-1
     3:       0.00 cm**-1
     4:       0.00 cm**-1
     5:       0.00 cm**-1
     6:      57.16 cm**-1
     7:      72.75 cm**-1
     8:     114.52 cm**-1
     9:     129.10 cm**-1
    10:     152.41 cm**-1
    11:     189.28 cm**-1
    12:     244.25 cm**-1
    13:     309.52 cm**-1
    14:     325.39 cm**-1
    15:     416.24 cm**-1
    16:     432.58 cm**-1
    17:     477.80 cm**-1
    18:     569.76 cm**-1
    19:     581.26 cm**-1
    20:     581.47 cm**-1
    21:     655.12 cm**-1
    22:     720.68 cm**-1
    23:     787.82 cm**-1
    24:     804.51 cm**-1
    25:     868.40 cm**-1
    26:     870.86 cm**-1
    27:     894.41 cm**-1
    28:    1011.66 cm**-1
    29:    1021.32 cm**-1
    30:    1032.40 cm**-1
    31:    1051.76 cm**-1
    32:    1125.90 cm**-1
    33:    1172.57 cm**-1
    34:    1184.88 cm**-1
    35:    1193.62 cm**-1
    36:    1232.23 cm**-1
    37:    1246.09 cm**-1
    38:    1317.81 cm**-1
    39:    1356.81 cm**-1
    40:    1397.54 cm**-1
    41:    1456.72 cm**-1
    42:    1472.79 cm**-1
    43:    1475.60 cm**-1
    44:    1489.08 cm**-1
    45:    1560.22 cm**-1
    46:    1651.56 cm**-1
    47:    1703.84 cm**-1
    48:    1867.36 cm**-1
    49:    2394.59 cm**-1
    50:    3061.13 cm**-1
    51:    3155.37 cm**-1
    52:    3194.62 cm**-1
    53:    3223.29 cm**-1
    54:    3225.00 cm**-1
    55:    3237.35 cm**-1
    56:    3244.92 cm**-1

IR SPECTRUM
-----------

 Mode   freq       eps      Int      T**2         TX        TY        TZ
       cm**-1   L/(mol*cm) km/mol    a.u.
----------------------------------------------------------------------------
  6:     57.16   0.000012    0.06  0.000063  (-0.000011 -0.000006  0.007930)
  7:     72.75   0.000539    2.72  0.002312  (-0.000019 -0.000011  0.048083)
  8:    114.52   0.000427    2.16  0.001165  ( 0.014735 -0.030781  0.000001)
  9:    129.10   0.000475    2.40  0.001149  (-0.000026  0.000060 -0.033897)
 10:    152.41   0.000965    4.88  0.001976  (-0.000034  0.000032  0.044447)
 11:    189.28   0.001191    6.02  0.001963  ( 0.000213  0.044305 -0.000011)
 12:    244.25   0.000039    0.20  0.000050  (-0.000026  0.000003 -0.007058)
 13:    309.52   0.000142    0.72  0.000143  (-0.010830  0.005072  0.000002)
 14:    325.39   0.003327   16.81  0.003191  (-0.046959  0.031396 -0.000001)
 15:    416.24   0.000001    0.01  0.000001  ( 0.000003 -0.000006 -0.000918)
 16:    432.58   0.000119    0.60  0.000086  (-0.000028  0.000002  0.009275)
 17:    477.80   0.000823    4.16  0.000538  (-0.022701 -0.004742  0.000002)
 18:    569.76   0.000237    1.20  0.000130  ( 0.010647 -0.004057 -0.000024)
 19:    581.26   0.002378   12.02  0.001277  (-0.000985 -0.000212  0.035715)
 20:    581.47   0.000857    4.33  0.000460  (-0.020919 -0.004450 -0.001649)
 21:    655.12   0.000199    1.00  0.000095  (-0.004309  0.008721 -0.000001)
 22:    720.68   0.005420   27.39  0.002347  ( 0.000000 -0.000004 -0.048446)
 23:    787.82   0.000407    2.06  0.000161  (-0.011976 -0.004225  0.000001)
 24:    804.51   0.004646   23.48  0.001802  (-0.000006 -0.000002 -0.042452)
 25:    868.40   0.002123   10.73  0.000763  ( 0.023240  0.014932 -0.000009)
 26:    870.86   0.000047    0.24  0.000017  (-0.000001  0.000000 -0.004105)
 27:    894.41   0.003059   15.46  0.001067  (-0.000009 -0.000003 -0.032672)
 28:   1011.66   0.000003    0.02  0.000001  ( 0.000003  0.000002  0.000971)
 29:   1021.32   0.000003    0.02  0.000001  ( 0.000008 -0.000003  0.000980)
 30:   1032.40   0.000884    4.47  0.000267  ( 0.011339 -0.011779 -0.000001)
 31:   1051.76   0.003491   17.64  0.001036  (-0.029755 -0.012265  0.000003)
 32:   1125.90   0.001888    9.54  0.000523  (-0.012669  0.019044  0.000001)
 33:   1172.57   0.005358   27.08  0.001426  (-0.036418  0.009986  0.000001)
 34:   1184.88   0.000133    0.67  0.000035  ( 0.000037 -0.000015 -0.005913)
 35:   1193.62   0.006202   31.34  0.001622  (-0.039387  0.008377 -0.000001)
 36:   1232.23   0.007310   36.94  0.001851  ( 0.035551 -0.024237  0.000002)
 37:   1246.09   0.005159   26.07  0.001292  ( 0.034375 -0.010502 -0.000001)
 38:   1317.81   0.000212    1.07  0.000050  (-0.006166 -0.003489  0.000000)
 39:   1356.81   0.112824  570.17  0.025949  ( 0.152508 -0.051871 -0.000003)
 40:   1397.54   0.003969   20.06  0.000886  (-0.029030 -0.006597  0.000001)
 41:   1456.72   0.004202   21.24  0.000900  (-0.012546  0.027254 -0.000006)
 42:   1472.79   0.002229   11.26  0.000472  ( 0.000381 -0.000133 -0.021729)
 43:   1475.60   0.014459   73.07  0.003058  ( 0.051798 -0.019357  0.000144)
 44:   1489.08   0.001587    8.02  0.000333  ( 0.009465  0.015590  0.000002)
 45:   1560.22   0.000940    4.75  0.000188  (-0.010500  0.008818 -0.000002)
 46:   1651.56   0.000774    3.91  0.000146  ( 0.011768  0.002783 -0.000001)
 47:   1703.84   0.001875    9.47  0.000343  ( 0.018510 -0.000861 -0.000001)
 48:   1867.36   0.049333  249.31  0.008244  ( 0.040783  0.081124 -0.000005)
 49:   2394.59   0.004961   25.07  0.000647  ( 0.025366  0.001769 -0.000006)
 50:   3061.13   0.006399   32.34  0.000652  ( 0.025260 -0.003781  0.000007)
 51:   3155.37   0.002064   10.43  0.000204  (-0.000003  0.000004  0.014286)
 52:   3194.62   0.001707    8.63  0.000167  ( 0.006685 -0.011049 -0.000003)
 53:   3223.29   0.000050    0.25  0.000005  ( 0.000058  0.002197  0.000000)
 54:   3225.00   0.000129    0.65  0.000012  (-0.001736 -0.003074  0.000001)
 55:   3237.35   0.000193    0.98  0.000019  (-0.004257 -0.000725  0.000001)
 56:   3244.92   0.000034    0.17  0.000003  ( 0.001712  0.000600 -0.000000)

--------------------------
THERMOCHEMISTRY AT 298.15K
--------------------------

Temperature         ...   298.15 K
Pressure            ...     1.00 atm
Total Mass          ...   161.16 AMU
Quasi RRHO          ...     True
Cut-Off Frequency   ...     1.00 cm^-1

Throughout the following assumptions are being made:
  (1) The electronic state is orbitally nondegenerate
  (2) There are no thermally accessible electronically excited states
  (3) Hindered rotations indicated by low frequency modes are not
      treated as such but are treated as vibrations and this may
      cause some error
  (4) All equations used are the standard statistical mechanics
      equations for an ideal gas
  (5) All vibrations are strictly harmonic

freq.      57.16  E(vib)   ...       0.51
freq.      72.75  E(vib)   ...       0.49
freq.     114.52  E(vib)   ...       0.44
freq.     129.10  E(vib)   ...       0.43
freq.     152.41  E(vib)   ...       0.40
freq.     189.28  E(vib)   ...       0.36
freq.     244.25  E(vib)   ...       0.31
freq.     309.52  E(vib)   ...       0.26
freq.     325.39  E(vib)   ...       0.24
freq.     416.24  E(vib)   ...       0.18
freq.     432.58  E(vib)   ...       0.18
freq.     477.80  E(vib)   ...       0.15
freq.     569.76  E(vib)   ...       0.11
freq.     581.26  E(vib)   ...       0.11
freq.     581.47  E(vib)   ...       0.11
freq.     655.12  E(vib)   ...       0.08
freq.     720.68  E(vib)   ...       0.07
freq.     787.82  E(vib)   ...       0.05
freq.     804.51  E(vib)   ...       0.05
freq.     868.40  E(vib)   ...       0.04
freq.     870.86  E(vib)   ...       0.04
freq.     894.41  E(vib)   ...       0.03
freq.    1011.66  E(vib)   ...       0.02
freq.    1021.32  E(vib)   ...       0.02
freq.    1032.40  E(vib)   ...       0.02
freq.    1051.76  E(vib)   ...       0.02
freq.    1125.90  E(vib)   ...       0.01
freq.    1172.57  E(vib)   ...       0.01
freq.    1184.88  E(vib)   ...       0.01
freq.    1193.62  E(vib)   ...       0.01
freq.    1232.23  E(vib)   ...       0.01
freq.    1246.09  E(vib)   ...       0.01
freq.    1317.81  E(vib)   ...       0.01
freq.    1356.81  E(vib)   ...       0.01
freq.    1397.54  E(vib)   ...       0.00
freq.    1456.72  E(vib)   ...       0.00
freq.    1472.79  E(vib)   ...       0.00
freq.    1475.60  E(vib)   ...       0.00
freq.    1489.08  E(vib)   ...       0.00
freq.    1560.22  E(vib)   ...       0.00
freq.    1651.56  E(vib)   ...       0.00
freq.    1703.84  E(vib)   ...       0.00
freq.    1867.36  E(vib)   ...       0.00
freq.    2394.59  E(vib)   ...       0.00
freq.    3061.13  E(vib)   ...       0.00
freq.    3155.37  E(vib)   ...       0.00
freq.    3194.62  E(vib)   ...       0.00
freq.    3223.29  E(vib)   ...       0.00
freq.    3225.00  E(vib)   ...       0.00
freq.    3237.35  E(vib)   ...       0.00
freq.    3244.92  E(vib)   ...       0.00

------------
INNER ENERGY
------------

The inner energy is: U= E(el) + E(ZPE) + E(vib) + E(rot) + E(trans)
    E(el)   - is the total energy from the electronic structure calculation
              = E(kin-el) + E(nuc-el) + E(el-el) + E(nuc-nuc)
    E(ZPE)  - the the zero temperature vibrational energy from the frequency calculation
    E(vib)  - the the finite temperature correction to E(ZPE) due to population
              of excited vibrational states
    E(rot)  - is the rotational thermal energy
    E(trans)- is the translational thermal energy

Summary of contributions to the inner energy U:
Electronic energy                ...   -551.33798364 Eh
Zero point energy                ...      0.14355484 Eh      90.08 kcal/mol
Thermal vibrational correction   ...      0.00770467 Eh       4.83 kcal/mol
Thermal rotational correction    ...      0.00141627 Eh       0.89 kcal/mol
Thermal translational correction ...      0.00141627 Eh       0.89 kcal/mol
-----------------------------------------------------------------------
Total thermal energy                   -551.18389159 Eh

Summary of corrections to the electronic energy:
(perhaps to be used in another calculation)
Total thermal correction                  0.01053722 Eh       6.61 kcal/mol
Non-thermal (ZPE) correction              0.14355484 Eh      90.08 kcal/mol
-----------------------------------------------------------------------
Total correction                          0.15409206 Eh      96.69 kcal/mol

--------
ENTHALPY
--------

The enthalpy is H = U + kB*T
                kB is Boltzmann's constant
Total thermal energy              ...   -551.18389159 Eh
Thermal Enthalpy correction       ...      0.00094421 Eh       0.59 kcal/mol
-----------------------------------------------------------------------
Total Enthalpy                    ...   -551.18294738 Eh

Note: Only C1 symmetry has been detected, increase convergence thresholds
      if your molecule has a higher symmetry. Symmetry factor of 1.0 is
      used for the rotational entropy correction.

Note: Rotational entropy computed according to Herzberg
Infrared and Raman Spectra, Chapter V,1, Van Nostrand Reinhold, 1945
Point Group:  C1, Symmetry Number:   1
Rotational constants in cm-1:     0.115026     0.014673     0.013046

Vibrational entropy computed according to the QRRHO of S. Grimme
Chem.Eur.J. 2012 18 9955 using a reference frequency of 100.0 cm-1

-------
ENTROPY
-------

The entropy contributions are T*S = T*(S(el)+S(vib)+S(rot)+S(trans))
     S(el)   - electronic entropy
     S(vib)  - vibrational entropy
     S(rot)  - rotational entropy
     S(trans)- translational entropy
The entropies will be listed as multiplied by the temperature to get
units of energy

Electronic entropy                ...      0.00000000 Eh      0.00 kcal/mol
Vibrational entropy               ...      0.01342559 Eh      8.42 kcal/mol
Rotational entropy                ...      0.01457332 Eh      9.14 kcal/mol
Translational entropy             ...      0.01954713 Eh     12.27 kcal/mol
-----------------------------------------------------------------------
Final entropy term                ...      0.04754604 Eh     29.84 kcal/mol

In case the symmetry of your molecule has not been determined correctly
or in case you have a reason to use a different symmetry number we print
out the resulting rotational entropy values for sn=1,12:

 non-linear molecules -----------------------------------
|  sn= 1 | S(rot)=       0.01457332 Eh      9.14 kcal/mol|
|  sn= 2 | S(rot)=       0.01391886 Eh      8.73 kcal/mol|
|  sn= 3 | S(rot)=       0.01353603 Eh      8.49 kcal/mol|
|  sn= 4 | S(rot)=       0.01326440 Eh      8.32 kcal/mol|
|  sn= 5 | S(rot)=       0.01305372 Eh      8.19 kcal/mol|
|  sn= 6 | S(rot)=       0.01288157 Eh      8.08 kcal/mol|
|  sn= 7 | S(rot)=       0.01273602 Eh      7.99 kcal/mol|
|  sn= 8 | S(rot)=       0.01260995 Eh      7.91 kcal/mol|
|  sn= 9 | S(rot)=       0.01249874 Eh      7.84 kcal/mol|

                             ****ORCA TERMINATED NORMALLY****
TOTAL RUN TIME: 0 days 0 hours 9 minutes 53 seconds 969 msec
