                         Program Version 6.0.0  -   RELEASE  -
|  1> !TPSSh aug-cc-pVTZ d3 TightSCF SlowConv RIJCOSX defgrid2
|  2>
|  3> %pal
|  4> nprocs 4
|  5> end
|  6>
|  7> %scf
|  8> MaxIter 1500
|  9> end
| 10>
| 11> %maxcore 3000
| 12>
| 13> !CPCM
| 14> %cpcm smd true
| 15> SMDsolvent "MeCN"
| 16> surfacetype gepol_ses
| 17> rsolv 2.19
| 18> end
| 19>
| 20> * xyz 1 2
| 21> C           1.71497106575748      1.06171932835084     -0.03514469304606
| 22> C           0.56719485465527      1.82392831640831     -0.00294767414977
| 23> C          -0.68893058329112      1.20760587034953      0.00674165425173
| 24> C          -0.80034038219193     -0.22800805453168     -0.01673661650706
| 25> C           0.34844024659380     -1.00330914690348     -0.04917310869374
| 26> C           1.61061604456188     -0.38138433792306     -0.05904556326935
| 27> N           2.73628401268176     -1.09580230581758     -0.09073600890504
| 28> H           2.71545111037900     -2.11343777495485     -0.10881829621903
| 29> H           3.64963295510932     -0.64805903858531     -0.09811724471076
| 30> H           0.25123309236129     -2.09096960143506     -0.06695996926436
| 31> O          -1.95374878515058     -0.85587592591482     -0.00850993427148
| 32> C          -3.19266872724087     -0.16172631263894      0.01967853662734
| 33> H          -3.96658303938529     -0.94029601988636      0.01614088330526
| 34> H          -3.30896028056596      0.47212649064151     -0.87574217138754
| 35> H          -3.28534792940125      0.44030899731552      0.93950878924919
| 36> H          -1.58838328810020      1.82581855641198      0.03268809937411
| 37> H           0.63303154865974      2.91458072514130      0.01531465253765
| 38> H           2.70276038456766      1.53066783397213     -0.04298803492109
| 39> *
| 40>
| 41>                          ****END OF INPUT****

CARTESIAN COORDINATES (ANGSTROEM)
---------------------------------
  C      1.714971    1.061719   -0.035145
  C      0.567195    1.823928   -0.002948
  C     -0.688931    1.207606    0.006742
  C     -0.800340   -0.228008   -0.016737
  C      0.348440   -1.003309   -0.049173
  C      1.610616   -0.381384   -0.059046
  N      2.736284   -1.095802   -0.090736
  H      2.715451   -2.113438   -0.108818
  H      3.649633   -0.648059   -0.098117
  H      0.251233   -2.090970   -0.066960
  O     -1.953749   -0.855876   -0.008510
  C     -3.192669   -0.161726    0.019679
  H     -3.966583   -0.940296    0.016141
  H     -3.308960    0.472126   -0.875742
  H     -3.285348    0.440309    0.939509
  H     -1.588383    1.825819    0.032688
  H      0.633032    2.914581    0.015315
  H      2.702760    1.530668   -0.042988

 Total Charge           Charge          ....    1
 Multiplicity           Mult            ....    2
 Number of Electrons    NEL             ....   65
 Basis Dimension        Dim             ....  621

ORBITAL ENERGIES
----------------
                 SPIN UP ORBITALS
  NO   OCC          E(Eh)            E(eV)
   0   1.0000     -19.116538      -520.1874
   1   1.0000     -14.331618      -389.9832
   2   1.0000     -10.217254      -278.0256
   3   1.0000     -10.214906      -277.9617
   4   1.0000     -10.172990      -276.8211
   5   1.0000     -10.169702      -276.7317
   6   1.0000     -10.165749      -276.6241
   7   1.0000     -10.150038      -276.1966
   8   1.0000     -10.141469      -275.9634
   9   1.0000      -1.086777       -29.5727
  10   1.0000      -0.967034       -26.3143
  11   1.0000      -0.857816       -23.3424
  12   1.0000      -0.774743       -21.0818
  13   1.0000      -0.749747       -20.4017
  14   1.0000      -0.704542       -19.1716
  15   1.0000      -0.634101       -17.2548
  16   1.0000      -0.614500       -16.7214
  17   1.0000      -0.551732       -15.0134
  18   1.0000      -0.547396       -14.8954
  19   1.0000      -0.504881       -13.7385
  20   1.0000      -0.491445       -13.3729
  21   1.0000      -0.476804       -12.9745
  22   1.0000      -0.473063       -12.8727
  23   1.0000      -0.439113       -11.9489
  24   1.0000      -0.426309       -11.6005
  25   1.0000      -0.413600       -11.2546
  26   1.0000      -0.390290       -10.6203
  27   1.0000      -0.377470       -10.2715
  28   1.0000      -0.371669       -10.1136
  29   1.0000      -0.331259        -9.0140
  30   1.0000      -0.330550        -8.9947
  31   1.0000      -0.252805        -6.8792
  32   1.0000      -0.249125        -6.7790
  33   0.0000      -0.049238        -1.3398
  34   0.0000      -0.045048        -1.2258
  35   0.0000      -0.008420        -0.2291
  36   0.0000       0.002198         0.0598
  37   0.0000       0.007749         0.2109

                 SPIN DOWN ORBITALS
  NO   OCC          E(Eh)            E(eV)
   0   1.0000     -19.116042      -520.1739
   1   1.0000     -14.324342      -389.7852
   2   1.0000     -10.217922      -278.0438
   3   1.0000     -10.214595      -277.9533
   4   1.0000     -10.173016      -276.8218
   5   1.0000     -10.162737      -276.5421
   6   1.0000     -10.160093      -276.4702
   7   1.0000     -10.152488      -276.2632
   8   1.0000     -10.140550      -275.9384
   9   1.0000      -1.085941       -29.5500
  10   1.0000      -0.955926       -26.0121
  11   1.0000      -0.850146       -23.1337
  12   1.0000      -0.772720       -21.0268
  13   1.0000      -0.737513       -20.0688
  14   1.0000      -0.700269       -19.0553
  15   1.0000      -0.630905       -17.1678
  16   1.0000      -0.611320       -16.6349
  17   1.0000      -0.550491       -14.9796
  18   1.0000      -0.544130       -14.8065
  19   1.0000      -0.501389       -13.6435
  20   1.0000      -0.488732       -13.2991
  21   1.0000      -0.474203       -12.9037
  22   1.0000      -0.470000       -12.7894
  23   1.0000      -0.438525       -11.9329
  24   1.0000      -0.412305       -11.2194
  25   1.0000      -0.405728       -11.0404
  26   1.0000      -0.388215       -10.5639
  27   1.0000      -0.375952       -10.2302
  28   1.0000      -0.357742        -9.7346
  29   1.0000      -0.329334        -8.9616
  30   1.0000      -0.312227        -8.4961
  31   1.0000      -0.242171        -6.5898
  32   0.0000      -0.181815        -4.9474
  33   0.0000      -0.038143        -1.0379
  34   0.0000      -0.022569        -0.6141
  35   0.0000      -0.007294        -0.1985
  36   0.0000       0.003188         0.0867

MULLIKEN ATOMIC CHARGES AND SPIN POPULATIONS
--------------------------------------------
   0 C :   -0.314597    0.344108
   1 C :   -0.304048   -0.175670
   2 C :   -0.261116    0.457566
   3 C :    0.829862   -0.044411
   4 C :   -0.560109    0.036576
   5 C :    0.836365    0.068356
   6 N :   -0.305963    0.301238
   7 H :    0.030622   -0.000877
   8 H :    0.034851   -0.001625
   9 H :    0.278710   -0.002651
  10 O :   -0.668097    0.016864
  11 C :   -0.239549    0.004012
  12 H :    0.045943    0.000201
  13 H :    0.202216   -0.002478
  14 H :    0.201932   -0.002429
  15 H :    0.381129    0.004590
  16 H :    0.447756   -0.002830
  17 H :    0.364095   -0.000537
Sum of atomic charges         :    1.0000000

LOEWDIN ATOMIC CHARGES AND SPIN POPULATIONS
-------------------------------------------
   0 C :    0.288957    0.174094
   1 C :    0.246430    0.046392
   2 C :    0.282885    0.214373
   3 C :   -0.373646    0.058137
   4 C :    0.263104    0.037368
   5 C :   -0.184976    0.110774
   6 N :    0.950019    0.209940
   7 H :   -0.200060    0.029546
   8 H :   -0.206330    0.027166
   9 H :   -0.149636    0.005101
  10 O :    0.621842    0.013361
  11 C :    0.382857    0.002211
  12 H :   -0.163423   -0.000136
  13 H :   -0.153900    0.000662
  14 H :   -0.153813    0.000653
  15 H :   -0.162025    0.047737
  16 H :   -0.148719   -0.011332
  17 H :   -0.139564    0.033953

  Mayer bond orders larger than 0.100000
B(  0-C ,  1-C ) :   1.5431 B(  0-C ,  2-C ) :   0.1604 B(  0-C ,  4-C ) :   0.2862
B(  0-C ,  5-C ) :   0.7918 B(  0-C ,  6-N ) :  -0.1523 B(  0-C , 17-H ) :   0.5225
B(  1-C ,  2-C ) :   1.2458 B(  1-C ,  3-C ) :  -0.1581 B(  1-C ,  4-C ) :  -0.1360
B(  1-C ,  5-C ) :  -0.1760 B(  1-C , 16-H ) :   0.5068 B(  2-C ,  3-C ) :   0.9328
B(  2-C ,  4-C ) :   0.2984 B(  2-C , 15-H ) :   0.5886 B(  3-C ,  4-C ) :   0.8635
B(  3-C ,  5-C ) :  -0.1998 B(  3-C ,  6-N ) :   0.1245 B(  3-C , 10-O ) :   0.1967
B(  3-C , 11-C ) :   0.1504 B(  4-C ,  5-C ) :   0.7562 B(  4-C ,  6-N ) :  -0.1911
B(  4-C ,  9-H ) :   0.5225 B(  4-C , 10-O ) :   0.3533 B(  5-C ,  6-N ) :   0.8812
B(  5-C ,  9-H ) :   0.1184 B(  6-N ,  7-H ) :   1.1302 B(  6-N ,  8-H ) :   1.1153
B( 10-O , 11-C ) :   0.9501 B( 11-C , 12-H ) :   1.0627 B( 11-C , 13-H ) :   0.9207
B( 11-C , 14-H ) :   0.9211

Dispersion correction           -0.020062339
FINAL SINGLE POINT ENERGY      -402.144008499920

DIPOLE MOMENT
-------------

Method             : SCF
Type of density    : Electron Density
Multiplicity       :   2
Irrep              :   0
Energy             :  -402.1239461606371037 Eh
Relativity type    :
Basis              : AO
                                X                 Y                 Z
Electronic contribution:      3.927213066      -1.209463353      -0.077360001
Nuclear contribution   :     -2.044978462       1.271551477       0.044658972
                        -----------------------------------------
Total Dipole Moment    :      1.882234605       0.062088125      -0.032701028
                        -----------------------------------------
Magnitude (a.u.)       :      1.883542248
Magnitude (Debye)      :      4.787583919

Rotational constants in cm-1:             0.119593             0.037937             0.028965
Rotational constants in MHz :          3585.313936          1137.321017           868.358011

                             ****ORCA TERMINATED NORMALLY****
TOTAL RUN TIME: 0 days 0 hours 6 minutes 7 seconds 860 msec
