                         Program Version 6.0.0  -   RELEASE  -
|  1> !r2SCAN aug-cc-pVTZ d3 TightSCF SlowConv RIJCOSX defgrid2
|  2>
|  3> %pal
|  4> nprocs 4
|  5> end
|  6>
|  7> %scf
|  8> MaxIter 1500
|  9> end
| 10>
| 11> %maxcore 3000
| 12>
| 13> !CPCM
| 14> %cpcm smd true
| 15> SMDsolvent "MeCN"
| 16> surfacetype gepol_ses
| 17> rsolv 2.19
| 18> end
| 19>
| 20> * xyz -1 2
| 21> C           0.22794298897248     -1.32265639381783      0.00010090294401
| 22> C           1.59543811909498     -1.22519922622522      0.00005920870666
| 23> C           2.24938913290759      0.05051285824288     -0.00006076880347
| 24> C           1.41323843170898      1.21344313185840     -0.00013147831105
| 25> C           0.04476039121495      1.11078484934738     -0.00009132277474
| 26> C          -0.60963123993324     -0.16243960932374      0.00001856177073
| 27> C          -2.03234655015939     -0.32642555516269      0.00004823556518
| 28> O          -2.66249266053587     -1.38070299418175      0.00028693239647
| 29> O          -2.71431442900417      0.87834037288675      0.00017303848078
| 30> C          -4.10409629646245      0.76410388717440      0.00037606736278
| 31> H          -4.47622443606713      0.22239507752821     -0.88993521865745
| 32> H          -4.50472531304601      1.79227894799534      0.00110489591886
| 33> H          -4.47585642501352      0.22119730713171      0.89009526934874
| 34> H          -0.56969461364873      2.01480881708110     -0.00015706084987
| 35> H           1.88675005189144      2.20080747549968     -0.00022323008499
| 36> C           3.65255521641015      0.15685604656258     -0.00011286386991
| 37> N           4.82172741475790      0.24605470544831     -0.00015284690981
| 38> H           2.21001750339424     -2.13142621067461      0.00011344187289
| 39> H          -0.26118628648220     -2.30109838737090      0.00018753589417
| 40> *
| 41>
| 42>                          ****END OF INPUT****

CARTESIAN COORDINATES (ANGSTROEM)
---------------------------------
  C      0.227943   -1.322656    0.000101
  C      1.595438   -1.225199    0.000059
  C      2.249389    0.050513   -0.000061
  C      1.413238    1.213443   -0.000131
  C      0.044760    1.110785   -0.000091
  C     -0.609631   -0.162440    0.000019
  C     -2.032347   -0.326426    0.000048
  O     -2.662493   -1.380703    0.000287
  O     -2.714314    0.878340    0.000173
  C     -4.104096    0.764104    0.000376
  H     -4.476224    0.222395   -0.889935
  H     -4.504725    1.792279    0.001105
  H     -4.475856    0.221197    0.890095
  H     -0.569695    2.014809   -0.000157
  H      1.886750    2.200807   -0.000223
  C      3.652555    0.156856   -0.000113
  N      4.821727    0.246055   -0.000153
  H      2.210018   -2.131426    0.000113
  H     -0.261186   -2.301098    0.000188

 Total Charge           Charge          ....   -1
 Multiplicity           Mult            ....    2
 Number of Electrons    NEL             ....   85
 Basis Dimension        Dim             ....  713

ORBITAL ENERGIES
----------------
                 SPIN UP ORBITALS
  NO   OCC          E(Eh)            E(eV)
   0   1.0000     -18.971665      -516.2452
   1   1.0000     -18.908502      -514.5265
   2   1.0000     -14.139159      -384.7461
   3   1.0000     -10.121271      -275.4138
   4   1.0000     -10.065299      -273.8907
   5   1.0000     -10.059472      -273.7321
   6   1.0000     -10.048444      -273.4321
   7   1.0000     -10.032890      -273.0088
   8   1.0000     -10.032887      -273.0087
   9   1.0000     -10.027450      -272.8608
  10   1.0000     -10.026387      -272.8319
  11   1.0000     -10.024690      -272.7857
  12   1.0000      -1.037443       -28.2303
  13   1.0000      -0.947532       -25.7837
  14   1.0000      -0.855124       -23.2691
  15   1.0000      -0.809548       -22.0289
  16   1.0000      -0.733222       -19.9520
  17   1.0000      -0.705451       -19.1963
  18   1.0000      -0.668399       -18.1881
  19   1.0000      -0.609280       -16.5794
  20   1.0000      -0.557353       -15.1664
  21   1.0000      -0.520321       -14.1586
  22   1.0000      -0.499070       -13.5804
  23   1.0000      -0.470974       -12.8159
  24   1.0000      -0.427057       -11.6208
  25   1.0000      -0.426443       -11.6041
  26   1.0000      -0.400346       -10.8940
  27   1.0000      -0.392641       -10.6843
  28   1.0000      -0.377381       -10.2691
  29   1.0000      -0.374059       -10.1787
  30   1.0000      -0.364225        -9.9111
  31   1.0000      -0.344225        -9.3668
  32   1.0000      -0.341655        -9.2969
  33   1.0000      -0.321424        -8.7464
  34   1.0000      -0.310072        -8.4375
  35   1.0000      -0.302538        -8.2325
  36   1.0000      -0.298798        -8.1307
  37   1.0000      -0.279466        -7.6047
  38   1.0000      -0.252472        -6.8701
  39   1.0000      -0.237025        -6.4498
  40   1.0000      -0.227515        -6.1910
  41   1.0000      -0.222012        -6.0413
  42   1.0000      -0.099063        -2.6957
  43   0.0000      -0.025927        -0.7055
  44   0.0000       0.000567         0.0154
  45   0.0000       0.004369         0.1189
  46   0.0000       0.009679         0.2634
  47   0.0000       0.018421         0.5012

                 SPIN DOWN ORBITALS
  NO   OCC          E(Eh)            E(eV)
   0   1.0000     -18.970630      -516.2171
   1   1.0000     -18.905158      -514.4355
   2   1.0000     -14.135229      -384.6391
   3   1.0000     -10.119424      -275.3635
   4   1.0000     -10.065351      -273.8921
   5   1.0000     -10.059658      -273.7372
   6   1.0000     -10.044403      -273.3221
   7   1.0000     -10.032238      -272.9911
   8   1.0000     -10.032237      -272.9910
   9   1.0000     -10.026611      -272.8380
  10   1.0000     -10.025560      -272.8094
  11   1.0000     -10.020991      -272.6850
  12   1.0000      -1.034822       -28.1589
  13   1.0000      -0.943275       -25.6678
  14   1.0000      -0.849806       -23.1244
  15   1.0000      -0.804644       -21.8955
  16   1.0000      -0.724912       -19.7258
  17   1.0000      -0.701591       -19.0913
  18   1.0000      -0.665197       -18.1009
  19   1.0000      -0.602082       -16.3835
  20   1.0000      -0.556731       -15.1494
  21   1.0000      -0.517044       -14.0695
  22   1.0000      -0.496931       -13.5222
  23   1.0000      -0.468826       -12.7574
  24   1.0000      -0.425173       -11.5695
  25   1.0000      -0.420957       -11.4548
  26   1.0000      -0.398712       -10.8495
  27   1.0000      -0.390098       -10.6151
  28   1.0000      -0.376251       -10.2383
  29   1.0000      -0.373008       -10.1501
  30   1.0000      -0.351194        -9.5565
  31   1.0000      -0.338518        -9.2115
  32   1.0000      -0.331342        -9.0163
  33   1.0000      -0.317269        -8.6333
  34   1.0000      -0.308842        -8.4040
  35   1.0000      -0.297536        -8.0964
  36   1.0000      -0.291645        -7.9361
  37   1.0000      -0.278199        -7.5702
  38   1.0000      -0.245412        -6.6780
  39   1.0000      -0.227381        -6.1874
  40   1.0000      -0.219088        -5.9617
  41   1.0000      -0.207964        -5.6590
  42   0.0000      -0.071400        -1.9429
  43   0.0000      -0.022006        -0.5988
  44   0.0000       0.006038         0.1643
  45   0.0000       0.011353         0.3089
  46   0.0000       0.016559         0.4506

MULLIKEN ATOMIC CHARGES AND SPIN POPULATIONS
--------------------------------------------
   0 C :   -1.190058    0.062008
   1 C :   -1.217318    0.037208
   2 C :    1.784077    0.273924
   3 C :   -1.400759    0.028404
   4 C :   -0.308577    0.050878
   5 C :    2.128616    0.238145
   6 C :    0.677473    0.073125
   7 O :   -0.988288    0.116970
   8 O :   -0.323615    0.033348
   9 C :   -0.608783   -0.004806
  10 H :    0.244132    0.001855
  11 H :    0.223514   -0.001340
  12 H :    0.244281    0.001852
  13 H :    0.020329   -0.006973
  14 H :   -0.037819   -0.000999
  15 C :    0.762248   -0.066045
  16 N :   -0.914192    0.172698
  17 H :   -0.030326   -0.000536
  18 H :   -0.064935   -0.009714
Sum of atomic charges         :   -1.0000000

LOEWDIN ATOMIC CHARGES AND SPIN POPULATIONS
-------------------------------------------
   0 C :    0.154125    0.064811
   1 C :    0.150690    0.062355
   2 C :   -0.262692    0.137720
   3 C :    0.149645    0.062400
   4 C :    0.159790    0.066239
   5 C :   -0.206060    0.142629
   6 C :   -0.893619    0.106532
   7 O :    0.421504    0.097739
   8 O :    0.554712    0.033498
   9 C :    0.263736    0.002737
  10 H :   -0.183607    0.000972
  11 H :   -0.181576    0.000001
  12 H :   -0.183731    0.000969
  13 H :   -0.201681    0.008094
  14 H :   -0.181404    0.006971
  15 C :   -0.333792    0.066267
  16 N :    0.151862    0.125206
  17 H :   -0.181631    0.006973
  18 H :   -0.196269    0.007888

  Mayer bond orders larger than 0.100000
B(  0-C ,  1-C ) :   1.9204 B(  0-C ,  3-C ) :   0.1570 B(  0-C ,  4-C ) :  -1.0171
B(  0-C ,  5-C ) :  -0.4193 B(  0-C ,  6-C ) :   0.6112 B(  0-C , 15-C ) :  -0.2369
B(  0-C , 18-H ) :   1.4759 B(  1-C ,  2-C ) :  -0.1941 B(  1-C ,  3-C ) :  -0.2056
B(  1-C ,  5-C ) :  -0.2044 B(  1-C ,  6-C ) :  -0.1936 B(  1-C , 13-H ) :  -0.1829
B(  1-C , 14-H ) :   0.1028 B(  1-C , 15-C ) :   0.3958 B(  1-C , 17-H ) :   1.5365
B(  1-C , 18-H ) :   0.1109 B(  2-C ,  3-C ) :  -0.1937 B(  2-C ,  4-C ) :   0.3182
B(  2-C ,  6-C ) :   0.3154 B(  2-C , 14-H ) :  -0.4300 B(  2-C , 15-C ) :   0.7553
B(  2-C , 16-N ) :   0.6417 B(  2-C , 17-H ) :  -0.4016 B(  3-C ,  4-C ) :   1.3533
B(  3-C , 14-H ) :   1.5796 B(  3-C , 15-C ) :   0.4522 B(  3-C , 18-H ) :  -0.2071
B(  4-C ,  6-C ) :   0.2910 B(  4-C , 13-H ) :   1.5200 B(  4-C , 15-C ) :  -0.3006
B(  5-C ,  6-C ) :   0.2923 B(  5-C ,  8-O ) :   0.1896 B(  5-C , 13-H ) :  -0.3304
B(  5-C , 15-C ) :   0.4495 B(  5-C , 17-H ) :  -0.1349 B(  5-C , 18-H ) :  -0.3157
B(  6-C ,  7-O ) :   0.8879 B(  6-C ,  8-O ) :   0.7544 B(  6-C , 13-H ) :  -0.1747
B(  6-C , 15-C ) :   0.2157 B(  7-O , 18-H ) :   0.1655 B(  8-O ,  9-C ) :   0.9153
B(  9-C , 10-H ) :   0.9206 B(  9-C , 11-H ) :   0.9608 B(  9-C , 12-H ) :   0.9204
B( 13-H , 15-C ) :  -0.1073 B( 13-H , 18-H ) :   0.2291 B( 14-H , 17-H ) :   0.1705
B( 15-C , 16-N ) :   1.2276

Dispersion correction           -0.006202815
FINAL SINGLE POINT ENERGY      -552.395682368912

DIPOLE MOMENT
-------------

Method             : SCF
Type of density    : Electron Density
Multiplicity       :   2
Irrep              :   0
Energy             :  -552.3894795539594043 Eh
Relativity type    :
Basis              : AO
                                X                 Y                 Z
Electronic contribution:      6.586329003      -1.045369785      -0.001089433
Nuclear contribution   :     -9.634977547       1.865335493       0.000753927
                        -----------------------------------------
Total Dipole Moment    :     -3.048648545       0.819965708      -0.000335506
                        -----------------------------------------
Magnitude (a.u.)       :      3.156992528
Magnitude (Debye)      :      8.024437294

Rotational constants in cm-1:             0.113906             0.014521             0.012911
Rotational constants in MHz :          3414.805321           435.337364           387.058045

                             ****ORCA TERMINATED NORMALLY****
TOTAL RUN TIME: 0 days 0 hours 4 minutes 49 seconds 193 msec
