                         Program Version 6.0.0  -   RELEASE  -
|  1> !B3LYP freq aug-cc-pVTZ d3 TightSCF SlowConv RIJCOSX defgrid2
|  2>
|  3> %pal
|  4> nprocs 12
|  5>
|  6> end
|  7>
|  8> %scf
|  9> MaxIter 1500
| 10> end
| 11>
| 12> %maxcore 5000
| 13>
| 14> !CPCM
| 15> %cpcm smd true
| 16> SMDsolvent "MeCN"
| 17> surfacetype gepol_ses
| 18> rsolv 2.19
| 19> end
| 20>
| 21> * xyz 0 1
| 22> C          -0.72315947260732     -1.02371635708437      0.00082909092968
| 23> C          -1.30603679112560      0.24477470103328      0.00074165309177
| 24> C          -0.49046849628280      1.38181095343119      0.00022884350984
| 25> C           0.88319187673357      1.25289500356220     -0.00013866832764
| 26> C           1.48468505992093     -0.01662209379523      0.00003511154011
| 27> C           0.65912311594937     -1.14512780356528      0.00054679277994
| 28> H           1.10327744968539     -2.13063460481602      0.00018127350191
| 29> C           2.90271981895343     -0.14959633344738     -0.00080967497015
| 30> C           4.10177525960758     -0.26069494591017      0.00038746170576
| 31> H           5.16200418709535     -0.35803208857972     -0.00105748369128
| 32> H           1.50459629056199      2.13724359115612     -0.00075640660261
| 33> H          -0.95255991628650      2.35924833297707      0.00035878591475
| 34> O          -2.64152044730231      0.46975414097600      0.00112759827714
| 35> C          -3.51899484645114     -0.65896957727751     -0.00040919093567
| 36> H          -4.52598592948152     -0.25156079155637     -0.00098099153683
| 37> H          -3.37228995554482     -1.26858532119991     -0.89356693077962
| 38> H          -3.37406383321772     -1.26999115906764      0.89209835201793
| 39> H          -1.33053527020788     -1.91473684683626      0.00136658357495
| 40> *
| 41>
| 42>                          ****END OF INPUT****

CARTESIAN COORDINATES (ANGSTROEM)
---------------------------------
  C     -0.723159   -1.023716    0.000829
  C     -1.306037    0.244775    0.000742
  C     -0.490468    1.381811    0.000229
  C      0.883192    1.252895   -0.000139
  C      1.484685   -0.016622    0.000035
  C      0.659123   -1.145128    0.000547
  H      1.103277   -2.130635    0.000181
  C      2.902720   -0.149596   -0.000810
  C      4.101775   -0.260695    0.000387
  H      5.162004   -0.358032   -0.001057
  H      1.504596    2.137244   -0.000756
  H     -0.952560    2.359248    0.000359
  O     -2.641520    0.469754    0.001128
  C     -3.518995   -0.658970   -0.000409
  H     -4.525986   -0.251561   -0.000981
  H     -3.372290   -1.268585   -0.893567
  H     -3.374064   -1.269991    0.892098
  H     -1.330535   -1.914737    0.001367

 Total Charge           Charge          ....    0
 Multiplicity           Mult            ....    1
 Number of Electrons    NEL             ....   70
 Basis Dimension        Dim             ....  644

ORBITAL ENERGIES
----------------

  NO   OCC          E(Eh)            E(eV)
   0   2.0000     -19.163773      -521.4728
   1   2.0000     -10.242133      -278.7026
   2   2.0000     -10.213623      -277.9268
   3   2.0000     -10.198261      -277.5088
   4   2.0000     -10.185089      -277.1504
   5   2.0000     -10.184406      -277.1318
   6   2.0000     -10.181916      -277.0640
   7   2.0000     -10.176519      -276.9171
   8   2.0000     -10.175453      -276.8882
   9   2.0000     -10.168602      -276.7017
  10   2.0000      -1.070610       -29.1328
  11   2.0000      -0.867815       -23.6144
  12   2.0000      -0.788304       -21.4508
  13   2.0000      -0.758489       -20.6395
  14   2.0000      -0.738326       -20.0909
  15   2.0000      -0.696981       -18.9658
  16   2.0000      -0.621597       -16.9145
  17   2.0000      -0.608223       -16.5506
  18   2.0000      -0.551661       -15.0115
  19   2.0000      -0.527974       -14.3669
  20   2.0000      -0.498273       -13.5587
  21   2.0000      -0.491109       -13.3638
  22   2.0000      -0.467237       -12.7142
  23   2.0000      -0.448417       -12.2021
  24   2.0000      -0.428803       -11.6683
  25   2.0000      -0.416218       -11.3259
  26   2.0000      -0.393976       -10.7206
  27   2.0000      -0.392894       -10.6912
  28   2.0000      -0.366548        -9.9743
  29   2.0000      -0.348260        -9.4766
  30   2.0000      -0.331618        -9.0238
  31   2.0000      -0.295027        -8.0281
  32   2.0000      -0.287283        -7.8174
  33   2.0000      -0.265802        -7.2328
  34   2.0000      -0.221363        -6.0236
  35   0.0000      -0.032212        -0.8765
  36   0.0000      -0.019359        -0.5268
  37   0.0000      -0.003557        -0.0968
  38   0.0000       0.006779         0.1845
  39   0.0000       0.012540         0.3412

MULLIKEN ATOMIC CHARGES
-----------------------
   0 C :   -0.187999
   1 C :    1.341583
   2 C :   -0.797758
   3 C :   -1.146590
   4 C :    1.614879
   5 C :   -1.328093
   6 H :   -0.350083
   7 C :    1.171349
   8 C :   -0.836756
   9 H :    0.306192
  10 H :   -0.307142
  11 H :    0.545762
  12 O :   -0.730921
  13 C :   -0.651120
  14 H :    0.244295
  15 H :    0.287793
  16 H :    0.286801
  17 H :    0.537809
Sum of atomic charges:    0.0000000

LOEWDIN ATOMIC CHARGES
----------------------
   0 C :    0.214596
   1 C :   -0.395318
   2 C :    0.208390
   3 C :    0.190336
   4 C :   -0.231454
   5 C :    0.196414
   6 H :   -0.166587
   7 C :   -0.027031
   8 C :    0.395047
   9 H :   -0.292528
  10 H :   -0.167995
  11 H :   -0.174731
  12 O :    0.600230
  13 C :    0.359065
  14 H :   -0.176979
  15 H :   -0.168559
  16 H :   -0.168491
  17 H :   -0.194405

  Mayer bond orders larger than 0.100000
B(  0-C ,  1-C ) :   1.0025 B(  0-C ,  2-C ) :   0.1949 B(  0-C ,  3-C ) :   0.1063
B(  0-C ,  4-C ) :   0.6961 B(  0-C ,  5-C ) :   0.9668 B(  0-C ,  6-H ) :  -0.2455
B(  0-C ,  7-C ) :  -0.2317 B(  0-C ,  8-C ) :  -0.1439 B(  0-C , 11-H ) :  -0.1161
B(  0-C , 17-H ) :   0.3374 B(  1-C ,  2-C ) :   0.6864 B(  1-C ,  3-C ) :  -0.5579
B(  1-C ,  5-C ) :  -0.4845 B(  1-C ,  7-C ) :   0.2621 B(  1-C , 10-H ) :  -0.1296
B(  1-C , 11-H ) :   0.1622 B(  1-C , 12-O ) :   0.2610 B(  1-C , 17-H ) :   0.1780
B(  2-C ,  3-C ) :   1.2709 B(  2-C ,  4-C ) :   0.5547 B(  2-C ,  7-C ) :  -0.1473
B(  2-C , 11-H ) :   0.3322 B(  2-C , 12-O ) :   0.3165 B(  3-C ,  5-C ) :  -0.5871
B(  3-C ,  6-H ) :   0.2542 B(  3-C ,  7-C ) :   0.5259 B(  3-C , 10-H ) :   2.2500
B(  4-C ,  5-C ) :   0.1213 B(  4-C ,  6-H ) :  -0.3583 B(  4-C ,  7-C ) :  -0.1690
B(  4-C ,  8-C ) :   0.9223 B(  4-C ,  9-H ) :   0.1041 B(  4-C , 10-H ) :  -0.2393
B(  4-C , 12-O ) :   0.1236 B(  5-C ,  6-H ) :   2.3954 B(  5-C ,  7-C ) :   0.4442
B(  5-C ,  8-C ) :  -0.2078 B(  5-C , 10-H ) :   0.2483 B(  5-C , 17-H ) :  -0.1121
B(  6-H ,  7-C ) :  -0.2306 B(  6-H ,  8-C ) :  -0.4399 B(  6-H , 10-H ) :   0.5508
B(  6-H , 17-H ) :  -0.1122 B(  7-C ,  8-C ) :   1.8407 B(  7-C ,  9-H ) :  -0.2258
B(  7-C , 10-H ) :  -0.2883 B(  8-C ,  9-H ) :   1.1823 B(  8-C , 10-H ) :  -0.4570
B(  8-C , 11-H ) :   0.1387 B(  8-C , 17-H ) :   0.2263 B( 12-O , 13-C ) :   0.9763
B( 13-C , 14-H ) :   0.9865 B( 13-C , 15-H ) :   0.9060 B( 13-C , 16-H ) :   0.9066

Dispersion correction           -0.031380612
FINAL SINGLE POINT ENERGY      -422.863303832850

DIPOLE MOMENT
-------------

Method             : SCF
Type of density    : Electron Density
Multiplicity       :   1
Irrep              :   0
Energy             :  -422.8319232206990250 Eh
Relativity type    :
Basis              : AO
                                X                 Y                 Z
Electronic contribution:      4.426231990       1.920527618       0.002822777
Nuclear contribution   :     -5.459224678      -2.539855245      -0.004050406
                        -----------------------------------------
Total Dipole Moment    :     -1.032992689      -0.619327627      -0.001227629
                        -----------------------------------------
Magnitude (a.u.)       :      1.204426051
Magnitude (Debye)      :      3.061407727

VIBRATIONAL FREQUENCIES
-----------------------

Scaling factor for frequencies =  1.000000000  (already applied!)

     0:       0.00 cm**-1
     1:       0.00 cm**-1
     2:       0.00 cm**-1
     3:       0.00 cm**-1
     4:       0.00 cm**-1
     5:       0.00 cm**-1
     6:      67.73 cm**-1
     7:     118.63 cm**-1
     8:     130.30 cm**-1
     9:     206.41 cm**-1
    10:     254.27 cm**-1
    11:     271.87 cm**-1
    12:     387.42 cm**-1
    13:     423.06 cm**-1
    14:     464.67 cm**-1
    15:     496.98 cm**-1
    16:     543.69 cm**-1
    17:     551.28 cm**-1
    18:     602.35 cm**-1
    19:     649.42 cm**-1
    20:     681.89 cm**-1
    21:     699.03 cm**-1
    22:     750.48 cm**-1
    23:     823.79 cm**-1
    24:     831.05 cm**-1
    25:     853.17 cm**-1
    26:     969.93 cm**-1
    27:     985.59 cm**-1
    28:    1019.79 cm**-1
    29:    1037.30 cm**-1
    30:    1124.85 cm**-1
    31:    1166.93 cm**-1
    32:    1182.70 cm**-1
    33:    1202.21 cm**-1
    34:    1224.94 cm**-1
    35:    1275.28 cm**-1
    36:    1319.66 cm**-1
    37:    1329.73 cm**-1
    38:    1443.23 cm**-1
    39:    1469.57 cm**-1
    40:    1476.01 cm**-1
    41:    1483.87 cm**-1
    42:    1532.59 cm**-1
    43:    1595.08 cm**-1
    44:    1638.65 cm**-1
    45:    2188.28 cm**-1
    46:    3022.98 cm**-1
    47:    3085.98 cm**-1
    48:    3138.08 cm**-1
    49:    3181.19 cm**-1
    50:    3185.92 cm**-1
    51:    3195.59 cm**-1
    52:    3216.32 cm**-1
    53:    3430.39 cm**-1

IR SPECTRUM
-----------

 Mode   freq       eps      Int      T**2         TX        TY        TZ
       cm**-1   L/(mol*cm) km/mol    a.u.
----------------------------------------------------------------------------
  6:     67.73   0.000625    3.16  0.002879  (-0.000269 -0.000597  0.053650)
  7:    118.63   0.000335    1.70  0.000883  ( 0.000764 -0.001571 -0.029656)
  8:    130.30   0.000501    2.53  0.001201  (-0.008372  0.033588 -0.001550)
  9:    206.41   0.000186    0.94  0.000281  (-0.000770 -0.000069  0.016732)
 10:    254.27   0.000524    2.65  0.000643  ( 0.025288  0.000529  0.001857)
 11:    271.87   0.002231   11.27  0.002561  ( 0.000399 -0.000016 -0.050604)
 12:    387.42   0.000479    2.42  0.000386  ( 0.018568 -0.006414  0.000021)
 13:    423.06   0.000007    0.04  0.000005  ( 0.000130 -0.000111  0.002310)
 14:    464.67   0.002535   12.81  0.001702  ( 0.000163 -0.000175  0.041260)
 15:    496.98   0.002930   14.81  0.001840  (-0.033496  0.026797 -0.000223)
 16:    543.69   0.001704    8.61  0.000978  ( 0.014469  0.027707 -0.000983)
 17:    551.28   0.004613   23.31  0.002611  ( 0.000049 -0.000452 -0.051099)
 18:    602.35   0.017628   89.08  0.009132  (-0.000153  0.002365 -0.095535)
 19:    649.42   0.002768   13.99  0.001330  (-0.001891 -0.036408 -0.001013)
 20:    681.89   0.012577   63.56  0.005756  (-0.011488 -0.074957 -0.002316)
 21:    699.03   0.007929   40.07  0.003540  (-0.056049  0.019950  0.000146)
 22:    750.48   0.000024    0.12  0.000010  ( 0.000083  0.000100  0.003183)
 23:    823.79   0.000889    4.49  0.000337  ( 0.000156  0.000002 -0.018355)
 24:    831.05   0.000842    4.26  0.000316  (-0.013188  0.011928  0.000049)
 25:    853.17   0.025036  126.52  0.009157  (-0.000054  0.000136  0.095694)
 26:    969.93   0.000090    0.46  0.000029  (-0.000101 -0.000182 -0.005391)
 27:    985.59   0.000002    0.01  0.000001  (-0.000038  0.000431 -0.000611)
 28:   1019.79   0.000073    0.37  0.000022  (-0.004554 -0.001283  0.000197)
 29:   1037.30   0.025603  129.39  0.007702  ( 0.070552  0.052200  0.000025)
 30:   1124.85   0.004831   24.41  0.001340  (-0.009598  0.035329  0.000038)
 31:   1166.93   0.000252    1.27  0.000067  (-0.001037  0.000280 -0.008142)
 32:   1182.70   0.020467  103.43  0.005400  ( 0.073105  0.007492 -0.000083)
 33:   1202.21   0.003198   16.16  0.000830  ( 0.026598  0.011073 -0.000021)
 34:   1224.94   0.000057    0.29  0.000015  (-0.003317  0.001879  0.000019)
 35:   1275.28   0.097495  492.70  0.023857  (-0.153906 -0.013042 -0.000055)
 36:   1319.66   0.011679   59.02  0.002762  ( 0.051064  0.012423  0.000041)
 37:   1329.73   0.007608   38.45  0.001785  ( 0.042219 -0.001734  0.000023)
 38:   1443.23   0.001242    6.28  0.000269  ( 0.016385  0.000250  0.000028)
 39:   1469.57   0.008851   44.73  0.001879  (-0.042311  0.009431 -0.000540)
 40:   1476.01   0.002901   14.66  0.000613  (-0.003582  0.000525  0.024499)
 41:   1483.87   0.004257   21.51  0.000895  (-0.029522  0.004449 -0.001958)
 42:   1532.59   0.048867  246.95  0.009950  ( 0.099738  0.001573 -0.000030)
 43:   1595.08   0.005242   26.49  0.001026  (-0.024259  0.020905  0.000005)
 44:   1638.65   0.041232  208.37  0.007852  ( 0.088581  0.002359 -0.000017)
 45:   2188.28   0.022660  114.51  0.003231  ( 0.056738 -0.003496 -0.000006)
 46:   3022.98   0.014884   75.22  0.001536  (-0.029872 -0.025378 -0.000295)
 47:   3085.98   0.009178   46.38  0.000928  ( 0.000108  0.000162  0.030464)
 48:   3138.08   0.005140   25.97  0.000511  (-0.020256  0.010039 -0.000011)
 49:   3181.19   0.001597    8.07  0.000157  (-0.012477 -0.000971 -0.000061)
 50:   3185.92   0.001588    8.02  0.000155  (-0.006531  0.010622 -0.000084)
 51:   3195.59   0.001578    7.98  0.000154  (-0.001867  0.012273 -0.000031)
 52:   3216.32   0.000868    4.39  0.000084  (-0.007962 -0.004561  0.000044)
 53:   3430.39   0.044943  227.12  0.004088  ( 0.063738 -0.005091 -0.000095)

--------------------------
THERMOCHEMISTRY AT 298.15K
--------------------------

Temperature         ...   298.15 K
Pressure            ...     1.00 atm
Total Mass          ...   132.16 AMU
Quasi RRHO          ...     True
Cut-Off Frequency   ...     1.00 cm^-1

Throughout the following assumptions are being made:
  (1) The electronic state is orbitally nondegenerate
  (2) There are no thermally accessible electronically excited states
  (3) Hindered rotations indicated by low frequency modes are not
      treated as such but are treated as vibrations and this may
      cause some error
  (4) All equations used are the standard statistical mechanics
      equations for an ideal gas
  (5) All vibrations are strictly harmonic

freq.      67.73  E(vib)   ...       0.50
freq.     118.63  E(vib)   ...       0.44
freq.     130.30  E(vib)   ...       0.43
freq.     206.41  E(vib)   ...       0.35
freq.     254.27  E(vib)   ...       0.30
freq.     271.87  E(vib)   ...       0.29
freq.     387.42  E(vib)   ...       0.20
freq.     423.06  E(vib)   ...       0.18
freq.     464.67  E(vib)   ...       0.16
freq.     496.98  E(vib)   ...       0.14
freq.     543.69  E(vib)   ...       0.12
freq.     551.28  E(vib)   ...       0.12
freq.     602.35  E(vib)   ...       0.10
freq.     649.42  E(vib)   ...       0.08
freq.     681.89  E(vib)   ...       0.08
freq.     699.03  E(vib)   ...       0.07
freq.     750.48  E(vib)   ...       0.06
freq.     823.79  E(vib)   ...       0.05
freq.     831.05  E(vib)   ...       0.04
freq.     853.17  E(vib)   ...       0.04
freq.     969.93  E(vib)   ...       0.03
freq.     985.59  E(vib)   ...       0.02
freq.    1019.79  E(vib)   ...       0.02
freq.    1037.30  E(vib)   ...       0.02
freq.    1124.85  E(vib)   ...       0.01
freq.    1166.93  E(vib)   ...       0.01
freq.    1182.70  E(vib)   ...       0.01
freq.    1202.21  E(vib)   ...       0.01
freq.    1224.94  E(vib)   ...       0.01
freq.    1275.28  E(vib)   ...       0.01
freq.    1319.66  E(vib)   ...       0.01
freq.    1329.73  E(vib)   ...       0.01
freq.    1443.23  E(vib)   ...       0.00
freq.    1469.57  E(vib)   ...       0.00
freq.    1476.01  E(vib)   ...       0.00
freq.    1483.87  E(vib)   ...       0.00
freq.    1532.59  E(vib)   ...       0.00
freq.    1595.08  E(vib)   ...       0.00
freq.    1638.65  E(vib)   ...       0.00
freq.    2188.28  E(vib)   ...       0.00
freq.    3022.98  E(vib)   ...       0.00
freq.    3085.98  E(vib)   ...       0.00
freq.    3138.08  E(vib)   ...       0.00
freq.    3181.19  E(vib)   ...       0.00
freq.    3185.92  E(vib)   ...       0.00
freq.    3195.59  E(vib)   ...       0.00
freq.    3216.32  E(vib)   ...       0.00
freq.    3430.39  E(vib)   ...       0.00

------------
INNER ENERGY
------------

The inner energy is: U= E(el) + E(ZPE) + E(vib) + E(rot) + E(trans)
    E(el)   - is the total energy from the electronic structure calculation
              = E(kin-el) + E(nuc-el) + E(el-el) + E(nuc-nuc)
    E(ZPE)  - the the zero temperature vibrational energy from the frequency calculation
    E(vib)  - the the finite temperature correction to E(ZPE) due to population
              of excited vibrational states
    E(rot)  - is the rotational thermal energy
    E(trans)- is the translational thermal energy

Summary of contributions to the inner energy U:
Electronic energy                ...   -422.86330383 Eh
Zero point energy                ...      0.14108718 Eh      88.53 kcal/mol
Thermal vibrational correction   ...      0.00626428 Eh       3.93 kcal/mol
Thermal rotational correction    ...      0.00141627 Eh       0.89 kcal/mol
Thermal translational correction ...      0.00141627 Eh       0.89 kcal/mol
-----------------------------------------------------------------------
Total thermal energy                   -422.71311982 Eh

Summary of corrections to the electronic energy:
(perhaps to be used in another calculation)
Total thermal correction                  0.00909683 Eh       5.71 kcal/mol
Non-thermal (ZPE) correction              0.14108718 Eh      88.53 kcal/mol
-----------------------------------------------------------------------
Total correction                          0.15018401 Eh      94.24 kcal/mol

--------
ENTHALPY
--------

The enthalpy is H = U + kB*T
                kB is Boltzmann's constant
Total thermal energy              ...   -422.71311982 Eh
Thermal Enthalpy correction       ...      0.00094421 Eh       0.59 kcal/mol
-----------------------------------------------------------------------
Total Enthalpy                    ...   -422.71217561 Eh

Note: Only C1 symmetry has been detected, increase convergence thresholds
      if your molecule has a higher symmetry. Symmetry factor of 1.0 is
      used for the rotational entropy correction.

Note: Rotational entropy computed according to Herzberg
Infrared and Raman Spectra, Chapter V,1, Van Nostrand Reinhold, 1945
Point Group:  C1, Symmetry Number:   1
Rotational constants in cm-1:     0.161760     0.023655     0.020719

Vibrational entropy computed according to the QRRHO of S. Grimme
Chem.Eur.J. 2012 18 9955 using a reference frequency of 100.0 cm-1

-------
ENTROPY
-------

The entropy contributions are T*S = T*(S(el)+S(vib)+S(rot)+S(trans))
     S(el)   - electronic entropy
     S(vib)  - vibrational entropy
     S(rot)  - rotational entropy
     S(trans)- translational entropy
The entropies will be listed as multiplied by the temperature to get
units of energy

Electronic entropy                ...      0.00000000 Eh      0.00 kcal/mol
Vibrational entropy               ...      0.01046905 Eh      6.57 kcal/mol
Rotational entropy                ...      0.01396853 Eh      8.77 kcal/mol
Translational entropy             ...      0.01926618 Eh     12.09 kcal/mol
-----------------------------------------------------------------------
Final entropy term                ...      0.04370376 Eh     27.42 kcal/mol

In case the symmetry of your molecule has not been determined correctly
or in case you have a reason to use a different symmetry number we print
out the resulting rotational entropy values for sn=1,12:

 non-linear molecules -----------------------------------
|  sn= 1 | S(rot)=       0.01396853 Eh      8.77 kcal/mol|
|  sn= 2 | S(rot)=       0.01331407 Eh      8.35 kcal/mol|
|  sn= 3 | S(rot)=       0.01293124 Eh      8.11 kcal/mol|
|  sn= 4 | S(rot)=       0.01265962 Eh      7.94 kcal/mol|
|  sn= 5 | S(rot)=       0.01244893 Eh      7.81 kcal/mol|
|  sn= 6 | S(rot)=       0.01227679 Eh      7.70 kcal/mol|
|  sn= 7 | S(rot)=       0.01213124 Eh      7.61 kcal/mol|
|  sn= 8 | S(rot)=       0.01200516 Eh      7.53 kcal/mol|
|  sn= 9 | S(rot)=       0.01189395 Eh      7.46 kcal/mol|
|  sn=10 | S(rot)=       0.01179447 Eh      7.40 kcal/mol|
|  sn=11 | S(rot)=       0.01170448 Eh      7.34 kcal/mol|
|  sn=12 | S(rot)=       0.01162233 Eh      7.29 kcal/mol|

                             ****ORCA TERMINATED NORMALLY****
TOTAL RUN TIME: 0 days 0 hours 28 minutes 48 seconds 166 msec
