                         Program Version 6.0.0  -   RELEASE  -
|  1> !r2SCAN aug-cc-pVTZ d3 TightSCF SlowConv RIJCOSX defgrid2
|  2>
|  3> %pal
|  4> nprocs 4
|  5> end
|  6>
|  7> %scf
|  8> MaxIter 1500
|  9> end
| 10>
| 11> %maxcore 3000
| 12>
| 13> !CPCM
| 14> %cpcm smd true
| 15> SMDsolvent "MeCN"
| 16> surfacetype gepol_ses
| 17> rsolv 2.19
| 18> end
| 19>
| 20> * xyz 1 2
| 21> C           0.96002552011709     -1.32253975774944      0.00002107203161
| 22> C           2.30946577689281     -1.05292578484351     -0.00001183018851
| 23> C           2.75162476164071      0.28756052755572     -0.00002650301661
| 24> C           1.83902538005307      1.36187223575537     -0.00000118304244
| 25> C           0.48711647576379      1.10797066538425      0.00002893131122
| 26> C           0.02041417697925     -0.24724272024865      0.00003631726405
| 27> C          -1.36049677571781     -0.55035510408661      0.00004151636512
| 28> N          -2.24435922885682      0.43165315940707      0.00003462017491
| 29> O          -3.46568256477989     -0.02410885729296      0.00002059528734
| 30> H          -4.06414072403569      0.75247060999126      0.00003013023410
| 31> H          -1.71241527206750     -1.59215357045924      0.00004127844656
| 32> H          -0.24324441524782      1.92013568517355      0.00004228420146
| 33> H           2.20910910746605      2.39016696582870     -0.00001172730682
| 34> H           3.82614866589464      0.49606739820897     -0.00005739041351
| 35> H           3.03863533465800     -1.86708723654366     -0.00002808352063
| 36> H           0.59646668124012     -2.35410821608081      0.00003057217215
| 37> *
| 38>
| 39>                          ****END OF INPUT****

CARTESIAN COORDINATES (ANGSTROEM)
---------------------------------
  C      0.960026   -1.322540    0.000021
  C      2.309466   -1.052926   -0.000012
  C      2.751625    0.287561   -0.000027
  C      1.839025    1.361872   -0.000001
  C      0.487116    1.107971    0.000029
  C      0.020414   -0.247243    0.000036
  C     -1.360497   -0.550355    0.000042
  N     -2.244359    0.431653    0.000035
  O     -3.465683   -0.024109    0.000021
  H     -4.064141    0.752471    0.000030
  H     -1.712415   -1.592154    0.000041
  H     -0.243244    1.920136    0.000042
  H      2.209109    2.390167   -0.000012
  H      3.826149    0.496067   -0.000057
  H      3.038635   -1.867087   -0.000028
  H      0.596467   -2.354108    0.000031

 Total Charge           Charge          ....    1
 Multiplicity           Mult            ....    2
 Number of Electrons    NEL             ....   63
 Basis Dimension        Dim             ....  575

ORBITAL ENERGIES
----------------
                 SPIN UP ORBITALS
  NO   OCC          E(Eh)            E(eV)
   0   1.0000     -19.089912      -519.4629
   1   1.0000     -14.292831      -388.9277
   2   1.0000     -10.131971      -275.7049
   3   1.0000     -10.118149      -275.3288
   4   1.0000     -10.101588      -274.8782
   5   1.0000     -10.091945      -274.6158
   6   1.0000     -10.090605      -274.5793
   7   1.0000     -10.079778      -274.2847
   8   1.0000     -10.077158      -274.2134
   9   1.0000      -1.165651       -31.7190
  10   1.0000      -0.901190       -24.5226
  11   1.0000      -0.858719       -23.3669
  12   1.0000      -0.770695       -20.9717
  13   1.0000      -0.757445       -20.6111
  14   1.0000      -0.664682       -18.0869
  15   1.0000      -0.617102       -16.7922
  16   1.0000      -0.588657       -16.0182
  17   1.0000      -0.553486       -15.0611
  18   1.0000      -0.525471       -14.2988
  19   1.0000      -0.490776       -13.3547
  20   1.0000      -0.484801       -13.1921
  21   1.0000      -0.463724       -12.6186
  22   1.0000      -0.443063       -12.0564
  23   1.0000      -0.424793       -11.5592
  24   1.0000      -0.419246       -11.4083
  25   1.0000      -0.400913       -10.9094
  26   1.0000      -0.357355        -9.7241
  27   1.0000      -0.345849        -9.4110
  28   1.0000      -0.331532        -9.0215
  29   1.0000      -0.303918        -8.2700
  30   1.0000      -0.281350        -7.6559
  31   1.0000      -0.266552        -7.2533
  32   0.0000      -0.138986        -3.7820
  33   0.0000      -0.070992        -1.9318
  34   0.0000      -0.038947        -1.0598
  35   0.0000       0.001028         0.0280
  36   0.0000       0.009711         0.2643

                 SPIN DOWN ORBITALS
  NO   OCC          E(Eh)            E(eV)
   0   1.0000     -19.082676      -519.2660
   1   1.0000     -14.285311      -388.7231
   2   1.0000     -10.132007      -275.7059
   3   1.0000     -10.115307      -275.2515
   4   1.0000     -10.096649      -274.7438
   5   1.0000     -10.089795      -274.5573
   6   1.0000     -10.089332      -274.5447
   7   1.0000     -10.080383      -274.3012
   8   1.0000     -10.078358      -274.2461
   9   1.0000      -1.153890       -31.3989
  10   1.0000      -0.890719       -24.2377
  11   1.0000      -0.849882       -23.1265
  12   1.0000      -0.761143       -20.7118
  13   1.0000      -0.754606       -20.5339
  14   1.0000      -0.658660       -17.9231
  15   1.0000      -0.614527       -16.7221
  16   1.0000      -0.583713       -15.8836
  17   1.0000      -0.548308       -14.9202
  18   1.0000      -0.523523       -14.2458
  19   1.0000      -0.487519       -13.2661
  20   1.0000      -0.461281       -12.5521
  21   1.0000      -0.451588       -12.2883
  22   1.0000      -0.440738       -11.9931
  23   1.0000      -0.424496       -11.5511
  24   1.0000      -0.417388       -11.3577
  25   1.0000      -0.383060       -10.4236
  26   1.0000      -0.356643        -9.7048
  27   1.0000      -0.344205        -9.3663
  28   1.0000      -0.310566        -8.4509
  29   1.0000      -0.296987        -8.0814
  30   1.0000      -0.276930        -7.5357
  31   0.0000      -0.227490        -6.1903
  32   0.0000      -0.110587        -3.0092
  33   0.0000      -0.063366        -1.7243
  34   0.0000      -0.018298        -0.4979
  35   0.0000       0.002286         0.0622

MULLIKEN ATOMIC CHARGES AND SPIN POPULATIONS
--------------------------------------------
   0 C :   -0.764392    0.059989
   1 C :   -0.497144   -0.048811
   2 C :   -0.086649    0.271169
   3 C :   -0.682763   -0.103421
   4 C :   -0.592961    0.128199
   5 C :    1.794191    0.203671
   6 C :    0.155764   -0.043649
   7 N :   -0.367691    0.287081
   8 O :   -0.174488    0.222620
   9 H :    0.215290   -0.013613
  10 H :    0.428951   -0.004821
  11 H :    0.058820    0.016070
  12 H :    0.536755   -0.008090
  13 H :    0.446289    0.023167
  14 H :    0.526554   -0.001819
  15 H :    0.003475    0.012258
Sum of atomic charges         :    1.0000000

LOEWDIN ATOMIC CHARGES AND SPIN POPULATIONS
-------------------------------------------
   0 C :    0.266682    0.058628
   1 C :    0.267140    0.038577
   2 C :    0.279809    0.140310
   3 C :    0.263591    0.027474
   4 C :    0.258513    0.076599
   5 C :   -0.106369    0.114229
   6 C :    0.091755    0.064957
   7 N :    0.196430    0.225928
   8 O :    0.753198    0.199147
   9 H :   -0.396317    0.013199
  10 H :   -0.140831   -0.002480
  11 H :   -0.165272    0.010826
  12 H :   -0.147992   -0.005480
  13 H :   -0.135006    0.031975
  14 H :   -0.145772   -0.001597
  15 H :   -0.139560    0.007709

  Mayer bond orders larger than 0.100000
B(  0-C ,  1-C ) :   1.2393 B(  0-C ,  2-C ) :  -0.1130 B(  0-C ,  4-C ) :  -0.4315
B(  0-C , 11-H ) :   0.1255 B(  0-C , 14-H ) :  -0.1564 B(  0-C , 15-H ) :   1.6245
B(  1-C ,  2-C ) :   1.0749 B(  1-C ,  3-C ) :   0.1222 B(  1-C ,  6-C ) :   0.1087
B(  1-C , 11-H ) :  -0.1098 B(  1-C , 14-H ) :   0.4880 B(  1-C , 15-H ) :  -0.1234
B(  2-C ,  3-C ) :   1.0341 B(  2-C ,  4-C ) :  -0.1317 B(  2-C ,  5-C ) :  -0.2171
B(  2-C ,  6-C ) :   0.1504 B(  2-C , 13-H ) :   0.6443 B(  3-C ,  4-C ) :   1.2390
B(  3-C , 12-H ) :   0.4685 B(  4-C ,  5-C ) :   0.3056 B(  4-C ,  6-C ) :   0.1647
B(  4-C , 11-H ) :   1.2650 B(  4-C , 15-H ) :   0.1353 B(  5-C ,  6-C ) :   0.2273
B(  5-C ,  8-O ) :   0.1288 B(  5-C , 11-H ) :  -0.1198 B(  5-C , 14-H ) :   0.1088
B(  5-C , 15-H ) :  -0.1721 B(  6-C ,  7-N ) :   0.7184 B(  6-C , 10-H ) :   0.5702
B(  6-C , 11-H ) :  -0.1036 B(  6-C , 15-H ) :  -0.1544 B(  7-N ,  8-O ) :   0.7961
B(  7-N , 11-H ) :   0.1035 B(  8-O ,  9-H ) :   0.9825 B( 11-H , 15-H ) :   0.1504

Dispersion correction           -0.004704282
FINAL SINGLE POINT ENERGY      -400.594809507788

DIPOLE MOMENT
-------------

Method             : SCF
Type of density    : Electron Density
Multiplicity       :   2
Irrep              :   0
Energy             :  -400.5901052261576751 Eh
Relativity type    :
Basis              : AO
                                X                 Y                 Z
Electronic contribution:     -3.476458986       0.172496389       0.000425901
Nuclear contribution   :      3.309117951      -0.259125904      -0.000059906
                        -----------------------------------------
Total Dipole Moment    :     -0.167341035      -0.086629516       0.000365994
                        -----------------------------------------
Magnitude (a.u.)       :      0.188435211
Magnitude (Debye)      :      0.478964243

Rotational constants in cm-1:             0.166470             0.031016             0.026145
Rotational constants in MHz :          4990.645062           929.841763           783.805511

                             ****ORCA TERMINATED NORMALLY****
TOTAL RUN TIME: 0 days 0 hours 3 minutes 25 seconds 192 msec
