                         Program Version 6.0.0  -   RELEASE  -
|  1> !B3LYP aug-cc-pVTZ d3 TightSCF SlowConv RIJCOSX defgrid2
|  2>
|  3> %pal
|  4> nprocs 4
|  5> end
|  6>
|  7> %scf
|  8> MaxIter 1500
|  9> end
| 10>
| 11> %maxcore 3000
| 12>
| 13> !CPCM
| 14> %cpcm smd true
| 15> SMDsolvent "MeCN"
| 16> surfacetype gepol_ses
| 17> rsolv 2.19
| 18> end
| 19>
| 20> * xyz 0 1
| 21> C           0.43295274103395     -0.56555208137454     -0.12382569822175
| 22> C           1.51815041093286     -1.44256145132370      0.03465132264486
| 23> C           2.82291605458460     -0.98131423085206      0.16263470248186
| 24> C           3.07724805433695      0.38906543613859      0.10395417081958
| 25> C           2.01798434399991      1.27254312720111     -0.06183531891651
| 26> C           0.68778075786998      0.82920111453005     -0.15098740877372
| 27> C          -0.35699948321221      1.85751329332423     -0.25045884909377
| 28> C          -1.60080927987703      1.81370681826415      0.25464129384079
| 29> C          -2.59473145726124      2.92199907643296      0.15011601671836
| 30> H          -3.51573836514016      2.58612139620194     -0.36308088945608
| 31> H          -2.90680231015057      3.27360328807964      1.15160677275170
| 32> H          -2.18833105696491      3.78355768338862     -0.40632712366609
| 33> H          -1.92003588165608      0.92155321305987      0.80823791464133
| 34> H          -0.04094477526312      2.78794694041111     -0.74417993319491
| 35> H           2.21326017353196      2.34900579584862     -0.10386391754355
| 36> H           4.10071513363350      0.76784189558933      0.18022490580490
| 37> H           3.64525794250500     -1.69329903916305      0.28019138928457
| 38> H           1.32601592423891     -2.51911318521029      0.01809993008456
| 39> C          -0.91691070467914     -1.11038869710857     -0.32534444063154
| 40> C          -1.40376577306444     -2.22814293611418      0.23571081912874
| 41> C          -2.75893884419196     -2.79406285722768     -0.03123293907509
| 42> H          -3.32366890460505     -2.17343167413791     -0.74746352614549
| 43> H          -2.69094682094056     -3.81739069188698     -0.44702594213530
| 44> H          -3.35245768734527     -2.87433845188828      0.89900228994579
| 45> H          -0.77994682614443     -2.77248476472153      0.95866929401903
| 46> H          -1.56550936617145     -0.54211921746145     -1.00577693531227
| 47> *
| 48>
| 49>                          ****END OF INPUT****

CARTESIAN COORDINATES (ANGSTROEM)
---------------------------------
  C      0.432953   -0.565552   -0.123826
  C      1.518150   -1.442561    0.034651
  C      2.822916   -0.981314    0.162635
  C      3.077248    0.389065    0.103954
  C      2.017984    1.272543   -0.061835
  C      0.687781    0.829201   -0.150987
  C     -0.356999    1.857513   -0.250459
  C     -1.600809    1.813707    0.254641
  C     -2.594731    2.921999    0.150116
  H     -3.515738    2.586121   -0.363081
  H     -2.906802    3.273603    1.151607
  H     -2.188331    3.783558   -0.406327
  H     -1.920036    0.921553    0.808238
  H     -0.040945    2.787947   -0.744180
  H      2.213260    2.349006   -0.103864
  H      4.100715    0.767842    0.180225
  H      3.645258   -1.693299    0.280191
  H      1.326016   -2.519113    0.018100
  C     -0.916911   -1.110389   -0.325344
  C     -1.403766   -2.228143    0.235711
  C     -2.758939   -2.794063   -0.031233
  H     -3.323669   -2.173432   -0.747464
  H     -2.690947   -3.817391   -0.447026
  H     -3.352458   -2.874338    0.899002
  H     -0.779947   -2.772485    0.958669
  H     -1.565509   -0.542119   -1.005777

 Total Charge           Charge          ....    0
 Multiplicity           Mult            ....    1
 Number of Electrons    NEL             ....   86
 Basis Dimension        Dim             ....  874

ORBITAL ENERGIES
----------------

  NO   OCC          E(Eh)            E(eV)
   0   2.0000     -10.186189      -277.1803
   1   2.0000     -10.185565      -277.1633
   2   2.0000     -10.174499      -276.8622
   3   2.0000     -10.173358      -276.8311
   4   2.0000     -10.173018      -276.8219
   5   2.0000     -10.172523      -276.8084
   6   2.0000     -10.172300      -276.8023
   7   2.0000     -10.171448      -276.7792
   8   2.0000     -10.169870      -276.7362
   9   2.0000     -10.167660      -276.6761
  10   2.0000     -10.162849      -276.5452
  11   2.0000     -10.161961      -276.5210
  12   2.0000      -0.863288       -23.4913
  13   2.0000      -0.798201       -21.7202
  14   2.0000      -0.793932       -21.6040
  15   2.0000      -0.747292       -20.3349
  16   2.0000      -0.743920       -20.2431
  17   2.0000      -0.683370       -18.5955
  18   2.0000      -0.666746       -18.1431
  19   2.0000      -0.607646       -16.5349
  20   2.0000      -0.594488       -16.1768
  21   2.0000      -0.547698       -14.9036
  22   2.0000      -0.541371       -14.7315
  23   2.0000      -0.502716       -13.6796
  24   2.0000      -0.467349       -12.7172
  25   2.0000      -0.459967       -12.5163
  26   2.0000      -0.439815       -11.9680
  27   2.0000      -0.423697       -11.5294
  28   2.0000      -0.421134       -11.4596
  29   2.0000      -0.405079       -11.0228
  30   2.0000      -0.403595       -10.9824
  31   2.0000      -0.401657       -10.9296
  32   2.0000      -0.384131       -10.4527
  33   2.0000      -0.373162       -10.1543
  34   2.0000      -0.369814       -10.0632
  35   2.0000      -0.351959        -9.5773
  36   2.0000      -0.350118        -9.5272
  37   2.0000      -0.336949        -9.1688
  38   2.0000      -0.329566        -8.9680
  39   2.0000      -0.287570        -7.8252
  40   2.0000      -0.283343        -7.7101
  41   2.0000      -0.236449        -6.4341
  42   2.0000      -0.213991        -5.8230
  43   0.0000      -0.037043        -1.0080
  44   0.0000      -0.024306        -0.6614
  45   0.0000      -0.002778        -0.0756
  46   0.0000       0.004947         0.1346
  47   0.0000       0.006727         0.1831

MULLIKEN ATOMIC CHARGES
-----------------------
   0 C :    1.020492
   1 C :   -1.036998
   2 C :   -0.595736
   3 C :   -0.273807
   4 C :   -1.075000
   5 C :    1.334520
   6 C :   -0.280355
   7 C :   -0.176511
   8 C :   -0.812864
   9 H :    0.219447
  10 H :    0.192638
  11 H :    0.234252
  12 H :    0.234952
  13 H :    0.117697
  14 H :    0.044410
  15 H :    0.583523
  16 H :    0.477795
  17 H :    0.027448
  18 C :    0.185783
  19 C :   -0.598494
  20 C :   -0.782854
  21 H :    0.233024
  22 H :    0.212478
  23 H :    0.197332
  24 H :    0.214333
  25 H :    0.102498
Sum of atomic charges:   -0.0000000

LOEWDIN ATOMIC CHARGES
----------------------
   0 C :   -0.122874
   1 C :    0.196191
   2 C :    0.188662
   3 C :    0.185949
   4 C :    0.193863
   5 C :   -0.125943
   6 C :    0.199304
   7 C :    0.193547
   8 C :    0.548267
   9 H :   -0.161177
  10 H :   -0.161526
  11 H :   -0.170730
  12 H :   -0.180991
  13 H :   -0.172824
  14 H :   -0.164945
  15 H :   -0.169512
  16 H :   -0.169103
  17 H :   -0.173163
  18 C :    0.172669
  19 C :    0.197648
  20 C :    0.543410
  21 H :   -0.170462
  22 H :   -0.163156
  23 H :   -0.163386
  24 H :   -0.168714
  25 H :   -0.181003

  Mayer bond orders larger than 0.100000
B(  0-C ,  1-C ) :   0.5990 B(  0-C ,  2-C ) :   0.1455 B(  0-C ,  3-C ) :  -0.2359
B(  0-C ,  5-C ) :   0.9551 B(  0-C ,  6-C ) :   0.2182 B(  0-C , 24-H ) :  -0.1224
B(  1-C ,  2-C ) :   1.1154 B(  1-C ,  5-C ) :  -0.2361 B(  1-C , 17-H ) :   1.4403
B(  1-C , 18-C ) :   0.3089 B(  1-C , 19-C ) :   0.1332 B(  2-C ,  3-C ) :   1.1249
B(  2-C ,  5-C ) :  -0.1166 B(  2-C , 16-H ) :   0.6036 B(  3-C ,  4-C ) :   0.9549
B(  3-C ,  5-C ) :   0.2296 B(  3-C , 15-H ) :   0.4335 B(  3-C , 18-C ) :   0.1003
B(  4-C ,  5-C ) :   0.3488 B(  4-C , 14-H ) :   1.3974 B(  4-C , 15-H ) :  -0.1054
B(  5-C , 12-H ) :  -0.1360 B(  6-C ,  7-C ) :   1.1469 B(  6-C , 13-H ) :   1.0894
B(  7-C ,  8-C ) :   0.7317 B(  7-C , 12-H ) :   1.0618 B(  7-C , 13-H ) :  -0.1355
B(  8-C ,  9-H ) :   0.9867 B(  8-C , 10-H ) :   1.0287 B(  8-C , 11-H ) :   0.9508
B( 17-H , 19-C ) :   0.1066 B( 18-C , 19-C ) :   1.0696 B( 18-C , 25-H ) :   1.1036
B( 19-C , 20-C ) :   0.7768 B( 19-C , 24-H ) :   1.0412 B( 20-C , 21-H ) :   0.9634
B( 20-C , 22-H ) :   0.9870 B( 20-C , 23-H ) :   1.0274

Dispersion correction           -0.047421926
FINAL SINGLE POINT ENERGY      -465.594749184681

DIPOLE MOMENT
-------------

Method             : SCF
Type of density    : Electron Density
Multiplicity       :   1
Irrep              :   0
Energy             :  -465.5473272586829694 Eh
Relativity type    :
Basis              : AO
                                X                 Y                 Z
Electronic contribution:      9.854085551      -0.104548395      -0.322655336
Nuclear contribution   :    -10.320917319       0.104061334       0.410695045
                        -----------------------------------------
Total Dipole Moment    :     -0.466831768      -0.000487061       0.088039709
                        -----------------------------------------
Magnitude (a.u.)       :      0.475061183
Magnitude (Debye)      :      1.207509564

Rotational constants in cm-1:             0.032124             0.026217             0.014718
Rotational constants in MHz :           963.065643           785.959094           441.247217

                             ****ORCA TERMINATED NORMALLY****
TOTAL RUN TIME: 0 days 0 hours 7 minutes 15 seconds 900 msec
