                         Program Version 6.0.0  -   RELEASE  -
|  1> !TPSSh aug-cc-pVTZ d3 TightSCF SlowConv RIJCOSX defgrid2
|  2>
|  3> %pal
|  4> nprocs 4
|  5> end
|  6>
|  7> %scf
|  8> MaxIter 1500
|  9> end
| 10>
| 11> %maxcore 3000
| 12>
| 13> !CPCM
| 14> %cpcm smd true
| 15> SMDsolvent "MeCN"
| 16> surfacetype gepol_ses
| 17> rsolv 2.19
| 18> end
| 19>
| 20> * xyz 1 2
| 21> C           1.38821397253669     -0.85710928094571      0.60741622632202
| 22> C           2.66653568645174     -1.38554775804107      0.62328529651635
| 23> C           3.74096697508373     -0.66019599701418      0.08285810563013
| 24> C           3.54023898785237      0.62233127623213     -0.45460571699329
| 25> C           2.27463505486006      1.17691753163962     -0.46404721541233
| 26> C           1.19493732351435      0.42049377974261      0.03782457404784
| 27> O          -0.00001161826735      1.03053434324458     -0.00007618077340
| 28> C          -1.19494650110222      0.42046263969238     -0.03791233087995
| 29> C          -2.27466316694698      1.17692889833622      0.46385316504035
| 30> C          -3.54025869091077      0.62232307991007      0.45446120210222
| 31> C          -3.74095306617908     -0.66026678297616     -0.08285951221376
| 32> C          -2.66650374430337     -1.38566766681220     -0.62318898600472
| 33> C          -1.38818943489976     -0.85721178830951     -0.60735323061330
| 34> H          -0.55743963132106     -1.38478510741341     -1.08197323083020
| 35> H          -2.84302940822415     -2.36075586477487     -1.08456370453300
| 36> H          -4.74708768097790     -1.08795510804427     -0.10418715284565
| 37> H          -4.38474494788350      1.18417342168211      0.86161853827017
| 38> H          -2.07820409834794      2.17105532289927      0.87220985478457
| 39> H           2.07815534201669      2.17098917949467     -0.87253031915770
| 40> H           4.38471105702739      1.18414197451138     -0.86184555829131
| 41> H           4.74710919235526     -1.08786907382573      0.10421696325696
| 42> H           2.84307759651065     -2.36058562840449      1.08475174308550
| 43> H           0.55748160115515     -1.38464569082344      1.08211306949251
| 44> *
| 45>
| 46>                          ****END OF INPUT****

CARTESIAN COORDINATES (ANGSTROEM)
---------------------------------
  C      1.388214   -0.857109    0.607416
  C      2.666536   -1.385548    0.623285
  C      3.740967   -0.660196    0.082858
  C      3.540239    0.622331   -0.454606
  C      2.274635    1.176918   -0.464047
  C      1.194937    0.420494    0.037825
  O     -0.000012    1.030534   -0.000076
  C     -1.194947    0.420463   -0.037912
  C     -2.274663    1.176929    0.463853
  C     -3.540259    0.622323    0.454461
  C     -3.740953   -0.660267   -0.082860
  C     -2.666504   -1.385668   -0.623189
  C     -1.388189   -0.857212   -0.607353
  H     -0.557440   -1.384785   -1.081973
  H     -2.843029   -2.360756   -1.084564
  H     -4.747088   -1.087955   -0.104187
  H     -4.384745    1.184173    0.861619
  H     -2.078204    2.171055    0.872210
  H      2.078155    2.170989   -0.872530
  H      4.384711    1.184142   -0.861846
  H      4.747109   -1.087869    0.104217
  H      2.843078   -2.360586    1.084752
  H      0.557482   -1.384646    1.082113

 Total Charge           Charge          ....    1
 Multiplicity           Mult            ....    2
 Number of Electrons    NEL             ....   89
 Basis Dimension        Dim             ....  828

ORBITAL ENERGIES
----------------
                 SPIN UP ORBITALS
  NO   OCC          E(Eh)            E(eV)
   0   1.0000     -19.184633      -522.0404
   1   1.0000     -10.232369      -278.4369
   2   1.0000     -10.232347      -278.4363
   3   1.0000     -10.159589      -276.4565
   4   1.0000     -10.159495      -276.4539
   5   1.0000     -10.158234      -276.4196
   6   1.0000     -10.158222      -276.4193
   7   1.0000     -10.156212      -276.3646
   8   1.0000     -10.156203      -276.3643
   9   1.0000     -10.149003      -276.1684
  10   1.0000     -10.148965      -276.1674
  11   1.0000     -10.148605      -276.1576
  12   1.0000     -10.148593      -276.1573
  13   1.0000      -1.149032       -31.2668
  14   1.0000      -0.883797       -24.0493
  15   1.0000      -0.864315       -23.5192
  16   1.0000      -0.793387       -21.5891
  17   1.0000      -0.769221       -20.9316
  18   1.0000      -0.762571       -20.7506
  19   1.0000      -0.739877       -20.1331
  20   1.0000      -0.669051       -18.2058
  21   1.0000      -0.637160       -17.3380
  22   1.0000      -0.617966       -16.8157
  23   1.0000      -0.593338       -16.1455
  24   1.0000      -0.565220       -15.3804
  25   1.0000      -0.520648       -14.1675
  26   1.0000      -0.505455       -13.7541
  27   1.0000      -0.504782       -13.7358
  28   1.0000      -0.498086       -13.5536
  29   1.0000      -0.455168       -12.3857
  30   1.0000      -0.453632       -12.3440
  31   1.0000      -0.439965       -11.9721
  32   1.0000      -0.438085       -11.9209
  33   1.0000      -0.429978       -11.7003
  34   1.0000      -0.421958       -11.4821
  35   1.0000      -0.390547       -10.6273
  36   1.0000      -0.380028       -10.3411
  37   1.0000      -0.374615       -10.1938
  38   1.0000      -0.370630       -10.0854
  39   1.0000      -0.353250        -9.6124
  40   1.0000      -0.350237        -9.5304
  41   1.0000      -0.286775        -7.8035
  42   1.0000      -0.283024        -7.7015
  43   1.0000      -0.279459        -7.6045
  44   1.0000      -0.253979        -6.9111
  45   0.0000      -0.070762        -1.9255
  46   0.0000      -0.057778        -1.5722
  47   0.0000      -0.051767        -1.4087
  48   0.0000      -0.044204        -1.2028
  49   0.0000      -0.008490        -0.2310

                 SPIN DOWN ORBITALS
  NO   OCC          E(Eh)            E(eV)
   0   1.0000     -19.177597      -521.8490
   1   1.0000     -10.231320      -278.4084
   2   1.0000     -10.231297      -278.4078
   3   1.0000     -10.157861      -276.4094
   4   1.0000     -10.157767      -276.4069
   5   1.0000     -10.154845      -276.3274
   6   1.0000     -10.154833      -276.3271
   7   1.0000     -10.154637      -276.3217
   8   1.0000     -10.154629      -276.3215
   9   1.0000     -10.149778      -276.1895
  10   1.0000     -10.149740      -276.1885
  11   1.0000     -10.149308      -276.1767
  12   1.0000     -10.149295      -276.1764
  13   1.0000      -1.137775       -30.9604
  14   1.0000      -0.879499       -23.9324
  15   1.0000      -0.860015       -23.4022
  16   1.0000      -0.789157       -21.4741
  17   1.0000      -0.767132       -20.8747
  18   1.0000      -0.760633       -20.6979
  19   1.0000      -0.731986       -19.9183
  20   1.0000      -0.664315       -18.0769
  21   1.0000      -0.635306       -17.2875
  22   1.0000      -0.614784       -16.7291
  23   1.0000      -0.590333       -16.0638
  24   1.0000      -0.563204       -15.3256
  25   1.0000      -0.518388       -14.1061
  26   1.0000      -0.502296       -13.6682
  27   1.0000      -0.497780       -13.5453
  28   1.0000      -0.486070       -13.2266
  29   1.0000      -0.452021       -12.3001
  30   1.0000      -0.450743       -12.2653
  31   1.0000      -0.437317       -11.9000
  32   1.0000      -0.436983       -11.8909
  33   1.0000      -0.426049       -11.5934
  34   1.0000      -0.416273       -11.3274
  35   1.0000      -0.381627       -10.3846
  36   1.0000      -0.378794       -10.3075
  37   1.0000      -0.370204       -10.0738
  38   1.0000      -0.363053        -9.8792
  39   1.0000      -0.347821        -9.4647
  40   1.0000      -0.346690        -9.4339
  41   1.0000      -0.279239        -7.5985
  42   1.0000      -0.275010        -7.4834
  43   1.0000      -0.265617        -7.2278
  44   0.0000      -0.209942        -5.7128
  45   0.0000      -0.058138        -1.5820
  46   0.0000      -0.050993        -1.3876
  47   0.0000      -0.044048        -1.1986
  48   0.0000      -0.028109        -0.7649

MULLIKEN ATOMIC CHARGES AND SPIN POPULATIONS
--------------------------------------------
   0 C :   -0.359975    0.100909
   1 C :   -0.481770   -0.055093
   2 C :   -0.363555    0.224618
   3 C :   -0.273925   -0.050849
   4 C :   -0.816885    0.077363
   5 C :    1.176687    0.111562
   6 O :   -0.797164    0.215231
   7 C :    1.176549    0.111381
   8 C :   -0.812250    0.077397
   9 C :   -0.281175   -0.050868
  10 C :   -0.365727    0.224572
  11 C :   -0.477597   -0.055160
  12 C :   -0.360996    0.100896
  13 H :    0.463823   -0.011909
  14 H :    0.396221    0.001380
  15 H :    0.459500    0.005529
  16 H :    0.356081   -0.000891
  17 H :    0.342270   -0.009954
  18 H :    0.342839   -0.010028
  19 H :    0.356188   -0.000908
  20 H :    0.460041    0.005462
  21 H :    0.394602    0.001419
  22 H :    0.466215   -0.012060
Sum of atomic charges         :    1.0000000

LOEWDIN ATOMIC CHARGES AND SPIN POPULATIONS
-------------------------------------------
   0 C :    0.245205    0.064652
   1 C :    0.243554    0.026302
   2 C :    0.249835    0.106095
   3 C :    0.236410    0.027104
   4 C :    0.254584    0.058557
   5 C :   -0.322710    0.088071
   6 O :    0.684055    0.182591
   7 C :   -0.322684    0.088026
   8 C :    0.254620    0.058571
   9 C :    0.236411    0.027082
  10 C :    0.249845    0.106084
  11 C :    0.243585    0.026304
  12 C :    0.245085    0.064656
  13 H :   -0.154288    0.010475
  14 H :   -0.149533   -0.002819
  15 H :   -0.147631    0.024067
  16 H :   -0.151357   -0.002701
  17 H :   -0.146167    0.008934
  18 H :   -0.146177    0.008928
  19 H :   -0.151368   -0.002695
  20 H :   -0.147634    0.024069
  21 H :   -0.149559   -0.002820
  22 H :   -0.154082    0.010466

  Mayer bond orders larger than 0.100000
B(  0-C ,  1-C ) :   1.5134 B(  0-C ,  2-C ) :   0.1345 B(  0-C ,  4-C ) :   0.1873
B(  0-C ,  5-C ) :   0.9072 B(  0-C , 12-C ) :   0.2127 B(  0-C , 22-H ) :   0.5187
B(  1-C ,  2-C ) :   1.4139 B(  1-C ,  5-C ) :  -0.2718 B(  1-C , 21-H ) :   0.6764
B(  2-C ,  3-C ) :   1.3343 B(  2-C ,  4-C ) :   0.3210 B(  2-C , 20-H ) :   0.4937
B(  3-C ,  4-C ) :   1.5943 B(  3-C ,  5-C ) :  -0.3135 B(  3-C , 19-H ) :   0.7097
B(  4-C ,  5-C ) :   0.6241 B(  4-C ,  6-O ) :   0.2931 B(  4-C , 18-H ) :   0.4513
B(  4-C , 19-H ) :   0.1027 B(  5-C ,  6-O ) :   0.5287 B(  5-C ,  7-C ) :   0.1202
B(  5-C , 18-H ) :   0.1135 B(  6-O ,  7-C ) :   0.5210 B(  6-O ,  8-C ) :   0.2975
B(  7-C ,  8-C ) :   0.6244 B(  7-C ,  9-C ) :  -0.3173 B(  7-C , 11-C ) :  -0.2692
B(  7-C , 12-C ) :   0.9095 B(  7-C , 17-H ) :   0.1141 B(  8-C ,  9-C ) :   1.5893
B(  8-C , 10-C ) :   0.3149 B(  8-C , 12-C ) :   0.1851 B(  8-C , 16-H ) :   0.1034
B(  8-C , 17-H ) :   0.4512 B(  9-C , 10-C ) :   1.3357 B(  9-C , 16-H ) :   0.7092
B( 10-C , 11-C ) :   1.4086 B( 10-C , 12-C ) :   0.1357 B( 10-C , 15-H ) :   0.4957
B( 11-C , 12-C ) :   1.5086 B( 11-C , 14-H ) :   0.6739 B( 12-C , 13-H ) :   0.5199

Dispersion correction           -0.031305940
FINAL SINGLE POINT ENERGY      -538.567084930033

DIPOLE MOMENT
-------------

Method             : SCF
Type of density    : Electron Density
Multiplicity       :   2
Irrep              :   0
Energy             :  -538.5357789896806935 Eh
Relativity type    :
Basis              : AO
                                X                 Y                 Z
Electronic contribution:     -0.000855923       2.136308498       0.001690068
Nuclear contribution   :      0.000026820      -2.597809167       0.000076640
                        -----------------------------------------
Total Dipole Moment    :     -0.000829103      -0.461500669       0.001766709
                        -----------------------------------------
Magnitude (a.u.)       :      0.461504795
Magnitude (Debye)      :      1.173051966

Rotational constants in cm-1:             0.082583             0.014544             0.013062
Rotational constants in MHz :          2475.769648           436.018937           391.587616

                             ****ORCA TERMINATED NORMALLY****
TOTAL RUN TIME: 0 days 0 hours 10 minutes 10 seconds 64 msec
