                         Program Version 6.0.0  -   RELEASE  -
|  1> !r2SCANh aug-cc-pVTZ d3 TightSCF SlowConv RIJCOSX defgrid2
|  2>
|  3> %pal
|  4> nprocs 4
|  5> end
|  6>
|  7> %scf
|  8> MaxIter 1500
|  9> end
| 10>
| 11> %maxcore 3000
| 12>
| 13> !CPCM
| 14> %cpcm smd true
| 15> SMDsolvent "MeCN"
| 16> surfacetype gepol_ses
| 17> rsolv 2.19
| 18> end
| 19>
| 20> * xyz 0 1
| 21> C          -1.38053685940747     -1.21804540995532     -0.00011060626091
| 22> C           0.00880673788646     -1.21761505772678     -0.00009043075416
| 23> C           0.68407451418940     -0.00000826905018      0.00002079320919
| 24> C           0.00881895322689      1.21760888927779      0.00010917128456
| 25> C          -1.38052397185078      1.21805873995267      0.00009090964868
| 26> C          -2.05580079114724      0.00001020724702     -0.00001816987555
| 27> F          -3.38048726341071      0.00001804396249     -0.00003514545168
| 28> H          -1.95216629027619      2.14893818448022      0.00016183253789
| 29> H           0.58216467537740      2.14580924232628      0.00018829183514
| 30> N           2.15012174350491     -0.00002110651836      0.00004214105770
| 31> O           2.70660121926706     -1.07534719974692     -0.00006677256489
| 32> O           2.70659645313172      1.07532442371150     -0.00002414626605
| 33> H           0.58214126111558     -2.14581854067801     -0.00015767613729
| 34> H          -1.95219098160703     -2.14891564728239     -0.00019689226262
| 35> *
| 36>
| 37>                          ****END OF INPUT****

CARTESIAN COORDINATES (ANGSTROEM)
---------------------------------
  C     -1.380537   -1.218045   -0.000111
  C      0.008807   -1.217615   -0.000090
  C      0.684075   -0.000008    0.000021
  C      0.008819    1.217609    0.000109
  C     -1.380524    1.218059    0.000091
  C     -2.055801    0.000010   -0.000018
  F     -3.380487    0.000018   -0.000035
  H     -1.952166    2.148938    0.000162
  H      0.582165    2.145809    0.000188
  N      2.150122   -0.000021    0.000042
  O      2.706601   -1.075347   -0.000067
  O      2.706596    1.075324   -0.000024
  H      0.582141   -2.145819   -0.000158
  H     -1.952191   -2.148916   -0.000197

 Total Charge           Charge          ....    0
 Multiplicity           Mult            ....    1
 Number of Electrons    NEL             ....   72
 Basis Dimension        Dim             ....  552

ORBITAL ENERGIES
----------------

  NO   OCC          E(Eh)            E(eV)
   0   2.0000     -24.708546      -672.3537
   1   2.0000     -19.157145      -521.2924
   2   2.0000     -19.157135      -521.2921
   3   2.0000     -14.550935      -395.9511
   4   2.0000     -10.268357      -279.4162
   5   2.0000     -10.221987      -278.1544
   6   2.0000     -10.192282      -277.3461
   7   2.0000     -10.192281      -277.3461
   8   2.0000     -10.183484      -277.1067
   9   2.0000     -10.183479      -277.1066
  10   2.0000      -1.263805       -34.3899
  11   2.0000      -1.255840       -34.1731
  12   2.0000      -1.077273       -29.3141
  13   2.0000      -0.895622       -24.3711
  14   2.0000      -0.809565       -22.0294
  15   2.0000      -0.776962       -21.1422
  16   2.0000      -0.701670       -19.0934
  17   2.0000      -0.641568       -17.4580
  18   2.0000      -0.604233       -16.4420
  19   2.0000      -0.564420       -15.3587
  20   2.0000      -0.552087       -15.0230
  21   2.0000      -0.544055       -14.8045
  22   2.0000      -0.526639       -14.3306
  23   2.0000      -0.498085       -13.5536
  24   2.0000      -0.484438       -13.1822
  25   2.0000      -0.454244       -12.3606
  26   2.0000      -0.436367       -11.8742
  27   2.0000      -0.424087       -11.5400
  28   2.0000      -0.410676       -11.1750
  29   2.0000      -0.379501       -10.3267
  30   2.0000      -0.350281        -9.5316
  31   2.0000      -0.322453        -8.7744
  32   2.0000      -0.310820        -8.4578
  33   2.0000      -0.295474        -8.0403
  34   2.0000      -0.277591        -7.5536
  35   2.0000      -0.268319        -7.3013
  36   0.0000      -0.108176        -2.9436
  37   0.0000      -0.047150        -1.2830
  38   0.0000      -0.011380        -0.3097
  39   0.0000       0.010427         0.2837
  40   0.0000       0.024734         0.6730

MULLIKEN ATOMIC CHARGES
-----------------------
   0 C :   -0.612104
   1 C :   -0.401860
   2 C :    0.367442
   3 C :   -0.402763
   4 C :   -0.612564
   5 C :    0.687489
   6 F :   -0.458796
   7 H :    0.365893
   8 H :    0.619190
   9 N :    0.858151
  10 O :   -0.697485
  11 O :   -0.697484
  12 H :    0.619395
  13 H :    0.365498
Sum of atomic charges:   -0.0000000

LOEWDIN ATOMIC CHARGES
----------------------
   0 C :    0.215247
   1 C :    0.200125
   2 C :   -0.242187
   3 C :    0.200122
   4 C :    0.215245
   5 C :   -0.532616
   6 F :    0.563999
   7 H :   -0.160183
   8 H :   -0.183237
   9 N :   -0.759159
  10 O :    0.413037
  11 O :    0.413028
  12 H :   -0.183235
  13 H :   -0.160186

  Mayer bond orders larger than 0.100000
B(  0-C ,  1-C ) :   1.2540 B(  0-C ,  2-C ) :  -0.3796 B(  0-C ,  4-C ) :   0.1524
B(  0-C ,  5-C ) :   1.2886 B(  0-C ,  6-F ) :   0.1820 B(  0-C , 13-H ) :   0.6835
B(  1-C ,  2-C ) :   0.8919 B(  1-C ,  3-C ) :   0.1264 B(  1-C ,  9-N ) :  -0.2302
B(  1-C , 12-H ) :   0.2511 B(  2-C ,  3-C ) :   0.8924 B(  2-C ,  4-C ) :  -0.3798
B(  2-C ,  9-N ) :   1.1391 B(  2-C , 10-O ) :   0.3681 B(  2-C , 11-O ) :   0.3685
B(  3-C ,  4-C ) :   1.2547 B(  3-C ,  8-H ) :   0.2512 B(  3-C ,  9-N ) :  -0.2289
B(  4-C ,  5-C ) :   1.2885 B(  4-C ,  6-F ) :   0.1833 B(  4-C ,  7-H ) :   0.6833
B(  5-C ,  6-F ) :   0.1992 B(  6-F ,  7-H ) :   0.1408 B(  6-F , 13-H ) :   0.1411
B(  9-N , 10-O ) :   0.9382 B(  9-N , 11-O ) :   0.9385 B( 10-O , 11-O ) :   0.1760

Dispersion correction           -0.004403626
FINAL SINGLE POINT ENERGY      -535.912639464876

DIPOLE MOMENT
-------------

Method             : SCF
Type of density    : Electron Density
Multiplicity       :   1
Irrep              :   0
Energy             :  -535.9082358390271565 Eh
Relativity type    :
Basis              : AO
                                X                 Y                 Z
Electronic contribution:     -2.328457969      -0.000032114       0.000135182
Nuclear contribution   :      0.647078379      -0.000000805       0.000058033
                        -----------------------------------------
Total Dipole Moment    :     -1.681379590      -0.000032919       0.000193215
                        -----------------------------------------
Magnitude (a.u.)       :      1.681379602
Magnitude (Debye)      :      4.273727309

Rotational constants in cm-1:             0.132896             0.026895             0.022368
Rotational constants in MHz :          3984.136470           806.287592           670.579423

                             ****ORCA TERMINATED NORMALLY****
TOTAL RUN TIME: 0 days 0 hours 3 minutes 19 seconds 544 msec
