                         Program Version 6.0.0  -   RELEASE  -
|  1> !r2SCANh aug-cc-pVTZ d3 TightSCF SlowConv RIJCOSX defgrid2
|  2>
|  3> %pal
|  4> nprocs 4
|  5> end
|  6>
|  7> %scf
|  8> MaxIter 1500
|  9> end
| 10>
| 11> %maxcore 3000
| 12>
| 13> !CPCM
| 14> %cpcm smd true
| 15> SMDsolvent "MeCN"
| 16> surfacetype gepol_ses
| 17> rsolv 2.19
| 18> end
| 19>
| 20> * xyz 0 1
| 21> C           1.90204149518375      0.85175069124874      0.29746003083239
| 22> C           1.67806327505735     -0.18007693267996     -0.61991983305632
| 23> C           2.67766384874709     -1.10217971745057     -0.88998783092066
| 24> C           3.91971539346518     -1.02243656774625     -0.24487905563433
| 25> C           4.14595550737713      0.01017707113018      0.67131493503817
| 26> C           3.14165845010563      0.94339092100850      0.92991610789907
| 27> H           3.33764385584375      1.75629242798997      1.63640783818954
| 28> H           5.10426353496277      0.11113790522407      1.18399893458188
| 29> O           4.82437427008133     -1.96808561528419     -0.57026671296603
| 30> C           6.08212467193582     -1.93604150499656      0.03937910976531
| 31> H           6.00811550930605     -2.04413775152094      1.13899316949653
| 32> H           6.62762267171733     -1.00092757885139     -0.19326138302289
| 33> H           6.64748938028465     -2.78866496010233     -0.36556594059567
| 34> H           2.51725803302919     -1.91024479956558     -1.60812631160203
| 35> H           0.71655401167501     -0.25011710230323     -1.13625291311173
| 36> S           0.67299496253335      2.05264998729490      0.77228191902236
| 37> S          -0.67289432342165      2.05290943519487     -0.77138488347598
| 38> C          -1.90204031262548      0.85198738280173     -0.29688616793200
| 39> C          -1.67813191920431     -0.18013245127198      0.62018473712761
| 40> C          -2.67779582841691     -1.10225027982985      0.88996766430274
| 41> C          -3.91983449465123     -1.02224023963496      0.24486384046698
| 42> C          -4.14600620480715      0.01066778938885     -0.67101420394572
| 43> C          -3.14164941952594      0.94389970179356     -0.92931828009062
| 44> H          -3.33757462896756      1.75703373795364     -1.63555895862120
| 45> H          -5.10430366539882      0.11184879268910     -1.18367603270811
| 46> O          -4.82454925075659     -1.96793934833253      0.56994794546651
| 47> C          -6.08228086565604     -1.93565869569194     -0.03972588010912
| 48> H          -6.00824247611482     -2.04342740943553     -1.13936995580242
| 49> H          -6.64769241955313     -2.78837951769747      0.36494669506615
| 50> H          -6.62774680598541     -1.00059156129990      0.19317765994923
| 51> H          -2.51744986321001     -1.91054439699301      1.60786208700731
| 52> H          -0.71663329301036     -0.25039391302994      1.13650706938306
| 53> *
| 54>
| 55>                          ****END OF INPUT****

CARTESIAN COORDINATES (ANGSTROEM)
---------------------------------
  C      1.902041    0.851751    0.297460
  C      1.678063   -0.180077   -0.619920
  C      2.677664   -1.102180   -0.889988
  C      3.919715   -1.022437   -0.244879
  C      4.145956    0.010177    0.671315
  C      3.141658    0.943391    0.929916
  H      3.337644    1.756292    1.636408
  H      5.104264    0.111138    1.183999
  O      4.824374   -1.968086   -0.570267
  C      6.082125   -1.936042    0.039379
  H      6.008116   -2.044138    1.138993
  H      6.627623   -1.000928   -0.193261
  H      6.647489   -2.788665   -0.365566
  H      2.517258   -1.910245   -1.608126
  H      0.716554   -0.250117   -1.136253
  S      0.672995    2.052650    0.772282
  S     -0.672894    2.052909   -0.771385
  C     -1.902040    0.851987   -0.296886
  C     -1.678132   -0.180132    0.620185
  C     -2.677796   -1.102250    0.889968
  C     -3.919834   -1.022240    0.244864
  C     -4.146006    0.010668   -0.671014
  C     -3.141649    0.943900   -0.929318
  H     -3.337575    1.757034   -1.635559
  H     -5.104304    0.111849   -1.183676
  O     -4.824549   -1.967939    0.569948
  C     -6.082281   -1.935659   -0.039726
  H     -6.008242   -2.043427   -1.139370
  H     -6.647692   -2.788380    0.364947
  H     -6.627747   -1.000592    0.193178
  H     -2.517450   -1.910544    1.607862
  H     -0.716633   -0.250394    1.136507

 Total Charge           Charge          ....    0
 Multiplicity           Mult            ....    1
 Number of Electrons    NEL             ....  146
 Basis Dimension        Dim             .... 1158

ORBITAL ENERGIES
----------------

  NO   OCC          E(Eh)            E(eV)
   0   2.0000     -88.936576     -2420.0873
   1   2.0000     -88.936575     -2420.0872
   2   2.0000     -19.154886      -521.2309
   3   2.0000     -19.154885      -521.2309
   4   2.0000     -10.225024      -278.2371
   5   2.0000     -10.225023      -278.2370
   6   2.0000     -10.199087      -277.5313
   7   2.0000     -10.199087      -277.5313
   8   2.0000     -10.195499      -277.4336
   9   2.0000     -10.195498      -277.4336
  10   2.0000     -10.172103      -276.7970
  11   2.0000     -10.172102      -276.7970
  12   2.0000     -10.170903      -276.7643
  13   2.0000     -10.170902      -276.7643
  14   2.0000     -10.164645      -276.5940
  15   2.0000     -10.164644      -276.5940
  16   2.0000     -10.163567      -276.5647
  17   2.0000     -10.163567      -276.5647
  18   2.0000      -7.998576      -217.6523
  19   2.0000      -7.998508      -217.6505
  20   2.0000      -5.921130      -161.1221
  21   2.0000      -5.920859      -161.1148
  22   2.0000      -5.916619      -160.9994
  23   2.0000      -5.916577      -160.9982
  24   2.0000      -5.911372      -160.8566
  25   2.0000      -5.911372      -160.8566
  26   2.0000      -1.083869       -29.4936
  27   2.0000      -1.083868       -29.4936
  28   2.0000      -0.876507       -23.8510
  29   2.0000      -0.867693       -23.6111
  30   2.0000      -0.818368       -22.2689
  31   2.0000      -0.777319       -21.1519
  32   2.0000      -0.758946       -20.6520
  33   2.0000      -0.754541       -20.5321
  34   2.0000      -0.740600       -20.1528
  35   2.0000      -0.707864       -19.2620
  36   2.0000      -0.684075       -18.6146
  37   2.0000      -0.641437       -17.4544
  38   2.0000      -0.616608       -16.7788
  39   2.0000      -0.613175       -16.6853
  40   2.0000      -0.584627       -15.9085
  41   2.0000      -0.566654       -15.4194
  42   2.0000      -0.531825       -14.4717
  43   2.0000      -0.527764       -14.3612
  44   2.0000      -0.491252       -13.3677
  45   2.0000      -0.481203       -13.0942
  46   2.0000      -0.473173       -12.8757
  47   2.0000      -0.460508       -12.5310
  48   2.0000      -0.460460       -12.5297
  49   2.0000      -0.446755       -12.1568
  50   2.0000      -0.442530       -12.0418
  51   2.0000      -0.437643       -11.9089
  52   2.0000      -0.417303       -11.3554
  53   2.0000      -0.416849       -11.3430
  54   2.0000      -0.411109       -11.1868
  55   2.0000      -0.403878       -10.9901
  56   2.0000      -0.387449       -10.5430
  57   2.0000      -0.384849       -10.4723
  58   2.0000      -0.373064       -10.1516
  59   2.0000      -0.359217        -9.7748
  60   2.0000      -0.351593        -9.5673
  61   2.0000      -0.350489        -9.5373
  62   2.0000      -0.333338        -9.0706
  63   2.0000      -0.328675        -8.9437
  64   2.0000      -0.328589        -8.9414
  65   2.0000      -0.317143        -8.6299
  66   2.0000      -0.316435        -8.6106
  67   2.0000      -0.270450        -7.3593
  68   2.0000      -0.269770        -7.3408
  69   2.0000      -0.262747        -7.1497
  70   2.0000      -0.259282        -7.0554
  71   2.0000      -0.211121        -5.7449
  72   2.0000      -0.203430        -5.5356
  73   0.0000      -0.048412        -1.3174
  74   0.0000      -0.037617        -1.0236
  75   0.0000      -0.029456        -0.8015
  76   0.0000      -0.021033        -0.5723
  77   0.0000      -0.008685        -0.2363

MULLIKEN ATOMIC CHARGES
-----------------------
   0 C :    1.206659
   1 C :   -0.197611
   2 C :   -1.369001
   3 C :    1.186404
   4 C :   -0.145840
   5 C :   -1.212741
   6 H :    0.343724
   7 H :    0.347620
   8 O :   -0.663924
   9 C :   -0.698963
  10 H :    0.283507
  11 H :    0.278908
  12 H :    0.225274
  13 H :    0.381775
  14 H :    0.442989
  15 S :   -0.408396
  16 S :   -0.407685
  17 C :    1.205332
  18 C :   -0.194278
  19 C :   -1.364740
  20 C :    1.187651
  21 C :   -0.148387
  22 C :   -1.215089
  23 H :    0.346480
  24 H :    0.344665
  25 O :   -0.663591
  26 C :   -0.699882
  27 H :    0.284071
  28 H :    0.224531
  29 H :    0.279577
  30 H :    0.381151
  31 H :    0.439810
Sum of atomic charges:   -0.0000000

LOEWDIN ATOMIC CHARGES
----------------------
   0 C :   -0.597003
   1 C :    0.084647
   2 C :    0.199915
   3 C :   -0.405052
   4 C :    0.197681
   5 C :    0.093695
   6 H :   -0.185206
   7 H :   -0.187131
   8 O :    0.588865
   9 C :    0.323163
  10 H :   -0.159954
  11 H :   -0.159906
  12 H :   -0.168822
  13 H :   -0.167990
  14 H :   -0.232370
  15 S :    0.775465
  16 S :    0.775470
  17 C :   -0.597006
  18 C :    0.084651
  19 C :    0.199919
  20 C :   -0.405052
  21 C :    0.197679
  22 C :    0.093688
  23 H :   -0.185207
  24 H :   -0.187132
  25 O :    0.588867
  26 C :    0.323163
  27 H :   -0.159952
  28 H :   -0.168824
  29 H :   -0.159907
  30 H :   -0.167989
  31 H :   -0.232364

  Mayer bond orders larger than 0.100000
B(  0-C ,  1-C ) :   0.6394 B(  0-C ,  4-C ) :   0.1310 B(  0-C ,  5-C ) :   0.7045
B(  0-C , 15-S ) :   0.4237 B(  0-C , 17-C ) :   0.1472 B(  1-C ,  2-C ) :   0.6012
B(  1-C ,  4-C ) :  -0.2438 B(  1-C ,  5-C ) :  -0.2119 B(  1-C ,  8-O ) :   0.1267
B(  1-C , 14-H ) :   0.6671 B(  1-C , 22-C ) :   0.1010 B(  2-C ,  3-C ) :   0.7136
B(  2-C ,  4-C ) :   0.1780 B(  2-C ,  5-C ) :   0.1326 B(  2-C ,  8-O ) :   0.2727
B(  2-C , 13-H ) :   0.6821 B(  2-C , 14-H ) :  -0.1338 B(  3-C ,  4-C ) :   0.8554
B(  3-C ,  5-C ) :  -0.1097 B(  3-C ,  7-H ) :   0.1184 B(  3-C ,  8-O ) :   0.2661
B(  4-C ,  5-C ) :   0.8377 B(  4-C ,  7-H ) :   0.6645 B(  4-C ,  8-O ) :  -0.2323
B(  4-C ,  9-C ) :  -0.1532 B(  5-C ,  6-H ) :   0.6877 B(  5-C , 18-C ) :   0.1003
B(  7-H ,  9-C ) :  -0.1213 B(  8-O ,  9-C ) :   1.0261 B(  9-C , 10-H ) :   0.9018
B(  9-C , 11-H ) :   0.9067 B(  9-C , 12-H ) :   1.0011 B( 15-S , 16-S ) :   1.0165
B( 16-S , 17-C ) :   0.4274 B( 17-C , 18-C ) :   0.6448 B( 17-C , 21-C ) :   0.1244
B( 17-C , 22-C ) :   0.7025 B( 18-C , 19-C ) :   0.6002 B( 18-C , 21-C ) :  -0.2427
B( 18-C , 22-C ) :  -0.2139 B( 18-C , 25-O ) :   0.1254 B( 18-C , 31-H ) :   0.6687
B( 19-C , 20-C ) :   0.7128 B( 19-C , 21-C ) :   0.1785 B( 19-C , 22-C ) :   0.1301
B( 19-C , 25-O ) :   0.2689 B( 19-C , 30-H ) :   0.6820 B( 19-C , 31-H ) :  -0.1341
B( 20-C , 21-C ) :   0.8563 B( 20-C , 22-C ) :  -0.1076 B( 20-C , 24-H ) :   0.1167
B( 20-C , 25-O ) :   0.2652 B( 21-C , 22-C ) :   0.8389 B( 21-C , 24-H ) :   0.6670
B( 21-C , 25-O ) :  -0.2299 B( 21-C , 26-C ) :  -0.1535 B( 22-C , 23-H ) :   0.6828
B( 24-H , 26-C ) :  -0.1198 B( 25-O , 26-C ) :   1.0260 B( 26-C , 27-H ) :   0.9012
B( 26-C , 28-H ) :   1.0023 B( 26-C , 29-H ) :   0.9057

Dispersion correction           -0.014067144
FINAL SINGLE POINT ENERGY     -1488.574503305661

DIPOLE MOMENT
-------------

Method             : SCF
Type of density    : Electron Density
Multiplicity       :   1
Irrep              :   0
Energy             : -1488.5604361612265620 Eh
Relativity type    :
Basis              : AO
                                X                 Y                 Z
Electronic contribution:      0.000346116      10.682228103       0.001710920
Nuclear contribution   :     -0.000353672     -11.568109553      -0.001837843
                        -----------------------------------------
Total Dipole Moment    :     -0.000007556      -0.885881450      -0.000126923
                        -----------------------------------------
Magnitude (a.u.)       :      0.885881459
Magnitude (Debye)      :      2.251731722

Rotational constants in cm-1:             0.022512             0.004846             0.004251
Rotational constants in MHz :           674.890480           145.282347           127.443489

                             ****ORCA TERMINATED NORMALLY****
TOTAL RUN TIME: 0 days 0 hours 23 minutes 33 seconds 868 msec
