                         Program Version 6.0.0  -   RELEASE  -
|  1> !B3LYP aug-cc-pVTZ d3 TightSCF SlowConv RIJCOSX defgrid2
|  2>
|  3> %pal
|  4> nprocs 4
|  5> end
|  6>
|  7> %scf
|  8> MaxIter 1500
|  9> end
| 10>
| 11> %maxcore 3000
| 12>
| 13> !CPCM
| 14> %cpcm smd true
| 15> SMDsolvent "MeCN"
| 16> surfacetype gepol_ses
| 17> rsolv 2.19
| 18> end
| 19>
| 20> * xyz 1 2
| 21> C           0.36827679708562      1.12909958561368      0.00001201858489
| 22> C           1.23021186730918     -0.05147463040440     -0.00001068145654
| 23> C           0.32335488869874     -1.13603513764026      0.00001262805170
| 24> N          -0.92044080134995     -0.70993319155687     -0.00001608440871
| 25> N          -0.85103182536878      0.66975840476644     -0.00001794399136
| 26> H          -1.72751346867464      1.19655640497152     -0.00003121087121
| 27> H           0.53889211956751     -2.20626533221750      0.00002437345705
| 28> H           2.32274963721698     -0.05868473826387     -0.00000548893473
| 29> H           0.61922738551534      2.19354113473125      0.00001908956891
| 30> *
| 31>
| 32>                          ****END OF INPUT****

CARTESIAN COORDINATES (ANGSTROEM)
---------------------------------
  C      0.368277    1.129100    0.000012
  C      1.230212   -0.051475   -0.000011
  C      0.323355   -1.136035    0.000013
  N     -0.920441   -0.709933   -0.000016
  N     -0.851032    0.669758   -0.000018
  H     -1.727513    1.196556   -0.000031
  H      0.538892   -2.206265    0.000024
  H      2.322750   -0.058685   -0.000005
  H      0.619227    2.193541    0.000019

 Total Charge           Charge          ....    1
 Multiplicity           Mult            ....    2
 Number of Electrons    NEL             ....   35
 Basis Dimension        Dim             ....  322

ORBITAL ENERGIES
----------------
                 SPIN UP ORBITALS
  NO   OCC          E(Eh)            E(eV)
   0   1.0000     -14.459339      -393.4586
   1   1.0000     -14.420325      -392.3970
   2   1.0000     -10.306853      -280.4637
   3   1.0000     -10.279460      -279.7183
   4   1.0000     -10.253432      -279.0101
   5   1.0000      -1.118995       -30.4494
   6   1.0000      -0.900499       -24.5038
   7   1.0000      -0.847199       -23.0534
   8   1.0000      -0.675817       -18.3899
   9   1.0000      -0.654948       -17.8220
  10   1.0000      -0.605407       -16.4740
  11   1.0000      -0.516983       -14.0678
  12   1.0000      -0.499273       -13.5859
  13   1.0000      -0.493958       -13.4413
  14   1.0000      -0.459591       -12.5061
  15   1.0000      -0.364773        -9.9260
  16   1.0000      -0.345451        -9.4002
  17   1.0000      -0.336170        -9.1477
  18   0.0000      -0.063744        -1.7346
  19   0.0000      -0.017267        -0.4698
  20   0.0000      -0.006389        -0.1739
  21   0.0000       0.012382         0.3369
  22   0.0000       0.015959         0.4343

                 SPIN DOWN ORBITALS
  NO   OCC          E(Eh)            E(eV)
   0   1.0000     -14.458883      -393.4462
   1   1.0000     -14.413596      -392.2139
   2   1.0000     -10.303642      -280.3764
   3   1.0000     -10.270795      -279.4825
   4   1.0000     -10.255601      -279.0691
   5   1.0000      -1.110278       -30.2122
   6   1.0000      -0.894821       -24.3493
   7   1.0000      -0.826260       -22.4837
   8   1.0000      -0.665515       -18.1096
   9   1.0000      -0.652686       -17.7605
  10   1.0000      -0.598944       -16.2981
  11   1.0000      -0.495512       -13.4836
  12   1.0000      -0.489901       -13.3309
  13   1.0000      -0.489823       -13.3288
  14   1.0000      -0.455163       -12.3856
  15   1.0000      -0.356275        -9.6947
  16   1.0000      -0.331669        -9.0252
  17   0.0000      -0.225172        -6.1272
  18   0.0000      -0.032765        -0.8916
  19   0.0000      -0.006131        -0.1668
  20   0.0000       0.011461         0.3119
  21   0.0000       0.012463         0.3391

MULLIKEN ATOMIC CHARGES AND SPIN POPULATIONS
--------------------------------------------
   0 C :   -0.336233    0.212031
   1 C :    0.066506    0.588023
   2 C :   -0.192555   -0.120803
   3 N :   -0.559336    0.310699
   4 N :    0.328902    0.026103
   5 H :    0.164844    0.000736
   6 H :    0.542499    0.002874
   7 H :    0.431180   -0.014602
   8 H :    0.554195   -0.005061
Sum of atomic charges         :    1.0000000

LOEWDIN ATOMIC CHARGES AND SPIN POPULATIONS
-------------------------------------------
   0 C :    0.277503    0.204859
   1 C :    0.366056    0.332294
   2 C :    0.077836    0.072865
   3 N :    0.374294    0.212701
   4 N :    0.427723    0.093302
   5 H :   -0.174918    0.004504
   6 H :   -0.148037   -0.011107
   7 H :   -0.114287    0.065269
   8 H :   -0.086170    0.025312

  Mayer bond orders larger than 0.100000
B(  0-C ,  1-C ) :   0.8531 B(  0-C ,  4-N ) :   1.5501 B(  0-C ,  8-H ) :   0.5974
B(  1-C ,  2-C ) :   0.9552 B(  1-C ,  7-H ) :   0.8027 B(  2-C ,  3-N ) :   1.4412
B(  2-C ,  6-H ) :   0.6334 B(  3-N ,  4-N ) :   0.3300 B(  4-N ,  5-H ) :   1.0490

Dispersion correction           -0.011533814
FINAL SINGLE POINT ENERGY      -225.939008675559

DIPOLE MOMENT
-------------

Method             : SCF
Type of density    : Electron Density
Multiplicity       :   2
Irrep              :   0
Energy             :  -225.9274748619564264 Eh
Relativity type    :
Basis              : AO
                                X                 Y                 Z
Electronic contribution:     -0.703167709       0.391295069       0.001025615
Nuclear contribution   :      1.633121789       1.062560564       0.000022858
                        -----------------------------------------
Total Dipole Moment    :      0.929954080       1.453855633       0.001048473
                        -----------------------------------------
Magnitude (a.u.)       :      1.725836578
Magnitude (Debye)      :      4.386727961

Rotational constants in cm-1:             0.324934             0.302591             0.156683
Rotational constants in MHz :          9741.285807          9071.463346          4697.225081

                             ****ORCA TERMINATED NORMALLY****
TOTAL RUN TIME: 0 days 0 hours 1 minutes 40 seconds 523 msec
