                         Program Version 6.0.0  -   RELEASE  -
|  1> !r2SCAN aug-cc-pVTZ d3 TightSCF SlowConv RIJCOSX defgrid2
|  2>
|  3> %pal
|  4> nprocs 4
|  5> end
|  6>
|  7> %scf
|  8> MaxIter 1500
|  9> end
| 10>
| 11> %maxcore 3000
| 12>
| 13> !CPCM
| 14> %cpcm smd true
| 15> SMDsolvent "MeCN"
| 16> surfacetype gepol_ses
| 17> rsolv 2.19
| 18> end
| 19>
| 20> * xyz 0 1
| 21> C           1.90204149518375      0.85175069124874      0.29746003083239
| 22> C           1.67806327505735     -0.18007693267996     -0.61991983305632
| 23> C           2.67766384874709     -1.10217971745057     -0.88998783092066
| 24> C           3.91971539346518     -1.02243656774625     -0.24487905563433
| 25> C           4.14595550737713      0.01017707113018      0.67131493503817
| 26> C           3.14165845010563      0.94339092100850      0.92991610789907
| 27> H           3.33764385584375      1.75629242798997      1.63640783818954
| 28> H           5.10426353496277      0.11113790522407      1.18399893458188
| 29> O           4.82437427008133     -1.96808561528419     -0.57026671296603
| 30> C           6.08212467193582     -1.93604150499656      0.03937910976531
| 31> H           6.00811550930605     -2.04413775152094      1.13899316949653
| 32> H           6.62762267171733     -1.00092757885139     -0.19326138302289
| 33> H           6.64748938028465     -2.78866496010233     -0.36556594059567
| 34> H           2.51725803302919     -1.91024479956558     -1.60812631160203
| 35> H           0.71655401167501     -0.25011710230323     -1.13625291311173
| 36> S           0.67299496253335      2.05264998729490      0.77228191902236
| 37> S          -0.67289432342165      2.05290943519487     -0.77138488347598
| 38> C          -1.90204031262548      0.85198738280173     -0.29688616793200
| 39> C          -1.67813191920431     -0.18013245127198      0.62018473712761
| 40> C          -2.67779582841691     -1.10225027982985      0.88996766430274
| 41> C          -3.91983449465123     -1.02224023963496      0.24486384046698
| 42> C          -4.14600620480715      0.01066778938885     -0.67101420394572
| 43> C          -3.14164941952594      0.94389970179356     -0.92931828009062
| 44> H          -3.33757462896756      1.75703373795364     -1.63555895862120
| 45> H          -5.10430366539882      0.11184879268910     -1.18367603270811
| 46> O          -4.82454925075659     -1.96793934833253      0.56994794546651
| 47> C          -6.08228086565604     -1.93565869569194     -0.03972588010912
| 48> H          -6.00824247611482     -2.04342740943553     -1.13936995580242
| 49> H          -6.64769241955313     -2.78837951769747      0.36494669506615
| 50> H          -6.62774680598541     -1.00059156129990      0.19317765994923
| 51> H          -2.51744986321001     -1.91054439699301      1.60786208700731
| 52> H          -0.71663329301036     -0.25039391302994      1.13650706938306
| 53> *
| 54>
| 55>                          ****END OF INPUT****

CARTESIAN COORDINATES (ANGSTROEM)
---------------------------------
  C      1.902041    0.851751    0.297460
  C      1.678063   -0.180077   -0.619920
  C      2.677664   -1.102180   -0.889988
  C      3.919715   -1.022437   -0.244879
  C      4.145956    0.010177    0.671315
  C      3.141658    0.943391    0.929916
  H      3.337644    1.756292    1.636408
  H      5.104264    0.111138    1.183999
  O      4.824374   -1.968086   -0.570267
  C      6.082125   -1.936042    0.039379
  H      6.008116   -2.044138    1.138993
  H      6.627623   -1.000928   -0.193261
  H      6.647489   -2.788665   -0.365566
  H      2.517258   -1.910245   -1.608126
  H      0.716554   -0.250117   -1.136253
  S      0.672995    2.052650    0.772282
  S     -0.672894    2.052909   -0.771385
  C     -1.902040    0.851987   -0.296886
  C     -1.678132   -0.180132    0.620185
  C     -2.677796   -1.102250    0.889968
  C     -3.919834   -1.022240    0.244864
  C     -4.146006    0.010668   -0.671014
  C     -3.141649    0.943900   -0.929318
  H     -3.337575    1.757034   -1.635559
  H     -5.104304    0.111849   -1.183676
  O     -4.824549   -1.967939    0.569948
  C     -6.082281   -1.935659   -0.039726
  H     -6.008242   -2.043427   -1.139370
  H     -6.647692   -2.788380    0.364947
  H     -6.627747   -1.000592    0.193178
  H     -2.517450   -1.910544    1.607862
  H     -0.716633   -0.250394    1.136507

 Total Charge           Charge          ....    0
 Multiplicity           Mult            ....    1
 Number of Electrons    NEL             ....  146
 Basis Dimension        Dim             .... 1158

ORBITAL ENERGIES
----------------

  NO   OCC          E(Eh)            E(eV)
   0   2.0000     -88.596116     -2410.8229
   1   2.0000     -88.596115     -2410.8228
   2   2.0000     -18.994139      -516.8568
   3   2.0000     -18.994138      -516.8568
   4   2.0000     -10.103291      -274.9245
   5   2.0000     -10.103290      -274.9245
   6   2.0000     -10.079128      -274.2670
   7   2.0000     -10.079127      -274.2670
   8   2.0000     -10.074131      -274.1311
   9   2.0000     -10.074130      -274.1310
  10   2.0000     -10.051011      -273.5019
  11   2.0000     -10.051011      -273.5019
  12   2.0000     -10.049778      -273.4684
  13   2.0000     -10.049778      -273.4684
  14   2.0000     -10.043863      -273.3074
  15   2.0000     -10.043863      -273.3074
  16   2.0000     -10.042877      -273.2806
  17   2.0000     -10.042877      -273.2806
  18   2.0000      -7.886407      -214.6001
  19   2.0000      -7.886355      -214.5986
  20   2.0000      -5.834023      -158.7518
  21   2.0000      -5.833761      -158.7447
  22   2.0000      -5.829264      -158.6223
  23   2.0000      -5.829223      -158.6212
  24   2.0000      -5.823596      -158.4681
  25   2.0000      -5.823595      -158.4681
  26   2.0000      -1.044248       -28.4154
  27   2.0000      -1.044248       -28.4154
  28   2.0000      -0.841466       -22.8975
  29   2.0000      -0.832538       -22.6545
  30   2.0000      -0.785745       -21.3812
  31   2.0000      -0.745177       -20.2773
  32   2.0000      -0.726677       -19.7739
  33   2.0000      -0.722197       -19.6520
  34   2.0000      -0.709622       -19.3098
  35   2.0000      -0.678121       -18.4526
  36   2.0000      -0.654415       -17.8075
  37   2.0000      -0.613108       -16.6835
  38   2.0000      -0.588561       -16.0156
  39   2.0000      -0.585187       -15.9237
  40   2.0000      -0.557703       -15.1759
  41   2.0000      -0.540320       -14.7028
  42   2.0000      -0.507270       -13.8035
  43   2.0000      -0.503365       -13.6973
  44   2.0000      -0.467806       -12.7297
  45   2.0000      -0.456645       -12.4260
  46   2.0000      -0.450150       -12.2492
  47   2.0000      -0.435968       -11.8633
  48   2.0000      -0.435914       -11.8618
  49   2.0000      -0.424286       -11.5454
  50   2.0000      -0.419486       -11.4148
  51   2.0000      -0.414947       -11.2913
  52   2.0000      -0.395059       -10.7501
  53   2.0000      -0.394600       -10.7376
  54   2.0000      -0.389004       -10.5853
  55   2.0000      -0.381760       -10.3882
  56   2.0000      -0.367028        -9.9873
  57   2.0000      -0.364221        -9.9109
  58   2.0000      -0.353386        -9.6161
  59   2.0000      -0.339458        -9.2371
  60   2.0000      -0.331178        -9.0118
  61   2.0000      -0.329954        -8.9785
  62   2.0000      -0.315098        -8.5743
  63   2.0000      -0.309154        -8.4125
  64   2.0000      -0.309087        -8.4107
  65   2.0000      -0.296120        -8.0578
  66   2.0000      -0.295594        -8.0435
  67   2.0000      -0.252816        -6.8795
  68   2.0000      -0.252371        -6.8674
  69   2.0000      -0.247856        -6.7445
  70   2.0000      -0.244507        -6.6534
  71   2.0000      -0.196984        -5.3602
  72   2.0000      -0.189614        -5.1596
  73   0.0000      -0.060608        -1.6492
  74   0.0000      -0.049018        -1.3339
  75   0.0000      -0.041294        -1.1237
  76   0.0000      -0.032094        -0.8733
  77   0.0000      -0.020181        -0.5492

MULLIKEN ATOMIC CHARGES
-----------------------
   0 C :    1.240799
   1 C :   -0.188936
   2 C :   -1.372416
   3 C :    1.186711
   4 C :   -0.152160
   5 C :   -1.210376
   6 H :    0.329854
   7 H :    0.330687
   8 O :   -0.650441
   9 C :   -0.654786
  10 H :    0.267303
  11 H :    0.263006
  12 H :    0.204842
  13 H :    0.380686
  14 H :    0.423727
  15 S :   -0.398502
  16 S :   -0.398517
  17 C :    1.240744
  18 C :   -0.188897
  19 C :   -1.372458
  20 C :    1.186719
  21 C :   -0.152063
  22 C :   -1.210325
  23 H :    0.329833
  24 H :    0.330702
  25 O :   -0.650441
  26 C :   -0.654790
  27 H :    0.267306
  28 H :    0.204851
  29 H :    0.263002
  30 H :    0.380674
  31 H :    0.423663
Sum of atomic charges:   -0.0000000

LOEWDIN ATOMIC CHARGES
----------------------
   0 C :   -0.597191
   1 C :    0.084672
   2 C :    0.199399
   3 C :   -0.404785
   4 C :    0.197199
   5 C :    0.093324
   6 H :   -0.186119
   7 H :   -0.187727
   8 O :    0.592719
   9 C :    0.324196
  10 H :   -0.160428
  11 H :   -0.160387
  12 H :   -0.169233
  13 H :   -0.168662
  14 H :   -0.232780
  15 S :    0.775800
  16 S :    0.775801
  17 C :   -0.597192
  18 C :    0.084676
  19 C :    0.199401
  20 C :   -0.404786
  21 C :    0.197198
  22 C :    0.093321
  23 H :   -0.186121
  24 H :   -0.187726
  25 O :    0.592719
  26 C :    0.324197
  27 H :   -0.160426
  28 H :   -0.169234
  29 H :   -0.160388
  30 H :   -0.168662
  31 H :   -0.232775

  Mayer bond orders larger than 0.100000
B(  0-C ,  1-C ) :   0.6053 B(  0-C ,  2-C ) :  -0.1146 B(  0-C ,  4-C ) :   0.1283
B(  0-C ,  5-C ) :   0.6359 B(  0-C , 15-S ) :   0.3917 B(  0-C , 17-C ) :   0.1613
B(  1-C ,  2-C ) :   0.5763 B(  1-C ,  4-C ) :  -0.2523 B(  1-C ,  5-C ) :  -0.2310
B(  1-C ,  8-O ) :   0.1174 B(  1-C , 13-H ) :   0.1026 B(  1-C , 14-H ) :   0.6362
B(  2-C ,  3-C ) :   0.7102 B(  2-C ,  4-C ) :   0.2046 B(  2-C ,  5-C ) :   0.1147
B(  2-C ,  8-O ) :   0.2873 B(  2-C , 13-H ) :   0.6405 B(  2-C , 14-H ) :  -0.1268
B(  3-C ,  4-C ) :   0.8401 B(  3-C ,  5-C ) :  -0.1198 B(  3-C ,  7-H ) :   0.1245
B(  3-C ,  8-O ) :   0.2307 B(  4-C ,  5-C ) :   0.7939 B(  4-C ,  7-H ) :   0.6336
B(  4-C ,  8-O ) :  -0.1931 B(  4-C ,  9-C ) :  -0.1329 B(  5-C ,  6-H ) :   0.6703
B(  7-H ,  9-C ) :  -0.1214 B(  8-O ,  9-C ) :   1.0145 B(  9-C , 10-H ) :   0.9068
B(  9-C , 11-H ) :   0.9108 B(  9-C , 12-H ) :   1.0087 B( 15-S , 16-S ) :   0.9954
B( 16-S , 17-C ) :   0.3918 B( 17-C , 18-C ) :   0.6052 B( 17-C , 19-C ) :  -0.1147
B( 17-C , 21-C ) :   0.1283 B( 17-C , 22-C ) :   0.6360 B( 18-C , 19-C ) :   0.5763
B( 18-C , 21-C ) :  -0.2524 B( 18-C , 22-C ) :  -0.2310 B( 18-C , 25-O ) :   0.1174
B( 18-C , 30-H ) :   0.1025 B( 18-C , 31-H ) :   0.6362 B( 19-C , 20-C ) :   0.7103
B( 19-C , 21-C ) :   0.2046 B( 19-C , 22-C ) :   0.1147 B( 19-C , 25-O ) :   0.2873
B( 19-C , 30-H ) :   0.6405 B( 19-C , 31-H ) :  -0.1268 B( 20-C , 21-C ) :   0.8401
B( 20-C , 22-C ) :  -0.1198 B( 20-C , 24-H ) :   0.1245 B( 20-C , 25-O ) :   0.2307
B( 21-C , 22-C ) :   0.7939 B( 21-C , 24-H ) :   0.6336 B( 21-C , 25-O ) :  -0.1932
B( 21-C , 26-C ) :  -0.1329 B( 22-C , 23-H ) :   0.6703 B( 24-H , 26-C ) :  -0.1214
B( 25-O , 26-C ) :   1.0145 B( 26-C , 27-H ) :   0.9068 B( 26-C , 28-H ) :   1.0087
B( 26-C , 29-H ) :   0.9108

Dispersion correction           -0.013342453
FINAL SINGLE POINT ENERGY     -1488.614301787254

DIPOLE MOMENT
-------------

Method             : SCF
Type of density    : Electron Density
Multiplicity       :   1
Irrep              :   0
Energy             : -1488.6009593339506409 Eh
Relativity type    :
Basis              : AO
                                X                 Y                 Z
Electronic contribution:      0.000345847      10.650294583       0.001707187
Nuclear contribution   :     -0.000353672     -11.568109553      -0.001837843
                        -----------------------------------------
Total Dipole Moment    :     -0.000007825      -0.917814970      -0.000130656
                        -----------------------------------------
Magnitude (a.u.)       :      0.917814979
Magnitude (Debye)      :      2.332900278

Rotational constants in cm-1:             0.022512             0.004846             0.004251
Rotational constants in MHz :           674.890480           145.282347           127.443489

                             ****ORCA TERMINATED NORMALLY****
TOTAL RUN TIME: 0 days 0 hours 7 minutes 19 seconds 437 msec
