                         Program Version 6.0.0  -   RELEASE  -
|  1> !r2SCAN aug-cc-pVTZ d3 TightSCF SlowConv RIJCOSX defgrid2
|  2>
|  3> %pal
|  4> nprocs 4
|  5> end
|  6>
|  7> %scf
|  8> MaxIter 1500
|  9> end
| 10>
| 11> %maxcore 3000
| 12>
| 13> !CPCM
| 14> %cpcm smd true
| 15> SMDsolvent "MeCN"
| 16> surfacetype gepol_ses
| 17> rsolv 2.19
| 18> end
| 19>
| 20> * xyz 1 2
| 21> C           2.44830417164420     -0.69527642473796      0.00000945881878
| 22> C           2.44832214826430      0.69521603339414      0.00001009734484
| 23> C           1.23352505326865      1.40025135317577      0.00000577718412
| 24> C           0.00001141556131      0.71453178803145      0.00000268426234
| 25> C          -1.23348320904465      1.40028329659239      0.00000107782236
| 26> C          -2.44830108548662      0.69527938835391      0.00000695148737
| 27> C          -2.44832067103510     -0.69521530453956      0.00000530486429
| 28> C          -1.23352061718470     -1.40025032772324     -0.00000393184308
| 29> C          -0.00000717114678     -0.71452684352053     -0.00000494703196
| 30> C           1.23348727294566     -1.40028215170085     -0.00000132918117
| 31> H           1.23935708532449     -2.49454817867840      0.00000050523970
| 32> H          -1.23942268133971     -2.49451730914708     -0.00000545360366
| 33> H          -3.39340211959580     -1.24489598698530      0.00000832828244
| 34> H          -3.39336678788360      1.24498332942293      0.00000859404642
| 35> H          -1.23935478912557      2.49455128204595      0.00000167009943
| 36> H           1.23942795953164      2.49451607920762      0.00000299068588
| 37> H           3.39340268697296      1.24489500413589      0.00001313139295
| 38> H           3.39337233832933     -1.24497302732713      0.00001569012894
| 39> *
| 40>
| 41>                          ****END OF INPUT****

CARTESIAN COORDINATES (ANGSTROEM)
---------------------------------
  C      2.448304   -0.695276    0.000009
  C      2.448322    0.695216    0.000010
  C      1.233525    1.400251    0.000006
  C      0.000011    0.714532    0.000003
  C     -1.233483    1.400283    0.000001
  C     -2.448301    0.695279    0.000007
  C     -2.448321   -0.695215    0.000005
  C     -1.233521   -1.400250   -0.000004
  C     -0.000007   -0.714527   -0.000005
  C      1.233487   -1.400282   -0.000001
  H      1.239357   -2.494548    0.000001
  H     -1.239423   -2.494517   -0.000005
  H     -3.393402   -1.244896    0.000008
  H     -3.393367    1.244983    0.000009
  H     -1.239355    2.494551    0.000002
  H      1.239428    2.494516    0.000003
  H      3.393403    1.244895    0.000013
  H      3.393372   -1.244973    0.000016

 Total Charge           Charge          ....    1
 Multiplicity           Mult            ....    2
 Number of Electrons    NEL             ....   67
 Basis Dimension        Dim             ....  644

ORBITAL ENERGIES
----------------
                 SPIN UP ORBITALS
  NO   OCC          E(Eh)            E(eV)
   0   1.0000     -10.098490      -274.7939
   1   1.0000     -10.098474      -274.7935
   2   1.0000     -10.098469      -274.7933
   3   1.0000     -10.098457      -274.7930
   4   1.0000     -10.087740      -274.5014
   5   1.0000     -10.087412      -274.4924
   6   1.0000     -10.083672      -274.3907
   7   1.0000     -10.083669      -274.3906
   8   1.0000     -10.083211      -274.3781
   9   1.0000     -10.083201      -274.3778
  10   1.0000      -0.884938       -24.0804
  11   1.0000      -0.830875       -22.6093
  12   1.0000      -0.785532       -21.3754
  13   1.0000      -0.749614       -20.3980
  14   1.0000      -0.727381       -19.7930
  15   1.0000      -0.636652       -17.3242
  16   1.0000      -0.614935       -16.7332
  17   1.0000      -0.601077       -16.3561
  18   1.0000      -0.514745       -14.0069
  19   1.0000      -0.511516       -13.9191
  20   1.0000      -0.496316       -13.5054
  21   1.0000      -0.446293       -12.1443
  22   1.0000      -0.444624       -12.0988
  23   1.0000      -0.422716       -11.5027
  24   1.0000      -0.417346       -11.3566
  25   1.0000      -0.412912       -11.2359
  26   1.0000      -0.393836       -10.7168
  27   1.0000      -0.372474       -10.1355
  28   1.0000      -0.352753        -9.5989
  29   1.0000      -0.339614        -9.2414
  30   1.0000      -0.333541        -9.0761
  31   1.0000      -0.318441        -8.6652
  32   1.0000      -0.271179        -7.3792
  33   1.0000      -0.254110        -6.9147
  34   0.0000      -0.125667        -3.4196
  35   0.0000      -0.072936        -1.9847
  36   0.0000      -0.053729        -1.4620
  37   0.0000       0.004772         0.1298
  38   0.0000       0.017298         0.4707

                 SPIN DOWN ORBITALS
  NO   OCC          E(Eh)            E(eV)
   0   1.0000     -10.094076      -274.6738
   1   1.0000     -10.094057      -274.6733
   2   1.0000     -10.094053      -274.6731
   3   1.0000     -10.094037      -274.6727
   4   1.0000     -10.088923      -274.5335
   5   1.0000     -10.088595      -274.5246
   6   1.0000     -10.083033      -274.3733
   7   1.0000     -10.083031      -274.3732
   8   1.0000     -10.082573      -274.3608
   9   1.0000     -10.082563      -274.3605
  10   1.0000      -0.880157       -23.9503
  11   1.0000      -0.823803       -22.4168
  12   1.0000      -0.775527       -21.1032
  13   1.0000      -0.749411       -20.3925
  14   1.0000      -0.713755       -19.4223
  15   1.0000      -0.630459       -17.1557
  16   1.0000      -0.612262       -16.6605
  17   1.0000      -0.595681       -16.2093
  18   1.0000      -0.512613       -13.9489
  19   1.0000      -0.506711       -13.7883
  20   1.0000      -0.494995       -13.4695
  21   1.0000      -0.444628       -12.0989
  22   1.0000      -0.444483       -12.0950
  23   1.0000      -0.421025       -11.4567
  24   1.0000      -0.415332       -11.3017
  25   1.0000      -0.400164       -10.8890
  26   1.0000      -0.391351       -10.6492
  27   1.0000      -0.371760       -10.1161
  28   1.0000      -0.337760        -9.1909
  29   1.0000      -0.334942        -9.1142
  30   1.0000      -0.333012        -9.0617
  31   1.0000      -0.291924        -7.9437
  32   1.0000      -0.270684        -7.3657
  33   0.0000      -0.217067        -5.9067
  34   0.0000      -0.095888        -2.6092
  35   0.0000      -0.068223        -1.8565
  36   0.0000      -0.031100        -0.8463
  37   0.0000       0.006042         0.1644

MULLIKEN ATOMIC CHARGES AND SPIN POPULATIONS
--------------------------------------------
   0 C :   -0.358505    0.015069
   1 C :   -0.358502    0.015063
   2 C :   -1.031435    0.256353
   3 C :    1.895480   -0.090105
   4 C :   -1.031445    0.256359
   5 C :   -0.358488    0.015073
   6 C :   -0.358503    0.015070
   7 C :   -1.031418    0.256360
   8 C :    1.895514   -0.090108
   9 C :   -1.031433    0.256357
  10 H :    0.059932    0.029559
  11 H :    0.059916    0.029560
  12 H :    0.632256   -0.005933
  13 H :    0.632260   -0.005935
  14 H :    0.059921    0.029561
  15 H :    0.059919    0.029566
  16 H :    0.632276   -0.005933
  17 H :    0.632254   -0.005936
Sum of atomic charges         :    1.0000000

LOEWDIN ATOMIC CHARGES AND SPIN POPULATIONS
-------------------------------------------
   0 C :    0.275563    0.070150
   1 C :    0.275562    0.070148
   2 C :    0.296805    0.133227
   3 C :   -0.092909    0.028785
   4 C :    0.296805    0.133227
   5 C :    0.275563    0.070149
   6 C :    0.275563    0.070149
   7 C :    0.296807    0.133227
   8 C :   -0.092907    0.028785
   9 C :    0.296808    0.133227
  10 H :   -0.131606    0.025890
  11 H :   -0.131605    0.025890
  12 H :   -0.144309    0.006341
  13 H :   -0.144311    0.006342
  14 H :   -0.131604    0.025890
  15 H :   -0.131606    0.025890
  16 H :   -0.144309    0.006341
  17 H :   -0.144312    0.006342

  Mayer bond orders larger than 0.100000
B(  0-C ,  1-C ) :   1.0887 B(  0-C ,  3-C ) :  -0.3665 B(  0-C ,  9-C ) :   1.0692
B(  0-C , 17-H ) :   0.2851 B(  1-C ,  2-C ) :   1.0692 B(  1-C ,  8-C ) :  -0.3665
B(  1-C , 16-H ) :   0.2850 B(  2-C ,  3-C ) :  -0.2157 B(  2-C ,  4-C ) :   0.4065
B(  2-C ,  8-C ) :  -0.4201 B(  2-C , 15-H ) :   1.3511 B(  2-C , 16-H ) :  -0.1568
B(  3-C ,  4-C ) :  -0.2157 B(  3-C ,  6-C ) :  -0.3665 B(  3-C ,  7-C ) :  -0.4201
B(  3-C ,  8-C ) :   1.6001 B(  3-C ,  9-C ) :  -0.4201 B(  3-C , 14-H ) :  -0.1281
B(  3-C , 15-H ) :  -0.1281 B(  4-C ,  5-C ) :   1.0692 B(  4-C ,  8-C ) :  -0.4201
B(  4-C , 13-H ) :  -0.1568 B(  4-C , 14-H ) :   1.3511 B(  5-C ,  6-C ) :   1.0887
B(  5-C ,  8-C ) :  -0.3665 B(  5-C , 13-H ) :   0.2851 B(  6-C ,  7-C ) :   1.0692
B(  6-C , 12-H ) :   0.2851 B(  7-C ,  8-C ) :  -0.2157 B(  7-C ,  9-C ) :   0.4064
B(  7-C , 11-H ) :   1.3511 B(  7-C , 12-H ) :  -0.1568 B(  8-C ,  9-C ) :  -0.2157
B(  8-C , 10-H ) :  -0.1281 B(  8-C , 11-H ) :  -0.1281 B(  9-C , 10-H ) :   1.3511
B(  9-C , 17-H ) :  -0.1568

Dispersion correction           -0.006291442
FINAL SINGLE POINT ENERGY      -385.604240218796

DIPOLE MOMENT
-------------

Method             : SCF
Type of density    : Electron Density
Multiplicity       :   2
Irrep              :   0
Energy             :  -385.5979487766155103 Eh
Relativity type    :
Basis              : AO
                                X                 Y                 Z
Electronic contribution:     -0.000000432      -0.000011116      -0.000014745
Nuclear contribution   :     -0.000000135       0.000002239       0.000018059
                        -----------------------------------------
Total Dipole Moment    :     -0.000000567      -0.000008877       0.000003314
                        -----------------------------------------
Magnitude (a.u.)       :      0.000009492
Magnitude (Debye)      :      0.000024128

Rotational constants in cm-1:             0.104687             0.040748             0.029331
Rotational constants in MHz :          3138.446851          1221.580167           879.321255

                             ****ORCA TERMINATED NORMALLY****
TOTAL RUN TIME: 0 days 0 hours 4 minutes 1 seconds 976 msec
