                         Program Version 6.0.0  -   RELEASE  -
|  1> !PBE0 aug-cc-pVTZ d3 TightSCF SlowConv RIJCOSX defgrid2
|  2>
|  3> %pal
|  4> nprocs 15
|  5> end
|  6>
|  7> %scf
|  8> MaxIter 1500
|  9> end
| 10>
| 11> %maxcore 3500
| 12>
| 13> !CPCM
| 14> %cpcm smd true
| 15> SMDsolvent "WATER"
| 16> surfacetype gepol_ses
| 17> rsolv 1.40
| 18> end
| 19>
| 20> * xyz 0 2
| 21> O           1.86556239468452      3.66778063685740      1.41934048443660
| 22> N           2.63911006242494      2.68933162619386      1.23001507884931
| 23> C           3.73080247656957      2.90535757443730      0.24181063762861
| 24> C           4.36093762959910      1.55921653542741     -0.15336987209592
| 25> C           4.63172810194409      0.70262118274796      1.05667158740786
| 26> C           3.37344672734739      0.39530870243854      1.82691342143050
| 27> C           2.68993700964555      1.68066650325082      2.32342254966252
| 28> C           4.79147854810668      3.83582820328657      0.84153155747969
| 29> C           3.10645949127391      3.55822382808877     -0.98811835641252
| 30> C           3.44599743934561      2.26113926142754      3.52426459340538
| 31> C           1.24931104144319      1.37171748445294      2.72213530312512
| 32> H           5.29854507645140      1.73380073454675     -0.70282077300820
| 33> H           3.66072621433755      1.01505886466252     -0.81307937183032
| 34> H           3.61014563723972     -0.25605158453535      2.68210471533816
| 35> H           2.67928631607287     -0.14191365883771      1.15513451843579
| 36> H           4.29973116397687      4.72680814583179      1.26491139664203
| 37> H           5.37961996772319      3.34202382093710      1.63164483429192
| 38> H           5.49413089896826      4.16049866008557      0.05546712960242
| 39> H           2.69205521882801      4.54458266598734     -0.73348635939669
| 40> H           2.28924200187458      2.93262822416028     -1.38514477797188
| 41> H           3.87286307615791      3.67858497187703     -1.77227016899908
| 42> H           3.04871559772316      3.26304759444425      3.75501562998363
| 43> H           4.52927071669545      2.33887771005461      3.33785198450762
| 44> H           3.30430449817939      1.61369753756705      4.40621306394055
| 45> H           0.75896130686192      2.26873651212742      3.12797736173082
| 46> H           0.67080790712862      1.02777195958958      1.84800524786398
| 47> H           1.24122074344172      0.57661748497107      3.48643408439020
| 48> O           5.73186456195476      0.33572713792153      1.38978502456186
| 49> *
| 50>
| 51>                          ****END OF INPUT****

CARTESIAN COORDINATES (ANGSTROEM)
---------------------------------
  O      1.865562    3.667781    1.419340
  N      2.639110    2.689332    1.230015
  C      3.730802    2.905358    0.241811
  C      4.360938    1.559217   -0.153370
  C      4.631728    0.702621    1.056672
  C      3.373447    0.395309    1.826913
  C      2.689937    1.680667    2.323423
  C      4.791479    3.835828    0.841532
  C      3.106459    3.558224   -0.988118
  C      3.445997    2.261139    3.524265
  C      1.249311    1.371717    2.722135
  H      5.298545    1.733801   -0.702821
  H      3.660726    1.015059   -0.813079
  H      3.610146   -0.256052    2.682105
  H      2.679286   -0.141914    1.155135
  H      4.299731    4.726808    1.264911
  H      5.379620    3.342024    1.631645
  H      5.494131    4.160499    0.055467
  H      2.692055    4.544583   -0.733486
  H      2.289242    2.932628   -1.385145
  H      3.872863    3.678585   -1.772270
  H      3.048716    3.263048    3.755016
  H      4.529271    2.338878    3.337852
  H      3.304304    1.613698    4.406213
  H      0.758961    2.268737    3.127977
  H      0.670808    1.027772    1.848005
  H      1.241221    0.576617    3.486434
  O      5.731865    0.335727    1.389785

 Total Charge           Charge          ....    0
 Multiplicity           Mult            ....    2
 Number of Electrons    NEL             ....   93
 Basis Dimension        Dim             ....  920

ORBITAL ENERGIES
----------------
                 SPIN UP ORBITALS
  NO   OCC          E(Eh)            E(eV)
   0   1.0000     -19.220785      -523.0241
   1   1.0000     -19.217719      -522.9407
   2   1.0000     -14.491070      -394.3221
   3   1.0000     -10.326906      -281.0094
   4   1.0000     -10.288178      -279.9555
   5   1.0000     -10.288154      -279.9549
   6   1.0000     -10.234452      -278.4936
   7   1.0000     -10.234422      -278.4928
   8   1.0000     -10.217459      -278.0312
   9   1.0000     -10.217452      -278.0310
  10   1.0000     -10.214077      -277.9392
  11   1.0000     -10.214073      -277.9391
  12   1.0000      -1.152915       -31.3724
  13   1.0000      -1.095316       -29.8051
  14   1.0000      -0.907697       -24.6997
  15   1.0000      -0.856081       -23.2951
  16   1.0000      -0.781074       -21.2541
  17   1.0000      -0.748670       -20.3723
  18   1.0000      -0.719420       -19.5764
  19   1.0000      -0.717593       -19.5267
  20   1.0000      -0.707184       -19.2434
  21   1.0000      -0.625019       -17.0076
  22   1.0000      -0.583921       -15.8893
  23   1.0000      -0.543320       -14.7845
  24   1.0000      -0.522548       -14.2193
  25   1.0000      -0.515685       -14.0325
  26   1.0000      -0.502787       -13.6815
  27   1.0000      -0.481706       -13.1079
  28   1.0000      -0.479353       -13.0439
  29   1.0000      -0.467580       -12.7235
  30   1.0000      -0.447123       -12.1668
  31   1.0000      -0.431867       -11.7517
  32   1.0000      -0.418858       -11.3977
  33   1.0000      -0.409780       -11.1507
  34   1.0000      -0.408684       -11.1209
  35   1.0000      -0.401614       -10.9285
  36   1.0000      -0.387891       -10.5551
  37   1.0000      -0.384623       -10.4661
  38   1.0000      -0.382454       -10.4071
  39   1.0000      -0.381261       -10.3746
  40   1.0000      -0.359059        -9.7705
  41   1.0000      -0.355379        -9.6704
  42   1.0000      -0.351993        -9.5782
  43   1.0000      -0.348853        -9.4928
  44   1.0000      -0.288753        -7.8574
  45   1.0000      -0.274118        -7.4591
  46   1.0000      -0.222133        -6.0445
  47   0.0000      -0.031623        -0.8605
  48   0.0000       0.003249         0.0884
  49   0.0000       0.015133         0.4118
  50   0.0000       0.017869         0.4862
  51   0.0000       0.019313         0.5255

                 SPIN DOWN ORBITALS
  NO   OCC          E(Eh)            E(eV)
   0   1.0000     -19.217686      -522.9398
   1   1.0000     -19.207455      -522.6614
   2   1.0000     -14.478282      -393.9741
   3   1.0000     -10.326919      -281.0097
   4   1.0000     -10.288607      -279.9672
   5   1.0000     -10.288583      -279.9666
   6   1.0000     -10.234396      -278.4921
   7   1.0000     -10.234365      -278.4912
   8   1.0000     -10.216788      -278.0129
   9   1.0000     -10.216782      -278.0128
  10   1.0000     -10.213858      -277.9332
  11   1.0000     -10.213856      -277.9331
  12   1.0000      -1.128219       -30.7004
  13   1.0000      -1.095207       -29.8021
  14   1.0000      -0.896969       -24.4078
  15   1.0000      -0.854804       -23.2604
  16   1.0000      -0.774644       -21.0791
  17   1.0000      -0.734781       -19.9944
  18   1.0000      -0.719080       -19.5672
  19   1.0000      -0.715030       -19.4570
  20   1.0000      -0.705838       -19.2068
  21   1.0000      -0.621682       -16.9168
  22   1.0000      -0.581658       -15.8277
  23   1.0000      -0.532991       -14.5034
  24   1.0000      -0.520886       -14.1740
  25   1.0000      -0.508385       -13.8339
  26   1.0000      -0.481677       -13.1071
  27   1.0000      -0.478349       -13.0165
  28   1.0000      -0.472495       -12.8572
  29   1.0000      -0.460971       -12.5437
  30   1.0000      -0.446844       -12.1592
  31   1.0000      -0.420982       -11.4555
  32   1.0000      -0.416646       -11.3375
  33   1.0000      -0.407672       -11.0933
  34   1.0000      -0.405851       -11.0438
  35   1.0000      -0.400465       -10.8972
  36   1.0000      -0.383476       -10.4349
  37   1.0000      -0.383182       -10.4269
  38   1.0000      -0.380334       -10.3494
  39   1.0000      -0.370408       -10.0793
  40   1.0000      -0.354531        -9.6473
  41   1.0000      -0.354190        -9.6380
  42   1.0000      -0.347446        -9.4545
  43   1.0000      -0.331364        -9.0169
  44   1.0000      -0.280447        -7.6313
  45   1.0000      -0.271751        -7.3947
  46   0.0000      -0.061463        -1.6725
  47   0.0000      -0.030450        -0.8286
  48   0.0000       0.003926         0.1068
  49   0.0000       0.015306         0.4165
  50   0.0000       0.018491         0.5032

MULLIKEN ATOMIC CHARGES AND SPIN POPULATIONS
--------------------------------------------
   0 O :   -1.083220    0.491251
   1 N :    0.312616    0.496346
   2 C :    2.056808   -0.038447
   3 C :   -0.649752   -0.001467
   4 C :    1.199736    0.004074
   5 C :   -0.658554   -0.001489
   6 C :    2.014745   -0.038788
   7 C :   -1.188055    0.030880
   8 C :   -1.379551    0.012677
   9 C :   -1.176552    0.030924
  10 C :   -1.382196    0.012501
  11 H :    0.175241   -0.001947
  12 H :    0.197425    0.002451
  13 H :    0.166267   -0.001991
  14 H :    0.209197    0.002308
  15 H :    0.220435    0.001110
  16 H :    0.261223   -0.000912
  17 H :    0.066737    0.005050
  18 H :    0.211897   -0.005214
  19 H :    0.231231    0.000132
  20 H :    0.201278   -0.000935
  21 H :    0.217458    0.001234
  22 H :    0.257297   -0.000676
  23 H :    0.072013    0.004943
  24 H :    0.209607   -0.005135
  25 H :    0.222138    0.000237
  26 H :    0.212281   -0.000940
  27 O :   -1.197749    0.001823
Sum of atomic charges         :   -0.0000000

LOEWDIN ATOMIC CHARGES AND SPIN POPULATIONS
-------------------------------------------
   0 O :    0.398840    0.444548
   1 N :   -0.107856    0.400952
   2 C :   -0.451314    0.040845
   3 C :    0.300761    0.002551
   4 C :   -0.525381    0.000596
   5 C :    0.300880    0.002519
   6 C :   -0.450851    0.040774
   7 C :    0.592021    0.019045
   8 C :    0.567755    0.003400
   9 C :    0.591797    0.019015
  10 C :    0.567661    0.003467
  11 H :   -0.123118   -0.000203
  12 H :   -0.115465    0.000980
  13 H :   -0.122789   -0.000207
  14 H :   -0.115675    0.000975
  15 H :   -0.145276    0.001718
  16 H :   -0.166193    0.001719
  17 H :   -0.134072    0.005517
  18 H :   -0.170869   -0.000228
  19 H :   -0.141480    0.000864
  20 H :   -0.137266    0.000317
  21 H :   -0.146051    0.001728
  22 H :   -0.165561    0.001726
  23 H :   -0.134211    0.005498
  24 H :   -0.170287   -0.000215
  25 H :   -0.141428    0.000871
  26 H :   -0.137640    0.000329
  27 O :    0.483069    0.000897

  Mayer bond orders larger than 0.100000
B(  0-O ,  1-N ) :   0.5354 B(  1-N ,  2-C ) :   0.6199 B(  1-N ,  3-C ) :   0.1926
B(  1-N ,  5-C ) :   0.1956 B(  1-N ,  6-C ) :   0.6004 B(  2-C ,  3-C ) :   0.4781
B(  2-C ,  7-C ) :   0.2627 B(  2-C , 19-H ) :  -0.1075 B(  3-C ,  4-C ) :   0.9208
B(  3-C ,  5-C ) :   0.1438 B(  3-C ,  7-C ) :   0.1148 B(  3-C , 11-H ) :   0.8860
B(  3-C , 12-H ) :   1.0046 B(  3-C , 27-O ) :   0.2238 B(  4-C ,  5-C ) :   0.9151
B(  4-C , 27-O ) :   0.1105 B(  5-C ,  6-C ) :   0.4625 B(  5-C ,  9-C ) :   0.1171
B(  5-C , 13-H ) :   0.9013 B(  5-C , 14-H ) :   0.9965 B(  5-C , 27-O ) :   0.2274
B(  6-C ,  9-C ) :   0.3001 B(  6-C , 25-H ) :  -0.1089 B(  7-C ,  8-C ) :   0.1577
B(  7-C , 15-H ) :   0.9926 B(  7-C , 16-H ) :   0.9440 B(  7-C , 17-H ) :   1.1614
B(  8-C , 18-H ) :   1.0165 B(  8-C , 19-H ) :   1.0347 B(  8-C , 20-H ) :   1.0317
B(  9-C , 10-C ) :   0.1447 B(  9-C , 21-H ) :   0.9967 B(  9-C , 22-H ) :   0.9492
B(  9-C , 23-H ) :   1.1497 B( 10-C , 24-H ) :   1.0183 B( 10-C , 25-H ) :   1.0525
B( 10-C , 26-H ) :   1.0137

Dispersion correction           -0.028607719
FINAL SINGLE POINT ENERGY      -557.323673746461

DIPOLE MOMENT
-------------

Method             : SCF
Type of density    : Electron Density
Multiplicity       :   2
Irrep              :   0
Energy             :  -557.2950660277315365 Eh
Relativity type    :
Basis              : AO
                                X                 Y                 Z
Electronic contribution:      1.993258629      -3.542944181      -1.095501894
Nuclear contribution   :     -2.339550433       2.955416228       0.579005487
                        -----------------------------------------
Total Dipole Moment    :     -0.346291804      -0.587527954      -0.516496407
                        -----------------------------------------
Magnitude (a.u.)       :      0.855497311
Magnitude (Debye)      :      2.174501353

Rotational constants in cm-1:             0.036094             0.035779             0.023697
Rotational constants in MHz :          1082.069740          1072.621338           710.415750

                             ****ORCA TERMINATED NORMALLY****
TOTAL RUN TIME: 0 days 0 hours 7 minutes 21 seconds 152 msec
