                         Program Version 6.0.0  -   RELEASE  -
|  1> !TPSSh aug-cc-pVTZ d3 TightSCF SlowConv RIJCOSX defgrid2
|  2>
|  3> %pal
|  4> nprocs 4
|  5> end
|  6>
|  7> %scf
|  8> MaxIter 1500
|  9> end
| 10>
| 11> %maxcore 3000
| 12>
| 13> !CPCM
| 14> %cpcm smd true
| 15> SMDsolvent "MeCN"
| 16> surfacetype gepol_ses
| 17> rsolv 2.19
| 18> end
| 19>
| 20> * xyz 1 2
| 21> C          -1.88926886591052     -0.71829471042902     -0.00000151658975
| 22> C          -0.69976165931068     -1.41947642476781     -0.00004682086503
| 23> C           0.52546620787527     -0.73616642455340     -0.00005070921479
| 24> C           1.80539513424131     -1.47669107886068     -0.00023735663381
| 25> H           2.41895885184776     -1.20629923183368      0.88130420897190
| 26> H           1.65030845286960     -2.56505007458612      0.00054431743935
| 27> H           2.41781413244718     -1.20753960674201     -0.88298442839847
| 28> C           0.52547898558837      0.73614990429939      0.00000366497278
| 29> C           1.80542537047235      1.47665380279544      0.00015411128337
| 30> H           2.41897294335330      1.20625813469298     -0.88139556544038
| 31> H           1.65034488477417      2.56501332425354     -0.00063843565960
| 32> H           2.41785215045554      1.20751683668618      0.88290259762033
| 33> C          -0.69973036540407      1.41946691144153      0.00005351354497
| 34> C          -1.88925441678624      0.71829392037224      0.00005440335703
| 35> H          -2.84458396121263      1.25172450263367      0.00010059257370
| 36> H          -0.70436141297793      2.51237392702987      0.00009399193885
| 37> H          -0.70439462134719     -2.51238326028565     -0.00008450613426
| 38> H          -2.84460951097560     -1.25170515214647     -0.00000996276619
| 39> *
| 40>
| 41>                          ****END OF INPUT****

CARTESIAN COORDINATES (ANGSTROEM)
---------------------------------
  C     -1.889269   -0.718295   -0.000002
  C     -0.699762   -1.419476   -0.000047
  C      0.525466   -0.736166   -0.000051
  C      1.805395   -1.476691   -0.000237
  H      2.418959   -1.206299    0.881304
  H      1.650308   -2.565050    0.000544
  H      2.417814   -1.207540   -0.882984
  C      0.525479    0.736150    0.000004
  C      1.805425    1.476654    0.000154
  H      2.418973    1.206258   -0.881396
  H      1.650345    2.565013   -0.000638
  H      2.417852    1.207517    0.882903
  C     -0.699730    1.419467    0.000054
  C     -1.889254    0.718294    0.000054
  H     -2.844584    1.251725    0.000101
  H     -0.704361    2.512374    0.000094
  H     -0.704395   -2.512383   -0.000085
  H     -2.844610   -1.251705   -0.000010

 Total Charge           Charge          ....    1
 Multiplicity           Mult            ....    2
 Number of Electrons    NEL             ....   57
 Basis Dimension        Dim             ....  598

ORBITAL ENERGIES
----------------
                 SPIN UP ORBITALS
  NO   OCC          E(Eh)            E(eV)
   0   1.0000     -10.199881      -277.5529
   1   1.0000     -10.199604      -277.5453
   2   1.0000     -10.178640      -276.9749
   3   1.0000     -10.178275      -276.9649
   4   1.0000     -10.151243      -276.2294
   5   1.0000     -10.151222      -276.2288
   6   1.0000     -10.133440      -275.7449
   7   1.0000     -10.133354      -275.7426
   8   1.0000      -0.889709       -24.2102
   9   1.0000      -0.804132       -21.8816
  10   1.0000      -0.789815       -21.4920
  11   1.0000      -0.715380       -19.4665
  12   1.0000      -0.686636       -18.6843
  13   1.0000      -0.614512       -16.7217
  14   1.0000      -0.596495       -16.2315
  15   1.0000      -0.515662       -14.0319
  16   1.0000      -0.494375       -13.4526
  17   1.0000      -0.464859       -12.6495
  18   1.0000      -0.453224       -12.3329
  19   1.0000      -0.435362       -11.8468
  20   1.0000      -0.421101       -11.4588
  21   1.0000      -0.406166       -11.0523
  22   1.0000      -0.394068       -10.7231
  23   1.0000      -0.393654       -10.7119
  24   1.0000      -0.380532       -10.3548
  25   1.0000      -0.357848        -9.7375
  26   1.0000      -0.354211        -9.6386
  27   1.0000      -0.285582        -7.7711
  28   1.0000      -0.284794        -7.7496
  29   0.0000      -0.089038        -2.4229
  30   0.0000      -0.057341        -1.5603
  31   0.0000      -0.007573        -0.2061
  32   0.0000       0.003620         0.0985
  33   0.0000       0.008630         0.2348

                 SPIN DOWN ORBITALS
  NO   OCC          E(Eh)            E(eV)
   0   1.0000     -10.194785      -277.4142
   1   1.0000     -10.194516      -277.4069
   2   1.0000     -10.174814      -276.8708
   3   1.0000     -10.174456      -276.8610
   4   1.0000     -10.152846      -276.2730
   5   1.0000     -10.152824      -276.2724
   6   1.0000     -10.133592      -275.7491
   7   1.0000     -10.133506      -275.7467
   8   1.0000      -0.880066       -23.9478
   9   1.0000      -0.793193       -21.5839
  10   1.0000      -0.786612       -21.4048
  11   1.0000      -0.713287       -19.4095
  12   1.0000      -0.680112       -18.5068
  13   1.0000      -0.609694       -16.5906
  14   1.0000      -0.589884       -16.0516
  15   1.0000      -0.512906       -13.9569
  16   1.0000      -0.491432       -13.3726
  17   1.0000      -0.461172       -12.5491
  18   1.0000      -0.436088       -11.8665
  19   1.0000      -0.434589       -11.8258
  20   1.0000      -0.417291       -11.3551
  21   1.0000      -0.398464       -10.8428
  22   1.0000      -0.393345       -10.7035
  23   1.0000      -0.391882       -10.6636
  24   1.0000      -0.360448        -9.8083
  25   1.0000      -0.356000        -9.6872
  26   1.0000      -0.351727        -9.5710
  27   1.0000      -0.279600        -7.6083
  28   0.0000      -0.220507        -6.0003
  29   0.0000      -0.051260        -1.3949
  30   0.0000      -0.044642        -1.2148
  31   0.0000      -0.006606        -0.1798
  32   0.0000       0.004781         0.1301

MULLIKEN ATOMIC CHARGES AND SPIN POPULATIONS
--------------------------------------------
   0 C :   -0.074514    0.252564
   1 C :   -0.663954   -0.151584
   2 C :    0.545748    0.383648
   3 C :   -0.159475   -0.049504
   4 H :    0.191048    0.032500
   5 H :   -0.089296   -0.005944
   6 H :    0.191625    0.032580
   7 C :    0.545766    0.383745
   8 C :   -0.157636   -0.049464
   9 H :    0.191905    0.032500
  10 H :   -0.089838   -0.005947
  11 H :    0.192026    0.032574
  12 C :   -0.663823   -0.151503
  13 C :   -0.075453    0.252139
  14 H :    0.511666    0.006388
  15 H :    0.046371   -0.000568
  16 H :    0.043107   -0.000567
  17 H :    0.514729    0.006443
Sum of atomic charges         :    1.0000000

LOEWDIN ATOMIC CHARGES AND SPIN POPULATIONS
-------------------------------------------
   0 C :    0.295888    0.155548
   1 C :    0.279230    0.038428
   2 C :   -0.016173    0.196676
   3 C :    0.623401    0.057153
   4 H :   -0.129797    0.015249
   5 H :   -0.144896    0.001488
   6 H :   -0.129647    0.015276
   7 C :   -0.016069    0.196690
   8 C :    0.623516    0.057171
   9 H :   -0.129686    0.015259
  10 H :   -0.144939    0.001490
  11 H :   -0.129663    0.015282
  12 C :    0.279244    0.038453
  13 C :    0.295891    0.155424
  14 H :   -0.132350    0.028429
  15 H :   -0.145809   -0.008235
  16 H :   -0.145805   -0.008248
  17 H :   -0.132336    0.028468

  Mayer bond orders larger than 0.100000
B(  0-C ,  1-C ) :   1.3570 B(  0-C ,  2-C ) :   0.1141 B(  0-C , 13-C ) :   1.0724
B(  0-C , 14-H ) :   0.1052 B(  0-C , 17-H ) :   0.4706 B(  1-C ,  2-C ) :   0.7887
B(  1-C , 12-C ) :   0.1044 B(  1-C , 16-H ) :   1.1396 B(  2-C ,  3-C ) :   0.7459
B(  2-C ,  7-C ) :   1.1356 B(  2-C ,  8-C ) :   0.1357 B(  3-C ,  4-H ) :   0.9241
B(  3-C ,  5-H ) :   1.0366 B(  3-C ,  6-H ) :   0.9228 B(  3-C ,  7-C ) :   0.1362
B(  7-C ,  8-C ) :   0.7471 B(  7-C , 12-C ) :   0.7882 B(  7-C , 13-C ) :   0.1113
B(  8-C ,  9-H ) :   0.9223 B(  8-C , 10-H ) :   1.0376 B(  8-C , 11-H ) :   0.9221
B( 12-C , 13-C ) :   1.3594 B( 12-C , 15-H ) :   1.1339 B( 13-C , 14-H ) :   0.4752
B( 13-C , 17-H ) :   0.1038

Dispersion correction           -0.020721186
FINAL SINGLE POINT ENERGY      -310.818001586911

DIPOLE MOMENT
-------------

Method             : SCF
Type of density    : Electron Density
Multiplicity       :   2
Irrep              :   0
Energy             :  -310.7972804013953123 Eh
Relativity type    :
Basis              : AO
                                X                 Y                 Z
Electronic contribution:     -5.603049652       0.000024403      -0.000318694
Nuclear contribution   :      5.537517534      -0.000008895      -0.000066911
                        -----------------------------------------
Total Dipole Moment    :     -0.065532118       0.000015508      -0.000385605
                        -----------------------------------------
Magnitude (a.u.)       :      0.065533255
Magnitude (Debye)      :      0.166572295

Rotational constants in cm-1:             0.102569             0.072675             0.043220
Rotational constants in MHz :          3074.941965          2178.738916          1295.716867

                             ****ORCA TERMINATED NORMALLY****
TOTAL RUN TIME: 0 days 0 hours 7 minutes 23 seconds 295 msec
