                         Program Version 6.0.0  -   RELEASE  -
|  1> !PBE0 def2-SV(p) Opt Freq d3 TightSCF SlowConv RIJCOSX defgrid2
|  2>
|  3> %pal
|  4> nprocs 4
|  5> end
|  6>
|  7> %scf
|  8> MaxIter 1500
|  9> end
| 10>
| 11> %maxcore 3000
| 12>
| 13>
| 14>
| 15> * xyz 1 2
| 16> C     0.4205615   -1.6952320    0.0000416
| 17> C    -0.9497883   -1.8260172   -0.0000553
| 18> C    -1.6881331   -0.6489598   -0.0000246
| 19> C    -1.0444446    0.6242701    0.0000773
| 20> C     0.3166016    0.7533385    0.0001355
| 21> C     1.0812927   -0.4318230    0.0001141
| 22> C     2.5121547   -0.4366095    0.0001879
| 23> C     3.3250587    0.6512067   -0.0002201
| 24> C     4.7901849    0.5680244   -0.0000970
| 25> H     5.1504402   -0.4571168    0.0006311
| 26> H     5.1885447    1.0975989   -0.8688617
| 27> H     5.1884877    1.0988438    0.8679285
| 28> H     2.9119959    1.6501064   -0.0007338
| 29> H     2.9781094   -1.4135359    0.0005474
| 30> H     0.7676851    1.7297761    0.0002426
| 31> O    -1.9957900    1.5764825    0.0001167
| 32> C    -3.2399420    0.9202413    0.0000530
| 33> H    -3.8132533    1.1965319   -0.8976795
| 34> H    -3.8132681    1.1963905    0.8978211
| 35> O    -3.0026534   -0.4712860   -0.0000504
| 36> H    -1.4376140   -2.7862253   -0.0001343
| 37> H     1.0274299   -2.5877172    0.0000340
| 38> *
| 39>
| 40>                          ****END OF INPUT****
 Total Charge           Charge          ....    1
 Multiplicity           Mult            ....    2
 Number of Electrons    NEL             ....   85
Dispersion correction           -0.019934294
FINAL SINGLE POINT ENERGY      -536.226732918831
Dispersion correction             ... done (  0.1 sec)
Dispersion correction           -0.019878872
FINAL SINGLE POINT ENERGY      -536.228968807621
Dispersion correction             ... done (  0.1 sec)
Dispersion correction           -0.019874025
FINAL SINGLE POINT ENERGY      -536.229154983629
Dispersion correction             ... done (  0.0 sec)
Dispersion correction           -0.019877978
FINAL SINGLE POINT ENERGY      -536.229196844151
Dispersion correction             ... done (  0.1 sec)
Dispersion correction           -0.019880406
FINAL SINGLE POINT ENERGY      -536.229201779451
Dispersion correction             ... done (  0.0 sec)
                    ***********************HURRAY********************

CARTESIAN COORDINATES (ANGSTROEM)
---------------------------------
  C      0.406913   -1.703257    0.000165
  C     -0.966712   -1.836680    0.000182
  C     -1.688057   -0.642618    0.000090
  C     -1.049656    0.631740   -0.000028
  C      0.311283    0.769264   -0.000062
  C      1.075633   -0.427424    0.000040
  C      2.506974   -0.448422    0.000023
  C      3.331948    0.643267   -0.000159
  C      4.805997    0.577412   -0.000119
  H      5.188324   -0.454876   -0.000254
  H      5.210294    1.114365   -0.880407
  H      5.210193    1.114036    0.880426
  H      2.892079    1.649047   -0.000307
  H      2.975080   -1.439570    0.000163
  H      0.767416    1.759380   -0.000143
  O     -1.993975    1.572307   -0.000087
  C     -3.251362    0.930153   -0.000013
  H     -3.813390    1.191566   -0.911798
  H     -3.813366    1.191725    0.911742
  O     -2.992000   -0.472708    0.000102
  H     -1.466950   -2.806566    0.000275
  H      1.026996   -2.603853    0.000245

 Multiplicity           Mult            ....    2
 Number of Electrons    NEL             ....   85
 Basis Dimension        Dim             ....  188

ORBITAL ENERGIES
----------------
                 SPIN UP ORBITALS
  NO   OCC          E(Eh)            E(eV)
   0   1.0000     -19.463325      -529.6240
   1   1.0000     -19.445682      -529.1439
   2   1.0000     -10.515996      -286.1548
   3   1.0000     -10.503577      -285.8168
   4   1.0000     -10.489682      -285.4388
   5   1.0000     -10.444774      -284.2168
   6   1.0000     -10.429732      -283.8074
   7   1.0000     -10.425446      -283.6908
   8   1.0000     -10.419056      -283.5169
   9   1.0000     -10.413441      -283.3641
  10   1.0000     -10.407649      -283.2065
  11   1.0000     -10.365734      -282.0660
  12   1.0000      -1.363969       -37.1155
  13   1.0000      -1.263770       -34.3889
  14   1.0000      -1.072846       -29.1936
  15   1.0000      -1.002736       -27.2858
  16   1.0000      -0.963685       -26.2232
  17   1.0000      -0.950938       -25.8763
  18   1.0000      -0.893377       -24.3100
  19   1.0000      -0.853671       -23.2296
  20   1.0000      -0.830165       -22.5899
  21   1.0000      -0.817713       -22.2511
  22   1.0000      -0.747954       -20.3529
  23   1.0000      -0.728182       -19.8148
  24   1.0000      -0.727714       -19.8021
  25   1.0000      -0.713142       -19.4056
  26   1.0000      -0.686682       -18.6856
  27   1.0000      -0.644948       -17.5499
  28   1.0000      -0.634961       -17.2782
  29   1.0000      -0.623043       -16.9539
  30   1.0000      -0.604718       -16.4552
  31   1.0000      -0.596820       -16.2403
  32   1.0000      -0.594193       -16.1688
  33   1.0000      -0.582589       -15.8530
  34   1.0000      -0.577005       -15.7011
  35   1.0000      -0.574607       -15.6359
  36   1.0000      -0.545469       -14.8430
  37   1.0000      -0.538267       -14.6470
  38   1.0000      -0.533254       -14.5106
  39   1.0000      -0.520504       -14.1636
  40   1.0000      -0.467012       -12.7080
  41   1.0000      -0.427967       -11.6456
  42   1.0000      -0.393381       -10.7044
  43   0.0000      -0.217053        -5.9063
  44   0.0000      -0.175124        -4.7654
  45   0.0000      -0.113950        -3.1007
  46   0.0000      -0.068136        -1.8541
  47   0.0000      -0.058588        -1.5943

                 SPIN DOWN ORBITALS
  NO   OCC          E(Eh)            E(eV)
   0   1.0000     -19.458606      -529.4956
   1   1.0000     -19.443400      -529.0818
   2   1.0000     -10.516258      -286.1619
   3   1.0000     -10.499667      -285.7105
   4   1.0000     -10.488435      -285.4048
   5   1.0000     -10.442038      -284.1423
   6   1.0000     -10.426946      -283.7316
   7   1.0000     -10.420348      -283.5521
   8   1.0000     -10.419858      -283.5388
   9   1.0000     -10.414683      -283.3979
  10   1.0000     -10.408285      -283.2238
  11   1.0000     -10.365967      -282.0723
  12   1.0000      -1.358061       -36.9547
  13   1.0000      -1.257265       -34.2119
  14   1.0000      -1.066980       -29.0340
  15   1.0000      -0.995779       -27.0965
  16   1.0000      -0.960250       -26.1297
  17   1.0000      -0.944980       -25.7142
  18   1.0000      -0.891365       -24.2553
  19   1.0000      -0.847577       -23.0637
  20   1.0000      -0.826822       -22.4990
  21   1.0000      -0.813692       -22.1417
  22   1.0000      -0.743888       -20.2422
  23   1.0000      -0.725537       -19.7429
  24   1.0000      -0.716307       -19.4917
  25   1.0000      -0.710395       -19.3308
  26   1.0000      -0.683627       -18.6024
  27   1.0000      -0.642446       -17.4818
  28   1.0000      -0.634519       -17.2661
  29   1.0000      -0.619805       -16.8658
  30   1.0000      -0.592021       -16.1097
  31   1.0000      -0.587329       -15.9820
  32   1.0000      -0.580337       -15.7918
  33   1.0000      -0.580232       -15.7889
  34   1.0000      -0.573736       -15.6122
  35   1.0000      -0.563792       -15.3416
  36   1.0000      -0.543535       -14.7903
  37   1.0000      -0.536413       -14.5965
  38   1.0000      -0.519014       -14.1231
  39   1.0000      -0.515507       -14.0276
  40   1.0000      -0.452776       -12.3207
  41   1.0000      -0.414666       -11.2836
  42   0.0000      -0.314337        -8.5535
  43   0.0000      -0.190431        -5.1819
  44   0.0000      -0.160714        -4.3733
  45   0.0000      -0.095520        -2.5992
  46   0.0000      -0.067102        -1.8259

MULLIKEN ATOMIC CHARGES AND SPIN POPULATIONS
--------------------------------------------
   0 C :   -0.096850    0.183225
   1 C :   -0.115629   -0.071658
   2 C :    0.210241    0.242784
   3 C :    0.242616    0.070520
   4 C :   -0.205347   -0.094008
   5 C :    0.114587    0.177758
   6 C :   -0.125947   -0.061874
   7 C :   -0.105794    0.342671
   8 C :   -0.329229   -0.029851
   9 H :    0.173186    0.000249
  10 H :    0.192890    0.020974
  11 H :    0.192907    0.020991
  12 H :    0.165379   -0.016604
  13 H :    0.142131    0.002214
  14 H :    0.140888    0.003233
  15 O :   -0.266756    0.064720
  16 C :    0.184858   -0.017199
  17 H :    0.202134    0.019022
  18 H :    0.202135    0.019022
  19 O :   -0.237564    0.132357
  20 H :    0.160324    0.001315
  21 H :    0.158840   -0.009860
Sum of atomic charges         :    1.0000000

LOEWDIN ATOMIC CHARGES AND SPIN POPULATIONS
-------------------------------------------
   0 C :   -0.041252    0.161744
   1 C :   -0.119438   -0.026707
   2 C :    0.086668    0.197038
   3 C :    0.055646    0.066832
   4 C :   -0.129866   -0.058957
   5 C :    0.019011    0.142989
   6 C :   -0.112313   -0.019472
   7 C :   -0.013217    0.282759
   8 C :   -0.335409   -0.002018
   9 H :    0.148042    0.000191
  10 H :    0.169327    0.018371
  11 H :    0.169341    0.018386
  12 H :    0.146030   -0.008221
  13 H :    0.152240    0.000786
  14 H :    0.163743    0.001349
  15 O :   -0.041992    0.067252
  16 C :    0.045279   -0.005575
  17 H :    0.153478    0.014170
  18 H :    0.153478    0.014170
  19 O :   -0.006445    0.139406
  20 H :    0.174614    0.000530
  21 H :    0.163036   -0.005022

  Mayer bond orders larger than 0.100000
B(  0-C ,  1-C ) :   1.4509 B(  0-C ,  5-C ) :   1.1966 B(  0-C , 21-H ) :   0.9518
B(  1-C ,  2-C ) :   1.2897 B(  1-C , 20-H ) :   0.9681 B(  2-C ,  3-C ) :   1.1403
B(  2-C , 19-O ) :   1.2278 B(  3-C ,  4-C ) :   1.4664 B(  3-C , 15-O ) :   1.1394
B(  4-C ,  5-C ) :   1.2296 B(  4-C , 14-H ) :   0.9551 B(  5-C ,  6-C ) :   1.2464
B(  6-C ,  7-C ) :   1.6328 B(  6-C , 13-H ) :   0.9307 B(  7-C ,  8-C ) :   1.1228
B(  7-C , 12-H ) :   0.9043 B(  8-C ,  9-H ) :   0.9452 B(  8-C , 10-H ) :   0.9054
B(  8-C , 11-H ) :   0.9053 B( 15-O , 16-C ) :   0.9549 B( 16-C , 17-H ) :   0.9118
B( 16-C , 18-H ) :   0.9118 B( 16-C , 19-O ) :   0.9220

Dispersion correction           -0.019881133
FINAL SINGLE POINT ENERGY      -536.229202565027

DIPOLE MOMENT
-------------

Method             : SCF
Type of density    : Electron Density
Multiplicity       :   2
Irrep              :   0
Energy             :  -536.2093214324592054 Eh
Relativity type    :
Basis              : AO
                                X                 Y                 Z
Electronic contribution:    -12.786873985      -0.638954388       0.000195231
Nuclear contribution   :     13.204705509       0.674639604      -0.000147023
                        -----------------------------------------
Total Dipole Moment    :      0.417831524       0.035685216       0.000048208
                        -----------------------------------------
Magnitude (a.u.)       :      0.419352620
Magnitude (Debye)      :      1.065909650

VIBRATIONAL FREQUENCIES
-----------------------

Scaling factor for frequencies =  1.000000000  (already applied!)

     0:       0.00 cm**-1
     1:       0.00 cm**-1
     2:       0.00 cm**-1
     3:       0.00 cm**-1
     4:       0.00 cm**-1
     5:       0.00 cm**-1
     6:      63.79 cm**-1
     7:     114.01 cm**-1
     8:     129.38 cm**-1
     9:     159.06 cm**-1
    10:     178.71 cm**-1
    11:     219.59 cm**-1
    12:     246.62 cm**-1
    13:     327.14 cm**-1
    14:     355.97 cm**-1
    15:     370.34 cm**-1
    16:     432.69 cm**-1
    17:     469.93 cm**-1
    18:     566.11 cm**-1
    19:     621.88 cm**-1
    20:     626.33 cm**-1
    21:     733.59 cm**-1
    22:     763.84 cm**-1
    23:     810.38 cm**-1
    24:     811.42 cm**-1
    25:     852.29 cm**-1
    26:     855.82 cm**-1
    27:     890.23 cm**-1
    28:     936.29 cm**-1
    29:     967.80 cm**-1
    30:     973.93 cm**-1
    31:     996.58 cm**-1
    32:    1013.98 cm**-1
    33:    1040.92 cm**-1
    34:    1086.02 cm**-1
    35:    1124.99 cm**-1
    36:    1141.74 cm**-1
    37:    1166.08 cm**-1
    38:    1208.59 cm**-1
    39:    1210.56 cm**-1
    40:    1253.82 cm**-1
    41:    1274.47 cm**-1
    42:    1316.94 cm**-1
    43:    1355.29 cm**-1
    44:    1385.51 cm**-1
    45:    1399.95 cm**-1
    46:    1426.46 cm**-1
    47:    1439.45 cm**-1
    48:    1440.43 cm**-1
    49:    1469.94 cm**-1
    50:    1509.47 cm**-1
    51:    1545.16 cm**-1
    52:    1577.98 cm**-1
    53:    1616.99 cm**-1
    54:    1653.69 cm**-1
    55:    1706.83 cm**-1
    56:    3021.72 cm**-1
    57:    3092.44 cm**-1
    58:    3096.31 cm**-1
    59:    3162.63 cm**-1
    60:    3174.01 cm**-1
    61:    3182.87 cm**-1
    62:    3190.63 cm**-1
    63:    3226.25 cm**-1
    64:    3252.90 cm**-1
    65:    3254.74 cm**-1

IR SPECTRUM
-----------

 Mode   freq       eps      Int      T**2         TX        TY        TZ
       cm**-1   L/(mol*cm) km/mol    a.u.
----------------------------------------------------------------------------
  6:     63.79   0.000373    1.89  0.001826  (-0.000002 -0.000005  0.042731)
  7:    114.01   0.000034    0.17  0.000093  ( 0.000017 -0.000021 -0.009660)
  8:    129.38   0.000015    0.08  0.000036  (-0.000637 -0.005998 -0.000000)
  9:    159.06   0.001265    6.39  0.002482  ( 0.000001  0.000004  0.049817)
 10:    178.71   0.001122    5.67  0.001960  ( 0.000012 -0.000010  0.044268)
 11:    219.59   0.000204    1.03  0.000290  ( 0.000002  0.000009  0.017036)
 12:    246.62   0.000177    0.89  0.000224  ( 0.000007  0.000006  0.014955)
 13:    327.14   0.000039    0.20  0.000038  (-0.001099 -0.006027 -0.000000)
 14:    355.97   0.000324    1.64  0.000284  ( 0.006261 -0.015642  0.000003)
 15:    370.34   0.000034    0.17  0.000029  ( 0.000002  0.000006  0.005382)
 16:    432.69   0.000111    0.56  0.000080  ( 0.000004  0.000001 -0.008941)
 17:    469.93   0.000882    4.46  0.000586  (-0.014877  0.019087  0.000000)
 18:    566.11   0.002215   11.19  0.001221  ( 0.034075  0.007741 -0.000001)
 19:    621.88   0.000804    4.06  0.000404  ( 0.019981 -0.002069  0.000004)
 20:    626.33   0.001057    5.34  0.000527  (-0.000011  0.000005  0.022947)
 21:    733.59   0.000005    0.03  0.000002  (-0.000008 -0.000004  0.001506)
 22:    763.84   0.002046   10.34  0.000836  ( 0.026810  0.010825 -0.000001)
 23:    810.38   0.002101   10.62  0.000809  ( 0.011896  0.025834  0.000023)
 24:    811.42   0.004657   23.54  0.001791  (-0.000022  0.000004 -0.042321)
 25:    852.29   0.001182    5.97  0.000433  (-0.018744 -0.009025  0.000008)
 26:    855.82   0.000568    2.87  0.000207  (-0.000009  0.000004  0.014386)
 27:    890.23   0.004786   24.19  0.001678  (-0.000016 -0.000001  0.040961)
 28:    936.29   0.001091    5.51  0.000364  ( 0.018783  0.003275  0.000025)
 29:    967.80   0.006047   30.56  0.001950  ( 0.000062  0.000046  0.044156)
 30:    973.93   0.010001   50.54  0.003204  (-0.049278 -0.027859  0.000064)
 31:    996.58   0.000379    1.92  0.000119  (-0.000013  0.000001  0.010894)
 32:   1013.98   0.008824   44.59  0.002716  (-0.009394 -0.051258  0.000005)
 33:   1040.92   0.000333    1.68  0.000100  ( 0.000047  0.000012  0.009995)
 34:   1086.02   0.008003   40.45  0.002300  ( 0.045881 -0.013953  0.000000)
 35:   1124.99   0.001660    8.39  0.000460  ( 0.000000  0.000003  0.021458)
 36:   1141.74   0.002946   14.89  0.000805  ( 0.016467 -0.023111 -0.000001)
 37:   1166.08   0.000730    3.69  0.000195  (-0.000364 -0.013973  0.000004)
 38:   1208.59   0.000002    0.01  0.000000  ( 0.000028 -0.000018 -0.000680)
 39:   1210.56   0.010609   53.61  0.002735  ( 0.044066 -0.028160  0.000002)
 40:   1253.82   0.000186    0.94  0.000046  ( 0.004179 -0.005366  0.000001)
 41:   1274.47   0.011797   59.62  0.002889  ( 0.052824  0.009913 -0.000000)
 42:   1316.94   0.044617  225.47  0.010572  (-0.102372 -0.009607  0.000000)
 43:   1355.29   0.002346   11.85  0.000540  (-0.009509 -0.021207  0.000001)
 44:   1385.51   0.005002   25.28  0.001127  (-0.031244 -0.012269 -0.000018)
 45:   1399.95   0.033719  170.40  0.007516  (-0.086688 -0.001288  0.000002)
 46:   1426.46   0.000679    3.43  0.000149  (-0.006338  0.010412  0.000006)
 47:   1439.45   0.003720   18.80  0.000807  (-0.000006  0.000023 -0.028399)
 48:   1440.43   0.000071    0.36  0.000015  ( 0.002698  0.002831  0.000007)
 49:   1469.94   0.009704   49.04  0.002060  (-0.036856 -0.026490 -0.000014)
 50:   1509.47   0.015221   76.92  0.003147  (-0.055387  0.008896  0.000001)
 51:   1545.16   0.099748  504.09  0.020145  (-0.139744  0.024841  0.000001)
 52:   1577.98   0.117075  591.65  0.023153  (-0.147062  0.039059 -0.000000)
 53:   1616.99   0.016869   85.25  0.003256  ( 0.055703 -0.012357  0.000000)
 54:   1653.69   0.103588  523.49  0.019548  ( 0.139312  0.011833 -0.000003)
 55:   1706.83   0.012749   64.43  0.002331  (-0.038021  0.029755 -0.000002)
 56:   3021.72   0.006773   34.23  0.000700  ( 0.025863  0.005536  0.000004)
 57:   3092.44   0.000341    1.72  0.000034  ( 0.000009 -0.000001  0.005867)
 58:   3096.31   0.000004    0.02  0.000000  (-0.000358 -0.000535  0.000000)
 59:   3162.63   0.002933   14.82  0.000289  (-0.016998 -0.000663  0.000001)
 60:   3174.01   0.000010    0.05  0.000001  ( 0.000000  0.000000  0.001009)
 61:   3182.87   0.000069    0.35  0.000007  ( 0.001892 -0.001774  0.000000)
 62:   3190.63   0.000815    4.12  0.000080  ( 0.008819 -0.001399 -0.000000)
 63:   3226.25   0.000097    0.49  0.000009  ( 0.000988  0.002899 -0.000000)
 64:   3252.90   0.002609   13.19  0.000250  (-0.005662 -0.014773  0.000001)
 65:   3254.74   0.000224    1.13  0.000021  (-0.004033 -0.002282 -0.000000)

--------------------------
THERMOCHEMISTRY AT 298.15K
--------------------------

Temperature         ...   298.15 K
Pressure            ...     1.00 atm
Total Mass          ...   162.19 AMU
Quasi RRHO          ...     True
Cut-Off Frequency   ...     1.00 cm^-1

Throughout the following assumptions are being made:
  (1) The electronic state is orbitally nondegenerate
      but the spin degeneracy is treated
  (2) There are no thermally accessible electronically excited states
  (3) Hindered rotations indicated by low frequency modes are not
      treated as such but are treated as vibrations and this may
      cause some error
  (4) All equations used are the standard statistical mechanics
      equations for an ideal gas
  (5) All vibrations are strictly harmonic

freq.      63.79  E(vib)   ...       0.51
freq.     114.01  E(vib)   ...       0.44
freq.     129.38  E(vib)   ...       0.43
freq.     159.06  E(vib)   ...       0.39
freq.     178.71  E(vib)   ...       0.37
freq.     219.59  E(vib)   ...       0.33
freq.     246.62  E(vib)   ...       0.31
freq.     327.14  E(vib)   ...       0.24
freq.     355.97  E(vib)   ...       0.22
freq.     370.34  E(vib)   ...       0.21
freq.     432.69  E(vib)   ...       0.18
freq.     469.93  E(vib)   ...       0.16
freq.     566.11  E(vib)   ...       0.11
freq.     621.88  E(vib)   ...       0.09
freq.     626.33  E(vib)   ...       0.09
freq.     733.59  E(vib)   ...       0.06
freq.     763.84  E(vib)   ...       0.06
freq.     810.38  E(vib)   ...       0.05
freq.     811.42  E(vib)   ...       0.05
freq.     852.29  E(vib)   ...       0.04
freq.     855.82  E(vib)   ...       0.04
freq.     890.23  E(vib)   ...       0.04
freq.     936.29  E(vib)   ...       0.03
freq.     967.80  E(vib)   ...       0.03
freq.     973.93  E(vib)   ...       0.03
freq.     996.58  E(vib)   ...       0.02
freq.    1013.98  E(vib)   ...       0.02
freq.    1040.92  E(vib)   ...       0.02
freq.    1086.02  E(vib)   ...       0.02
freq.    1124.99  E(vib)   ...       0.01
freq.    1141.74  E(vib)   ...       0.01
freq.    1166.08  E(vib)   ...       0.01
freq.    1208.59  E(vib)   ...       0.01
freq.    1210.56  E(vib)   ...       0.01
freq.    1253.82  E(vib)   ...       0.01
freq.    1274.47  E(vib)   ...       0.01
freq.    1316.94  E(vib)   ...       0.01
freq.    1355.29  E(vib)   ...       0.01
freq.    1385.51  E(vib)   ...       0.00
freq.    1399.95  E(vib)   ...       0.00
freq.    1426.46  E(vib)   ...       0.00
freq.    1439.45  E(vib)   ...       0.00
freq.    1440.43  E(vib)   ...       0.00
freq.    1469.94  E(vib)   ...       0.00
freq.    1509.47  E(vib)   ...       0.00
freq.    1545.16  E(vib)   ...       0.00
freq.    1577.98  E(vib)   ...       0.00
freq.    1616.99  E(vib)   ...       0.00
freq.    1653.69  E(vib)   ...       0.00
freq.    1706.83  E(vib)   ...       0.00
freq.    3021.72  E(vib)   ...       0.00
freq.    3092.44  E(vib)   ...       0.00
freq.    3096.31  E(vib)   ...       0.00
freq.    3162.63  E(vib)   ...       0.00
freq.    3174.01  E(vib)   ...       0.00
freq.    3182.87  E(vib)   ...       0.00
freq.    3190.63  E(vib)   ...       0.00
freq.    3226.25  E(vib)   ...       0.00
freq.    3252.90  E(vib)   ...       0.00
freq.    3254.74  E(vib)   ...       0.00

------------
INNER ENERGY
------------

The inner energy is: U= E(el) + E(ZPE) + E(vib) + E(rot) + E(trans)
    E(el)   - is the total energy from the electronic structure calculation
              = E(kin-el) + E(nuc-el) + E(el-el) + E(nuc-nuc)
    E(ZPE)  - the the zero temperature vibrational energy from the frequency calculation
    E(vib)  - the the finite temperature correction to E(ZPE) due to population
              of excited vibrational states
    E(rot)  - is the rotational thermal energy
    E(trans)- is the translational thermal energy

Summary of contributions to the inner energy U:
Electronic energy                ...   -536.22920257 Eh
Zero point energy                ...      0.17882133 Eh     112.21 kcal/mol
Thermal vibrational correction   ...      0.00750532 Eh       4.71 kcal/mol
Thermal rotational correction    ...      0.00141627 Eh       0.89 kcal/mol
Thermal translational correction ...      0.00141627 Eh       0.89 kcal/mol
-----------------------------------------------------------------------
Total thermal energy                   -536.04004338 Eh

Summary of corrections to the electronic energy:
(perhaps to be used in another calculation)
Total thermal correction                  0.01033786 Eh       6.49 kcal/mol
Non-thermal (ZPE) correction              0.17882133 Eh     112.21 kcal/mol
-----------------------------------------------------------------------
Total correction                          0.18915919 Eh     118.70 kcal/mol

--------
ENTHALPY
--------

The enthalpy is H = U + kB*T
                kB is Boltzmann's constant
Total thermal energy              ...   -536.04004338 Eh
Thermal Enthalpy correction       ...      0.00094421 Eh       0.59 kcal/mol
-----------------------------------------------------------------------
Total Enthalpy                    ...   -536.03909917 Eh

Note: Only C1 symmetry has been detected, increase convergence thresholds
      if your molecule has a higher symmetry. Symmetry factor of 1.0 is
      used for the rotational entropy correction.

Note: Rotational entropy computed according to Herzberg
Infrared and Raman Spectra, Chapter V,1, Van Nostrand Reinhold, 1945
Point Group:  C1, Symmetry Number:   1
Rotational constants in cm-1:     0.088323     0.016345     0.013866

Vibrational entropy computed according to the QRRHO of S. Grimme
Chem.Eur.J. 2012 18 9955 using a reference frequency of 100.0 cm-1

-------
ENTROPY
-------

The entropy contributions are T*S = T*(S(el)+S(vib)+S(rot)+S(trans))
     S(el)   - electronic entropy
     S(vib)  - vibrational entropy
     S(rot)  - rotational entropy
     S(trans)- translational entropy
The entropies will be listed as multiplied by the temperature to get
units of energy

Electronic entropy                ...      0.00065446 Eh      0.41 kcal/mol
Vibrational entropy               ...      0.01277971 Eh      8.02 kcal/mol
Rotational entropy                ...      0.01461833 Eh      9.17 kcal/mol
Translational entropy             ...      0.01955613 Eh     12.27 kcal/mol
-----------------------------------------------------------------------
Final entropy term                ...      0.04760863 Eh     29.87 kcal/mol

In case the symmetry of your molecule has not been determined correctly
or in case you have a reason to use a different symmetry number we print
out the resulting rotational entropy values for sn=1,12:

                             ****ORCA TERMINATED NORMALLY****
TOTAL RUN TIME: 0 days 0 hours 11 minutes 55 seconds 717 msec
