                         Program Version 6.0.0  -   RELEASE  -
|  1> !PBE0 freq def2-SV(p) d3 TightSCF SlowConv RIJCOSX defgrid2
|  2>
|  3> %pal
|  4> nprocs 12
|  5> end
|  6>
|  7> %scf
|  8> MaxIter 1500
|  9> end
| 10>
| 11> %maxcore 5000
| 12>
| 13> !CPCM
| 14> %cpcm smd true
| 15> SMDsolvent "MeCN"
| 16> surfacetype gepol_ses
| 17> rsolv 2.19
| 18> end
| 19>
| 20> * xyz 0 1
| 21> C          -0.23060202919216     -1.20833785422751     -0.00126919641108
| 22> C           1.16185782322813     -1.20168381973180      0.00123188744583
| 23> C           1.87474068479701     -0.00003042296055      0.00361613740109
| 24> C           1.16188654513641      1.20164015333117      0.00123103144400
| 25> C          -0.23057314839141      1.20832775091669     -0.00127015177497
| 26> C          -0.95615743390886      0.00000351659204      0.00069240584278
| 27> N          -2.33165096880642      0.00002059593150      0.05326458033032
| 28> H          -2.79881660758011      0.84827862328602     -0.25321977552659
| 29> H          -2.79883968992623     -0.84822230114970     -0.25322713673252
| 30> H          -0.77471882403139      2.15860209771665     -0.00444084041018
| 31> H           1.69835874743540      2.15635810309704     -0.00185287434685
| 32> H           2.96854928339746     -0.00004380326465      0.00365594044252
| 33> H           1.69830608104258     -2.15641460586074     -0.00185002137117
| 34> H          -0.77477086320040     -2.15859903367615     -0.00443828633319
| 35> *
| 36>
| 37>                          ****END OF INPUT****

CARTESIAN COORDINATES (ANGSTROEM)
---------------------------------
  C     -0.230602   -1.208338   -0.001269
  C      1.161858   -1.201684    0.001232
  C      1.874741   -0.000030    0.003616
  C      1.161887    1.201640    0.001231
  C     -0.230573    1.208328   -0.001270
  C     -0.956157    0.000004    0.000692
  N     -2.331651    0.000021    0.053265
  H     -2.798817    0.848279   -0.253220
  H     -2.798840   -0.848222   -0.253227
  H     -0.774719    2.158602   -0.004441
  H      1.698359    2.156358   -0.001853
  H      2.968549   -0.000044    0.003656
  H      1.698306   -2.156415   -0.001850
  H     -0.774771   -2.158599   -0.004438

 Total Charge           Charge          ....    0
 Multiplicity           Mult            ....    1
 Number of Electrons    NEL             ....   50
 Basis Dimension        Dim             ....  112

ORBITAL ENERGIES
----------------

  NO   OCC          E(Eh)            E(eV)
   0   2.0000     -14.383424      -391.3929
   1   2.0000     -10.275849      -279.6201
   2   2.0000     -10.232545      -278.4417
   3   2.0000     -10.232529      -278.4413
   4   2.0000     -10.225333      -278.2455
   5   2.0000     -10.225330      -278.2454
   6   2.0000     -10.221631      -278.1447
   7   2.0000      -0.933840       -25.4111
   8   2.0000      -0.851949       -23.1827
   9   2.0000      -0.756575       -20.5874
  10   2.0000      -0.735902       -20.0249
  11   2.0000      -0.622248       -16.9322
  12   2.0000      -0.608598       -16.5608
  13   2.0000      -0.537058       -14.6141
  14   2.0000      -0.517300       -14.0765
  15   2.0000      -0.485895       -13.2219
  16   2.0000      -0.440617       -11.9898
  17   2.0000      -0.437796       -11.9130
  18   2.0000      -0.425809       -11.5869
  19   2.0000      -0.402098       -10.9416
  20   2.0000      -0.366994        -9.9864
  21   2.0000      -0.346852        -9.4383
  22   2.0000      -0.327066        -8.8999
  23   2.0000      -0.266064        -7.2400
  24   2.0000      -0.214198        -5.8286
  25   0.0000      -0.000963        -0.0262
  26   0.0000       0.016738         0.4555
  27   0.0000       0.083424         2.2701
  28   0.0000       0.097591         2.6556
  29   0.0000       0.114197         3.1075

MULLIKEN ATOMIC CHARGES
-----------------------
   0 C :   -0.195803
   1 C :   -0.129941
   2 C :   -0.148492
   3 C :   -0.129939
   4 C :   -0.195803
   5 C :    0.131668
   6 N :   -0.453872
   7 H :    0.281200
   8 H :    0.281200
   9 H :    0.103304
  10 H :    0.119884
  11 H :    0.113408
  12 H :    0.119884
  13 H :    0.103303
Sum of atomic charges:    0.0000000

LOEWDIN ATOMIC CHARGES
----------------------
   0 C :   -0.186706
   1 C :   -0.134246
   2 C :   -0.191981
   3 C :   -0.134245
   4 C :   -0.186705
   5 C :   -0.006322
   6 N :   -0.351676
   7 H :    0.251484
   8 H :    0.251484
   9 H :    0.138225
  10 H :    0.138561
  11 H :    0.135343
  12 H :    0.138561
  13 H :    0.138224

  Mayer bond orders larger than 0.100000
B(  0-C ,  1-C ) :   1.4042 B(  0-C ,  5-C ) :   1.3204 B(  0-C , 13-H ) :   0.9659
B(  1-C ,  2-C ) :   1.3652 B(  1-C , 12-H ) :   0.9615 B(  2-C ,  3-C ) :   1.3652
B(  2-C , 11-H ) :   0.9690 B(  3-C ,  4-C ) :   1.4042 B(  3-C , 10-H ) :   0.9615
B(  4-C ,  5-C ) :   1.3204 B(  4-C ,  9-H ) :   0.9659 B(  5-C ,  6-N ) :   1.2328
B(  6-N ,  7-H ) :   0.8667 B(  6-N ,  8-H ) :   0.8667

Dispersion correction           -0.011424525
FINAL SINGLE POINT ENERGY      -287.063715895884

DIPOLE MOMENT
-------------

Method             : SCF
Type of density    : Electron Density
Multiplicity       :   1
Irrep              :   0
Energy             :  -287.0522913712802620 Eh
Relativity type    :
Basis              : AO
                                X                 Y                 Z
Electronic contribution:     -0.185247660       0.000003549       0.048154864
Nuclear contribution   :     -0.743380688       0.000012663      -0.502796380
                        -----------------------------------------
Total Dipole Moment    :     -0.928628347       0.000016212      -0.454641516
                        -----------------------------------------
Magnitude (a.u.)       :      1.033948507
Magnitude (Debye)      :      2.628088248

VIBRATIONAL FREQUENCIES
-----------------------

Scaling factor for frequencies =  1.000000000  (already applied!)

     0:       0.00 cm**-1
     1:       0.00 cm**-1
     2:       0.00 cm**-1
     3:       0.00 cm**-1
     4:       0.00 cm**-1
     5:       0.00 cm**-1
     6:     219.85 cm**-1
     7:     326.15 cm**-1
     8:     385.45 cm**-1
     9:     424.12 cm**-1
    10:     446.51 cm**-1
    11:     533.88 cm**-1
    12:     537.72 cm**-1
    13:     629.69 cm**-1
    14:     717.06 cm**-1
    15:     777.01 cm**-1
    16:     840.49 cm**-1
    17:     845.06 cm**-1
    18:     901.06 cm**-1
    19:     990.30 cm**-1
    20:    1006.05 cm**-1
    21:    1009.69 cm**-1
    22:    1057.33 cm**-1
    23:    1062.80 cm**-1
    24:    1126.17 cm**-1
    25:    1150.16 cm**-1
    26:    1179.55 cm**-1
    27:    1349.89 cm**-1
    28:    1352.81 cm**-1
    29:    1406.87 cm**-1
    30:    1510.70 cm**-1
    31:    1550.75 cm**-1
    32:    1627.26 cm**-1
    33:    1661.69 cm**-1
    34:    1694.20 cm**-1
    35:    3184.15 cm**-1
    36:    3186.34 cm**-1
    37:    3198.43 cm**-1
    38:    3202.89 cm**-1
    39:    3217.84 cm**-1
    40:    3539.66 cm**-1
    41:    3633.86 cm**-1

IR SPECTRUM
-----------

 Mode   freq       eps      Int      T**2         TX        TY        TZ
       cm**-1   L/(mol*cm) km/mol    a.u.
----------------------------------------------------------------------------
  6:    219.85   0.002788   14.09  0.003957  (-0.034967  0.000000  0.052295)
  7:    326.15   0.006062   30.64  0.005800  (-0.000000  0.076160  0.000002)
  8:    385.45   0.000251    1.27  0.000204  ( 0.000026 -0.014267 -0.000018)
  9:    424.12   0.000008    0.04  0.000006  ( 0.000002  0.002446 -0.000002)
 10:    446.51   0.111899  565.49  0.078206  ( 0.206033 -0.000000 -0.189093)
 11:    533.88   0.004981   25.17  0.002912  ( 0.053888  0.000003  0.002780)
 12:    537.72   0.002530   12.79  0.001468  ( 0.038013 -0.000001 -0.004842)
 13:    629.69   0.000229    1.16  0.000114  ( 0.000003 -0.010662 -0.000009)
 14:    717.06   0.010114   51.11  0.004402  ( 0.005014  0.000002  0.066155)
 15:    777.01   0.015947   80.59  0.006405  (-0.012917  0.000000  0.078979)
 16:    840.49   0.000013    0.06  0.000005  (-0.000001  0.002163 -0.000000)
 17:    845.06   0.001944    9.83  0.000718  ( 0.026272  0.000001  0.005272)
 18:    901.06   0.003576   18.07  0.001238  (-0.003369  0.000002  0.035029)
 19:    990.30   0.000000    0.00  0.000000  ( 0.000001  0.000218  0.000001)
 20:   1006.05   0.000524    2.65  0.000162  (-0.011764 -0.000011 -0.004904)
 21:   1009.69   0.000095    0.48  0.000029  ( 0.001712  0.000000 -0.005152)
 22:   1057.33   0.003206   16.20  0.000946  (-0.030759  0.000025 -0.000488)
 23:   1062.80   0.000842    4.25  0.000247  ( 0.000022  0.015723 -0.000001)
 24:   1126.17   0.003442   17.39  0.000954  ( 0.000007  0.030882 -0.000001)
 25:   1150.16   0.000838    4.23  0.000227  (-0.000002  0.015078 -0.000000)
 26:   1179.55   0.003094   15.64  0.000819  (-0.028594 -0.000000 -0.001028)
 27:   1349.89   0.017992   90.93  0.004159  ( 0.064491 -0.000041 -0.000572)
 28:   1352.81   0.000159    0.80  0.000037  ( 0.000389  0.006040 -0.000004)
 29:   1406.87   0.006378   32.23  0.001415  ( 0.000030  0.037612  0.000000)
 30:   1510.70   0.000045    0.22  0.000009  ( 0.000052 -0.003032 -0.000003)
 31:   1550.75   0.028450  143.78  0.005725  ( 0.075602 -0.000014 -0.003085)
 32:   1627.26   0.027452  138.73  0.005265  (-0.069738 -0.000001 -0.020029)
 33:   1661.69   0.003646   18.43  0.000685  ( 0.000098 -0.026167  0.000007)
 34:   1694.20   0.058607  296.18  0.010795  (-0.103826 -0.000024 -0.003905)
 35:   3184.15   0.004042   20.43  0.000396  ( 0.019904  0.000006  0.000096)
 36:   3186.34   0.000276    1.40  0.000027  ( 0.000026 -0.005203 -0.000000)
 37:   3198.43   0.001402    7.08  0.000137  (-0.011694  0.000004 -0.000021)
 38:   3202.89   0.007487   37.84  0.000730  ( 0.000003  0.027010  0.000000)
 39:   3217.84   0.002556   12.92  0.000248  ( 0.015743 -0.000000  0.000179)
 40:   3539.66   0.019709   99.60  0.001738  (-0.039122 -0.000000 -0.014389)
 41:   3633.86   0.012697   64.16  0.001090  (-0.000000  0.033020 -0.000000)

--------------------------
THERMOCHEMISTRY AT 298.15K
--------------------------

Temperature         ...   298.15 K
Pressure            ...     1.00 atm
Total Mass          ...    93.13 AMU
Quasi RRHO          ...     True
Cut-Off Frequency   ...     1.00 cm^-1

Throughout the following assumptions are being made:
  (1) The electronic state is orbitally nondegenerate
  (2) There are no thermally accessible electronically excited states
  (3) Hindered rotations indicated by low frequency modes are not
      treated as such but are treated as vibrations and this may
      cause some error
  (4) All equations used are the standard statistical mechanics
      equations for an ideal gas
  (5) All vibrations are strictly harmonic

freq.     219.85  E(vib)   ...       0.33
freq.     326.15  E(vib)   ...       0.24
freq.     385.45  E(vib)   ...       0.20
freq.     424.12  E(vib)   ...       0.18
freq.     446.51  E(vib)   ...       0.17
freq.     533.88  E(vib)   ...       0.13
freq.     537.72  E(vib)   ...       0.12
freq.     629.69  E(vib)   ...       0.09
freq.     717.06  E(vib)   ...       0.07
freq.     777.01  E(vib)   ...       0.05
freq.     840.49  E(vib)   ...       0.04
freq.     845.06  E(vib)   ...       0.04
freq.     901.06  E(vib)   ...       0.03
freq.     990.30  E(vib)   ...       0.02
freq.    1006.05  E(vib)   ...       0.02
freq.    1009.69  E(vib)   ...       0.02
freq.    1057.33  E(vib)   ...       0.02
freq.    1062.80  E(vib)   ...       0.02
freq.    1126.17  E(vib)   ...       0.01
freq.    1150.16  E(vib)   ...       0.01
freq.    1179.55  E(vib)   ...       0.01
freq.    1349.89  E(vib)   ...       0.01
freq.    1352.81  E(vib)   ...       0.01
freq.    1406.87  E(vib)   ...       0.00
freq.    1510.70  E(vib)   ...       0.00
freq.    1550.75  E(vib)   ...       0.00
freq.    1627.26  E(vib)   ...       0.00
freq.    1661.69  E(vib)   ...       0.00
freq.    1694.20  E(vib)   ...       0.00
freq.    3184.15  E(vib)   ...       0.00
freq.    3186.34  E(vib)   ...       0.00
freq.    3198.43  E(vib)   ...       0.00
freq.    3202.89  E(vib)   ...       0.00
freq.    3217.84  E(vib)   ...       0.00
freq.    3539.66  E(vib)   ...       0.00
freq.    3633.86  E(vib)   ...       0.00

------------
INNER ENERGY
------------

The inner energy is: U= E(el) + E(ZPE) + E(vib) + E(rot) + E(trans)
    E(el)   - is the total energy from the electronic structure calculation
              = E(kin-el) + E(nuc-el) + E(el-el) + E(nuc-nuc)
    E(ZPE)  - the the zero temperature vibrational energy from the frequency calculation
    E(vib)  - the the finite temperature correction to E(ZPE) due to population
              of excited vibrational states
    E(rot)  - is the rotational thermal energy
    E(trans)- is the translational thermal energy

Summary of contributions to the inner energy U:
Electronic energy                ...   -287.06371590 Eh
Zero point energy                ...      0.11728790 Eh      73.60 kcal/mol
Thermal vibrational correction   ...      0.00298810 Eh       1.88 kcal/mol
Thermal rotational correction    ...      0.00141627 Eh       0.89 kcal/mol
Thermal translational correction ...      0.00141627 Eh       0.89 kcal/mol
-----------------------------------------------------------------------
Total thermal energy                   -286.94060735 Eh

Summary of corrections to the electronic energy:
(perhaps to be used in another calculation)
Total thermal correction                  0.00582065 Eh       3.65 kcal/mol
Non-thermal (ZPE) correction              0.11728790 Eh      73.60 kcal/mol
-----------------------------------------------------------------------
Total correction                          0.12310855 Eh      77.25 kcal/mol

--------
ENTHALPY
--------

The enthalpy is H = U + kB*T
                kB is Boltzmann's constant
Total thermal energy              ...   -286.94060735 Eh
Thermal Enthalpy correction       ...      0.00094421 Eh       0.59 kcal/mol
-----------------------------------------------------------------------
Total Enthalpy                    ...   -286.93966314 Eh

Note: Rotational entropy computed according to Herzberg
Infrared and Raman Spectra, Chapter V,1, Van Nostrand Reinhold, 1945
Point Group:  Cs, Symmetry Number:   1
Rotational constants in cm-1:     0.186999     0.086485     0.059205

Vibrational entropy computed according to the QRRHO of S. Grimme
Chem.Eur.J. 2012 18 9955 using a reference frequency of 100.0 cm-1

-------
ENTROPY
-------

The entropy contributions are T*S = T*(S(el)+S(vib)+S(rot)+S(trans))
     S(el)   - electronic entropy
     S(vib)  - vibrational entropy
     S(rot)  - rotational entropy
     S(trans)- translational entropy
The entropies will be listed as multiplied by the temperature to get
units of energy

Electronic entropy                ...      0.00000000 Eh      0.00 kcal/mol
Vibrational entropy               ...      0.00436569 Eh      2.74 kcal/mol
Rotational entropy                ...      0.01279240 Eh      8.03 kcal/mol
Translational entropy             ...      0.01877043 Eh     11.78 kcal/mol
-----------------------------------------------------------------------
Final entropy term                ...      0.03592851 Eh     22.55 kcal/mol

In case the symmetry of your molecule has not been determined correctly
or in case you have a reason to use a different symmetry number we print
out the resulting rotational entropy values for sn=1,12:

 non-linear molecules -----------------------------------
|  sn= 1 | S(rot)=       0.01279240 Eh      8.03 kcal/mol|
|  sn= 2 | S(rot)=       0.01213794 Eh      7.62 kcal/mol|
|  sn= 3 | S(rot)=       0.01175511 Eh      7.38 kcal/mol|
|  sn= 4 | S(rot)=       0.01148348 Eh      7.21 kcal/mol|
|  sn= 5 | S(rot)=       0.01127279 Eh      7.07 kcal/mol|
|  sn= 6 | S(rot)=       0.01110065 Eh      6.97 kcal/mol|
|  sn= 7 | S(rot)=       0.01095510 Eh      6.87 kcal/mol|
|  sn= 8 | S(rot)=       0.01082903 Eh      6.80 kcal/mol|
|  sn= 9 | S(rot)=       0.01071782 Eh      6.73 kcal/mol|
|  sn=10 | S(rot)=       0.01061834 Eh      6.66 kcal/mol|
|  sn=11 | S(rot)=       0.01052835 Eh      6.61 kcal/mol|
|  sn=12 | S(rot)=       0.01044619 Eh      6.56 kcal/mol|
 linear molecules ---------------------------------------
|  Dinfh | S(rot)=       0.00799476 Eh      5.02 kcal/mol|
|  Cinfv | S(rot)=       0.00864922 Eh      5.43 kcal/mol|
 --------------------------------------------------------

-------------------
GIBBS FREE ENERGY
-------------------

The Gibbs free energy is G = H - T*S

Total enthalpy                    ...   -286.93966314 Eh
Total entropy correction          ...     -0.03592851 Eh    -22.55 kcal/mol
-----------------------------------------------------------------------
Final Gibbs free energy         ...   -286.97559165 Eh

                             ****ORCA TERMINATED NORMALLY****
TOTAL RUN TIME: 0 days 0 hours 4 minutes 51 seconds 509 msec
