                         Program Version 6.0.0  -   RELEASE  -
|  1> !TPSSh freq aug-cc-pVTZ d3 TightSCF SlowConv RIJCOSX defgrid2
|  2>
|  3> %pal
|  4> nprocs 12
|  5> end
|  6>
|  7> %scf
|  8> MaxIter 1500
|  9> end
| 10>
| 11> %maxcore 5000
| 12>
| 13> !CPCM
| 14> %cpcm smd true
| 15> SMDsolvent "MeCN"
| 16> surfacetype gepol_ses
| 17> rsolv 2.19
| 18> end
| 19>
| 20> * xyz 0 1
| 21> C          -0.32929488413657      0.79958569403428      0.00044273535199
| 22> C          -1.62064273901710      0.26512523742046     -0.00020576169036
| 23> C          -1.80432551351291     -1.11702937985967      0.00040659700901
| 24> C          -0.67721002406201     -1.94268452957353      0.00208797584013
| 25> C           0.60475083946867     -1.41996105828678      0.00282182676021
| 26> C           0.79623097182594     -0.02620793764457      0.00167680462721
| 27> C           2.12003001414923      0.60623088110746      0.00195889667842
| 28> C           3.30641276426241     -0.01400237289311     -0.00198378489099
| 29> C           4.62380142061727      0.68911900588518     -0.00119207997422
| 30> H           5.21449119138271      0.41087526655385     -0.88079707373311
| 31> H           5.21822793733002      0.40102406633612      0.87271923920832
| 32> H           4.50188721530458      1.77395550003908      0.00505557433799
| 33> H           3.34867776156783     -1.10033674308372     -0.00638425570909
| 34> H           2.10706040858269      1.69424506736667      0.00536777232973
| 35> H           1.45418527737287     -2.09083281621199      0.00484806129512
| 36> H          -0.81713692626644     -3.01746919504622      0.00321379625985
| 37> H          -2.79302535743489     -1.55356575501186     -0.00063295864249
| 38> O          -2.63724047795254      1.17280763041773     -0.00143754498251
| 39> C          -3.97281153020014      0.65970820471451     -0.00151714938107
| 40> H          -4.62235565773561      1.53218843498021     -0.00192511531647
| 41> H          -4.16125459990047      0.06074074115443      0.89321910754182
| 42> H          -4.16079480798000      0.06040695045440     -0.89606844083238
| 43> H          -0.21249908366553      1.87744010714706     -0.00041962208710
| 44> *
| 45>
| 46>                          ****END OF INPUT****

CARTESIAN COORDINATES (ANGSTROEM)
---------------------------------
  C     -0.329295    0.799586    0.000443
  C     -1.620643    0.265125   -0.000206
  C     -1.804326   -1.117029    0.000407
  C     -0.677210   -1.942685    0.002088
  C      0.604751   -1.419961    0.002822
  C      0.796231   -0.026208    0.001677
  C      2.120030    0.606231    0.001959
  C      3.306413   -0.014002   -0.001984
  C      4.623801    0.689119   -0.001192
  H      5.214491    0.410875   -0.880797
  H      5.218228    0.401024    0.872719
  H      4.501887    1.773956    0.005056
  H      3.348678   -1.100337   -0.006384
  H      2.107060    1.694245    0.005368
  H      1.454185   -2.090833    0.004848
  H     -0.817137   -3.017469    0.003214
  H     -2.793025   -1.553566   -0.000633
  O     -2.637240    1.172808   -0.001438
  C     -3.972812    0.659708   -0.001517
  H     -4.622356    1.532188   -0.001925
  H     -4.161255    0.060741    0.893219
  H     -4.160795    0.060407   -0.896068
  H     -0.212499    1.877440   -0.000420

 Total Charge           Charge          ....    0
 Multiplicity           Mult            ....    1
 Number of Electrons    NEL             ....   80
 Basis Dimension        Dim             ....  782

ORBITAL ENERGIES
----------------

  NO   OCC          E(Eh)            E(eV)
   0   2.0000     -19.083124      -519.2782
   1   2.0000     -10.172745      -276.8145
   2   2.0000     -10.154579      -276.3201
   3   2.0000     -10.126470      -275.5553
   4   2.0000     -10.115981      -275.2698
   5   2.0000     -10.114223      -275.2220
   6   2.0000     -10.110321      -275.1158
   7   2.0000     -10.109661      -275.0979
   8   2.0000     -10.109497      -275.0934
   9   2.0000     -10.106581      -275.0141
  10   2.0000     -10.103133      -274.9202
  11   2.0000      -1.039317       -28.2812
  12   2.0000      -0.837476       -22.7889
  13   2.0000      -0.778715       -21.1899
  14   2.0000      -0.735171       -20.0050
  15   2.0000      -0.728508       -19.8237
  16   2.0000      -0.672309       -18.2945
  17   2.0000      -0.659531       -17.9467
  18   2.0000      -0.586212       -15.9517
  19   2.0000      -0.580103       -15.7854
  20   2.0000      -0.529350       -14.4044
  21   2.0000      -0.503826       -13.7098
  22   2.0000      -0.465941       -12.6789
  23   2.0000      -0.459361       -12.4998
  24   2.0000      -0.444113       -12.0849
  25   2.0000      -0.440394       -11.9837
  26   2.0000      -0.412557       -11.2263
  27   2.0000      -0.399655       -10.8752
  28   2.0000      -0.392327       -10.6758
  29   2.0000      -0.380024       -10.3410
  30   2.0000      -0.368650       -10.0315
  31   2.0000      -0.366332        -9.9684
  32   2.0000      -0.350973        -9.5505
  33   2.0000      -0.333511        -9.0753
  34   2.0000      -0.326762        -8.8916
  35   2.0000      -0.316091        -8.6013
  36   2.0000      -0.306662        -8.3447
  37   2.0000      -0.277961        -7.5637
  38   2.0000      -0.220858        -6.0098
  39   2.0000      -0.207226        -5.6389
  40   0.0000      -0.046135        -1.2554
  41   0.0000      -0.018499        -0.5034
  42   0.0000      -0.002783        -0.0757
  43   0.0000       0.005184         0.1411
  44   0.0000       0.010022         0.2727

MULLIKEN ATOMIC CHARGES
-----------------------
   0 C :   -0.679585
   1 C :    0.756404
   2 C :   -0.003387
   3 C :   -0.703951
   4 C :   -0.437113
   5 C :    1.354191
   6 C :    0.000967
   7 C :   -0.445976
   8 C :   -0.328827
   9 H :    0.124954
  10 H :    0.125963
  11 H :    0.124757
  12 H :    0.036407
  13 H :   -0.050278
  14 H :    0.090137
  15 H :    0.452935
  16 H :    0.077830
  17 O :   -0.691778
  18 C :   -0.234317
  19 H :    0.015487
  20 H :    0.202669
  21 H :    0.200983
  22 H :    0.011530
Sum of atomic charges:   -0.0000000

LOEWDIN ATOMIC CHARGES
----------------------
   0 C :    0.208702
   1 C :   -0.400007
   2 C :    0.202589
   3 C :    0.191841
   4 C :    0.201170
   5 C :   -0.155646
   6 C :    0.206840
   7 C :    0.210815
   8 C :    0.563215
   9 H :   -0.170506
  10 H :   -0.170570
  11 H :   -0.179733
  12 H :   -0.191118
  13 H :   -0.191423
  14 H :   -0.195962
  15 H :   -0.177181
  16 H :   -0.202574
  17 O :    0.596793
  18 C :    0.353689
  19 H :   -0.178909
  20 H :   -0.171851
  21 H :   -0.171879
  22 H :   -0.178292

  Mayer bond orders larger than 0.100000
B(  0-C ,  1-C ) :   0.6309 B(  0-C ,  4-C ) :  -0.1056 B(  0-C ,  5-C ) :   0.3837
B(  0-C ,  6-C ) :  -0.2602 B(  0-C ,  7-C ) :   0.1545 B(  0-C , 17-O ) :   0.4384
B(  0-C , 22-H ) :   1.1506 B(  1-C ,  2-C ) :   1.1111 B(  1-C ,  4-C ) :  -0.1053
B(  1-C , 18-C ) :   0.1719 B(  1-C , 22-H ) :  -0.1014 B(  2-C ,  3-C ) :   1.1247
B(  2-C , 16-H ) :   1.0609 B(  2-C , 17-O ) :  -0.2420 B(  2-C , 18-C ) :  -0.1285
B(  3-C ,  4-C ) :   1.3064 B(  3-C ,  5-C ) :  -0.1703 B(  3-C , 15-H ) :   0.4665
B(  4-C ,  5-C ) :   0.6637 B(  4-C ,  7-C ) :   0.1320 B(  4-C , 14-H ) :   1.0103
B(  5-C ,  6-C ) :   0.2028 B(  5-C ,  7-C ) :  -0.2093 B(  5-C , 12-H ) :  -0.1398
B(  5-C , 17-O ) :   0.1392 B(  6-C ,  7-C ) :   1.0381 B(  6-C , 13-H ) :   1.2066
B(  7-C ,  8-C ) :   1.0223 B(  7-C , 11-H ) :   0.1159 B(  7-C , 12-H ) :   1.3072
B(  8-C ,  9-H ) :   0.9719 B(  8-C , 10-H ) :   0.9723 B(  8-C , 11-H ) :   0.9353
B( 17-O , 18-C ) :   0.9516 B( 18-C , 19-H ) :   1.0689 B( 18-C , 20-H ) :   0.9380
B( 18-C , 21-H ) :   0.9378

Dispersion correction           -0.026593917
FINAL SINGLE POINT ENERGY      -463.723897581143

DIPOLE MOMENT
-------------

Method             : SCF
Type of density    : Electron Density
Multiplicity       :   1
Irrep              :   0
Energy             :  -463.6973036646190849 Eh
Relativity type    :
Basis              : AO
                                X                 Y                 Z
Electronic contribution:     -5.101009327      -0.361817337       0.003036895
Nuclear contribution   :      4.760935494       0.002544090      -0.003933514
                        -----------------------------------------
Total Dipole Moment    :     -0.340073833      -0.359273247      -0.000896618
                        -----------------------------------------
Magnitude (a.u.)       :      0.494700194
Magnitude (Debye)      :      1.257427963

VIBRATIONAL FREQUENCIES
-----------------------

Scaling factor for frequencies =  1.000000000  (already applied!)

     0:       0.00 cm**-1
     1:       0.00 cm**-1
     2:       0.00 cm**-1
     3:       0.00 cm**-1
     4:       0.00 cm**-1
     5:       0.00 cm**-1
     6:      26.69 cm**-1
     7:      81.23 cm**-1
     8:     116.72 cm**-1
     9:     128.69 cm**-1
    10:     191.95 cm**-1
    11:     200.13 cm**-1
    12:     244.91 cm**-1
    13:     254.96 cm**-1
    14:     294.93 cm**-1
    15:     327.47 cm**-1
    16:     352.23 cm**-1
    17:     458.67 cm**-1
    18:     468.35 cm**-1
    19:     569.06 cm**-1
    20:     604.96 cm**-1
    21:     625.60 cm**-1
    22:     694.75 cm**-1
    23:     762.10 cm**-1
    24:     780.59 cm**-1
    25:     821.86 cm**-1
    26:     879.86 cm**-1
    27:     889.92 cm**-1
    28:     894.94 cm**-1
    29:     962.04 cm**-1
    30:     984.22 cm**-1
    31:    1001.65 cm**-1
    32:    1001.84 cm**-1
    33:    1051.68 cm**-1
    34:    1062.57 cm**-1
    35:    1105.04 cm**-1
    36:    1121.90 cm**-1
    37:    1164.03 cm**-1
    38:    1166.91 cm**-1
    39:    1186.78 cm**-1
    40:    1208.13 cm**-1
    41:    1279.07 cm**-1
    42:    1306.80 cm**-1
    43:    1320.62 cm**-1
    44:    1336.67 cm**-1
    45:    1367.27 cm**-1
    46:    1400.85 cm**-1
    47:    1452.77 cm**-1
    48:    1463.86 cm**-1
    49:    1472.05 cm**-1
    50:    1480.00 cm**-1
    51:    1483.20 cm**-1
    52:    1492.80 cm**-1
    53:    1517.94 cm**-1
    54:    1605.22 cm**-1
    55:    1634.57 cm**-1
    56:    1697.81 cm**-1
    57:    3004.64 cm**-1
    58:    3016.04 cm**-1
    59:    3046.06 cm**-1
    60:    3080.70 cm**-1
    61:    3090.24 cm**-1
    62:    3116.39 cm**-1
    63:    3130.88 cm**-1
    64:    3137.76 cm**-1
    65:    3163.66 cm**-1
    66:    3167.61 cm**-1
    67:    3183.68 cm**-1
    68:    3205.25 cm**-1

IR SPECTRUM
-----------

 Mode   freq       eps      Int      T**2         TX        TY        TZ
       cm**-1   L/(mol*cm) km/mol    a.u.
----------------------------------------------------------------------------
  6:     26.69   0.000341    1.72  0.003985  ( 0.000363  0.000231  0.063128)
  7:     81.23   0.001484    7.50  0.005699  (-0.000278 -0.000538 -0.075489)
  8:    116.72   0.000409    2.07  0.001093  (-0.023916  0.022828 -0.000224)
  9:    128.69   0.000124    0.62  0.000300  (-0.000322  0.000180 -0.017306)
 10:    191.95   0.000054    0.27  0.000087  ( 0.000258 -0.000031 -0.009323)
 11:    200.13   0.000281    1.42  0.000439  (-0.000274  0.000434 -0.020941)
 12:    244.91   0.000600    3.03  0.000765  (-0.003095 -0.027469 -0.000747)
 13:    254.96   0.000167    0.84  0.000205  ( 0.000116  0.001175 -0.014252)
 14:    294.93   0.000029    0.15  0.000031  (-0.000161 -0.000035  0.005555)
 15:    327.47   0.000067    0.34  0.000064  ( 0.006483  0.004715 -0.000021)
 16:    352.23   0.000302    1.53  0.000267  ( 0.016168 -0.002456  0.000117)
 17:    458.67   0.001235    6.24  0.000840  ( 0.000057  0.000084 -0.028987)
 18:    468.35   0.000310    1.57  0.000207  (-0.010230 -0.010092  0.000271)
 19:    569.06   0.002917   14.74  0.001600  ( 0.024865 -0.031325 -0.000212)
 20:    604.96   0.000078    0.40  0.000040  ( 0.000173  0.000046  0.006356)
 21:    625.60   0.000361    1.82  0.000180  (-0.007524 -0.011109 -0.000037)
 22:    694.75   0.007991   40.38  0.003589  ( 0.000185  0.000091  0.059909)
 23:    762.10   0.002763   13.96  0.001131  (-0.030132  0.014939 -0.000443)
 24:    780.59   0.017264   87.25  0.006902  ( 0.000023  0.000366  0.083077)
 25:    821.86   0.000296    1.50  0.000112  (-0.000073 -0.000066  0.010601)
 26:    879.86   0.001629    8.23  0.000578  ( 0.000534  0.000158  0.024031)
 27:    889.92   0.008683   43.88  0.003045  ( 0.044567 -0.032537 -0.000052)
 28:    894.94   0.004466   22.57  0.001557  ( 0.000069  0.000434 -0.039459)
 29:    962.04   0.009026   45.61  0.002928  (-0.053768 -0.006059  0.000264)
 30:    984.22   0.000684    3.45  0.000217  (-0.000572 -0.000229  0.014710)
 31:   1001.65   0.015813   79.91  0.004927  ( 0.000483 -0.001991  0.070159)
 32:   1001.84   0.000764    3.86  0.000238  (-0.001565  0.012282  0.009197)
 33:   1051.68   0.026194  132.37  0.007772  ( 0.087808  0.007880  0.000012)
 34:   1062.57   0.000294    1.48  0.000086  ( 0.000160 -0.000132 -0.009285)
 35:   1105.04   0.002298   11.62  0.000649  ( 0.005462  0.024884  0.000172)
 36:   1121.90   0.000761    3.85  0.000212  ( 0.012950 -0.006629  0.000098)
 37:   1164.03   0.000524    2.65  0.000140  ( 0.007058 -0.002342  0.009229)
 38:   1166.91   0.022025  111.31  0.005890  (-0.073332  0.022622  0.000939)
 39:   1186.78   0.002953   14.92  0.000776  ( 0.026264 -0.009307 -0.000078)
 40:   1208.13   0.003188   16.11  0.000823  ( 0.023764 -0.016084  0.000157)
 41:   1279.07   0.065475  330.88  0.015974  ( 0.112801 -0.057012  0.000074)
 42:   1306.80   0.002053   10.38  0.000490  (-0.021538  0.005143 -0.000095)
 43:   1320.62   0.001087    5.49  0.000257  (-0.011828  0.010815 -0.000061)
 44:   1336.67   0.001105    5.58  0.000258  (-0.013584  0.008567 -0.000002)
 45:   1367.27   0.008350   42.20  0.001906  (-0.043188  0.006365 -0.000033)
 46:   1400.85   0.000576    2.91  0.000128  ( 0.008693 -0.007262  0.000310)
 47:   1452.77   0.017623   89.06  0.003786  (-0.052968  0.031304 -0.000099)
 48:   1463.86   0.002543   12.85  0.000542  (-0.000681 -0.000139  0.023272)
 49:   1472.05   0.000227    1.15  0.000048  ( 0.005983 -0.003512  0.000233)
 50:   1480.00   0.000460    2.33  0.000097  (-0.003951  0.008034  0.004112)
 51:   1483.20   0.002294   11.59  0.000483  (-0.001479  0.001868 -0.021839)
 52:   1492.80   0.004172   21.08  0.000872  (-0.021404  0.020346  0.000170)
 53:   1517.94   0.019068   96.36  0.003920  (-0.058820  0.021455  0.000100)
 54:   1605.22   0.031075  157.04  0.006041  ( 0.052392 -0.057413 -0.000004)
 55:   1634.57   0.031641  159.90  0.006041  (-0.077721 -0.000486  0.000004)
 56:   1697.81   0.003824   19.33  0.000703  (-0.026369 -0.002750 -0.000002)
 57:   3004.64   0.011508   58.16  0.001195  ( 0.033995  0.006293  0.000097)
 58:   3016.04   0.014811   74.85  0.001532  (-0.037899 -0.009804  0.000049)
 59:   3046.06   0.006302   31.85  0.000646  ( 0.000051 -0.000090  0.025410)
 60:   3080.70   0.011083   56.01  0.001123  (-0.000089 -0.000152 -0.033506)
 61:   3090.24   0.005938   30.01  0.000600  (-0.004495  0.024071  0.000157)
 62:   3116.39   0.004893   24.73  0.000490  ( 0.010985  0.019218  0.000078)
 63:   3130.88   0.009996   50.51  0.000996  (-0.001799 -0.031513 -0.000083)
 64:   3137.76   0.006341   32.04  0.000631  (-0.013200  0.021363  0.000000)
 65:   3163.66   0.002977   15.05  0.000294  ( 0.007204  0.015549  0.000021)
 66:   3167.61   0.002365   11.95  0.000233  ( 0.003901 -0.014757 -0.000049)
 67:   3183.68   0.004908   24.80  0.000481  (-0.009936  0.019553  0.000008)
 68:   3205.25   0.001238    6.26  0.000121  ( 0.009563  0.005392 -0.000043)

--------------------------
THERMOCHEMISTRY AT 298.15K
--------------------------

Temperature         ...   298.15 K
Pressure            ...     1.00 atm
Total Mass          ...   148.21 AMU
Quasi RRHO          ...     True
Cut-Off Frequency   ...     1.00 cm^-1

Throughout the following assumptions are being made:
  (1) The electronic state is orbitally nondegenerate
  (2) There are no thermally accessible electronically excited states
  (3) Hindered rotations indicated by low frequency modes are not
      treated as such but are treated as vibrations and this may
      cause some error
  (4) All equations used are the standard statistical mechanics
      equations for an ideal gas
  (5) All vibrations are strictly harmonic

freq.      26.69  E(vib)   ...       0.56
freq.      81.23  E(vib)   ...       0.48
freq.     116.72  E(vib)   ...       0.44
freq.     128.69  E(vib)   ...       0.43
freq.     191.95  E(vib)   ...       0.36
freq.     200.13  E(vib)   ...       0.35
freq.     244.91  E(vib)   ...       0.31
freq.     254.96  E(vib)   ...       0.30
freq.     294.93  E(vib)   ...       0.27
freq.     327.47  E(vib)   ...       0.24
freq.     352.23  E(vib)   ...       0.23
freq.     458.67  E(vib)   ...       0.16
freq.     468.35  E(vib)   ...       0.16
freq.     569.06  E(vib)   ...       0.11
freq.     604.96  E(vib)   ...       0.10
freq.     625.60  E(vib)   ...       0.09
freq.     694.75  E(vib)   ...       0.07
freq.     762.10  E(vib)   ...       0.06
freq.     780.59  E(vib)   ...       0.05
freq.     821.86  E(vib)   ...       0.05
freq.     879.86  E(vib)   ...       0.04
freq.     889.92  E(vib)   ...       0.04
freq.     894.94  E(vib)   ...       0.03
freq.     962.04  E(vib)   ...       0.03
freq.     984.22  E(vib)   ...       0.02
freq.    1001.65  E(vib)   ...       0.02
freq.    1001.84  E(vib)   ...       0.02
freq.    1051.68  E(vib)   ...       0.02
freq.    1062.57  E(vib)   ...       0.02
freq.    1105.04  E(vib)   ...       0.02
freq.    1121.90  E(vib)   ...       0.01
freq.    1164.03  E(vib)   ...       0.01
freq.    1166.91  E(vib)   ...       0.01
freq.    1186.78  E(vib)   ...       0.01
freq.    1208.13  E(vib)   ...       0.01
freq.    1279.07  E(vib)   ...       0.01
freq.    1306.80  E(vib)   ...       0.01
freq.    1320.62  E(vib)   ...       0.01
freq.    1336.67  E(vib)   ...       0.01
freq.    1367.27  E(vib)   ...       0.01
freq.    1400.85  E(vib)   ...       0.00
freq.    1452.77  E(vib)   ...       0.00
freq.    1463.86  E(vib)   ...       0.00
freq.    1472.05  E(vib)   ...       0.00
freq.    1480.00  E(vib)   ...       0.00
freq.    1483.20  E(vib)   ...       0.00
freq.    1492.80  E(vib)   ...       0.00
freq.    1517.94  E(vib)   ...       0.00
freq.    1605.22  E(vib)   ...       0.00
freq.    1634.57  E(vib)   ...       0.00
freq.    1697.81  E(vib)   ...       0.00
freq.    3004.64  E(vib)   ...       0.00
freq.    3016.04  E(vib)   ...       0.00
freq.    3046.06  E(vib)   ...       0.00
freq.    3080.70  E(vib)   ...       0.00
freq.    3090.24  E(vib)   ...       0.00
freq.    3116.39  E(vib)   ...       0.00
freq.    3130.88  E(vib)   ...       0.00
freq.    3137.76  E(vib)   ...       0.00
freq.    3163.66  E(vib)   ...       0.00
freq.    3167.61  E(vib)   ...       0.00
freq.    3183.68  E(vib)   ...       0.00
freq.    3205.25  E(vib)   ...       0.00

------------
INNER ENERGY
------------

The inner energy is: U= E(el) + E(ZPE) + E(vib) + E(rot) + E(trans)
    E(el)   - is the total energy from the electronic structure calculation
              = E(kin-el) + E(nuc-el) + E(el-el) + E(nuc-nuc)
    E(ZPE)  - the the zero temperature vibrational energy from the frequency calculation
    E(vib)  - the the finite temperature correction to E(ZPE) due to population
              of excited vibrational states
    E(rot)  - is the rotational thermal energy
    E(trans)- is the translational thermal energy

Summary of contributions to the inner energy U:
Electronic energy                ...   -463.72389758 Eh
Zero point energy                ...      0.19214475 Eh     120.57 kcal/mol
Thermal vibrational correction   ...      0.00827553 Eh       5.19 kcal/mol
Thermal rotational correction    ...      0.00141627 Eh       0.89 kcal/mol
Thermal translational correction ...      0.00141627 Eh       0.89 kcal/mol
-----------------------------------------------------------------------
Total thermal energy                   -463.52064476 Eh

Summary of corrections to the electronic energy:
(perhaps to be used in another calculation)
Total thermal correction                  0.01110807 Eh       6.97 kcal/mol
Non-thermal (ZPE) correction              0.19214475 Eh     120.57 kcal/mol
-----------------------------------------------------------------------
Total correction                          0.20325282 Eh     127.54 kcal/mol

--------
ENTHALPY
--------

The enthalpy is H = U + kB*T
                kB is Boltzmann's constant
Total thermal energy              ...   -463.52064476 Eh
Thermal Enthalpy correction       ...      0.00094421 Eh       0.59 kcal/mol
-----------------------------------------------------------------------
Total Enthalpy                    ...   -463.51970055 Eh

Note: Only C1 symmetry has been detected, increase convergence thresholds
      if your molecule has a higher symmetry. Symmetry factor of 1.0 is
      used for the rotational entropy correction.

Note: Rotational entropy computed according to Herzberg
Infrared and Raman Spectra, Chapter V,1, Van Nostrand Reinhold, 1945
Point Group:  C1, Symmetry Number:   1
Rotational constants in cm-1:     0.103332     0.016963     0.014651

Vibrational entropy computed according to the QRRHO of S. Grimme
Chem.Eur.J. 2012 18 9955 using a reference frequency of 100.0 cm-1

-------
ENTROPY
-------

The entropy contributions are T*S = T*(S(el)+S(vib)+S(rot)+S(trans))
     S(el)   - electronic entropy
     S(vib)  - vibrational entropy
     S(rot)  - rotational entropy
     S(trans)- translational entropy
The entropies will be listed as multiplied by the temperature to get
units of energy

Electronic entropy                ...      0.00000000 Eh      0.00 kcal/mol
Vibrational entropy               ...      0.01445231 Eh      9.07 kcal/mol
Rotational entropy                ...      0.01450069 Eh      9.10 kcal/mol
Translational entropy             ...      0.01942844 Eh     12.19 kcal/mol
-----------------------------------------------------------------------
Final entropy term                ...      0.04838144 Eh     30.36 kcal/mol

In case the symmetry of your molecule has not been determined correctly
or in case you have a reason to use a different symmetry number we print

                             ****ORCA TERMINATED NORMALLY****
TOTAL RUN TIME: 0 days 0 hours 59 minutes 28 seconds 769 msec
