                         Program Version 6.0.0  -   RELEASE  -
|  1> !B3LYP aug-cc-pVTZ d3 TightSCF SlowConv RIJCOSX defgrid2
|  2>
|  3> %pal
|  4> nprocs 4
|  5> end
|  6>
|  7> %scf
|  8> MaxIter 1500
|  9> end
| 10>
| 11> %maxcore 3000
| 12>
| 13> !CPCM
| 14> %cpcm smd true
| 15> SMDsolvent "MeCN"
| 16> surfacetype gepol_ses
| 17> rsolv 2.19
| 18> end
| 19>
| 20> * xyz 1 2
| 21> C          -0.71556742602470      1.41147124580485      0.02484351393648
| 22> C          -1.89485758612148      0.71255037175673      0.02185452188149
| 23> C          -1.89490487228878     -0.71243606709823     -0.02184786737407
| 24> C          -0.71566014748267     -1.41143906203058     -0.02485534134414
| 25> C           0.52378178615536     -0.72580780509331      0.02738184725448
| 26> N           1.67880733273848     -1.40323460000137      0.12447426704281
| 27> H           2.54767175517770     -0.96635780966427      0.41412881989197
| 28> H           1.66526481618075     -2.41979612436391      0.15230682810719
| 29> C           0.52382964238816      0.72575250329787     -0.02740743022416
| 30> N           1.67888414838919      1.40311105146924     -0.12454542200936
| 31> H           2.54775915845719      0.96616221930099     -0.41405341714921
| 32> H           1.66540525229882      2.41967119375531     -0.15237138517056
| 33> H          -0.71326686493866     -2.50469578941709     -0.02461886159088
| 34> H          -2.84575934012086     -1.25136953209334     -0.03502634075607
| 35> H          -2.84567429105713      1.25154580034325      0.03504989002360
| 36> H          -0.71309356375136      2.50472700403386      0.02461197748042
| 37> *
| 38>
| 39>                          ****END OF INPUT****

CARTESIAN COORDINATES (ANGSTROEM)
---------------------------------
  C     -0.715567    1.411471    0.024844
  C     -1.894858    0.712550    0.021855
  C     -1.894905   -0.712436   -0.021848
  C     -0.715660   -1.411439   -0.024855
  C      0.523782   -0.725808    0.027382
  N      1.678807   -1.403235    0.124474
  H      2.547672   -0.966358    0.414129
  H      1.665265   -2.419796    0.152307
  C      0.523830    0.725753   -0.027407
  N      1.678884    1.403111   -0.124545
  H      2.547759    0.966162   -0.414053
  H      1.665405    2.419671   -0.152371
  H     -0.713267   -2.504696   -0.024619
  H     -2.845759   -1.251370   -0.035026
  H     -2.845674    1.251546    0.035050
  H     -0.713094    2.504727    0.024612

 Total Charge           Charge          ....    1
 Multiplicity           Mult            ....    2
 Number of Electrons    NEL             ....   57
 Basis Dimension        Dim             ....  552

ORBITAL ENERGIES
----------------
                 SPIN UP ORBITALS
  NO   OCC          E(Eh)            E(eV)
   0   1.0000     -14.381825      -391.3494
   1   1.0000     -14.381800      -391.3487
   2   1.0000     -10.271784      -279.5094
   3   1.0000     -10.271375      -279.4983
   4   1.0000     -10.205027      -277.6929
   5   1.0000     -10.204533      -277.6794
   6   1.0000     -10.199832      -277.5515
   7   1.0000     -10.199793      -277.5505
   8   1.0000      -0.995246       -27.0820
   9   1.0000      -0.953568       -25.9479
  10   1.0000      -0.865492       -23.5512
  11   1.0000      -0.769825       -20.9480
  12   1.0000      -0.755284       -20.5523
  13   1.0000      -0.654239       -17.8028
  14   1.0000      -0.643502       -17.5106
  15   1.0000      -0.584750       -15.9119
  16   1.0000      -0.555019       -15.1028
  17   1.0000      -0.549734       -14.9590
  18   1.0000      -0.517839       -14.0911
  19   1.0000      -0.477598       -12.9961
  20   1.0000      -0.456677       -12.4268
  21   1.0000      -0.453622       -12.3437
  22   1.0000      -0.451916       -12.2972
  23   1.0000      -0.392178       -10.6717
  24   1.0000      -0.384636       -10.4665
  25   1.0000      -0.371254       -10.1023
  26   1.0000      -0.352802        -9.6002
  27   1.0000      -0.266486        -7.2515
  28   1.0000      -0.228730        -6.2241
  29   0.0000      -0.034432        -0.9369
  30   0.0000      -0.029712        -0.8085
  31   0.0000      -0.011614        -0.3160
  32   0.0000       0.002321         0.0632
  33   0.0000       0.005829         0.1586

                 SPIN DOWN ORBITALS
  NO   OCC          E(Eh)            E(eV)
   0   1.0000     -14.376512      -391.2048
   1   1.0000     -14.376483      -391.2040
   2   1.0000     -10.269211      -279.4394
   3   1.0000     -10.268826      -279.4290
   4   1.0000     -10.203242      -277.6443
   5   1.0000     -10.202770      -277.6315
   6   1.0000     -10.200145      -277.5601
   7   1.0000     -10.200109      -277.5591
   8   1.0000      -0.985505       -26.8169
   9   1.0000      -0.943104       -25.6632
  10   1.0000      -0.859345       -23.3840
  11   1.0000      -0.766989       -20.8708
  12   1.0000      -0.743896       -20.2424
  13   1.0000      -0.650538       -17.7020
  14   1.0000      -0.638675       -17.3792
  15   1.0000      -0.581077       -15.8119
  16   1.0000      -0.552597       -15.0369
  17   1.0000      -0.546488       -14.8707
  18   1.0000      -0.513778       -13.9806
  19   1.0000      -0.474842       -12.9211
  20   1.0000      -0.453395       -12.3375
  21   1.0000      -0.450962       -12.2713
  22   1.0000      -0.430132       -11.7045
  23   1.0000      -0.390511       -10.6263
  24   1.0000      -0.372954       -10.1486
  25   1.0000      -0.354239        -9.6393
  26   1.0000      -0.332108        -9.0371
  27   1.0000      -0.254453        -6.9240
  28   0.0000      -0.153688        -4.1821
  29   0.0000      -0.022282        -0.6063
  30   0.0000      -0.010939        -0.2977
  31   0.0000      -0.006030        -0.1641
  32   0.0000       0.002920         0.0795

MULLIKEN ATOMIC CHARGES AND SPIN POPULATIONS
--------------------------------------------
   0 C :   -0.742810   -0.049251
   1 C :   -0.397216    0.129335
   2 C :   -0.395879    0.129483
   3 C :   -0.744778   -0.049423
   4 C :    1.109758    0.181716
   5 N :   -0.477751    0.247000
   6 H :    0.089689   -0.001101
   7 H :    0.063567   -0.006467
   8 C :    1.111473    0.181644
   9 N :   -0.478063    0.247132
  10 H :    0.089283   -0.001115
  11 H :    0.063443   -0.006469
  12 H :    0.390487   -0.000462
  13 H :    0.465149   -0.000783
  14 H :    0.464477   -0.000770
  15 H :    0.389171   -0.000469
Sum of atomic charges         :    1.0000000

LOEWDIN ATOMIC CHARGES AND SPIN POPULATIONS
-------------------------------------------
   0 C :    0.245377    0.036537
   1 C :    0.223847    0.086784
   2 C :    0.223838    0.086845
   3 C :    0.245334    0.036507
   4 C :   -0.150205    0.140509
   5 N :    0.930447    0.176735
   6 H :   -0.233728    0.024555
   7 H :   -0.215413    0.021929
   8 C :   -0.150132    0.140495
   9 N :    0.930544    0.176798
  10 H :   -0.233656    0.024564
  11 H :   -0.215416    0.021942
  12 H :   -0.147435   -0.002749
  13 H :   -0.152987    0.015653
  14 H :   -0.152991    0.015631
  15 H :   -0.147424   -0.002736

  Mayer bond orders larger than 0.100000
B(  0-C ,  1-C ) :   1.4224 B(  0-C ,  8-C ) :   0.7328 B(  0-C ,  9-N ) :  -0.1273
B(  0-C , 15-H ) :   0.6153 B(  1-C ,  2-C ) :   1.0110 B(  1-C ,  8-C ) :  -0.1469
B(  1-C , 14-H ) :   0.6351 B(  2-C ,  3-C ) :   1.4217 B(  2-C ,  4-C ) :  -0.1468
B(  2-C , 13-H ) :   0.6340 B(  3-C ,  4-C ) :   0.7321 B(  3-C ,  5-N ) :  -0.1272
B(  3-C , 12-H ) :   0.6135 B(  4-C ,  5-N ) :   0.5916 B(  4-C ,  8-C ) :   0.6500
B(  5-N ,  6-H ) :   1.0949 B(  5-N ,  7-H ) :   1.1369 B(  8-C ,  9-N ) :   0.5908
B(  9-N , 10-H ) :   1.0958 B(  9-N , 11-H ) :   1.1368

Dispersion correction           -0.027247305
FINAL SINGLE POINT ENERGY      -342.754233107221

DIPOLE MOMENT
-------------

Method             : SCF
Type of density    : Electron Density
Multiplicity       :   2
Irrep              :   0
Energy             :  -342.7269858018414084 Eh
Relativity type    :
Basis              : AO
                                X                 Y                 Z
Electronic contribution:      0.723974632       0.000525161      -0.000322848
Nuclear contribution   :      1.369385413      -0.000054655       0.000118438
                        -----------------------------------------
Total Dipole Moment    :      2.093360044       0.000470506      -0.000204410
                        -----------------------------------------
Magnitude (a.u.)       :      2.093360107
Magnitude (Debye)      :      5.320898534

Rotational constants in cm-1:             0.106540             0.076353             0.044639
Rotational constants in MHz :          3194.002568          2289.017521          1338.230325

                             ****ORCA TERMINATED NORMALLY****
TOTAL RUN TIME: 0 days 0 hours 4 minutes 22 seconds 660 msec
