                         Program Version 6.0.0  -   RELEASE  -
|  1> !PBE0 def2-SV(p) Opt Freq d3 TightSCF SlowConv RIJCOSX defgrid2
|  2>
|  3> %pal
|  4> nprocs 4
|  5> end
|  6>
|  7> %scf
|  8> MaxIter 1500
|  9> end
| 10>
| 11> %maxcore 3000
| 12>
| 13>
| 14>
| 15> * xyz 0 1
| 16> C    -1.8922560   -0.6916733    0.0000119
| 17> C    -0.6889112   -1.3758009    0.0000104
| 18> C     0.5236769   -0.6994828   -0.0000071
| 19> C     1.8137133   -1.4625260   -0.0000238
| 20> H     2.4062270   -1.2124713    0.8794659
| 21> H     1.6270522   -2.5334681    0.0000131
| 22> H     2.4061695   -1.2125095   -0.8795646
| 23> C     0.5236774    0.6994728   -0.0000096
| 24> C     1.8137177    1.4625079   -0.0000292
| 25> H     2.4061234    1.2125792   -0.8796356
| 26> H     1.6270644    2.5334512    0.0001319
| 27> H     2.4062751    1.2123631    0.8794031
| 28> C    -0.6889108    1.3757895   -0.0000061
| 29> C    -1.8922553    0.6916632    0.0000005
| 30> H    -2.8249296    1.2373597   -0.0000054
| 31> H    -0.6907238    2.4572013   -0.0000191
| 32> H    -0.6907286   -2.4572141    0.0000267
| 33> H    -2.8249292   -1.2373687    0.0000177
| 34> *
| 35>
| 36>                          ****END OF INPUT****
 Total Charge           Charge          ....    0
 Multiplicity           Mult            ....    1
 Number of Electrons    NEL             ....   58
Dispersion correction           -0.015657388
FINAL SINGLE POINT ENERGY      -310.273886076107
Dispersion correction             ... done (  0.1 sec)
Dispersion correction           -0.015559725
FINAL SINGLE POINT ENERGY      -310.276014146654
Dispersion correction             ... done (  0.1 sec)
Dispersion correction           -0.015548333
FINAL SINGLE POINT ENERGY      -310.276078259060
Dispersion correction             ... done (  0.1 sec)
Dispersion correction           -0.015544279
FINAL SINGLE POINT ENERGY      -310.276102098645
Dispersion correction             ... done (  0.1 sec)
                    ***********************HURRAY********************

CARTESIAN COORDINATES (ANGSTROEM)
---------------------------------
  C     -1.912277   -0.695998    0.000009
  C     -0.699128   -1.382836   -0.000009
  C      0.523475   -0.705237   -0.000012
  C      1.817296   -1.467870   -0.000056
  H      2.432574   -1.227149    0.886287
  H      1.639083   -2.555361    0.000044
  H      2.432418   -1.227294   -0.886549
  C      0.523477    0.705222    0.000002
  C      1.817299    1.467852   -0.000006
  H      2.432528    1.227150   -0.886388
  H      1.639086    2.555343   -0.000074
  H      2.432468    1.227258    0.886449
  C     -0.699124    1.382824    0.000015
  C     -1.912275    0.695989    0.000020
  H     -2.855470    1.250472    0.000033
  H     -0.697949    2.478006    0.000023
  H     -0.697956   -2.478018   -0.000019
  H     -2.855473   -1.250479    0.000014

 Multiplicity           Mult            ....    1
 Number of Electrons    NEL             ....   58
 Basis Dimension        Dim             ....  132

ORBITAL ENERGIES
----------------

  NO   OCC          E(Eh)            E(eV)
   0   2.0000     -10.239759      -278.6380
   1   2.0000     -10.239408      -278.6285
   2   2.0000     -10.229149      -278.3493
   3   2.0000     -10.228836      -278.3408
   4   2.0000     -10.228474      -278.3309
   5   2.0000     -10.228390      -278.3287
   6   2.0000     -10.225917      -278.2614
   7   2.0000     -10.225843      -278.2593
   8   2.0000      -0.875999       -23.8371
   9   2.0000      -0.791987       -21.5511
  10   2.0000      -0.776009       -21.1163
  11   2.0000      -0.708636       -19.2830
  12   2.0000      -0.684283       -18.6203
  13   2.0000      -0.607484       -16.5305
  14   2.0000      -0.583761       -15.8849
  15   2.0000      -0.513036       -13.9604
  16   2.0000      -0.485948       -13.2233
  17   2.0000      -0.455381       -12.3915
  18   2.0000      -0.447618       -12.1803
  19   2.0000      -0.423791       -11.5319
  20   2.0000      -0.416475       -11.3329
  21   2.0000      -0.410567       -11.1721
  22   2.0000      -0.397441       -10.8149
  23   2.0000      -0.395367       -10.7585
  24   2.0000      -0.362049        -9.8519
  25   2.0000      -0.346364        -9.4250
  26   2.0000      -0.345415        -9.3992
  27   2.0000      -0.256645        -6.9837
  28   2.0000      -0.247718        -6.7407
  29   0.0000       0.002307         0.0628
  30   0.0000       0.005542         0.1508
  31   0.0000       0.070263         1.9120
  32   0.0000       0.081222         2.2102
  33   0.0000       0.100727         2.7409

MULLIKEN ATOMIC CHARGES
-----------------------
   0 C :   -0.086370
   1 C :   -0.155947
   2 C :   -0.041943
   3 C :   -0.285421
   4 H :    0.135439
   5 H :    0.128662
   6 H :    0.135445
   7 C :   -0.041946
   8 C :   -0.285421
   9 H :    0.135440
  10 H :    0.128662
  11 H :    0.135445
  12 C :   -0.155945
  13 C :   -0.086371
  14 H :    0.090991
  15 H :    0.079143
  16 H :    0.079143
  17 H :    0.090992
Sum of atomic charges:    0.0000000

LOEWDIN ATOMIC CHARGES
----------------------
   0 C :   -0.133744
   1 C :   -0.128999
   2 C :   -0.051233
   3 C :   -0.327036
   4 H :    0.131181
   5 H :    0.126884
   6 H :    0.131184
   7 C :   -0.051233
   8 C :   -0.327035
   9 H :    0.131182
  10 H :    0.126884
  11 H :    0.131183
  12 C :   -0.128999
  13 C :   -0.133744
  14 H :    0.127183
  15 H :    0.124579
  16 H :    0.124579
  17 H :    0.127183

  Mayer bond orders larger than 0.100000
B(  0-C ,  1-C ) :   1.3822 B(  0-C , 13-C ) :   1.3936 B(  0-C , 17-H ) :   0.9641
B(  1-C ,  2-C ) :   1.4313 B(  1-C , 16-H ) :   0.9569 B(  2-C ,  3-C ) :   1.1090
B(  2-C ,  7-C ) :   1.3991 B(  3-C ,  4-H ) :   0.9302 B(  3-C ,  5-H ) :   0.9436
B(  3-C ,  6-H ) :   0.9302 B(  7-C ,  8-C ) :   1.1090 B(  7-C , 12-C ) :   1.4313
B(  8-C ,  9-H ) :   0.9302 B(  8-C , 10-H ) :   0.9436 B(  8-C , 11-H ) :   0.9302
B( 12-C , 13-C ) :   1.3822 B( 12-C , 15-H ) :   0.9569 B( 13-C , 14-H ) :   0.9641

Dispersion correction           -0.015545436
FINAL SINGLE POINT ENERGY      -310.276102991326

DIPOLE MOMENT
-------------

Method             : SCF
Type of density    : Electron Density
Multiplicity       :   1
Irrep              :   0
Energy             :  -310.2605575555498945 Eh
Relativity type    :
Basis              : AO
                                X                 Y                 Z
Electronic contribution:     -5.330053809       0.000005017       0.000102227
Nuclear contribution   :      5.585292942      -0.000004943      -0.000112342
                        -----------------------------------------
Total Dipole Moment    :      0.255239134       0.000000074      -0.000010114
                        -----------------------------------------
Magnitude (a.u.)       :      0.255239134
Magnitude (Debye)      :      0.648766320

VIBRATIONAL FREQUENCIES
-----------------------

Scaling factor for frequencies =  1.000000000  (already applied!)

     0:       0.00 cm**-1
     1:       0.00 cm**-1
     2:       0.00 cm**-1
     3:       0.00 cm**-1
     4:       0.00 cm**-1
     5:       0.00 cm**-1
     6:     140.39 cm**-1
     7:     177.25 cm**-1
     8:     180.70 cm**-1
     9:     258.68 cm**-1
    10:     307.25 cm**-1
    11:     412.95 cm**-1
    12:     450.04 cm**-1
    13:     511.95 cm**-1
    14:     527.72 cm**-1
    15:     592.01 cm**-1
    16:     742.24 cm**-1
    17:     761.49 cm**-1
    18:     763.66 cm**-1
    19:     842.07 cm**-1
    20:     886.66 cm**-1
    21:     959.10 cm**-1
    22:    1005.10 cm**-1
    23:    1010.49 cm**-1
    24:    1011.23 cm**-1
    25:    1048.04 cm**-1
    26:    1077.06 cm**-1
    27:    1087.12 cm**-1
    28:    1144.94 cm**-1
    29:    1174.24 cm**-1
    30:    1220.90 cm**-1
    31:    1272.21 cm**-1
    32:    1311.93 cm**-1
    33:    1389.18 cm**-1
    34:    1407.79 cm**-1
    35:    1417.52 cm**-1
    36:    1458.12 cm**-1
    37:    1461.49 cm**-1
    38:    1476.61 cm**-1
    39:    1483.72 cm**-1
    40:    1512.26 cm**-1
    41:    1547.60 cm**-1
    42:    1668.07 cm**-1
    43:    1701.20 cm**-1
    44:    3026.66 cm**-1
    45:    3027.50 cm**-1
    46:    3100.42 cm**-1
    47:    3104.54 cm**-1
    48:    3141.15 cm**-1
    49:    3141.48 cm**-1
    50:    3182.89 cm**-1
    51:    3187.76 cm**-1
    52:    3202.27 cm**-1
    53:    3216.71 cm**-1

IR SPECTRUM
-----------

 Mode   freq       eps      Int      T**2         TX        TY        TZ
       cm**-1   L/(mol*cm) km/mol    a.u.
----------------------------------------------------------------------------
  6:    140.39   0.000000    0.00  0.000000  ( 0.000000  0.000001  0.000006)
  7:    177.25   0.000000    0.00  0.000000  (-0.000000  0.000000  0.000000)
  8:    180.70   0.000286    1.45  0.000494  ( 0.000001  0.000003  0.022235)
  9:    258.68   0.000878    4.44  0.001060  (-0.000000  0.000001 -0.032552)
 10:    307.25   0.000020    0.10  0.000020  ( 0.004473 -0.000000  0.000001)
 11:    412.95   0.000045    0.23  0.000034  ( 0.000000  0.005839 -0.000001)
 12:    450.04   0.000871    4.40  0.000604  (-0.000000 -0.000001 -0.024570)
 13:    511.95   0.000226    1.14  0.000138  ( 0.000000 -0.011728 -0.000001)
 14:    527.72   0.000000    0.00  0.000000  ( 0.000000 -0.000000 -0.000000)
 15:    592.01   0.000093    0.47  0.000049  (-0.006996  0.000000  0.000001)
 16:    742.24   0.000000    0.00  0.000000  (-0.000001  0.000000  0.000000)
 17:    761.49   0.009003   45.50  0.003689  ( 0.000000 -0.000001  0.060741)
 18:    763.66   0.000014    0.07  0.000006  ( 0.002380 -0.000000  0.000001)
 19:    842.07   0.000036    0.18  0.000013  (-0.000000 -0.003632 -0.000002)
 20:    886.66   0.000000    0.00  0.000000  (-0.000001 -0.000000  0.000000)
 21:    959.10   0.000002    0.01  0.000001  (-0.000000  0.000001  0.000811)
 22:   1005.10   0.001311    6.63  0.000407  ( 0.020176  0.000004  0.000000)
 23:   1010.49   0.000065    0.33  0.000020  (-0.000018  0.004479 -0.000001)
 24:   1011.23   0.000000    0.00  0.000000  ( 0.000001  0.000000 -0.000000)
 25:   1048.04   0.001564    7.90  0.000466  (-0.000001  0.000003  0.021580)
 26:   1077.06   0.000000    0.00  0.000000  ( 0.000005 -0.000001 -0.000000)
 27:   1087.12   0.001390    7.02  0.000399  ( 0.019972 -0.000000  0.000000)
 28:   1144.94   0.000801    4.05  0.000218  ( 0.000000 -0.014779 -0.000001)
 29:   1174.24   0.000001    0.00  0.000000  (-0.000504  0.000000 -0.000000)
 30:   1220.90   0.000026    0.13  0.000007  ( 0.000000  0.002589 -0.000001)
 31:   1272.21   0.000113    0.57  0.000028  (-0.005275 -0.000000  0.000000)
 32:   1311.93   0.000001    0.00  0.000000  ( 0.000000  0.000403  0.000000)
 33:   1389.18   0.000049    0.25  0.000011  (-0.003307  0.000000  0.000000)
 34:   1407.79   0.000067    0.34  0.000015  (-0.000003 -0.003843 -0.000003)
 35:   1417.52   0.000404    2.04  0.000089  (-0.009425  0.000000  0.000001)
 36:   1458.12   0.001626    8.21  0.000348  ( 0.000001 -0.018652  0.000005)
 37:   1461.49   0.000000    0.00  0.000000  (-0.000002  0.000002  0.000007)
 38:   1476.61   0.004328   21.87  0.000915  (-0.000001 -0.000002 -0.030244)
 39:   1483.72   0.000123    0.62  0.000026  (-0.005086 -0.000000  0.000000)
 40:   1512.26   0.003552   17.95  0.000733  (-0.000001 -0.027073 -0.000001)
 41:   1547.60   0.003692   18.66  0.000744  ( 0.027285 -0.000001 -0.000000)
 42:   1668.07   0.000033    0.17  0.000006  (-0.002497 -0.000000  0.000000)
 43:   1701.20   0.000466    2.36  0.000085  ( 0.000000 -0.009246 -0.000000)
 44:   3026.66   0.007604   38.43  0.000784  (-0.028000 -0.000044  0.000000)
 45:   3027.50   0.001491    7.53  0.000154  ( 0.000100 -0.012395 -0.000003)
 46:   3100.42   0.004121   20.83  0.000415  ( 0.000001 -0.000004  0.020366)
 47:   3104.54   0.000000    0.00  0.000000  (-0.000004 -0.000000 -0.000010)
 48:   3141.15   0.004250   21.48  0.000422  ( 0.000072 -0.020549 -0.000001)
 49:   3141.48   0.000217    1.10  0.000022  ( 0.004634  0.000318 -0.000000)
 50:   3182.89   0.002128   10.76  0.000209  (-0.000003  0.014446  0.000000)
 51:   3187.76   0.000349    1.76  0.000034  ( 0.005844  0.000005 -0.000000)
 52:   3202.27   0.003844   19.43  0.000375  ( 0.000002  0.019355  0.000000)
 53:   3216.71   0.002828   14.29  0.000274  (-0.016563  0.000002  0.000000)

--------------------------
THERMOCHEMISTRY AT 298.15K
--------------------------

Temperature         ...   298.15 K
Pressure            ...     1.00 atm
Total Mass          ...   106.17 AMU
Quasi RRHO          ...     True
Cut-Off Frequency   ...     1.00 cm^-1

Throughout the following assumptions are being made:
  (1) The electronic state is orbitally nondegenerate
  (2) There are no thermally accessible electronically excited states
  (3) Hindered rotations indicated by low frequency modes are not
      treated as such but are treated as vibrations and this may
      cause some error
  (4) All equations used are the standard statistical mechanics
      equations for an ideal gas
  (5) All vibrations are strictly harmonic

freq.     140.39  E(vib)   ...       0.41
freq.     177.25  E(vib)   ...       0.37
freq.     180.70  E(vib)   ...       0.37
freq.     258.68  E(vib)   ...       0.30
freq.     307.25  E(vib)   ...       0.26
freq.     412.95  E(vib)   ...       0.19
freq.     450.04  E(vib)   ...       0.17
freq.     511.95  E(vib)   ...       0.14
freq.     527.72  E(vib)   ...       0.13
freq.     592.01  E(vib)   ...       0.10
freq.     742.24  E(vib)   ...       0.06
freq.     761.49  E(vib)   ...       0.06
freq.     763.66  E(vib)   ...       0.06
freq.     842.07  E(vib)   ...       0.04
freq.     886.66  E(vib)   ...       0.04
freq.     959.10  E(vib)   ...       0.03
freq.    1005.10  E(vib)   ...       0.02
freq.    1010.49  E(vib)   ...       0.02
freq.    1011.23  E(vib)   ...       0.02
freq.    1048.04  E(vib)   ...       0.02
freq.    1077.06  E(vib)   ...       0.02
freq.    1087.12  E(vib)   ...       0.02
freq.    1144.94  E(vib)   ...       0.01
freq.    1174.24  E(vib)   ...       0.01
freq.    1220.90  E(vib)   ...       0.01
freq.    1272.21  E(vib)   ...       0.01
freq.    1311.93  E(vib)   ...       0.01
freq.    1389.18  E(vib)   ...       0.00
freq.    1407.79  E(vib)   ...       0.00
freq.    1417.52  E(vib)   ...       0.00
freq.    1458.12  E(vib)   ...       0.00
freq.    1461.49  E(vib)   ...       0.00
freq.    1476.61  E(vib)   ...       0.00
freq.    1483.72  E(vib)   ...       0.00
freq.    1512.26  E(vib)   ...       0.00
freq.    1547.60  E(vib)   ...       0.00
freq.    1668.07  E(vib)   ...       0.00
freq.    1701.20  E(vib)   ...       0.00
freq.    3026.66  E(vib)   ...       0.00
freq.    3027.50  E(vib)   ...       0.00
freq.    3100.42  E(vib)   ...       0.00
freq.    3104.54  E(vib)   ...       0.00
freq.    3141.15  E(vib)   ...       0.00
freq.    3141.48  E(vib)   ...       0.00
freq.    3182.89  E(vib)   ...       0.00
freq.    3187.76  E(vib)   ...       0.00
freq.    3202.27  E(vib)   ...       0.00
freq.    3216.71  E(vib)   ...       0.00

------------
INNER ENERGY
------------

The inner energy is: U= E(el) + E(ZPE) + E(vib) + E(rot) + E(trans)
    E(el)   - is the total energy from the electronic structure calculation
              = E(kin-el) + E(nuc-el) + E(el-el) + E(nuc-nuc)
    E(ZPE)  - the the zero temperature vibrational energy from the frequency calculation
    E(vib)  - the the finite temperature correction to E(ZPE) due to population
              of excited vibrational states
    E(rot)  - is the rotational thermal energy
    E(trans)- is the translational thermal energy

Summary of contributions to the inner energy U:
Electronic energy                ...   -310.27610299 Eh
Zero point energy                ...      0.15658380 Eh      98.26 kcal/mol
Thermal vibrational correction   ...      0.00464985 Eh       2.92 kcal/mol
Thermal rotational correction    ...      0.00141627 Eh       0.89 kcal/mol
Thermal translational correction ...      0.00141627 Eh       0.89 kcal/mol
-----------------------------------------------------------------------
Total thermal energy                   -310.11203679 Eh

Summary of corrections to the electronic energy:
(perhaps to be used in another calculation)
Total thermal correction                  0.00748240 Eh       4.70 kcal/mol
Non-thermal (ZPE) correction              0.15658380 Eh      98.26 kcal/mol
-----------------------------------------------------------------------
Total correction                          0.16406620 Eh     102.95 kcal/mol

--------
ENTHALPY
--------

The enthalpy is H = U + kB*T
                kB is Boltzmann's constant
Total thermal energy              ...   -310.11203679 Eh
Thermal Enthalpy correction       ...      0.00094421 Eh       0.59 kcal/mol
-----------------------------------------------------------------------
Total Enthalpy                    ...   -310.11109258 Eh

Note: Rotational entropy computed according to Herzberg
Infrared and Raman Spectra, Chapter V,1, Van Nostrand Reinhold, 1945
Point Group:  C2, Symmetry Number:   2
Rotational constants in cm-1:     0.105881     0.071625     0.043421

Vibrational entropy computed according to the QRRHO of S. Grimme
Chem.Eur.J. 2012 18 9955 using a reference frequency of 100.0 cm-1

-------
ENTROPY
-------

The entropy contributions are T*S = T*(S(el)+S(vib)+S(rot)+S(trans))
     S(el)   - electronic entropy
     S(vib)  - vibrational entropy
     S(rot)  - rotational entropy
     S(trans)- translational entropy
The entropies will be listed as multiplied by the temperature to get
units of energy

Electronic entropy                ...      0.00000000 Eh      0.00 kcal/mol
Vibrational entropy               ...      0.00753287 Eh      4.73 kcal/mol
Rotational entropy                ...      0.01264185 Eh      7.93 kcal/mol
Translational entropy             ...      0.01895601 Eh     11.90 kcal/mol
-----------------------------------------------------------------------
Final entropy term                ...      0.03913073 Eh     24.55 kcal/mol

In case the symmetry of your molecule has not been determined correctly
or in case you have a reason to use a different symmetry number we print
out the resulting rotational entropy values for sn=1,12:

 non-linear molecules -----------------------------------
|  sn= 1 | S(rot)=       0.01329630 Eh      8.34 kcal/mol|
|  sn= 2 | S(rot)=       0.01264185 Eh      7.93 kcal/mol|
|  sn= 3 | S(rot)=       0.01225901 Eh      7.69 kcal/mol|
|  sn= 4 | S(rot)=       0.01198739 Eh      7.52 kcal/mol|
|  sn= 5 | S(rot)=       0.01177670 Eh      7.39 kcal/mol|
|  sn= 6 | S(rot)=       0.01160456 Eh      7.28 kcal/mol|
|  sn= 7 | S(rot)=       0.01145901 Eh      7.19 kcal/mol|
|  sn= 8 | S(rot)=       0.01133293 Eh      7.11 kcal/mol|
|  sn= 9 | S(rot)=       0.01122172 Eh      7.04 kcal/mol|
|  sn=10 | S(rot)=       0.01112225 Eh      6.98 kcal/mol|
|  sn=11 | S(rot)=       0.01103226 Eh      6.92 kcal/mol|
|  sn=12 | S(rot)=       0.01095010 Eh      6.87 kcal/mol|
 linear molecules ---------------------------------------
|  Dinfh | S(rot)=       0.00828753 Eh      5.20 kcal/mol|
|  Cinfv | S(rot)=       0.00894198 Eh      5.61 kcal/mol|
 --------------------------------------------------------

                             ****ORCA TERMINATED NORMALLY****
TOTAL RUN TIME: 0 days 0 hours 6 minutes 37 seconds 618 msec
