                         Program Version 6.0.0  -   RELEASE  -
|  1> !r2SCAN aug-cc-pVTZ d3 TightSCF SlowConv RIJCOSX defgrid2
|  2>
|  3> %pal
|  4> nprocs 4
|  5> end
|  6>
|  7> %scf
|  8> MaxIter 1500
|  9> end
| 10>
| 11> %maxcore 3000
| 12>
| 13> !CPCM
| 14> %cpcm smd true
| 15> SMDsolvent "MeCN"
| 16> surfacetype gepol_ses
| 17> rsolv 2.19
| 18> end
| 19>
| 20> * xyz 0 1
| 21> C          -0.09723520138673     -1.03437639103764      0.00347054225631
| 22> C          -1.47492894930884     -1.20047361725562      0.00696317861110
| 23> C          -2.34578623174672     -0.10040313113454      0.00646178626940
| 24> C          -1.77456389354337      1.17444029815347      0.00609068858276
| 25> C          -0.39219290951861      1.34431389323203      0.00262007400835
| 26> C           0.48066721969256      0.24734111354836      0.00061801253520
| 27> C           1.92745712323043      0.48416048286104     -0.00147397271183
| 28> C           2.90821751377421     -0.43224406598278     -0.00115903608211
| 29> C           4.36623513102305     -0.11505487673646     -0.00400250033420
| 30> H           4.87200794201926     -0.54390247209158      0.88189528271805
| 31> H           4.86926753302145     -0.54728733840504     -0.88981811387895
| 32> H           4.54542156577808      0.97343112133202     -0.00638255069427
| 33> H           2.64848728832259     -1.49940771664298      0.00136069468406
| 34> H           2.21863839458192      1.54365509753515     -0.00378021817366
| 35> H           0.02556550649537      2.35646498548500      0.00378810560732
| 36> H          -2.42480036039019      2.05550589684769      0.01005021755173
| 37> C          -3.83450513941386     -0.29675754696210     -0.01137750175061
| 38> H          -4.36818359568584      0.64375253893058      0.20246833077396
| 39> H          -4.17808733966479     -0.65741939040861     -0.99869388532750
| 40> H          -4.15169482101390     -1.04597884024218      0.73497377180135
| 41> H          -1.89116416828829     -2.21365122416981      0.01168808196327
| 42> H           0.54303149202221     -1.92102021685601      0.00533651159029
| 43> *
| 44>
| 45>                          ****END OF INPUT****

CARTESIAN COORDINATES (ANGSTROEM)
---------------------------------
  C     -0.097235   -1.034376    0.003471
  C     -1.474929   -1.200474    0.006963
  C     -2.345786   -0.100403    0.006462
  C     -1.774564    1.174440    0.006091
  C     -0.392193    1.344314    0.002620
  C      0.480667    0.247341    0.000618
  C      1.927457    0.484160   -0.001474
  C      2.908218   -0.432244   -0.001159
  C      4.366235   -0.115055   -0.004003
  H      4.872008   -0.543902    0.881895
  H      4.869268   -0.547287   -0.889818
  H      4.545422    0.973431   -0.006383
  H      2.648487   -1.499408    0.001361
  H      2.218638    1.543655   -0.003780
  H      0.025566    2.356465    0.003788
  H     -2.424800    2.055506    0.010050
  C     -3.834505   -0.296758   -0.011378
  H     -4.368184    0.643753    0.202468
  H     -4.178087   -0.657419   -0.998694
  H     -4.151695   -1.045979    0.734974
  H     -1.891164   -2.213651    0.011688
  H      0.543031   -1.921020    0.005337

 Total Charge           Charge          ....    0
 Multiplicity           Mult            ....    1
 Number of Electrons    NEL             ....   72
 Basis Dimension        Dim             ....  736

ORBITAL ENERGIES
----------------

  NO   OCC          E(Eh)            E(eV)
   0   2.0000     -10.048274      -273.4274
   1   2.0000     -10.047897      -273.4172
   2   2.0000     -10.038988      -273.1748
   3   2.0000     -10.037781      -273.1419
   4   2.0000     -10.037038      -273.1217
   5   2.0000     -10.036166      -273.0980
   6   2.0000     -10.035344      -273.0756
   7   2.0000     -10.034466      -273.0517
   8   2.0000     -10.027568      -272.8640
   9   2.0000     -10.026917      -272.8463
  10   2.0000      -0.827591       -22.5199
  11   2.0000      -0.769721       -20.9452
  12   2.0000      -0.730376       -19.8745
  13   2.0000      -0.710745       -19.3404
  14   2.0000      -0.670377       -18.2419
  15   2.0000      -0.623067       -16.9545
  16   2.0000      -0.576550       -15.6887
  17   2.0000      -0.551112       -14.9965
  18   2.0000      -0.513352       -13.9690
  19   2.0000      -0.468578       -12.7507
  20   2.0000      -0.433771       -11.8035
  21   2.0000      -0.419199       -11.4070
  22   2.0000      -0.396440       -10.7877
  23   2.0000      -0.385777       -10.4975
  24   2.0000      -0.380689       -10.3591
  25   2.0000      -0.376995       -10.2586
  26   2.0000      -0.376141       -10.2353
  27   2.0000      -0.344062        -9.3624
  28   2.0000      -0.342027        -9.3070
  29   2.0000      -0.340601        -9.2682
  30   2.0000      -0.317650        -8.6437
  31   2.0000      -0.306837        -8.3495
  32   2.0000      -0.295453        -8.0397
  33   2.0000      -0.267458        -7.2779
  34   2.0000      -0.238476        -6.4893
  35   2.0000      -0.198387        -5.3984
  36   0.0000      -0.059257        -1.6125
  37   0.0000      -0.036930        -1.0049
  38   0.0000       0.008360         0.2275
  39   0.0000       0.018794         0.5114
  40   0.0000       0.018993         0.5168

MULLIKEN ATOMIC CHARGES
-----------------------
   0 C :   -0.779274
   1 C :   -1.230907
   2 C :    1.672977
   3 C :   -0.914261
   4 C :   -1.077997
   5 C :    2.502736
   6 C :   -0.025980
   7 C :   -0.061848
   8 C :   -0.856194
   9 H :    0.148182
  10 H :    0.146592
  11 H :    0.247469
  12 H :    0.201102
  13 H :   -0.090546
  14 H :    0.040851
  15 H :    0.147703
  16 C :   -0.692442
  17 H :    0.170246
  18 H :    0.225488
  19 H :    0.184215
  20 H :    0.223197
  21 H :   -0.181309
Sum of atomic charges:   -0.0000000

LOEWDIN ATOMIC CHARGES
----------------------
   0 C :    0.205217
   1 C :    0.209853
   2 C :   -0.146177
   3 C :    0.209127
   4 C :    0.199455
   5 C :   -0.156128
   6 C :    0.195503
   7 C :    0.195878
   8 C :    0.551024
   9 H :   -0.164719
  10 H :   -0.164687
  11 H :   -0.174556
  12 H :   -0.184881
  13 H :   -0.185343
  14 H :   -0.168867
  15 H :   -0.167690
  16 C :    0.573924
  17 H :   -0.169844
  18 H :   -0.153313
  19 H :   -0.160027
  20 H :   -0.161883
  21 H :   -0.181866

  Mayer bond orders larger than 0.100000
B(  0-C ,  1-C ) :   0.9542 B(  0-C ,  2-C ) :   0.1442 B(  0-C ,  3-C ) :  -0.1482
B(  0-C ,  4-C ) :  -0.6884 B(  0-C ,  6-C ) :   0.2154 B(  0-C , 21-H ) :   1.7674
B(  1-C ,  2-C ) :   0.5286 B(  1-C ,  7-C ) :  -0.1405 B(  1-C , 14-H ) :  -0.1168
B(  1-C , 16-C ) :   0.1331 B(  1-C , 20-H ) :   0.9791 B(  1-C , 21-H ) :  -0.1396
B(  2-C ,  3-C ) :   0.4026 B(  2-C ,  6-C ) :   0.1148 B(  2-C ,  7-C ) :   0.1090
B(  2-C , 14-H ) :  -0.1507 B(  2-C , 16-C ) :   0.1514 B(  2-C , 21-H ) :  -0.1886
B(  3-C ,  4-C ) :   1.3523 B(  3-C ,  5-C ) :  -0.1109 B(  3-C ,  6-C ) :  -0.1152
B(  3-C , 15-H ) :   1.1161 B(  3-C , 16-C ) :  -0.1192 B(  3-C , 21-H ) :  -0.1248
B(  4-C ,  5-C ) :  -0.5544 B(  4-C ,  7-C ) :   0.1985 B(  4-C , 13-H ) :  -0.1123
B(  4-C , 14-H ) :   1.5115 B(  5-C ,  7-C ) :  -0.1611 B(  5-C , 12-H ) :  -0.1180
B(  5-C , 14-H ) :  -0.2578 B(  5-C , 21-H ) :  -0.3712 B(  6-C ,  7-C ) :   0.9605
B(  6-C , 13-H ) :   1.3322 B(  6-C , 14-H ) :  -0.1098 B(  7-C ,  8-C ) :   0.5153
B(  7-C ,  9-H ) :  -0.1008 B(  7-C , 12-H ) :   1.2742 B(  7-C , 13-H ) :  -0.1804
B(  8-C ,  9-H ) :   1.0901 B(  8-C , 10-H ) :   1.0904 B(  8-C , 11-H ) :   0.9309
B(  8-C , 12-H ) :  -0.2252 B( 12-H , 21-H ) :  -0.1137 B( 14-H , 21-H ) :   0.1579
B( 16-C , 17-H ) :   1.0276 B( 16-C , 18-H ) :   0.9937 B( 16-C , 19-H ) :   1.0322

Dispersion correction           -0.006637115
FINAL SINGLE POINT ENERGY      -388.199589737324

DIPOLE MOMENT
-------------

Method             : SCF
Type of density    : Electron Density
Multiplicity       :   1
Irrep              :   0
Energy             :  -388.1929526228155964 Eh
Relativity type    :
Basis              : AO
                                X                 Y                 Z
Electronic contribution:     -2.545223768       0.656869744       0.030456425
Nuclear contribution   :      2.550584305      -0.802045271      -0.048555466
                        -----------------------------------------
Total Dipole Moment    :      0.005360538      -0.145175527      -0.018099041
                        -----------------------------------------
Magnitude (a.u.)       :      0.146397555
Magnitude (Debye)      :      0.372113013

Rotational constants in cm-1:             0.159882             0.020202             0.018058
Rotational constants in MHz :          4793.148645           605.632668           541.352924

                             ****ORCA TERMINATED NORMALLY****
TOTAL RUN TIME: 0 days 0 hours 4 minutes 36 seconds 337 msec
