                         Program Version 6.0.0  -   RELEASE  -
|  1> !r2SCANh aug-cc-pVTZ d3 TightSCF SlowConv RIJCOSX defgrid2
|  2>
|  3> %pal
|  4> nprocs 4
|  5> end
|  6>
|  7> %scf
|  8> MaxIter 1500
|  9> end
| 10>
| 11> %maxcore 3000
| 12>
| 13> !CPCM
| 14> %cpcm smd true
| 15> SMDsolvent "MeCN"
| 16> surfacetype gepol_ses
| 17> rsolv 2.19
| 18> end
| 19>
| 20> * xyz 1 2
| 21> C          -0.71556742602470      1.41147124580485      0.02484351393648
| 22> C          -1.89485758612148      0.71255037175673      0.02185452188149
| 23> C          -1.89490487228878     -0.71243606709823     -0.02184786737407
| 24> C          -0.71566014748267     -1.41143906203058     -0.02485534134414
| 25> C           0.52378178615536     -0.72580780509331      0.02738184725448
| 26> N           1.67880733273848     -1.40323460000137      0.12447426704281
| 27> H           2.54767175517770     -0.96635780966427      0.41412881989197
| 28> H           1.66526481618075     -2.41979612436391      0.15230682810719
| 29> C           0.52382964238816      0.72575250329787     -0.02740743022416
| 30> N           1.67888414838919      1.40311105146924     -0.12454542200936
| 31> H           2.54775915845719      0.96616221930099     -0.41405341714921
| 32> H           1.66540525229882      2.41967119375531     -0.15237138517056
| 33> H          -0.71326686493866     -2.50469578941709     -0.02461886159088
| 34> H          -2.84575934012086     -1.25136953209334     -0.03502634075607
| 35> H          -2.84567429105713      1.25154580034325      0.03504989002360
| 36> H          -0.71309356375136      2.50472700403386      0.02461197748042
| 37> *
| 38>
| 39>                          ****END OF INPUT****

CARTESIAN COORDINATES (ANGSTROEM)
---------------------------------
  C     -0.715567    1.411471    0.024844
  C     -1.894858    0.712550    0.021855
  C     -1.894905   -0.712436   -0.021848
  C     -0.715660   -1.411439   -0.024855
  C      0.523782   -0.725808    0.027382
  N      1.678807   -1.403235    0.124474
  H      2.547672   -0.966358    0.414129
  H      1.665265   -2.419796    0.152307
  C      0.523830    0.725753   -0.027407
  N      1.678884    1.403111   -0.124545
  H      2.547759    0.966162   -0.414053
  H      1.665405    2.419671   -0.152371
  H     -0.713267   -2.504696   -0.024619
  H     -2.845759   -1.251370   -0.035026
  H     -2.845674    1.251546    0.035050
  H     -0.713094    2.504727    0.024612

 Total Charge           Charge          ....    1
 Multiplicity           Mult            ....    2
 Number of Electrons    NEL             ....   57
 Basis Dimension        Dim             ....  552

ORBITAL ENERGIES
----------------
                 SPIN UP ORBITALS
  NO   OCC          E(Eh)            E(eV)
   0   1.0000     -14.370781      -391.0488
   1   1.0000     -14.370760      -391.0483
   2   1.0000     -10.257495      -279.1206
   3   1.0000     -10.257158      -279.1114
   4   1.0000     -10.190918      -277.3090
   5   1.0000     -10.190500      -277.2976
   6   1.0000     -10.184526      -277.1350
   7   1.0000     -10.184507      -277.1345
   8   1.0000      -0.998576       -27.1726
   9   1.0000      -0.956521       -26.0283
  10   1.0000      -0.867619       -23.6091
  11   1.0000      -0.770299       -20.9609
  12   1.0000      -0.755912       -20.5694
  13   1.0000      -0.649651       -17.6779
  14   1.0000      -0.639597       -17.4043
  15   1.0000      -0.576421       -15.6852
  16   1.0000      -0.547813       -14.9067
  17   1.0000      -0.541375       -14.7316
  18   1.0000      -0.509785       -13.8719
  19   1.0000      -0.468341       -12.7442
  20   1.0000      -0.449468       -12.2306
  21   1.0000      -0.446084       -12.1386
  22   1.0000      -0.442806       -12.0494
  23   1.0000      -0.380901       -10.3649
  24   1.0000      -0.378032       -10.2868
  25   1.0000      -0.359830        -9.7915
  26   1.0000      -0.349316        -9.5054
  27   1.0000      -0.262186        -7.1345
  28   1.0000      -0.226051        -6.1512
  29   0.0000      -0.045513        -1.2385
  30   0.0000      -0.042792        -1.1644
  31   0.0000       0.002344         0.0638
  32   0.0000       0.016982         0.4621
  33   0.0000       0.020981         0.5709

                 SPIN DOWN ORBITALS
  NO   OCC          E(Eh)            E(eV)
   0   1.0000     -14.364405      -390.8753
   1   1.0000     -14.364381      -390.8747
   2   1.0000     -10.254470      -279.0383
   3   1.0000     -10.254146      -279.0295
   4   1.0000     -10.188643      -277.2471
   5   1.0000     -10.188237      -277.2360
   6   1.0000     -10.185094      -277.1505
   7   1.0000     -10.185077      -277.1500
   8   1.0000      -0.988020       -26.8854
   9   1.0000      -0.945296       -25.7228
  10   1.0000      -0.860582       -23.4176
  11   1.0000      -0.767472       -20.8840
  12   1.0000      -0.742106       -20.1937
  13   1.0000      -0.646050       -17.5799
  14   1.0000      -0.633830       -17.2474
  15   1.0000      -0.573067       -15.5940
  16   1.0000      -0.545668       -14.8484
  17   1.0000      -0.538007       -14.6399
  18   1.0000      -0.505213       -13.7476
  19   1.0000      -0.465665       -12.6714
  20   1.0000      -0.442928       -12.0527
  21   1.0000      -0.441778       -12.0214
  22   1.0000      -0.422739       -11.5033
  23   1.0000      -0.379161       -10.3175
  24   1.0000      -0.361660        -9.8413
  25   1.0000      -0.345944        -9.4136
  26   1.0000      -0.326543        -8.8857
  27   1.0000      -0.249904        -6.8002
  28   0.0000      -0.163857        -4.4588
  29   0.0000      -0.031116        -0.8467
  30   0.0000      -0.012311        -0.3350
  31   0.0000       0.004322         0.1176
  32   0.0000       0.019027         0.5178

MULLIKEN ATOMIC CHARGES AND SPIN POPULATIONS
--------------------------------------------
   0 C :   -0.780855   -0.080539
   1 C :   -0.398145    0.134869
   2 C :   -0.397621    0.135124
   3 C :   -0.781701   -0.080809
   4 C :    1.189776    0.200783
   5 N :   -0.529594    0.260818
   6 H :    0.090826   -0.006073
   7 H :    0.063939   -0.009463
   8 C :    1.191169    0.200583
   9 N :   -0.529710    0.260984
  10 H :    0.090520   -0.006092
  11 H :    0.063802   -0.009465
  12 H :    0.413886   -0.001494
  13 H :    0.450439    0.001137
  14 H :    0.450165    0.001134
  15 H :    0.413103   -0.001497
Sum of atomic charges         :    1.0000000

LOEWDIN ATOMIC CHARGES AND SPIN POPULATIONS
-------------------------------------------
   0 C :    0.247592    0.031731
   1 C :    0.225835    0.091693
   2 C :    0.225826    0.091762
   3 C :    0.247555    0.031685
   4 C :   -0.152751    0.139039
   5 N :    0.934752    0.179197
   6 H :   -0.234429    0.024149
   7 H :   -0.216361    0.021585
   8 C :   -0.152684    0.139025
   9 N :    0.934849    0.179266
  10 H :   -0.234355    0.024159
  11 H :   -0.216362    0.021600
  12 H :   -0.149837   -0.004133
  13 H :   -0.154901    0.016693
  14 H :   -0.154904    0.016667
  15 H :   -0.149826   -0.004116

  Mayer bond orders larger than 0.100000
B(  0-C ,  1-C ) :   1.3657 B(  0-C ,  8-C ) :   0.6570 B(  0-C ,  9-N ) :  -0.1497
B(  0-C , 15-H ) :   0.5235 B(  1-C ,  2-C ) :   0.9734 B(  1-C ,  8-C ) :  -0.1446
B(  1-C , 14-H ) :   0.6356 B(  2-C ,  3-C ) :   1.3656 B(  2-C ,  4-C ) :  -0.1444
B(  2-C , 13-H ) :   0.6351 B(  3-C ,  4-C ) :   0.6567 B(  3-C ,  5-N ) :  -0.1496
B(  3-C , 12-H ) :   0.5224 B(  4-C ,  5-N ) :   0.4290 B(  4-C ,  7-H ) :  -0.1120
B(  4-C ,  8-C ) :   0.6039 B(  5-N ,  6-H ) :   1.0936 B(  5-N ,  7-H ) :   1.1447
B(  8-C ,  9-N ) :   0.4286 B(  8-C , 11-H ) :  -0.1123 B(  9-N , 10-H ) :   1.0943
B(  9-N , 11-H ) :   1.1446

Dispersion correction           -0.004844448
FINAL SINGLE POINT ENERGY      -342.726484846274

DIPOLE MOMENT
-------------

Method             : SCF
Type of density    : Electron Density
Multiplicity       :   2
Irrep              :   0
Energy             :  -342.7216403981306030 Eh
Relativity type    :
Basis              : AO
                                X                 Y                 Z
Electronic contribution:      0.749150065       0.000523709      -0.000310307
Nuclear contribution   :      1.369385413      -0.000054655       0.000118438
                        -----------------------------------------
Total Dipole Moment    :      2.118535477       0.000469054      -0.000191869
                        -----------------------------------------
Magnitude (a.u.)       :      2.118535538
Magnitude (Debye)      :      5.384889393

Rotational constants in cm-1:             0.106540             0.076353             0.044639
Rotational constants in MHz :          3194.002568          2289.017521          1338.230325

                             ****ORCA TERMINATED NORMALLY****
TOTAL RUN TIME: 0 days 0 hours 5 minutes 40 seconds 557 msec
