                         Program Version 6.0.0  -   RELEASE  -
|  1> !TPSSh freq aug-cc-pVTZ d3 TightSCF SlowConv RIJCOSX defgrid2
|  2>
|  3> %pal
|  4> nprocs 12
|  5> end
|  6>
|  7> %scf
|  8> MaxIter 1500
|  9> end
| 10>
| 11> %maxcore 5000
| 12>
| 13> !CPCM
| 14> %cpcm smd true
| 15> SMDsolvent "MeCN"
| 16> surfacetype gepol_ses
| 17> rsolv 2.19
| 18> end
| 19>
| 20> * xyz 0 1
| 21> C           1.34183034680166     -0.00665063107801     -0.21582580225777
| 22> C           0.75539196392946      1.26129948731718     -0.16326726284508
| 23> C          -0.62076978785217      1.39173836688193     -0.07002864714233
| 24> C          -1.43891536140260      0.25868086024836     -0.03101969323823
| 25> C          -0.85856721132511     -1.00886403315691     -0.08604104212398
| 26> C           0.52591866458254     -1.13406620473617     -0.17629718223801
| 27> H           0.96009965055654     -2.12616669190160     -0.21484073744727
| 28> H          -1.46514261798325     -1.90295737899217     -0.05788382542303
| 29> O          -2.77927799735803      0.48603004076047      0.06042013669653
| 30> C          -3.63488996781807     -0.66006249157572      0.10251731731340
| 31> H          -4.64710757427225     -0.26806055109496      0.17135790117879
| 32> H          -3.53225454721282     -1.25734660354348     -0.80719001396573
| 33> H          -3.41880602513573     -1.27680829668919      0.97887494152579
| 34> H          -1.07401503349205      2.37450253655161     -0.02742744411219
| 35> H           1.37260943512161      2.15091463580333     -0.19551576164967
| 36> S           3.10337912693834     -0.23549753312873     -0.33937441886268
| 37> H           3.43561463592195      1.06588028833408     -0.26304876540854
| 38> *
| 39>
| 40>                          ****END OF INPUT****

CARTESIAN COORDINATES (ANGSTROEM)
---------------------------------
  C      1.341830   -0.006651   -0.215826
  C      0.755392    1.261299   -0.163267
  C     -0.620770    1.391738   -0.070029
  C     -1.438915    0.258681   -0.031020
  C     -0.858567   -1.008864   -0.086041
  C      0.525919   -1.134066   -0.176297
  H      0.960100   -2.126167   -0.214841
  H     -1.465143   -1.902957   -0.057884
  O     -2.779278    0.486030    0.060420
  C     -3.634890   -0.660062    0.102517
  H     -4.647108   -0.268061    0.171358
  H     -3.532255   -1.257347   -0.807190
  H     -3.418806   -1.276808    0.978875
  H     -1.074015    2.374503   -0.027427
  H      1.372609    2.150915   -0.195516
  S      3.103379   -0.235498   -0.339374
  H      3.435615    1.065880   -0.263049

 Total Charge           Charge          ....    0
 Multiplicity           Mult            ....    1
 Number of Electrons    NEL             ....   74
 Basis Dimension        Dim             ....  602

ORBITAL ENERGIES
----------------

  NO   OCC          E(Eh)            E(eV)
   0   2.0000     -88.749952     -2415.0090
   1   2.0000     -19.083892      -519.2991
   2   2.0000     -10.173591      -276.8375
   3   2.0000     -10.155220      -276.3376
   4   2.0000     -10.149216      -276.1742
   5   2.0000     -10.122592      -275.4497
   6   2.0000     -10.122037      -275.4346
   7   2.0000     -10.116956      -275.2964
   8   2.0000     -10.116064      -275.2721
   9   2.0000      -7.875742      -214.3098
  10   2.0000      -5.827058      -158.5623
  11   2.0000      -5.823147      -158.4559
  12   2.0000      -5.818357      -158.3255
  13   2.0000      -1.040160       -28.3042
  14   2.0000      -0.845256       -23.0006
  15   2.0000      -0.765963       -20.8429
  16   2.0000      -0.736488       -20.0408
  17   2.0000      -0.701508       -19.0890
  18   2.0000      -0.657590       -17.8939
  19   2.0000      -0.598615       -16.2892
  20   2.0000      -0.566199       -15.4071
  21   2.0000      -0.513704       -13.9786
  22   2.0000      -0.473600       -12.8873
  23   2.0000      -0.450985       -12.2719
  24   2.0000      -0.444934       -12.1073
  25   2.0000      -0.430144       -11.7048
  26   2.0000      -0.409421       -11.1409
  27   2.0000      -0.398966       -10.8564
  28   2.0000      -0.375744       -10.2245
  29   2.0000      -0.373697       -10.1688
  30   2.0000      -0.344733        -9.3807
  31   2.0000      -0.326590        -8.8870
  32   2.0000      -0.324139        -8.8203
  33   2.0000      -0.310750        -8.4559
  34   2.0000      -0.262590        -7.1454
  35   2.0000      -0.252221        -6.8633
  36   2.0000      -0.196182        -5.3384
  37   0.0000      -0.030931        -0.8417
  38   0.0000      -0.015346        -0.4176
  39   0.0000      -0.009350        -0.2544
  40   0.0000       0.003435         0.0935
  41   0.0000       0.005935         0.1615

MULLIKEN ATOMIC CHARGES
-----------------------
   0 C :    0.541823
   1 C :   -0.455580
   2 C :   -0.625751
   3 C :    0.975484
   4 C :   -0.206050
   5 C :   -0.649589
   6 H :    0.355649
   7 H :    0.327870
   8 O :   -0.724551
   9 C :   -0.285144
  10 H :    0.041812
  11 H :    0.211969
  12 H :    0.210599
  13 H :    0.389628
  14 H :    0.282630
  15 S :   -0.477971
  16 H :    0.087171
Sum of atomic charges:   -0.0000000

LOEWDIN ATOMIC CHARGES
----------------------
   0 C :   -0.583527
   1 C :    0.114458
   2 C :    0.193728
   3 C :   -0.407340
   4 C :    0.194152
   5 C :    0.101818
   6 H :   -0.192908
   7 H :   -0.199374
   8 O :    0.594136
   9 C :    0.353905
  10 H :   -0.178657
  11 H :   -0.171806
  12 H :   -0.171261
  13 H :   -0.178082
  14 H :   -0.195450
  15 S :    1.291591
  16 H :   -0.565382

  Mayer bond orders larger than 0.100000
B(  0-C ,  1-C ) :   1.1034 B(  0-C ,  5-C ) :   1.2502 B(  0-C , 15-S ) :   0.3562
B(  1-C ,  2-C ) :   1.4741 B(  1-C ,  3-C ) :  -0.2714 B(  1-C , 13-H ) :   0.1168
B(  1-C , 14-H ) :   0.7034 B(  2-C ,  3-C ) :   0.8799 B(  2-C ,  4-C ) :   0.1827
B(  2-C ,  8-O ) :   0.3475 B(  2-C , 13-H ) :   0.4879 B(  3-C ,  4-C ) :   1.0795
B(  3-C ,  5-C ) :  -0.1997 B(  3-C ,  7-H ) :   0.1264 B(  3-C ,  8-O ) :   0.1338
B(  3-C ,  9-C ) :   0.1113 B(  4-C ,  5-C ) :   1.1578 B(  4-C ,  7-H ) :   0.5580
B(  4-C ,  8-O ) :  -0.1426 B(  5-C ,  6-H ) :   0.6973 B(  5-C , 15-S ) :   0.1000
B(  8-O ,  9-C ) :   0.9764 B(  9-C , 10-H ) :   1.0805 B(  9-C , 11-H ) :   0.9210
B(  9-C , 12-H ) :   0.9221 B( 15-S , 16-H ) :   1.0620

Dispersion correction           -0.021392336
FINAL SINGLE POINT ENERGY      -745.176511056221

DIPOLE MOMENT
-------------

Method             : SCF
Type of density    : Electron Density
Multiplicity       :   1
Irrep              :   0
Energy             :  -745.1551187199355581 Eh
Relativity type    :
Basis              : AO
                                X                 Y                 Z
Electronic contribution:      7.104570918       0.986802261      -0.504495553
Nuclear contribution   :     -7.949922054      -1.160166529       0.583559420
                        -----------------------------------------
Total Dipole Moment    :     -0.845351136      -0.173364267       0.079063868
                        -----------------------------------------
Magnitude (a.u.)       :      0.866559177
Magnitude (Debye)      :      2.202618384

VIBRATIONAL FREQUENCIES
-----------------------

Scaling factor for frequencies =  1.000000000  (already applied!)

     0:       0.00 cm**-1
     1:       0.00 cm**-1
     2:       0.00 cm**-1
     3:       0.00 cm**-1
     4:       0.00 cm**-1
     5:       0.00 cm**-1
     6:      69.57 cm**-1
     7:      83.89 cm**-1
     8:     132.69 cm**-1
     9:     188.39 cm**-1
    10:     219.50 cm**-1
    11:     288.07 cm**-1
    12:     329.87 cm**-1
    13:     354.38 cm**-1
    14:     413.94 cm**-1
    15:     489.50 cm**-1
    16:     508.71 cm**-1
    17:     623.36 cm**-1
    18:     637.78 cm**-1
    19:     712.46 cm**-1
    20:     806.05 cm**-1
    21:     813.88 cm**-1
    22:     830.49 cm**-1
    23:     904.42 cm**-1
    24:     941.85 cm**-1
    25:     964.60 cm**-1
    26:    1016.97 cm**-1
    27:    1034.80 cm**-1
    28:    1109.61 cm**-1
    29:    1126.83 cm**-1
    30:    1163.56 cm**-1
    31:    1193.32 cm**-1
    32:    1199.92 cm**-1
    33:    1263.47 cm**-1
    34:    1329.07 cm**-1
    35:    1337.91 cm**-1
    36:    1436.53 cm**-1
    37:    1469.83 cm**-1
    38:    1483.73 cm**-1
    39:    1492.07 cm**-1
    40:    1520.29 cm**-1
    41:    1606.36 cm**-1
    42:    1630.31 cm**-1
    43:    2665.65 cm**-1
    44:    3014.66 cm**-1
    45:    3078.83 cm**-1
    46:    3137.78 cm**-1
    47:    3169.23 cm**-1
    48:    3169.80 cm**-1
    49:    3186.34 cm**-1
    50:    3205.94 cm**-1

IR SPECTRUM
-----------

 Mode   freq       eps      Int      T**2         TX        TY        TZ
       cm**-1   L/(mol*cm) km/mol    a.u.
----------------------------------------------------------------------------
  6:     69.57   0.000032    0.16  0.000144  (-0.005205 -0.001176 -0.010740)
  7:     83.89   0.006754   34.13  0.025126  ( 0.006321  0.009085 -0.158125)
  8:    132.69   0.000086    0.44  0.000203  (-0.003996 -0.001241 -0.013609)
  9:    188.39   0.000846    4.27  0.001401  (-0.035182  0.012350  0.003232)
 10:    219.50   0.000001    0.01  0.000001  ( 0.000740 -0.000958  0.000046)
 11:    288.07   0.000076    0.38  0.000082  (-0.005026  0.007516 -0.000435)
 12:    329.87   0.001168    5.90  0.001105  (-0.001279  0.001178 -0.033199)
 13:    354.38   0.000212    1.07  0.000186  ( 0.000397 -0.013613 -0.000998)
 14:    413.94   0.000051    0.26  0.000038  ( 0.000524 -0.000622  0.006140)
 15:    489.50   0.000234    1.18  0.000149  ( 0.012069  0.001863  0.000083)
 16:    508.71   0.007387   37.33  0.004531  ( 0.003589 -0.000808  0.067214)
 17:    623.36   0.006578   33.24  0.003293  ( 0.054820 -0.016568 -0.003661)
 18:    637.78   0.004989   25.21  0.002441  ( 0.049070 -0.005224 -0.002460)
 19:    712.46   0.000147    0.74  0.000064  ( 0.000218  0.000109  0.008012)
 20:    806.05   0.000827    4.18  0.000320  ( 0.011289 -0.013801 -0.001556)
 21:    813.88   0.002188   11.06  0.000839  (-0.002326 -0.000324 -0.028868)
 22:    830.49   0.020469  103.44  0.007692  (-0.005142  0.000422 -0.087550)
 23:    904.42   0.001911    9.66  0.000659  ( 0.003910  0.025376 -0.000260)
 24:    941.85   0.000016    0.08  0.000005  (-0.000302  0.000214 -0.002249)
 25:    964.60   0.000018    0.09  0.000006  ( 0.000659  0.001192  0.001984)
 26:   1016.97   0.001259    6.36  0.000386  (-0.019485 -0.002118  0.001461)
 27:   1034.80   0.026116  131.98  0.007876  ( 0.070018  0.054379 -0.004015)
 28:   1109.61   0.005276   26.66  0.001484  ( 0.034651 -0.016657 -0.002377)
 29:   1126.83   0.003445   17.41  0.000954  (-0.001499 -0.030851 -0.000205)
 30:   1163.56   0.000350    1.77  0.000094  ( 0.001528 -0.000377  0.009554)
 31:   1193.32   0.007257   36.68  0.001898  ( 0.042518  0.009141 -0.002566)
 32:   1199.92   0.006169   31.18  0.001604  (-0.035969 -0.017495  0.002127)
 33:   1263.47   0.094743  478.79  0.023401  (-0.152310 -0.010158  0.009952)
 34:   1329.07   0.001342    6.78  0.000315  ( 0.003526 -0.017386 -0.000571)
 35:   1337.91   0.009425   47.63  0.002198  ( 0.039330  0.025453 -0.001939)
 36:   1436.53   0.000591    2.99  0.000128  (-0.010703  0.003634  0.000762)
 37:   1469.83   0.007208   36.43  0.001530  ( 0.038454 -0.006823 -0.002254)
 38:   1483.73   0.002407   12.16  0.000506  ( 0.001901 -0.000130 -0.022420)
 39:   1492.07   0.006978   35.26  0.001459  (-0.038022  0.003552  0.001040)
 40:   1520.29   0.050860  257.03  0.010440  (-0.101944 -0.000748  0.006838)
 41:   1606.36   0.005256   26.56  0.001021  (-0.027150  0.016718  0.002095)
 42:   1630.31   0.007918   40.01  0.001516  ( 0.038350  0.006210 -0.002504)
 43:   2665.65   0.001254    6.34  0.000147  ( 0.007428  0.009561  0.000498)
 44:   3014.66   0.015716   79.42  0.001627  (-0.028584 -0.028398  0.001829)
 45:   3078.83   0.011368   57.45  0.001152  (-0.002804  0.000247 -0.033828)
 46:   3137.78   0.006245   31.56  0.000621  (-0.022234  0.011146  0.001597)
 47:   3169.23   0.002293   11.59  0.000226  ( 0.011328 -0.009849 -0.000711)
 48:   3169.80   0.001757    8.88  0.000173  (-0.011976 -0.005408  0.000542)
 49:   3186.34   0.002036   10.29  0.000199  (-0.003400  0.013700  0.000390)
 50:   3205.94   0.001419    7.17  0.000138  ( 0.008764  0.007808 -0.000588)

--------------------------
THERMOCHEMISTRY AT 298.15K
--------------------------

Temperature         ...   298.15 K
Pressure            ...     1.00 atm
Total Mass          ...   140.20 AMU
Quasi RRHO          ...     True
Cut-Off Frequency   ...     1.00 cm^-1

Throughout the following assumptions are being made:
  (1) The electronic state is orbitally nondegenerate
  (2) There are no thermally accessible electronically excited states
  (3) Hindered rotations indicated by low frequency modes are not
      treated as such but are treated as vibrations and this may
      cause some error
  (4) All equations used are the standard statistical mechanics
      equations for an ideal gas
  (5) All vibrations are strictly harmonic

freq.      69.57  E(vib)   ...       0.50
freq.      83.89  E(vib)   ...       0.48
freq.     132.69  E(vib)   ...       0.42
freq.     188.39  E(vib)   ...       0.36
freq.     219.50  E(vib)   ...       0.33
freq.     288.07  E(vib)   ...       0.27
freq.     329.87  E(vib)   ...       0.24
freq.     354.38  E(vib)   ...       0.22
freq.     413.94  E(vib)   ...       0.19
freq.     489.50  E(vib)   ...       0.15
freq.     508.71  E(vib)   ...       0.14
freq.     623.36  E(vib)   ...       0.09
freq.     637.78  E(vib)   ...       0.09
freq.     712.46  E(vib)   ...       0.07
freq.     806.05  E(vib)   ...       0.05
freq.     813.88  E(vib)   ...       0.05
freq.     830.49  E(vib)   ...       0.04
freq.     904.42  E(vib)   ...       0.03
freq.     941.85  E(vib)   ...       0.03
freq.     964.60  E(vib)   ...       0.03
freq.    1016.97  E(vib)   ...       0.02
freq.    1034.80  E(vib)   ...       0.02
freq.    1109.61  E(vib)   ...       0.02
freq.    1126.83  E(vib)   ...       0.01
freq.    1163.56  E(vib)   ...       0.01
freq.    1193.32  E(vib)   ...       0.01
freq.    1199.92  E(vib)   ...       0.01
freq.    1263.47  E(vib)   ...       0.01
freq.    1329.07  E(vib)   ...       0.01
freq.    1337.91  E(vib)   ...       0.01
freq.    1436.53  E(vib)   ...       0.00
freq.    1469.83  E(vib)   ...       0.00
freq.    1483.73  E(vib)   ...       0.00
freq.    1492.07  E(vib)   ...       0.00
freq.    1520.29  E(vib)   ...       0.00
freq.    1606.36  E(vib)   ...       0.00
freq.    1630.31  E(vib)   ...       0.00
freq.    2665.65  E(vib)   ...       0.00
freq.    3014.66  E(vib)   ...       0.00
freq.    3078.83  E(vib)   ...       0.00
freq.    3137.78  E(vib)   ...       0.00
freq.    3169.23  E(vib)   ...       0.00
freq.    3169.80  E(vib)   ...       0.00
freq.    3186.34  E(vib)   ...       0.00
freq.    3205.94  E(vib)   ...       0.00

------------
INNER ENERGY
------------

The inner energy is: U= E(el) + E(ZPE) + E(vib) + E(rot) + E(trans)
    E(el)   - is the total energy from the electronic structure calculation
              = E(kin-el) + E(nuc-el) + E(el-el) + E(nuc-nuc)
    E(ZPE)  - the the zero temperature vibrational energy from the frequency calculation
    E(vib)  - the the finite temperature correction to E(ZPE) due to population
              of excited vibrational states
    E(rot)  - is the rotational thermal energy
    E(trans)- is the translational thermal energy

Summary of contributions to the inner energy U:
Electronic energy                ...   -745.17651106 Eh
Zero point energy                ...      0.13066713 Eh      81.99 kcal/mol
Thermal vibrational correction   ...      0.00625639 Eh       3.93 kcal/mol
Thermal rotational correction    ...      0.00141627 Eh       0.89 kcal/mol
Thermal translational correction ...      0.00141627 Eh       0.89 kcal/mol
-----------------------------------------------------------------------
Total thermal energy                   -745.03675499 Eh

Summary of corrections to the electronic energy:
(perhaps to be used in another calculation)
Total thermal correction                  0.00908893 Eh       5.70 kcal/mol
Non-thermal (ZPE) correction              0.13066713 Eh      81.99 kcal/mol
-----------------------------------------------------------------------
Total correction                          0.13975606 Eh      87.70 kcal/mol

--------
ENTHALPY
--------

The enthalpy is H = U + kB*T
                kB is Boltzmann's constant
Total thermal energy              ...   -745.03675499 Eh
Thermal Enthalpy correction       ...      0.00094421 Eh       0.59 kcal/mol
-----------------------------------------------------------------------
Total Enthalpy                    ...   -745.03581079 Eh

Note: Only C1 symmetry has been detected, increase convergence thresholds
      if your molecule has a higher symmetry. Symmetry factor of 1.0 is
      used for the rotational entropy correction.

Note: Rotational entropy computed according to Herzberg
Infrared and Raman Spectra, Chapter V,1, Van Nostrand Reinhold, 1945
Point Group:  C1, Symmetry Number:   1
Rotational constants in cm-1:     0.158611     0.023088     0.020233

Vibrational entropy computed according to the QRRHO of S. Grimme
Chem.Eur.J. 2012 18 9955 using a reference frequency of 100.0 cm-1

-------
ENTROPY
-------

The entropy contributions are T*S = T*(S(el)+S(vib)+S(rot)+S(trans))
     S(el)   - electronic entropy
     S(vib)  - vibrational entropy
     S(rot)  - rotational entropy
     S(trans)- translational entropy
The entropies will be listed as multiplied by the temperature to get
units of energy

Electronic entropy                ...      0.00000000 Eh      0.00 kcal/mol
Vibrational entropy               ...      0.01067672 Eh      6.70 kcal/mol
Rotational entropy                ...      0.01400048 Eh      8.79 kcal/mol
Translational entropy             ...      0.01934980 Eh     12.14 kcal/mol
-----------------------------------------------------------------------
Final entropy term                ...      0.04402700 Eh     27.63 kcal/mol

In case the symmetry of your molecule has not been determined correctly
or in case you have a reason to use a different symmetry number we print
out the resulting rotational entropy values for sn=1,12:

 non-linear molecules -----------------------------------
|  sn= 1 | S(rot)=       0.01400048 Eh      8.79 kcal/mol|
|  sn= 2 | S(rot)=       0.01334602 Eh      8.37 kcal/mol|
|  sn= 3 | S(rot)=       0.01296319 Eh      8.13 kcal/mol|
|  sn= 4 | S(rot)=       0.01269157 Eh      7.96 kcal/mol|
|  sn= 5 | S(rot)=       0.01248088 Eh      7.83 kcal/mol|
|  sn= 6 | S(rot)=       0.01230874 Eh      7.72 kcal/mol|
|  sn= 7 | S(rot)=       0.01216319 Eh      7.63 kcal/mol|
|  sn= 8 | S(rot)=       0.01203711 Eh      7.55 kcal/mol|
|  sn= 9 | S(rot)=       0.01192590 Eh      7.48 kcal/mol|
|  sn=10 | S(rot)=       0.01182642 Eh      7.42 kcal/mol|
|  sn=11 | S(rot)=       0.01173643 Eh      7.36 kcal/mol|
|  sn=12 | S(rot)=       0.01165428 Eh      7.31 kcal/mol|
 linear molecules ---------------------------------------
|  Dinfh | S(rot)=       0.00900854 Eh      5.65 kcal/mol|
|  Cinfv | S(rot)=       0.00966300 Eh      6.06 kcal/mol|

                             ****ORCA TERMINATED NORMALLY****
TOTAL RUN TIME: 0 days 0 hours 34 minutes 19 seconds 245 msec
