                         Program Version 6.0.0  -   RELEASE  -
|  1> !r2SCAN opt aug-cc-pVTZ d3 TightSCF SlowConv RIJCOSX defgrid2
|  2>
|  3> %pal
|  4> nprocs 8
|  5> end
|  6>
|  7> %scf
|  8> MaxIter 1500
|  9> end
| 10>
| 11> %maxcore 3500
| 12>
| 13> !CPCM
| 14> %cpcm smd true
| 15> SMDsolvent "MeCN"
| 16> surfacetype gepol_ses
| 17> rsolv 2.19
| 18> end
| 19>
| 20> * xyz 1 2
| 21> C           1.38821397253669     -0.85710928094571      0.60741622632202
| 22> C           2.66653568645174     -1.38554775804107      0.62328529651635
| 23> C           3.74096697508373     -0.66019599701418      0.08285810563013
| 24> C           3.54023898785237      0.62233127623213     -0.45460571699329
| 25> C           2.27463505486006      1.17691753163962     -0.46404721541233
| 26> C           1.19493732351435      0.42049377974261      0.03782457404784
| 27> O          -0.00001161826735      1.03053434324458     -0.00007618077340
| 28> C          -1.19494650110222      0.42046263969238     -0.03791233087995
| 29> C          -2.27466316694698      1.17692889833622      0.46385316504035
| 30> C          -3.54025869091077      0.62232307991007      0.45446120210222
| 31> C          -3.74095306617908     -0.66026678297616     -0.08285951221376
| 32> C          -2.66650374430337     -1.38566766681220     -0.62318898600472
| 33> C          -1.38818943489976     -0.85721178830951     -0.60735323061330
| 34> H          -0.55743963132106     -1.38478510741341     -1.08197323083020
| 35> H          -2.84302940822415     -2.36075586477487     -1.08456370453300
| 36> H          -4.74708768097790     -1.08795510804427     -0.10418715284565
| 37> H          -4.38474494788350      1.18417342168211      0.86161853827017
| 38> H          -2.07820409834794      2.17105532289927      0.87220985478457
| 39> H           2.07815534201669      2.17098917949467     -0.87253031915770
| 40> H           4.38471105702739      1.18414197451138     -0.86184555829131
| 41> H           4.74710919235526     -1.08786907382573      0.10421696325696
| 42> H           2.84307759651065     -2.36058562840449      1.08475174308550
| 43> H           0.55748160115515     -1.38464569082344      1.08211306949251
| 44> *
| 45>
| 46>                          ****END OF INPUT****
 Total Charge           Charge          ....    1
 Multiplicity           Mult            ....    2
 Number of Electrons    NEL             ....   89
Dispersion correction           -0.008230444
FINAL SINGLE POINT ENERGY      -538.206537683052
Dispersion correction             ... done (  0.0 sec)
Dispersion correction           -0.008265406
FINAL SINGLE POINT ENERGY      -538.207757430451
Dispersion correction             ... done (  0.0 sec)
Dispersion correction           -0.008255410
FINAL SINGLE POINT ENERGY      -538.207748434334
Dispersion correction             ... done (  0.0 sec)
FINAL SINGLE POINT ENERGY      -538.207913340293
Dispersion correction             ... done (  0.1 sec)
Dispersion correction           -0.008279960
FINAL SINGLE POINT ENERGY      -538.207907504668
Dispersion correction             ... done (  0.0 sec)
Dispersion correction           -0.008281796
FINAL SINGLE POINT ENERGY      -538.207911083404
Dispersion correction             ... done (  0.1 sec)
                    ***********************HURRAY********************

CARTESIAN COORDINATES (ANGSTROEM)
---------------------------------
  C      1.357947   -0.823439    0.625038
  C      2.622043   -1.373072    0.644381
  C      3.702704   -0.680687    0.086920
  C      3.523240    0.590244   -0.475633
  C      2.273405    1.167392   -0.491518
  C      1.193230    0.439626    0.031359
  O      0.000032    1.081204   -0.000767
  C     -1.193239    0.439586   -0.032206
  C     -2.273164    1.167301    0.491161
  C     -3.522983    0.590047    0.476047
  C     -3.702691   -0.680929   -0.086287
  C     -2.622279   -1.373272   -0.644247
  C     -1.358193   -0.823510   -0.625647
  H     -0.525382   -1.318600   -1.105764
  H     -2.780803   -2.332527   -1.118915
  H     -4.691098   -1.120977   -0.112853
  H     -4.366622    1.120228    0.897546
  H     -2.094135    2.144999    0.918718
  H      2.094501    2.145019   -0.919289
  H      4.367098    1.120435   -0.896677
  H      4.691126   -1.120668    0.114058
  H      2.780438   -2.332244    1.119260
  H      0.524855   -1.318399    1.104778

 Multiplicity           Mult            ....    2
 Number of Electrons    NEL             ....   89
 Basis Dimension        Dim             ....  828

ORBITAL ENERGIES
----------------
                 SPIN UP ORBITALS
  NO   OCC          E(Eh)            E(eV)
   0   1.0000     -19.088053      -519.4123
   1   1.0000     -10.156004      -276.3589
   2   1.0000     -10.155964      -276.3578
   3   1.0000     -10.080937      -274.3162
   4   1.0000     -10.080919      -274.3157
   5   1.0000     -10.079721      -274.2831
   6   1.0000     -10.079684      -274.2821
   7   1.0000     -10.076880      -274.2059
   8   1.0000     -10.076857      -274.2052
   9   1.0000     -10.070322      -274.0274
  10   1.0000     -10.070305      -274.0269
  11   1.0000     -10.070197      -274.0240
  12   1.0000     -10.070180      -274.0235
  13   1.0000      -1.130407       -30.7599
  14   1.0000      -0.873089       -23.7579
  15   1.0000      -0.854912       -23.2633
  16   1.0000      -0.779958       -21.2237
  17   1.0000      -0.759207       -20.6591
  18   1.0000      -0.752373       -20.4731
  19   1.0000      -0.730104       -19.8671
  20   1.0000      -0.655031       -17.8243
  21   1.0000      -0.625050       -17.0085
  22   1.0000      -0.606480       -16.5032
  23   1.0000      -0.582582       -15.8529
  24   1.0000      -0.552913       -15.0455
  25   1.0000      -0.509360       -13.8604
  26   1.0000      -0.490841       -13.3565
  27   1.0000      -0.490646       -13.3512
  28   1.0000      -0.484171       -13.1750
  29   1.0000      -0.442817       -12.0497
  30   1.0000      -0.440468       -11.9857
  31   1.0000      -0.427236       -11.6257
  32   1.0000      -0.426639       -11.6094
  33   1.0000      -0.416923       -11.3450
  34   1.0000      -0.411599       -11.2002
  35   1.0000      -0.381504       -10.3812
  36   1.0000      -0.366075        -9.9614
  37   1.0000      -0.365060        -9.9338
  38   1.0000      -0.356965        -9.7135
  39   1.0000      -0.340100        -9.2546
  40   1.0000      -0.337702        -9.1893
  41   1.0000      -0.281038        -7.6474
  42   1.0000      -0.276899        -7.5348
  43   1.0000      -0.272822        -7.4239
  44   1.0000      -0.249401        -6.7866
  45   0.0000      -0.082677        -2.2498
  46   0.0000      -0.070230        -1.9110
  47   0.0000      -0.063633        -1.7316
  48   0.0000      -0.057502        -1.5647
  49   0.0000       0.002769         0.0753

                 SPIN DOWN ORBITALS
  NO   OCC          E(Eh)            E(eV)
   0   1.0000     -19.080088      -519.1956
   1   1.0000     -10.154958      -276.3304
   2   1.0000     -10.154921      -276.3294
   3   1.0000     -10.078924      -274.2615
   4   1.0000     -10.078908      -274.2610
   5   1.0000     -10.075822      -274.1771
   6   1.0000     -10.075792      -274.1762
   7   1.0000     -10.075159      -274.1590
   8   1.0000     -10.075139      -274.1585
   9   1.0000     -10.071340      -274.0551
  10   1.0000     -10.071322      -274.0546
  11   1.0000     -10.071060      -274.0475
  12   1.0000     -10.071042      -274.0470
  13   1.0000      -1.119231       -30.4558
  14   1.0000      -0.868452       -23.6318
  15   1.0000      -0.850103       -23.1325
  16   1.0000      -0.775178       -21.0937
  17   1.0000      -0.756770       -20.5928
  18   1.0000      -0.750131       -20.4121
  19   1.0000      -0.720789       -19.6137
  20   1.0000      -0.649465       -17.6728
  21   1.0000      -0.623259       -16.9597
  22   1.0000      -0.603400       -16.4193
  23   1.0000      -0.579121       -15.7587
  24   1.0000      -0.551040       -14.9946
  25   1.0000      -0.507093       -13.7987
  26   1.0000      -0.488097       -13.2818
  27   1.0000      -0.484547       -13.1852
  28   1.0000      -0.473438       -12.8829
  29   1.0000      -0.438768       -11.9395
  30   1.0000      -0.438046       -11.9199
  31   1.0000      -0.425328       -11.5738
  32   1.0000      -0.425043       -11.5660
  33   1.0000      -0.412338       -11.2203
  34   1.0000      -0.405630       -11.0378
  35   1.0000      -0.372538       -10.1373
  36   1.0000      -0.364853        -9.9281
  37   1.0000      -0.356209        -9.6929
  38   1.0000      -0.352755        -9.5990
  39   1.0000      -0.335366        -9.1258
  40   1.0000      -0.335301        -9.1240
  41   1.0000      -0.273419        -7.4401
  42   1.0000      -0.268724        -7.3123
  43   1.0000      -0.261369        -7.1122
  44   0.0000      -0.221002        -6.0138
  45   0.0000      -0.069143        -1.8815
  46   0.0000      -0.062633        -1.7043
  47   0.0000      -0.056081        -1.5261
  48   0.0000      -0.040240        -1.0950

MULLIKEN ATOMIC CHARGES AND SPIN POPULATIONS
--------------------------------------------
   0 C :   -0.298183    0.112195
   1 C :   -0.638947   -0.082479
   2 C :   -0.468391    0.249247
   3 C :   -0.355120   -0.074053
   4 C :   -1.095714    0.093180
   5 C :    1.439434    0.075504
   6 O :   -0.709228    0.232127
   7 C :    1.439142    0.075287
   8 C :   -1.096064    0.093043
   9 C :   -0.355162   -0.073941
  10 C :   -0.468120    0.248883
  11 C :   -0.638435   -0.082446
  12 C :   -0.298507    0.112181
  13 H :    0.558784    0.009204
  14 H :    0.355672    0.000680
  15 H :    0.507523    0.006778
  16 H :    0.357134   -0.001048
  17 H :    0.492193   -0.004988
  18 H :    0.492251   -0.004980
  19 H :    0.357171   -0.001058
  20 H :    0.507695    0.006803
  21 H :    0.355447    0.000668
  22 H :    0.559427    0.009212
Sum of atomic charges         :    1.0000000

LOEWDIN ATOMIC CHARGES AND SPIN POPULATIONS
-------------------------------------------
   0 C :    0.248459    0.066318
   1 C :    0.251583    0.023257
   2 C :    0.258230    0.109395
   3 C :    0.244112    0.025376
   4 C :    0.258586    0.057652
   5 C :   -0.319225    0.085287
   6 O :    0.687016    0.185665
   7 C :   -0.319290    0.085156
   8 C :    0.258533    0.057559
   9 C :    0.244058    0.025346
  10 C :    0.258158    0.109215
  11 C :    0.251530    0.023206
  12 C :    0.248371    0.066240
  13 H :   -0.161365    0.011902
  14 H :   -0.156676   -0.004218
  15 H :   -0.155158    0.026481
  16 H :   -0.158686   -0.003597
  17 H :   -0.153179    0.009566
  18 H :   -0.153169    0.009582
  19 H :   -0.158675   -0.003606
  20 H :   -0.155134    0.026523
  21 H :   -0.156662   -0.004220
  22 H :   -0.161418    0.011917

  Mayer bond orders larger than 0.100000
B(  0-C ,  1-C ) :   1.1030 B(  0-C ,  2-C ) :   0.1324 B(  0-C ,  4-C ) :   0.2722
B(  0-C ,  5-C ) :   0.6916 B(  0-C , 12-C ) :   0.1804 B(  0-C , 13-H ) :  -0.1046
B(  0-C , 22-H ) :   0.3963 B(  1-C ,  2-C ) :   1.1569 B(  1-C ,  3-C ) :  -0.1291
B(  1-C ,  4-C ) :  -0.1612 B(  1-C ,  5-C ) :  -0.3558 B(  1-C , 21-H ) :   0.8280
B(  2-C ,  3-C ) :   1.0753 B(  2-C ,  4-C ) :   0.4040 B(  2-C ,  5-C ) :  -0.1684
B(  2-C , 20-H ) :   0.5300 B(  3-C ,  4-C ) :   1.2716 B(  3-C ,  5-C ) :  -0.3873
B(  3-C , 19-H ) :   0.8226 B(  4-C ,  5-C ) :   0.1614 B(  4-C ,  6-O ) :   0.2426
B(  4-C , 18-H ) :   0.3090 B(  5-C ,  6-O ) :   0.5846 B(  5-C ,  7-C ) :   0.1110
B(  6-O ,  7-C ) :   0.5844 B(  6-O ,  8-C ) :   0.2423 B(  7-C ,  8-C ) :   0.1619
B(  7-C ,  9-C ) :  -0.3873 B(  7-C , 10-C ) :  -0.1679 B(  7-C , 11-C ) :  -0.3553
B(  7-C , 12-C ) :   0.6922 B(  8-C ,  9-C ) :   1.2716 B(  8-C , 10-C ) :   0.4038
B(  8-C , 11-C ) :  -0.1614 B(  8-C , 12-C ) :   0.2718 B(  8-C , 17-H ) :   0.3092
B(  9-C , 10-C ) :   1.0756 B(  9-C , 11-C ) :  -0.1288 B(  9-C , 16-H ) :   0.8226
B( 10-C , 11-C ) :   1.1568 B( 10-C , 12-C ) :   0.1319 B( 10-C , 15-H ) :   0.5305
B( 11-C , 12-C ) :   1.1032 B( 11-C , 14-H ) :   0.8274 B( 12-C , 13-H ) :   0.3974
B( 12-C , 22-H ) :  -0.1047

Dispersion correction           -0.008281893
FINAL SINGLE POINT ENERGY      -538.207912100589

DIPOLE MOMENT
-------------

Method             : SCF
Type of density    : Electron Density
Multiplicity       :   2
Irrep              :   0
Energy             :  -538.1996302073576999 Eh
Relativity type    :
Basis              : AO
                                X                 Y                 Z
Electronic contribution:      0.002264804       2.192521044      -0.001707260
Nuclear contribution   :     -0.000061863      -2.695539367       0.001847712
                        -----------------------------------------
Total Dipole Moment    :      0.002202941      -0.503018323       0.000140453
                        -----------------------------------------
Magnitude (a.u.)       :      0.503023167
Magnitude (Debye)      :      1.278583279

Rotational constants in cm-1:             0.082193             0.014758             0.013283
Rotational constants in MHz :          2464.086055           442.434165           398.226975

                             ****ORCA TERMINATED NORMALLY****
TOTAL RUN TIME: 0 days 0 hours 33 minutes 11 seconds 257 msec
