                         Program Version 6.0.0  -   RELEASE  -
|  1> !TPSSh aug-cc-pVTZ d3 TightSCF SlowConv RIJCOSX defgrid2
|  2>
|  3> %pal
|  4> nprocs 4
|  5> end
|  6>
|  7> %scf
|  8> MaxIter 1500
|  9> end
| 10>
| 11> %maxcore 3000
| 12>
| 13> !CPCM
| 14> %cpcm smd true
| 15> SMDsolvent "MeCN"
| 16> surfacetype gepol_ses
| 17> rsolv 2.19
| 18> end
| 19>
| 20> * xyz 0 1
| 21> C          -0.49592270970750      1.20689036506876     -0.03130110264914
| 22> C          -1.88685532532519      1.19699753212455     -0.02314506175738
| 23> C          -2.60125975900159      0.00006218322477     -0.01917601586061
| 24> C          -1.88691051129410     -1.19690511286666     -0.02342725949643
| 25> C          -0.49597917173478     -1.20686134487156     -0.03159202517744
| 26> C           0.23868603456831     -0.00000172653772     -0.03609509009819
| 27> N           1.61626182022358     -0.00003106078646     -0.04469127469160
| 28> C           2.33183955992311      1.24597481666428     -0.04486665705751
| 29> H           3.41338665254704      1.04576364513015     -0.05323272367948
| 30> H           2.09753310431419      1.86285731996164     -0.93541110907656
| 31> H           2.10988003494310      1.85696995864317      0.85303702382408
| 32> C           2.33179343347907     -1.24606302804888     -0.04453387362300
| 33> H           3.41335300622739     -1.04589190456372     -0.05217912937846
| 34> H           2.10924230348017     -1.85707031820411      0.85320726726296
| 35> H           2.09802467704190     -1.86292175713273     -0.93524555395099
| 36> H           0.02088202703341     -2.16757371924062     -0.03449261449586
| 37> H          -2.42069136544180     -2.15271053199358     -0.02020648268014
| 38> H          -3.69441433931262      0.00008648240457     -0.01268972961591
| 39> H          -2.42058983097200      2.15282777025830     -0.01968144249458
| 40> H           0.02098115900830      2.16758023076587     -0.03391284530377
| 41> *
| 42>
| 43>                          ****END OF INPUT****

CARTESIAN COORDINATES (ANGSTROEM)
---------------------------------
  C     -0.495923    1.206890   -0.031301
  C     -1.886855    1.196998   -0.023145
  C     -2.601260    0.000062   -0.019176
  C     -1.886911   -1.196905   -0.023427
  C     -0.495979   -1.206861   -0.031592
  C      0.238686   -0.000002   -0.036095
  N      1.616262   -0.000031   -0.044691
  C      2.331840    1.245975   -0.044867
  H      3.413387    1.045764   -0.053233
  H      2.097533    1.862857   -0.935411
  H      2.109880    1.856970    0.853037
  C      2.331793   -1.246063   -0.044534
  H      3.413353   -1.045892   -0.052179
  H      2.109242   -1.857070    0.853207
  H      2.098025   -1.862922   -0.935246
  H      0.020882   -2.167574   -0.034493
  H     -2.420691   -2.152711   -0.020206
  H     -3.694414    0.000086   -0.012690
  H     -2.420590    2.152828   -0.019681
  H      0.020981    2.167580   -0.033913

 Total Charge           Charge          ....    0
 Multiplicity           Mult            ....    1
 Number of Electrons    NEL             ....   66
 Basis Dimension        Dim             ....  667

ORBITAL ENERGIES
----------------

  NO   OCC          E(Eh)            E(eV)
   0   2.0000     -14.264457      -388.1556
   1   2.0000     -10.150946      -276.2213
   2   2.0000     -10.135071      -275.7893
   3   2.0000     -10.135055      -275.7889
   4   2.0000     -10.111533      -275.1488
   5   2.0000     -10.111518      -275.1484
   6   2.0000     -10.105498      -274.9846
   7   2.0000     -10.105492      -274.9844
   8   2.0000     -10.100675      -274.8533
   9   2.0000      -0.926733       -25.2177
  10   2.0000      -0.819667       -22.3043
  11   2.0000      -0.724667       -19.7192
  12   2.0000      -0.721344       -19.6288
  13   2.0000      -0.693211       -18.8632
  14   2.0000      -0.632971       -17.2240
  15   2.0000      -0.576426       -15.6853
  16   2.0000      -0.550836       -14.9890
  17   2.0000      -0.505703       -13.7609
  18   2.0000      -0.456143       -12.4123
  19   2.0000      -0.451671       -12.2906
  20   2.0000      -0.440362       -11.9829
  21   2.0000      -0.422671       -11.5015
  22   2.0000      -0.395950       -10.7743
  23   2.0000      -0.395482       -10.7616
  24   2.0000      -0.378540       -10.3006
  25   2.0000      -0.368469       -10.0266
  26   2.0000      -0.352116        -9.5816
  27   2.0000      -0.351409        -9.5623
  28   2.0000      -0.333524        -9.0757
  29   2.0000      -0.311683        -8.4813
  30   2.0000      -0.272183        -7.4065
  31   2.0000      -0.241637        -6.5753
  32   2.0000      -0.179918        -4.8958
  33   0.0000      -0.019515        -0.5310
  34   0.0000      -0.005575        -0.1517
  35   0.0000      -0.002381        -0.0648
  36   0.0000       0.008847         0.2407
  37   0.0000       0.011771         0.3203

MULLIKEN ATOMIC CHARGES
-----------------------
   0 C :   -0.563183
   1 C :   -0.410641
   2 C :   -0.481270
   3 C :   -0.410217
   4 C :   -0.563441
   5 C :    1.175243
   6 N :   -0.222492
   7 C :   -0.428445
   8 H :    0.046743
   9 H :    0.160744
  10 H :    0.161486
  11 C :   -0.428548
  12 H :    0.047244
  13 H :    0.161409
  14 H :    0.160822
  15 H :    0.261105
  16 H :    0.355280
  17 H :    0.361456
  18 H :    0.354532
  19 H :    0.262174
Sum of atomic charges:    0.0000000

LOEWDIN ATOMIC CHARGES
----------------------
   0 C :    0.202926
   1 C :    0.165080
   2 C :    0.160172
   3 C :    0.165080
   4 C :    0.202925
   5 C :   -0.231342
   6 N :    0.232633
   7 C :    0.468188
   8 H :   -0.162136
   9 H :   -0.144138
  10 H :   -0.143642
  11 C :    0.468196
  12 H :   -0.162117
  13 H :   -0.143675
  14 H :   -0.144118
  15 H :   -0.199123
  16 H :   -0.174580
  17 H :   -0.186627
  18 H :   -0.174581
  19 H :   -0.199122

  Mayer bond orders larger than 0.100000
B(  0-C ,  1-C ) :   1.3170 B(  0-C ,  2-C ) :   0.3386 B(  0-C ,  4-C ) :   0.2997
B(  0-C ,  5-C ) :   0.6338 B(  0-C ,  6-N ) :  -0.2906 B(  0-C ,  7-C ) :  -0.1190
B(  0-C , 18-H ) :   0.1187 B(  0-C , 19-H ) :   0.5901 B(  1-C ,  2-C ) :   1.2720
B(  1-C ,  3-C ) :  -0.1491 B(  1-C ,  5-C ) :  -0.3155 B(  1-C , 18-H ) :   0.7063
B(  2-C ,  3-C ) :   1.2712 B(  2-C ,  4-C ) :   0.3386 B(  2-C ,  5-C ) :  -0.1361
B(  2-C , 17-H ) :   0.5184 B(  3-C ,  4-C ) :   1.3181 B(  3-C ,  5-C ) :  -0.3168
B(  3-C , 16-H ) :   0.7058 B(  4-C ,  5-C ) :   0.6333 B(  4-C ,  6-N ) :  -0.2913
B(  4-C , 11-C ) :  -0.1203 B(  4-C , 15-H ) :   0.5900 B(  4-C , 16-H ) :   0.1189
B(  5-C ,  6-N ) :   0.5218 B(  5-C ,  7-C ) :  -0.1191 B(  5-C , 11-C ) :  -0.1189
B(  6-N ,  7-C ) :   1.2112 B(  6-N , 11-C ) :   1.2109 B(  7-C ,  8-H ) :   1.0242
B(  7-C ,  9-H ) :   0.9505 B(  7-C , 10-H ) :   0.9501 B( 11-C , 12-H ) :   1.0242
B( 11-C , 13-H ) :   0.9500 B( 11-C , 14-H ) :   0.9504

Dispersion correction           -0.023453423
FINAL SINGLE POINT ENERGY      -366.404375462039

DIPOLE MOMENT
-------------

Method             : SCF
Type of density    : Electron Density
Multiplicity       :   1
Irrep              :   0
Energy             :  -366.3809220387143455 Eh
Relativity type    :
Basis              : AO
                                X                 Y                 Z
Electronic contribution:     -5.103881393       0.000173864       0.015379039
Nuclear contribution   :      6.353119330      -0.000129568      -0.019904796
                        -----------------------------------------
Total Dipole Moment    :      1.249237936       0.000044296      -0.004525757
                        -----------------------------------------
Magnitude (a.u.)       :      1.249246135
Magnitude (Debye)      :      3.175331327

Rotational constants in cm-1:             0.116345             0.041042             0.030696
Rotational constants in MHz :          3487.926774          1230.417082           920.238252

                             ****ORCA TERMINATED NORMALLY****
TOTAL RUN TIME: 0 days 0 hours 4 minutes 52 seconds 806 msec
