                         Program Version 6.0.0  -   RELEASE  -
|  1> !PBE0 aug-cc-pVTZ d3 TightSCF SlowConv RIJCOSX defgrid2
|  2>
|  3> %pal
|  4> nprocs 4
|  5> end
|  6>
|  7> %scf
|  8> MaxIter 1500
|  9> end
| 10>
| 11> %maxcore 3000
| 12>
| 13> !CPCM
| 14> %cpcm smd true
| 15> SMDsolvent "MeCN"
| 16> surfacetype gepol_ses
| 17> rsolv 2.19
| 18> end
| 19>
| 20> * xyz 1 2
| 21> C          -0.34387230731091     -1.07485258731093      0.00001401455947
| 22> C           1.01873873128556     -0.69031657008063      0.00000558569428
| 23> C           1.01870490582575      0.69036389318440     -0.00000682964124
| 24> C          -0.34392442171075      1.07483366235896      0.00001800846145
| 25> O          -1.13547856663301     -0.00002908301850      0.00002620600599
| 26> H          -0.83940000391177      2.04941022022650      0.00001956675718
| 27> H           1.87273127254573      1.37048388860066     -0.00002227053780
| 28> H           1.87279848731196     -1.37039565302222     -0.00000085844917
| 29> H          -0.83930199740254     -2.04945297093823      0.00002127714986
| 30> *
| 31>
| 32>                          ****END OF INPUT****

CARTESIAN COORDINATES (ANGSTROEM)
---------------------------------
  C     -0.343872   -1.074853    0.000014
  C      1.018739   -0.690317    0.000006
  C      1.018705    0.690364   -0.000007
  C     -0.343924    1.074834    0.000018
  O     -1.135479   -0.000029    0.000026
  H     -0.839400    2.049410    0.000020
  H      1.872731    1.370484   -0.000022
  H      1.872798   -1.370396   -0.000001
  H     -0.839302   -2.049453    0.000021

 Total Charge           Charge          ....    1
 Multiplicity           Mult            ....    2
 Number of Electrons    NEL             ....   35
 Basis Dimension        Dim             ....  322

ORBITAL ENERGIES
----------------
                 SPIN UP ORBITALS
  NO   OCC          E(Eh)            E(eV)
   0   1.0000     -19.357459      -526.7432
   1   1.0000     -10.383454      -282.5482
   2   1.0000     -10.383419      -282.5472
   3   1.0000     -10.302003      -280.3318
   4   1.0000     -10.301300      -280.3126
   5   1.0000      -1.240219       -33.7481
   6   1.0000      -0.901645       -24.5350
   7   1.0000      -0.851740       -23.1770
   8   1.0000      -0.685489       -18.6531
   9   1.0000      -0.654025       -17.7969
  10   1.0000      -0.621167       -16.9028
  11   1.0000      -0.560921       -15.2634
  12   1.0000      -0.519896       -14.1471
  13   1.0000      -0.480440       -13.0734
  14   1.0000      -0.468480       -12.7480
  15   1.0000      -0.453904       -12.3513
  16   1.0000      -0.366485        -9.9726
  17   1.0000      -0.332797        -9.0559
  18   0.0000      -0.078988        -2.1494
  19   0.0000      -0.002135        -0.0581
  20   0.0000       0.001102         0.0300
  21   0.0000       0.019118         0.5202
  22   0.0000       0.021064         0.5732

                 SPIN DOWN ORBITALS
  NO   OCC          E(Eh)            E(eV)
   0   1.0000     -19.359290      -526.7931
   1   1.0000     -10.374721      -282.3105
   2   1.0000     -10.374700      -282.3099
   3   1.0000     -10.301357      -280.3142
   4   1.0000     -10.300635      -280.2945
   5   1.0000      -1.237002       -33.6605
   6   1.0000      -0.895341       -24.3635
   7   1.0000      -0.828618       -22.5478
   8   1.0000      -0.678561       -18.4646
   9   1.0000      -0.641281       -17.4502
  10   1.0000      -0.618109       -16.8196
  11   1.0000      -0.537695       -14.6314
  12   1.0000      -0.514852       -14.0098
  13   1.0000      -0.480859       -13.0848
  14   1.0000      -0.463044       -12.6001
  15   1.0000      -0.451078       -12.2745
  16   1.0000      -0.356130        -9.6908
  17   0.0000      -0.199730        -5.4349
  18   0.0000      -0.030518        -0.8304
  19   0.0000       0.002870         0.0781
  20   0.0000       0.020419         0.5556
  21   0.0000       0.021496         0.5849

MULLIKEN ATOMIC CHARGES AND SPIN POPULATIONS
--------------------------------------------
   0 C :   -0.177256    0.463632
   1 C :   -0.360259    0.064367
   2 C :   -0.361922    0.063591
   3 C :   -0.177849    0.463599
   4 O :   -0.171561   -0.063828
   5 H :    0.651857    0.009768
   6 H :    0.472461   -0.005432
   7 H :    0.472773   -0.005457
   8 H :    0.651756    0.009759
Sum of atomic charges         :    1.0000000

LOEWDIN ATOMIC CHARGES AND SPIN POPULATIONS
-------------------------------------------
   0 C :    0.114091    0.292602
   1 C :    0.294348    0.113738
   2 C :    0.294241    0.113506
   3 C :    0.113917    0.292461
   4 O :    0.643557    0.062260
   5 H :   -0.106717    0.054311
   6 H :   -0.123407    0.008369
   7 H :   -0.123349    0.008432
   8 H :   -0.106680    0.054321

  Mayer bond orders larger than 0.100000
B(  0-C ,  1-C ) :   1.0635 B(  0-C ,  3-C ) :   0.1040 B(  0-C ,  4-O ) :   1.0739
B(  0-C ,  8-H ) :   0.5127 B(  1-C ,  2-C ) :   1.3958 B(  1-C ,  7-H ) :   0.7852
B(  2-C ,  3-C ) :   1.0640 B(  2-C ,  6-H ) :   0.7854 B(  3-C ,  4-O ) :   1.0738
B(  3-C ,  5-H ) :   0.5122

Dispersion correction           -0.005340574
FINAL SINGLE POINT ENERGY      -229.628593752565

DIPOLE MOMENT
-------------

Method             : SCF
Type of density    : Electron Density
Multiplicity       :   2
Irrep              :   0
Energy             :  -229.6232531785533411 Eh
Relativity type    :
Basis              : AO
                                X                 Y                 Z
Electronic contribution:     -1.383626488      -0.001074467      -0.000357735
Nuclear contribution   :      1.915202636       0.000046579      -0.000027644
                        -----------------------------------------
Total Dipole Moment    :      0.531576148      -0.001027887      -0.000385380
                        -----------------------------------------
Magnitude (a.u.)       :      0.531577282
Magnitude (Debye)      :      1.351162071

Rotational constants in cm-1:             0.327624             0.296324             0.155594
Rotational constants in MHz :          9821.913267          8883.568671          4664.602670

                             ****ORCA TERMINATED NORMALLY****
TOTAL RUN TIME: 0 days 0 hours 1 minutes 34 seconds 428 msec
