                         Program Version 6.0.0  -   RELEASE  -
|  1> !TPSSh aug-cc-pVTZ d3 TightSCF SlowConv RIJCOSX defgrid2
|  2>
|  3> %pal
|  4> nprocs 15
|  5> end
|  6>
|  7> %scf
|  8> MaxIter 1500
|  9> end
| 10>
| 11> %maxcore 3500
| 12>
| 13> !CPCM
| 14> %cpcm smd true
| 15> SMDsolvent "WATER"
| 16> surfacetype gepol_ses
| 17> rsolv 1.40
| 18> end
| 19>
| 20> * xyz -1 2
| 21> C          -0.71119473453608     -1.27753769603753     -1.66469193495667
| 22> C          -0.84757971737407     -1.37051300939389      2.56012596471587
| 23> C           0.17600407523538     -0.66718968097552      3.30203602345821
| 24> C           0.07441786205000     -0.73736210099662      4.72686229958031
| 25> C          -0.95819946382070     -1.44732964560191      5.30922921995402
| 26> C          -1.89246898961745     -2.08918221632698      4.48282869513414
| 27> N          -1.82946922247699     -2.04538372747969      3.14996632780079
| 28> H           0.82375813463839     -0.22230666320522      5.33950916179957
| 29> H          -1.05139748109670     -1.51180696271490      6.40034489381934
| 30> H          -2.72424323526883     -2.66100937066717      4.91891129019417
| 31> C          -0.79539610804297     -1.33457211558685      1.08568997656786
| 32> C           0.27704054129144     -0.59784286447255      0.45308262509050
| 33> C           0.27660122861131     -0.59863568883798     -0.97709504218512
| 34> C          -1.70061257174833     -1.95699542487128     -0.93863375126110
| 35> N          -1.73203419494814     -1.97823597597462      0.39590607204878
| 36> H           1.06664268699891     -0.05607062090082     -1.50961690897062
| 37> H          -0.72694279099019     -1.28881726054281     -2.76150198645861
| 38> H          -2.49859691297974     -2.50535045021093     -1.45973231485977
| 39> C           1.19223786884036      0.03130278829810      2.63097992514689
| 40> C           1.24199802211239      0.06547304417526      1.22748014190895
| 41> H           1.95294993788081      0.55389136062698      3.22288120162125
| 42> H           2.04173228124121      0.61487911869694      0.71689035185124
| 43> *
| 44>
| 45>                          ****END OF INPUT****

CARTESIAN COORDINATES (ANGSTROEM)
---------------------------------
  C     -0.711195   -1.277538   -1.664692
  C     -0.847580   -1.370513    2.560126
  C      0.176004   -0.667190    3.302036
  C      0.074418   -0.737362    4.726862
  C     -0.958199   -1.447330    5.309229
  C     -1.892469   -2.089182    4.482829
  N     -1.829469   -2.045384    3.149966
  H      0.823758   -0.222307    5.339509
  H     -1.051397   -1.511807    6.400345
  H     -2.724243   -2.661009    4.918911
  C     -0.795396   -1.334572    1.085690
  C      0.277041   -0.597843    0.453083
  C      0.276601   -0.598636   -0.977095
  C     -1.700613   -1.956995   -0.938634
  N     -1.732034   -1.978236    0.395906
  H      1.066643   -0.056071   -1.509617
  H     -0.726943   -1.288817   -2.761502
  H     -2.498597   -2.505350   -1.459732
  C      1.192238    0.031303    2.630980
  C      1.241998    0.065473    1.227480
  H      1.952950    0.553891    3.222881
  H      2.041732    0.614879    0.716890

 Total Charge           Charge          ....   -1
 Multiplicity           Mult            ....    2
 Number of Electrons    NEL             ....   95
 Basis Dimension        Dim             ....  828

ORBITAL ENERGIES
----------------
                 SPIN UP ORBITALS
  NO   OCC          E(Eh)            E(eV)
   0   1.0000     -14.223556      -387.0426
   1   1.0000     -14.223539      -387.0422
   2   1.0000     -10.131702      -275.6976
   3   1.0000     -10.131435      -275.6903
   4   1.0000     -10.118549      -275.3397
   5   1.0000     -10.118534      -275.3393
   6   1.0000     -10.107971      -275.0519
   7   1.0000     -10.107943      -275.0511
   8   1.0000     -10.104604      -274.9603
   9   1.0000     -10.104554      -274.9589
  10   1.0000     -10.103941      -274.9422
  11   1.0000     -10.103874      -274.9404
  12   1.0000     -10.087391      -274.4919
  13   1.0000     -10.086937      -274.4795
  14   1.0000      -0.912133       -24.8204
  15   1.0000      -0.888979       -24.1903
  16   1.0000      -0.797748       -21.7078
  17   1.0000      -0.761673       -20.7262
  18   1.0000      -0.757434       -20.6108
  19   1.0000      -0.707091       -19.2409
  20   1.0000      -0.692136       -18.8340
  21   1.0000      -0.611064       -16.6279
  22   1.0000      -0.608066       -16.5463
  23   1.0000      -0.584592       -15.9075
  24   1.0000      -0.555456       -15.1147
  25   1.0000      -0.513489       -13.9727
  26   1.0000      -0.490185       -13.3386
  27   1.0000      -0.467576       -12.7234
  28   1.0000      -0.442526       -12.0418
  29   1.0000      -0.441972       -12.0267
  30   1.0000      -0.422312       -11.4917
  31   1.0000      -0.396347       -10.7851
  32   1.0000      -0.392851       -10.6900
  33   1.0000      -0.372872       -10.1464
  34   1.0000      -0.365332        -9.9412
  35   1.0000      -0.365310        -9.9406
  36   1.0000      -0.359961        -9.7950
  37   1.0000      -0.355838        -9.6828
  38   1.0000      -0.329906        -8.9772
  39   1.0000      -0.310952        -8.4614
  40   1.0000      -0.308394        -8.3918
  41   1.0000      -0.277046        -7.5388
  42   1.0000      -0.270255        -7.3540
  43   1.0000      -0.229753        -6.2519
  44   1.0000      -0.225653        -6.1403
  45   1.0000      -0.215659        -5.8684
  46   1.0000      -0.203035        -5.5249
  47   1.0000      -0.084613        -2.3024
  48   0.0000      -0.053136        -1.4459
  49   0.0000      -0.015186        -0.4132
  50   0.0000      -0.003155        -0.0859
  51   0.0000       0.006011         0.1636
  52   0.0000       0.009498         0.2585

                 SPIN DOWN ORBITALS
  NO   OCC          E(Eh)            E(eV)
   0   1.0000     -14.223434      -387.0393
   1   1.0000     -14.223418      -387.0389
   2   1.0000     -10.131127      -275.6820
   3   1.0000     -10.130857      -275.6746
   4   1.0000     -10.115274      -275.2506
   5   1.0000     -10.115254      -275.2501
   6   1.0000     -10.107980      -275.0521
   7   1.0000     -10.107955      -275.0514
   8   1.0000     -10.105642      -274.9885
   9   1.0000     -10.105597      -274.9873
  10   1.0000     -10.101118      -274.8654
  11   1.0000     -10.101049      -274.8635
  12   1.0000     -10.084553      -274.4146
  13   1.0000     -10.084088      -274.4020
  14   1.0000      -0.910236       -24.7688
  15   1.0000      -0.886916       -24.1342
  16   1.0000      -0.793687       -21.5973
  17   1.0000      -0.758496       -20.6397
  18   1.0000      -0.754640       -20.5348
  19   1.0000      -0.704366       -19.1668
  20   1.0000      -0.687427       -18.7058
  21   1.0000      -0.609132       -16.5753
  22   1.0000      -0.601310       -16.3625
  23   1.0000      -0.582515       -15.8510
  24   1.0000      -0.553106       -15.0508
  25   1.0000      -0.510322       -13.8866
  26   1.0000      -0.488488       -13.2924
  27   1.0000      -0.465964       -12.6795
  28   1.0000      -0.441013       -12.0006
  29   1.0000      -0.440114       -11.9761
  30   1.0000      -0.420999       -11.4560
  31   1.0000      -0.392135       -10.6705
  32   1.0000      -0.389978       -10.6118
  33   1.0000      -0.371650       -10.1131
  34   1.0000      -0.364159        -9.9093
  35   1.0000      -0.364040        -9.9060
  36   1.0000      -0.354615        -9.6496
  37   1.0000      -0.351705        -9.5704
  38   1.0000      -0.328669        -8.9435
  39   1.0000      -0.307219        -8.3598
  40   1.0000      -0.297163        -8.0862
  41   1.0000      -0.269452        -7.3322
  42   1.0000      -0.258871        -7.0443
  43   1.0000      -0.229429        -6.2431
  44   1.0000      -0.219106        -5.9622
  45   1.0000      -0.215464        -5.8631
  46   1.0000      -0.185907        -5.0588
  47   0.0000      -0.047574        -1.2946
  48   0.0000      -0.044755        -1.2178
  49   0.0000      -0.004195        -0.1141
  50   0.0000      -0.001892        -0.0515
  51   0.0000       0.007376         0.2007

MULLIKEN ATOMIC CHARGES AND SPIN POPULATIONS
--------------------------------------------
   0 C :   -0.143367   -0.082184
   1 C :    1.330801    0.037160
   2 C :    1.318313    0.007832
   3 C :   -1.001022    0.206681
   4 C :   -0.140426   -0.082361
   5 C :   -0.657978    0.247747
   6 N :   -1.054142   -0.010056
   7 H :    0.270698   -0.006181
   8 H :    0.207749   -0.009227
   9 H :    0.320375   -0.023715
  10 C :    1.325905    0.037291
  11 C :    1.314208    0.007598
  12 C :   -0.986107    0.206621
  13 C :   -0.646691    0.247116
  14 N :   -1.050220   -0.010207
  15 H :    0.276806   -0.006240
  16 H :    0.194899   -0.009306
  17 H :    0.318401   -0.023557
  18 C :   -1.058368    0.148804
  19 C :   -1.059204    0.149743
  20 H :   -0.043125   -0.016715
  21 H :   -0.037505   -0.016844
Sum of atomic charges         :   -1.0000000

LOEWDIN ATOMIC CHARGES AND SPIN POPULATIONS
-------------------------------------------
   0 C :    0.149601    0.026359
   1 C :   -0.314857    0.018688
   2 C :   -0.170036    0.053355
   3 C :    0.178963    0.088995
   4 C :    0.149574    0.026436
   5 C :   -0.048896    0.103441
   6 N :    0.318580    0.032028
   7 H :   -0.177322    0.018326
   8 H :   -0.181969   -0.004339
   9 H :   -0.213159    0.025082
  10 C :   -0.314792    0.018716
  11 C :   -0.169729    0.053322
  12 C :    0.179368    0.088877
  13 C :   -0.048812    0.103219
  14 N :    0.318720    0.031851
  15 H :   -0.177101    0.018304
  16 H :   -0.182006   -0.004342
  17 H :   -0.213154    0.025036
  18 C :    0.153088    0.118777
  19 C :    0.153273    0.118990
  20 H :   -0.194758    0.019405
  21 H :   -0.194578    0.019474

  Mayer bond orders larger than 0.100000
B(  0-C , 11-C ) :  -0.1313 B(  0-C , 12-C ) :   1.5000 B(  0-C , 13-C ) :   0.8426
B(  0-C , 14-N ) :  -0.2462 B(  0-C , 16-H ) :   0.9162 B(  1-C ,  2-C ) :   0.7859
B(  1-C ,  3-C ) :   0.4860 B(  1-C ,  5-C ) :  -0.2354 B(  1-C ,  6-N ) :  -1.4832
B(  1-C ,  9-H ) :   0.2065 B(  1-C , 10-C ) :   0.3290 B(  1-C , 11-C ) :   0.2839
B(  1-C , 14-N ) :   0.4850 B(  1-C , 18-C ) :  -0.3730 B(  2-C ,  4-C ) :  -0.1335
B(  2-C ,  5-C ) :  -0.4271 B(  2-C ,  7-H ) :   0.1777 B(  2-C , 10-C ) :   0.2897
B(  2-C , 11-C ) :  -0.2820 B(  2-C , 12-C ) :   0.1073 B(  3-C ,  4-C ) :   1.5214
B(  3-C ,  5-C ) :   0.3749 B(  3-C ,  6-N ) :   0.1042 B(  3-C ,  7-H ) :   0.7879
B(  3-C , 11-C ) :   0.1069 B(  3-C , 18-C ) :   0.3259 B(  4-C ,  5-C ) :   0.8435
B(  4-C ,  6-N ) :  -0.2487 B(  4-C ,  8-H ) :   0.8972 B(  5-C ,  6-N ) :   1.9370
B(  5-C ,  9-H ) :   0.5984 B(  5-C , 19-C ) :   0.1231 B(  6-N , 10-C ) :   0.4742
B(  6-N , 14-N ) :  -0.3882 B( 10-C , 11-C ) :   0.7910 B( 10-C , 12-C ) :   0.4890
B( 10-C , 13-C ) :  -0.2342 B( 10-C , 14-N ) :  -1.4836 B( 10-C , 17-H ) :   0.2069
B( 10-C , 19-C ) :  -0.3692 B( 11-C , 13-C ) :  -0.4239 B( 11-C , 15-H ) :   0.1815
B( 12-C , 13-C ) :   0.3725 B( 12-C , 14-N ) :   0.1024 B( 12-C , 15-H ) :   0.7765
B( 12-C , 19-C ) :   0.3266 B( 13-C , 14-N ) :   1.9224 B( 13-C , 17-H ) :   0.6027
B( 13-C , 18-C ) :   0.1235 B( 18-C , 19-C ) :   1.3988 B( 18-C , 20-H ) :   1.3097
B( 19-C , 21-H ) :   1.3048

Dispersion correction           -0.034195317
FINAL SINGLE POINT ENERGY      -571.965161399108

DIPOLE MOMENT
-------------

Method             : SCF
Type of density    : Electron Density
Multiplicity       :   2
Irrep              :   0
Energy             :  -571.9309660824162620 Eh
Relativity type    :
Basis              : AO
                                X                 Y                 Z
Electronic contribution:     -1.601280342      -1.098929568      -0.089627695
Nuclear contribution   :      2.898055306       1.988769949       0.150906317
                        -----------------------------------------
Total Dipole Moment    :      1.296774964       0.889840381       0.061278622
                        -----------------------------------------
Magnitude (a.u.)       :      1.573911142
Magnitude (Debye)      :      4.000564192

Rotational constants in cm-1:             0.053930             0.019113             0.014112
Rotational constants in MHz :          1616.774375           573.004447           423.065068

                             ****ORCA TERMINATED NORMALLY****
TOTAL RUN TIME: 0 days 0 hours 6 minutes 53 seconds 226 msec
