                         Program Version 6.0.0  -   RELEASE  -
|  1> !B3LYP aug-cc-pVTZ d3 TightSCF SlowConv RIJCOSX defgrid2
|  2>
|  3> %pal
|  4> nprocs 4
|  5> end
|  6>
|  7> %scf
|  8> MaxIter 1500
|  9> end
| 10>
| 11> %maxcore 3000
| 12>
| 13> !CPCM
| 14> %cpcm smd true
| 15> SMDsolvent "MeCN"
| 16> surfacetype gepol_ses
| 17> rsolv 2.19
| 18> end
| 19>
| 20> * xyz 0 1
| 21> C           2.43031351008729     -0.70749139029856      0.00001403239272
| 22> C           2.43032444825569      0.70745716976960      0.00001780057511
| 23> C           1.24225650957686      1.40066986227340      0.00001298600543
| 24> C           0.00000747832604      0.71479447718917      0.00000542687051
| 25> C          -1.24223111805275      1.40068893561610      0.00000324875952
| 26> C          -2.43030983452578      0.70749421287076     -0.00000358520312
| 27> C          -2.43032103578901     -0.70745426001962     -0.00000960120256
| 28> C          -1.24225352108494     -1.40066808823521     -0.00000641420954
| 29> C          -0.00000405709778     -0.71479302978643      0.00000150500237
| 30> C           1.24223524877496     -1.40068686163162      0.00000460886950
| 31> H           1.23824372924118     -2.49527550154318      0.00000243863973
| 32> H          -1.23827753101703     -2.49525698617010     -0.00000852848414
| 33> H          -3.38175156931066     -1.24754932619836     -0.00001429910497
| 34> H          -3.38173131512848      1.24760412689582     -0.00000496639229
| 35> H          -1.23823830440863      2.49527781567030      0.00000665226192
| 36> H           1.23827983240145      2.49525951167016      0.00001366019695
| 37> H           3.38175416757919      1.24755290950869      0.00002330946105
| 38> H           3.38173466217241     -1.24760147758094      0.00001812556182
| 39> *
| 40>
| 41>                          ****END OF INPUT****

CARTESIAN COORDINATES (ANGSTROEM)
---------------------------------
  C      2.430314   -0.707491    0.000014
  C      2.430324    0.707457    0.000018
  C      1.242257    1.400670    0.000013
  C      0.000007    0.714794    0.000005
  C     -1.242231    1.400689    0.000003
  C     -2.430310    0.707494   -0.000004
  C     -2.430321   -0.707454   -0.000010
  C     -1.242254   -1.400668   -0.000006
  C     -0.000004   -0.714793    0.000002
  C      1.242235   -1.400687    0.000005
  H      1.238244   -2.495276    0.000002
  H     -1.238278   -2.495257   -0.000009
  H     -3.381752   -1.247549   -0.000014
  H     -3.381731    1.247604   -0.000005
  H     -1.238238    2.495278    0.000007
  H      1.238280    2.495260    0.000014
  H      3.381754    1.247553    0.000023
  H      3.381735   -1.247601    0.000018

 Total Charge           Charge          ....    0
 Multiplicity           Mult            ....    1
 Number of Electrons    NEL             ....   68
 Basis Dimension        Dim             ....  644

ORBITAL ENERGIES
----------------

  NO   OCC          E(Eh)            E(eV)
   0   2.0000     -10.186974      -277.2017
   1   2.0000     -10.186501      -277.1888
   2   2.0000     -10.177233      -276.9366
   3   2.0000     -10.177216      -276.9361
   4   2.0000     -10.177124      -276.9336
   5   2.0000     -10.177111      -276.9333
   6   2.0000     -10.176506      -276.9168
   7   2.0000     -10.176505      -276.9168
   8   2.0000     -10.176135      -276.9067
   9   2.0000     -10.176126      -276.9065
  10   2.0000      -0.875552       -23.8250
  11   2.0000      -0.821252       -22.3474
  12   2.0000      -0.772962       -21.0334
  13   2.0000      -0.740490       -20.1498
  14   2.0000      -0.717467       -19.5233
  15   2.0000      -0.623468       -16.9654
  16   2.0000      -0.609655       -16.5896
  17   2.0000      -0.593310       -16.1448
  18   2.0000      -0.510795       -13.8994
  19   2.0000      -0.505303       -13.7500
  20   2.0000      -0.491744       -13.3810
  21   2.0000      -0.442090       -12.0299
  22   2.0000      -0.439810       -11.9678
  23   2.0000      -0.416199       -11.3253
  24   2.0000      -0.413121       -11.2416
  25   2.0000      -0.396692       -10.7945
  26   2.0000      -0.395732       -10.7684
  27   2.0000      -0.365410        -9.9433
  28   2.0000      -0.337048        -9.1715
  29   2.0000      -0.333007        -9.0616
  30   2.0000      -0.328291        -8.9333
  31   2.0000      -0.291134        -7.9221
  32   2.0000      -0.250449        -6.8151
  33   2.0000      -0.222016        -6.0414
  34   0.0000      -0.047906        -1.3036
  35   0.0000      -0.020640        -0.5616
  36   0.0000      -0.002657        -0.0723
  37   0.0000       0.007441         0.2025
  38   0.0000       0.008481         0.2308

MULLIKEN ATOMIC CHARGES
-----------------------
   0 C :   -0.381475
   1 C :   -0.385391
   2 C :   -1.160521
   3 C :    1.773981
   4 C :   -1.153518
   5 C :   -0.386260
   6 C :   -0.389015
   7 C :   -1.158731
   8 C :    1.774331
   9 C :   -1.160125
  10 H :    0.044418
  11 H :    0.055274
  12 H :    0.612225
  13 H :    0.603691
  14 H :    0.043031
  15 H :    0.053887
  16 H :    0.610651
  17 H :    0.603548
Sum of atomic charges:    0.0000000

LOEWDIN ATOMIC CHARGES
----------------------
   0 C :    0.190325
   1 C :    0.190325
   2 C :    0.208139
   3 C :   -0.133524
   4 C :    0.208145
   5 C :    0.190323
   6 C :    0.190324
   7 C :    0.208142
   8 C :   -0.133519
   9 C :    0.208139
  10 H :   -0.162246
  11 H :   -0.162241
  12 H :   -0.169459
  13 H :   -0.169461
  14 H :   -0.162246
  15 H :   -0.162244
  16 H :   -0.169458
  17 H :   -0.169461

  Mayer bond orders larger than 0.100000
B(  0-C ,  1-C ) :   1.0991 B(  0-C ,  3-C ) :  -0.2328 B(  0-C ,  9-C ) :   1.1655
B(  0-C , 17-H ) :   0.3805 B(  1-C ,  2-C ) :   1.1750 B(  1-C ,  8-C ) :  -0.2342
B(  1-C , 16-H ) :   0.3691 B(  2-C ,  3-C ) :  -0.2298 B(  2-C ,  4-C ) :   0.6550
B(  2-C ,  7-C ) :  -0.1039 B(  2-C ,  8-C ) :  -0.2314 B(  2-C , 15-H ) :   1.3894
B(  2-C , 16-H ) :  -0.2102 B(  3-C ,  4-C ) :  -0.2345 B(  3-C ,  6-C ) :  -0.2331
B(  3-C ,  7-C ) :  -0.2309 B(  3-C ,  8-C ) :   1.1814 B(  3-C ,  9-C ) :  -0.2328
B(  3-C , 14-H ) :  -0.1287 B(  3-C , 15-H ) :  -0.1195 B(  4-C ,  5-C ) :   1.1674
B(  4-C ,  8-C ) :  -0.2338 B(  4-C ,  9-C ) :  -0.1059 B(  4-C , 13-H ) :  -0.2104
B(  4-C , 14-H ) :   1.4069 B(  5-C ,  6-C ) :   1.0991 B(  5-C ,  8-C ) :  -0.2319
B(  5-C , 13-H ) :   0.3796 B(  6-C ,  7-C ) :   1.1755 B(  6-C , 12-H ) :   0.3676
B(  7-C ,  8-C ) :  -0.2282 B(  7-C ,  9-C ) :   0.6624 B(  7-C , 11-H ) :   1.3852
B(  7-C , 12-H ) :  -0.2079 B(  8-C ,  9-C ) :  -0.2376 B(  8-C , 10-H ) :  -0.1275
B(  8-C , 11-H ) :  -0.1195 B(  9-C , 10-H ) :   1.4057 B(  9-C , 17-H ) :  -0.2131

Dispersion correction           -0.036481729
FINAL SINGLE POINT ENERGY      -385.826682751733

DIPOLE MOMENT
-------------

Method             : SCF
Type of density    : Electron Density
Multiplicity       :   1
Irrep              :   0
Energy             :  -385.7902010229115604 Eh
Relativity type    :
Basis              : AO
                                X                 Y                 Z
Electronic contribution:      0.000000653      -0.000001732      -0.000003771
Nuclear contribution   :     -0.000000379       0.000001978       0.000003856
                        -----------------------------------------
Total Dipole Moment    :      0.000000274       0.000000246       0.000000085
                        -----------------------------------------
Magnitude (a.u.)       :      0.000000378
Magnitude (Debye)      :      0.000000960

Rotational constants in cm-1:             0.104086             0.041096             0.029463
Rotational constants in MHz :          3120.428737          1232.025642           883.282829

                             ****ORCA TERMINATED NORMALLY****
TOTAL RUN TIME: 0 days 0 hours 7 minutes 15 seconds 638 msec
