                         Program Version 6.0.0  -   RELEASE  -
|  1> !r2SCAN freq aug-cc-pVTZ d3 TightSCF SlowConv RIJCOSX defgrid2
|  2>
|  3> %pal
|  4> nprocs 12
|  5> end
|  6>
|  7> %scf
|  8> MaxIter 1500
|  9> end
| 10>
| 11> %maxcore 5000
| 12>
| 13> !CPCM
| 14> %cpcm smd true
| 15> SMDsolvent "MeCN"
| 16> surfacetype gepol_ses
| 17> rsolv 2.19
| 18> end
| 19>
| 20> * xyz 0 1
| 21>   C           0.69223565883929     -1.22372108521042     -0.00212997522577
| 22>   C          -0.69021323752825     -1.22103168488702     -0.00192896053279
| 23>   C          -1.34685179180457      0.00421360926895     -0.00014458587691
| 24>   C          -0.66817274061139      1.21452254850576      0.00149352351480
| 25>   C           0.71763163854455      1.19363534423096      0.00076882871966
| 26>   C           1.40783909225898     -0.02194662131272     -0.00089862052549
| 27>   C           2.90588037661378     -0.08083143284803     -0.00127992148883
| 28>   O           3.47192645125207     -1.16235898891684      0.00146087820712
| 29>   C           3.66983539756599      1.20732059295947     -0.00480999655826
| 30>   H           3.41615460911146      1.80584672017026      0.87370054475109
| 31>   H           4.73672186026474      0.99768695418682     -0.00806766060871
| 32>   H           3.41032492247274      1.80485199502162     -0.88214544601605
| 33>   H           1.25375198552428      2.13275851676452      0.00106597786398
| 34>   H          -1.21422873350496      2.14653798831762      0.00355669732668
| 35>   N          -2.81425423146683      0.01850606550642      0.00081696599773
| 36>   O          -3.37937334604208      1.10676802368496      0.00405183552271
| 37>   O          -3.39953817343261     -1.05905831694513     -0.00132046843470
| 38>   H          -1.25489379115244     -2.14202714672484     -0.00268736190237
| 39>   H           1.23616595309524     -2.15905958177234     -0.00353695473387
| 40> *
| 41>
| 42>                          ****END OF INPUT****

CARTESIAN COORDINATES (ANGSTROEM)
---------------------------------
  C      0.692236   -1.223721   -0.002130
  C     -0.690213   -1.221032   -0.001929
  C     -1.346852    0.004214   -0.000145
  C     -0.668173    1.214523    0.001494
  C      0.717632    1.193635    0.000769
  C      1.407839   -0.021947   -0.000899
  C      2.905880   -0.080831   -0.001280
  O      3.471926   -1.162359    0.001461
  C      3.669835    1.207321   -0.004810
  H      3.416155    1.805847    0.873701
  H      4.736722    0.997687   -0.008068
  H      3.410325    1.804852   -0.882145
  H      1.253752    2.132759    0.001066
  H     -1.214229    2.146538    0.003557
  N     -2.814254    0.018506    0.000817
  O     -3.379373    1.106768    0.004052
  O     -3.399538   -1.059058   -0.001320
  H     -1.254894   -2.142027   -0.002687
  H      1.236166   -2.159060   -0.003537

 Total Charge           Charge          ....    0
 Multiplicity           Mult            ....    1
 Number of Electrons    NEL             ....   86
 Basis Dimension        Dim             ....  713

ORBITAL ENERGIES
----------------

  NO   OCC          E(Eh)            E(eV)
   0   2.0000     -18.998041      -516.9630
   1   2.0000     -18.998022      -516.9625
   2   2.0000     -18.951861      -515.7064
   3   2.0000     -14.405726      -391.9997
   4   2.0000     -10.133945      -275.7587
   5   2.0000     -10.108826      -275.0751
   6   2.0000     -10.069894      -274.0158
   7   2.0000     -10.066975      -273.9363
   8   2.0000     -10.066307      -273.9181
   9   2.0000     -10.063877      -273.8520
  10   2.0000     -10.060820      -273.7688
  11   2.0000     -10.030498      -272.9437
  12   2.0000      -1.202533       -32.7226
  13   2.0000      -1.028546       -27.9882
  14   2.0000      -1.013129       -27.5686
  15   2.0000      -0.862566       -23.4716
  16   2.0000      -0.786398       -21.3990
  17   2.0000      -0.743730       -20.2379
  18   2.0000      -0.718751       -19.5582
  19   2.0000      -0.675204       -18.3732
  20   2.0000      -0.600554       -16.3419
  21   2.0000      -0.582679       -15.8555
  22   2.0000      -0.538432       -14.6515
  23   2.0000      -0.527294       -14.3484
  24   2.0000      -0.513444       -13.9715
  25   2.0000      -0.494499       -13.4560
  26   2.0000      -0.458938       -12.4883
  27   2.0000      -0.449051       -12.2193
  28   2.0000      -0.431326       -11.7370
  29   2.0000      -0.418584       -11.3902
  30   2.0000      -0.413233       -11.2446
  31   2.0000      -0.395262       -10.7556
  32   2.0000      -0.385847       -10.4994
  33   2.0000      -0.369234       -10.0474
  34   2.0000      -0.350585        -9.5399
  35   2.0000      -0.336871        -9.1667
  36   2.0000      -0.331769        -9.0279
  37   2.0000      -0.302872        -8.2416
  38   2.0000      -0.289312        -7.8726
  39   2.0000      -0.269604        -7.3363
  40   2.0000      -0.268010        -7.2929
  41   2.0000      -0.262321        -7.1381
  42   2.0000      -0.230051        -6.2600
  43   0.0000      -0.136565        -3.7161
  44   0.0000      -0.078317        -2.1311
  45   0.0000      -0.056633        -1.5411
  46   0.0000       0.003797         0.1033
  47   0.0000       0.005143         0.1399

MULLIKEN ATOMIC CHARGES
-----------------------
   0 C :   -0.851922
   1 C :   -0.314105
   2 C :    0.465166
   3 C :   -0.598373
   4 C :   -0.277902
   5 C :    1.147617
   6 C :    0.816052
   7 O :   -0.963659
   8 C :   -0.523840
   9 H :    0.241107
  10 H :    0.161576
  11 H :    0.240046
  12 H :    0.034519
  13 H :    0.440684
  14 N :    0.767597
  15 O :   -0.674114
  16 O :   -0.675178
  17 H :    0.514931
  18 H :    0.049798
Sum of atomic charges:    0.0000000

LOEWDIN ATOMIC CHARGES
----------------------
   0 C :    0.225561
   1 C :    0.228588
   2 C :   -0.224199
   3 C :    0.233665
   4 C :    0.239914
   5 C :   -0.105984
   6 C :   -0.524133
   7 O :    0.491224
   8 C :    0.586119
   9 H :   -0.160520
  10 H :   -0.177377
  11 H :   -0.160730
  12 H :   -0.175331
  13 H :   -0.187973
  14 N :   -0.730834
  15 O :    0.407137
  16 O :    0.407485
  17 H :   -0.189275
  18 H :   -0.183335

  Mayer bond orders larger than 0.100000
B(  0-C ,  1-C ) :   1.2434 B(  0-C ,  2-C ) :  -0.3773 B(  0-C ,  4-C ) :  -0.3869
B(  0-C ,  5-C ) :   0.2522 B(  0-C ,  6-C ) :   0.2363 B(  0-C , 16-O ) :  -0.1004
B(  0-C , 18-H ) :   1.1722 B(  1-C ,  2-C ) :   0.9007 B(  1-C ,  3-C ) :   0.1016
B(  1-C ,  4-C ) :  -0.1538 B(  1-C ,  5-C ) :   0.1792 B(  1-C , 14-N ) :  -0.1446
B(  1-C , 17-H ) :   0.3785 B(  2-C ,  3-C ) :   0.7350 B(  2-C ,  4-C ) :  -0.2989
B(  2-C , 14-N ) :   1.1971 B(  2-C , 15-O ) :   0.4042 B(  2-C , 16-O ) :   0.4197
B(  3-C ,  4-C ) :   0.7607 B(  3-C ,  5-C ) :   0.2048 B(  3-C , 13-H ) :   0.4848
B(  3-C , 14-N ) :  -0.2126 B(  4-C ,  5-C ) :   0.5854 B(  4-C , 12-H ) :   1.3168
B(  5-C ,  6-C ) :   0.3291 B(  5-C ,  7-O ) :   0.2468 B(  5-C ,  8-C ) :   0.1201
B(  5-C , 12-H ) :  -0.1857 B(  5-C , 18-H ) :  -0.1238 B(  6-C ,  7-O ) :   0.8036
B(  6-C ,  8-C ) :   0.9188 B(  7-O , 18-H ) :   0.1620 B(  8-C ,  9-H ) :   0.9688
B(  8-C , 10-H ) :   0.9452 B(  8-C , 11-H ) :   0.9699 B( 14-N , 15-O ) :   0.9348
B( 14-N , 16-O ) :   0.9303 B( 15-O , 16-O ) :   0.2031

Dispersion correction           -0.006341803
FINAL SINGLE POINT ENERGY      -589.338876222499

DIPOLE MOMENT
-------------

Method             : SCF
Type of density    : Electron Density
Multiplicity       :   1
Irrep              :   0
Energy             :  -589.3325344195410480 Eh
Relativity type    :
Basis              : AO
                                X                 Y                 Z
Electronic contribution:     -9.363621164      -2.941881634       0.010275834
Nuclear contribution   :     10.816219595       4.289579341      -0.015044680
                        -----------------------------------------
Total Dipole Moment    :      1.452598431       1.347697707      -0.004768847
                        -----------------------------------------
Magnitude (a.u.)       :      1.981502978
Magnitude (Debye)      :      5.036580306

VIBRATIONAL FREQUENCIES
-----------------------

Scaling factor for frequencies =  1.000000000  (already applied!)

     0:       0.00 cm**-1
     1:       0.00 cm**-1
     2:       0.00 cm**-1
     3:       0.00 cm**-1
     4:       0.00 cm**-1
     5:       0.00 cm**-1
     6:     -23.83 cm**-1 ***imaginary mode***
     7:      22.53 cm**-1
     8:      70.79 cm**-1
     9:     161.45 cm**-1
    10:     163.28 cm**-1
    11:     232.13 cm**-1
    12:     277.74 cm**-1
    13:     295.27 cm**-1
    14:     406.22 cm**-1
    15:     436.58 cm**-1
    16:     441.78 cm**-1
    17:     508.95 cm**-1
    18:     540.07 cm**-1
    19:     583.61 cm**-1
    20:     622.94 cm**-1
    21:     635.01 cm**-1
    22:     704.37 cm**-1
    23:     759.35 cm**-1
    24:     766.69 cm**-1
    25:     836.17 cm**-1
    26:     868.24 cm**-1
    27:     871.22 cm**-1
    28:     959.63 cm**-1
    29:     986.47 cm**-1
    30:    1001.52 cm**-1
    31:    1023.81 cm**-1
    32:    1029.92 cm**-1
    33:    1089.36 cm**-1
    34:    1111.64 cm**-1
    35:    1118.58 cm**-1
    36:    1181.97 cm**-1
    37:    1260.84 cm**-1
    38:    1310.87 cm**-1
    39:    1340.52 cm**-1
    40:    1355.72 cm**-1
    41:    1390.17 cm**-1
    42:    1425.80 cm**-1
    43:    1437.34 cm**-1
    44:    1441.30 cm**-1
    45:    1506.33 cm**-1
    46:    1530.22 cm**-1
    47:    1625.69 cm**-1
    48:    1630.13 cm**-1
    49:    1712.89 cm**-1
    50:    3031.97 cm**-1
    51:    3097.06 cm**-1
    52:    3149.23 cm**-1
    53:    3197.67 cm**-1
    54:    3201.75 cm**-1
    55:    3221.01 cm**-1
    56:    3222.98 cm**-1

IR SPECTRUM
-----------

 Mode   freq       eps      Int      T**2         TX        TY        TZ
       cm**-1   L/(mol*cm) km/mol    a.u.
----------------------------------------------------------------------------
  7:     22.53   0.000438    2.21  0.006067  (-0.001775 -0.000760  0.077868)
  8:     70.79   0.001239    6.26  0.005464  (-0.000137 -0.000196 -0.073917)
  9:    161.45   0.001740    8.79  0.003363  ( 0.044140  0.037528  0.002593)
 10:    163.28   0.000146    0.74  0.000279  ( 0.007529  0.006940 -0.013178)
 11:    232.13   0.000216    1.09  0.000290  (-0.000431  0.000221 -0.017026)
 12:    277.74   0.001189    6.01  0.001336  (-0.031843  0.017936 -0.000080)
 13:    295.27   0.000045    0.23  0.000048  (-0.004944 -0.004811  0.000007)
 14:    406.22   0.000002    0.01  0.000002  ( 0.000101 -0.001117  0.000606)
 15:    436.58   0.000939    4.75  0.000671  (-0.013596 -0.021849  0.003002)
 16:    441.78   0.000837    4.23  0.000591  ( 0.000937  0.002580  0.024165)
 17:    508.95   0.003149   15.91  0.001931  (-0.043867 -0.002475  0.000297)
 18:    540.07   0.000489    2.47  0.000282  (-0.011975 -0.011784  0.000261)
 19:    583.61   0.003270   16.53  0.001749  ( 0.000275 -0.000143 -0.041815)
 20:    622.94   0.005462   27.60  0.002736  (-0.048568 -0.019430  0.000253)
 21:    635.01   0.000035    0.18  0.000017  ( 0.000137 -0.004171  0.000130)
 22:    704.37   0.005794   29.28  0.002567  ( 0.000023 -0.000068  0.050664)
 23:    759.35   0.005494   27.77  0.002258  ( 0.047515 -0.000124  0.000557)
 24:    766.69   0.008247   41.68  0.003357  ( 0.000695  0.000167 -0.057935)
 25:    836.17   0.000256    1.29  0.000096  (-0.000285  0.000115  0.009774)
 26:    868.24   0.012826   64.81  0.004610  ( 0.067844  0.002296  0.001283)
 27:    871.22   0.011965   60.47  0.004286  (-0.001988 -0.000376  0.065435)
 28:    959.63   0.013426   67.85  0.004366  ( 0.059031  0.029684  0.000314)
 29:    986.47   0.000009    0.05  0.000003  (-0.001538 -0.000179 -0.000742)
 30:   1001.52   0.000052    0.26  0.000016  (-0.000193 -0.001108 -0.003864)
 31:   1023.81   0.004719   23.85  0.001438  ( 0.037739  0.003764 -0.000243)
 32:   1029.92   0.000549    2.77  0.000166  (-0.000492 -0.000336 -0.012883)
 33:   1089.36   0.001735    8.77  0.000497  ( 0.020121  0.009604 -0.000198)
 34:   1111.64   0.015481   78.23  0.004346  ( 0.065846 -0.003164  0.000022)
 35:   1118.58   0.004760   24.06  0.001328  (-0.008286 -0.035487  0.000100)
 36:   1181.97   0.003524   17.81  0.000931  (-0.030279 -0.003703 -0.000038)
 37:   1260.84   0.091818  464.01  0.022725  (-0.149885 -0.016118  0.000047)
 38:   1310.87   0.001072    5.42  0.000255  ( 0.015724 -0.002802 -0.000024)
 39:   1340.52   0.118862  600.68  0.027670  (-0.166299 -0.003857  0.000064)
 40:   1355.72   0.017051   86.17  0.003925  ( 0.021747  0.058752 -0.000338)
 41:   1390.17   0.014824   74.91  0.003328  (-0.012203  0.056380  0.000093)
 42:   1425.80   0.003485   17.61  0.000763  (-0.024997 -0.011744 -0.000118)
 43:   1437.34   0.007470   37.75  0.001622  (-0.028797  0.028139  0.000834)
 44:   1441.30   0.003565   18.02  0.000772  ( 0.000738 -0.000298  0.027773)
 45:   1506.33   0.000395    1.99  0.000082  ( 0.005596  0.007104 -0.000048)
 46:   1530.22   0.090246  456.07  0.018404  (-0.010016 -0.135292 -0.000350)
 47:   1625.69   0.003344   16.90  0.000642  (-0.016333  0.019367  0.000018)
 48:   1630.13   0.007575   38.28  0.001450  (-0.015874  0.034614  0.000026)
 49:   1712.89   0.071642  362.05  0.013052  ( 0.067151 -0.092427  0.000285)
 50:   3031.97   0.000143    0.72  0.000015  (-0.003807  0.000486  0.000093)
 51:   3097.06   0.000584    2.95  0.000059  (-0.000001 -0.000170  0.007669)
 52:   3149.23   0.004412   22.30  0.000437  (-0.020909 -0.000145 -0.000042)
 53:   3197.67   0.000645    3.26  0.000063  (-0.006011 -0.005172  0.000109)
 54:   3201.75   0.000340    1.72  0.000033  (-0.000827 -0.005692 -0.000152)
 55:   3221.01   0.000158    0.80  0.000015  (-0.003553 -0.001650  0.000079)
 56:   3222.98   0.000349    1.76  0.000034  ( 0.005253 -0.002479 -0.000091)

--------------------------
THERMOCHEMISTRY AT 298.15K
--------------------------

Temperature         ...   298.15 K
Pressure            ...     1.00 atm
Total Mass          ...   165.15 AMU
Quasi RRHO          ...     True
Cut-Off Frequency   ...     1.00 cm^-1

Throughout the following assumptions are being made:
  (1) The electronic state is orbitally nondegenerate
  (2) There are no thermally accessible electronically excited states
  (3) Hindered rotations indicated by low frequency modes are not
      treated as such but are treated as vibrations and this may
      cause some error
  (4) All equations used are the standard statistical mechanics
      equations for an ideal gas
  (5) All vibrations are strictly harmonic

freq.      22.53  E(vib)   ...       0.56
freq.      70.79  E(vib)   ...       0.50
freq.     161.45  E(vib)   ...       0.39
freq.     163.28  E(vib)   ...       0.39
freq.     232.13  E(vib)   ...       0.32
freq.     277.74  E(vib)   ...       0.28
freq.     295.27  E(vib)   ...       0.27
freq.     406.22  E(vib)   ...       0.19
freq.     436.58  E(vib)   ...       0.17
freq.     441.78  E(vib)   ...       0.17
freq.     508.95  E(vib)   ...       0.14
freq.     540.07  E(vib)   ...       0.12
freq.     583.61  E(vib)   ...       0.11
freq.     622.94  E(vib)   ...       0.09
freq.     635.01  E(vib)   ...       0.09
freq.     704.37  E(vib)   ...       0.07
freq.     759.35  E(vib)   ...       0.06
freq.     766.69  E(vib)   ...       0.06
freq.     836.17  E(vib)   ...       0.04
freq.     868.24  E(vib)   ...       0.04
freq.     871.22  E(vib)   ...       0.04
freq.     959.63  E(vib)   ...       0.03
freq.     986.47  E(vib)   ...       0.02
freq.    1001.52  E(vib)   ...       0.02
freq.    1023.81  E(vib)   ...       0.02
freq.    1029.92  E(vib)   ...       0.02
freq.    1089.36  E(vib)   ...       0.02
freq.    1111.64  E(vib)   ...       0.01
freq.    1118.58  E(vib)   ...       0.01
freq.    1181.97  E(vib)   ...       0.01
freq.    1260.84  E(vib)   ...       0.01
freq.    1310.87  E(vib)   ...       0.01
freq.    1340.52  E(vib)   ...       0.01
freq.    1355.72  E(vib)   ...       0.01
freq.    1390.17  E(vib)   ...       0.00
freq.    1425.80  E(vib)   ...       0.00
freq.    1437.34  E(vib)   ...       0.00
freq.    1441.30  E(vib)   ...       0.00
freq.    1506.33  E(vib)   ...       0.00
freq.    1530.22  E(vib)   ...       0.00
freq.    1625.69  E(vib)   ...       0.00
freq.    1630.13  E(vib)   ...       0.00
freq.    1712.89  E(vib)   ...       0.00
freq.    3031.97  E(vib)   ...       0.00
freq.    3097.06  E(vib)   ...       0.00
freq.    3149.23  E(vib)   ...       0.00
freq.    3197.67  E(vib)   ...       0.00
freq.    3201.75  E(vib)   ...       0.00
freq.    3221.01  E(vib)   ...       0.00
freq.    3222.98  E(vib)   ...       0.00

------------
INNER ENERGY
------------

The inner energy is: U= E(el) + E(ZPE) + E(vib) + E(rot) + E(trans)
    E(el)   - is the total energy from the electronic structure calculation
              = E(kin-el) + E(nuc-el) + E(el-el) + E(nuc-nuc)
    E(ZPE)  - the the zero temperature vibrational energy from the frequency calculation
    E(vib)  - the the finite temperature correction to E(ZPE) due to population
              of excited vibrational states
    E(rot)  - is the rotational thermal energy
    E(trans)- is the translational thermal energy

Summary of contributions to the inner energy U:
Electronic energy                ...   -589.33887622 Eh
Zero point energy                ...      0.13850529 Eh      86.91 kcal/mol
Thermal vibrational correction   ...      0.00688151 Eh       4.32 kcal/mol
Thermal rotational correction    ...      0.00141627 Eh       0.89 kcal/mol
Thermal translational correction ...      0.00141627 Eh       0.89 kcal/mol
-----------------------------------------------------------------------
Total thermal energy                   -589.19065688 Eh

Summary of corrections to the electronic energy:
(perhaps to be used in another calculation)
Total thermal correction                  0.00971405 Eh       6.10 kcal/mol
Non-thermal (ZPE) correction              0.13850529 Eh      86.91 kcal/mol
-----------------------------------------------------------------------
Total correction                          0.14821934 Eh      93.01 kcal/mol

--------
ENTHALPY
--------

The enthalpy is H = U + kB*T
                kB is Boltzmann's constant
Total thermal energy              ...   -589.19065688 Eh
Thermal Enthalpy correction       ...      0.00094421 Eh       0.59 kcal/mol
-----------------------------------------------------------------------
Total Enthalpy                    ...   -589.18971267 Eh

Note: Only C1 symmetry has been detected, increase convergence thresholds
      if your molecule has a higher symmetry. Symmetry factor of 1.0 is
      used for the rotational entropy correction.

Note: Rotational entropy computed according to Herzberg
Infrared and Raman Spectra, Chapter V,1, Van Nostrand Reinhold, 1945
Point Group:  C1, Symmetry Number:   1
Rotational constants in cm-1:     0.096241     0.015948     0.013715

Vibrational entropy computed according to the QRRHO of S. Grimme
Chem.Eur.J. 2012 18 9955 using a reference frequency of 100.0 cm-1

-------
ENTROPY
-------

The entropy contributions are T*S = T*(S(el)+S(vib)+S(rot)+S(trans))
     S(el)   - electronic entropy
     S(vib)  - vibrational entropy
     S(rot)  - rotational entropy
     S(trans)- translational entropy
The entropies will be listed as multiplied by the temperature to get
units of energy

Electronic entropy                ...      0.00000000 Eh      0.00 kcal/mol
Vibrational entropy               ...      0.01181828 Eh      7.42 kcal/mol
Rotational entropy                ...      0.01459456 Eh      9.16 kcal/mol
Translational entropy             ...      0.01958175 Eh     12.29 kcal/mol
-----------------------------------------------------------------------
Final entropy term                ...      0.04599458 Eh     28.86 kcal/mol

In case the symmetry of your molecule has not been determined correctly
or in case you have a reason to use a different symmetry number we print
out the resulting rotational entropy values for sn=1,12:

 non-linear molecules -----------------------------------
|  sn= 1 | S(rot)=       0.01459456 Eh      9.16 kcal/mol|
|  sn= 2 | S(rot)=       0.01394010 Eh      8.75 kcal/mol|
|  sn= 3 | S(rot)=       0.01355727 Eh      8.51 kcal/mol|
|  sn= 4 | S(rot)=       0.01328564 Eh      8.34 kcal/mol|
|  sn= 5 | S(rot)=       0.01307495 Eh      8.20 kcal/mol|
|  sn= 6 | S(rot)=       0.01290281 Eh      8.10 kcal/mol|
|  sn= 7 | S(rot)=       0.01275726 Eh      8.01 kcal/mol|
|  sn= 8 | S(rot)=       0.01263119 Eh      7.93 kcal/mol|
|  sn= 9 | S(rot)=       0.01251998 Eh      7.86 kcal/mol|
|  sn=10 | S(rot)=       0.01242050 Eh      7.79 kcal/mol|

                             ****ORCA TERMINATED NORMALLY****
TOTAL RUN TIME: 0 days 0 hours 26 minutes 39 seconds 763 msec
