                         Program Version 6.0.0  -   RELEASE  -
|  1> !TPSSh freq aug-cc-pVTZ d3 TightSCF SlowConv RIJCOSX defgrid2
|  2>
|  3> %pal
|  4> nprocs 12
|  5> end
|  6>
|  7> %scf
|  8> MaxIter 1500
|  9> end
| 10>
| 11> %maxcore 5000
| 12>
| 13> !CPCM
| 14> %cpcm smd true
| 15> SMDsolvent "MeCN"
| 16> surfacetype gepol_ses
| 17> rsolv 2.19
| 18> end
| 19>
| 20> * xyz 0 1
| 21>   C           1.34992626469544     -0.65002583027219      0.79668305290934
| 22>   C           2.59749876999660     -1.26343984332818      0.84486241858722
| 23>   C           3.68012900035831     -0.72612146823969      0.15199852012524
| 24>   C           3.50884680399537      0.43739596370016     -0.59389746349084
| 25>   C           2.26487686786414      1.05751467379513     -0.65725538734938
| 26>   C           1.19292983173831      0.50692527879813      0.03731725148647
| 27>   O          -0.00001292030731      1.20455819900066      0.00027314959528
| 28>   C          -1.19292923191968      0.50697976392817     -0.03709481286097
| 29>   C          -2.26509278406708      1.05761928735883      0.65712561957264
| 30>   C          -3.50903956314490      0.43748178174605      0.59346710052820
| 31>   C          -3.68011608780157     -0.72611548855165     -0.15234770232812
| 32>   C          -2.59727836154212     -1.26354109950803     -0.84479848514082
| 33>   C          -1.34974102222085     -0.65008849572201     -0.79632740072994
| 34>   H          -0.51068192662545     -1.06357573290731     -1.34061196112105
| 35>   H          -2.72155271727473     -2.16391204296923     -1.43432226866888
| 36>   H          -4.64826441320995     -1.20911483619447     -0.19588985168233
| 37>   H          -4.34410065573686      0.86525951140090      1.13491001581860
| 38>   H          -2.11719172072335      1.96058043043469      1.23597212612429
| 39>   H           2.11681026911961      1.96043498965152     -1.23612866046888
| 40>   H           4.34376646348433      0.86514549779363     -1.13558441804389
| 41>   H           4.64829294991614     -1.20911204700632      0.19532900209761
| 42>   H           2.72197874382188     -2.16370687661789      1.43450877625853
| 43>   H           0.51099373958376     -1.06338581629085      1.34127107878165
| 44> *
| 45>
| 46>                          ****END OF INPUT****

CARTESIAN COORDINATES (ANGSTROEM)
---------------------------------
  C      1.349926   -0.650026    0.796683
  C      2.597499   -1.263440    0.844862
  C      3.680129   -0.726121    0.151999
  C      3.508847    0.437396   -0.593897
  C      2.264877    1.057515   -0.657255
  C      1.192930    0.506925    0.037317
  O     -0.000013    1.204558    0.000273
  C     -1.192929    0.506980   -0.037095
  C     -2.265093    1.057619    0.657126
  C     -3.509040    0.437482    0.593467
  C     -3.680116   -0.726115   -0.152348
  C     -2.597278   -1.263541   -0.844798
  C     -1.349741   -0.650088   -0.796327
  H     -0.510682   -1.063576   -1.340612
  H     -2.721553   -2.163912   -1.434322
  H     -4.648264   -1.209115   -0.195890
  H     -4.344101    0.865260    1.134910
  H     -2.117192    1.960580    1.235972
  H      2.116810    1.960435   -1.236129
  H      4.343766    0.865145   -1.135584
  H      4.648293   -1.209112    0.195329
  H      2.721979   -2.163707    1.434509
  H      0.510994   -1.063386    1.341271

 Total Charge           Charge          ....    0
 Multiplicity           Mult            ....    1
 Number of Electrons    NEL             ....   90
 Basis Dimension        Dim             ....  828

ORBITAL ENERGIES
----------------

  NO   OCC          E(Eh)            E(eV)
   0   2.0000     -19.097291      -519.6637
   1   2.0000     -10.178919      -276.9825
   2   2.0000     -10.178888      -276.9816
   3   2.0000     -10.119302      -275.3602
   4   2.0000     -10.119276      -275.3595
   5   2.0000     -10.119014      -275.3524
   6   2.0000     -10.118992      -275.3518
   7   2.0000     -10.117748      -275.3179
   8   2.0000     -10.117701      -275.3166
   9   2.0000     -10.116323      -275.2791
  10   2.0000     -10.116305      -275.2786
  11   2.0000     -10.112754      -275.1820
  12   2.0000     -10.112739      -275.1816
  13   2.0000      -1.058893       -28.8139
  14   2.0000      -0.845042       -22.9948
  15   2.0000      -0.831412       -22.6239
  16   2.0000      -0.746589       -20.3157
  17   2.0000      -0.734767       -19.9940
  18   2.0000      -0.730552       -19.8793
  19   2.0000      -0.707685       -19.2571
  20   2.0000      -0.617140       -16.7932
  21   2.0000      -0.601324       -16.3629
  22   2.0000      -0.589342       -16.0368
  23   2.0000      -0.563675       -15.3384
  24   2.0000      -0.529118       -14.3980
  25   2.0000      -0.493420       -13.4266
  26   2.0000      -0.469930       -12.7874
  27   2.0000      -0.459128       -12.4935
  28   2.0000      -0.450257       -12.2521
  29   2.0000      -0.428860       -11.6699
  30   2.0000      -0.423779       -11.5316
  31   2.0000      -0.407947       -11.1008
  32   2.0000      -0.407263       -11.0822
  33   2.0000      -0.389002       -10.5853
  34   2.0000      -0.382275       -10.4022
  35   2.0000      -0.356623        -9.7042
  36   2.0000      -0.347922        -9.4674
  37   2.0000      -0.342877        -9.3302
  38   2.0000      -0.339937        -9.2502
  39   2.0000      -0.322075        -8.7641
  40   2.0000      -0.314999        -8.5716
  41   2.0000      -0.254648        -6.9293
  42   2.0000      -0.248270        -6.7558
  43   2.0000      -0.246348        -6.7035
  44   2.0000      -0.214229        -5.8295
  45   0.0000      -0.035550        -0.9674
  46   0.0000      -0.028599        -0.7782
  47   0.0000      -0.020364        -0.5541
  48   0.0000      -0.010738        -0.2922
  49   0.0000      -0.004038        -0.1099

MULLIKEN ATOMIC CHARGES
-----------------------
   0 C :   -0.379573
   1 C :   -0.474991
   2 C :   -0.465457
   3 C :   -0.278544
   4 C :   -1.038687
   5 C :    1.244987
   6 O :   -0.939742
   7 C :    1.246741
   8 C :   -1.046294
   9 C :   -0.277737
  10 C :   -0.463369
  11 C :   -0.476412
  12 C :   -0.377805
  13 H :    0.439171
  14 H :    0.331552
  15 H :    0.424288
  16 H :    0.329510
  17 H :    0.339884
  18 H :    0.340691
  19 H :    0.330759
  20 H :    0.416939
  21 H :    0.333220
  22 H :    0.440870
Sum of atomic charges:    0.0000000

LOEWDIN ATOMIC CHARGES
----------------------
   0 C :    0.199850
   1 C :    0.193271
   2 C :    0.188216
   3 C :    0.186149
   4 C :    0.205635
   5 C :   -0.396454
   6 O :    0.622355
   7 C :   -0.396494
   8 C :    0.205612
   9 C :    0.186142
  10 C :    0.188226
  11 C :    0.193282
  12 C :    0.199769
  13 H :   -0.173854
  14 H :   -0.176488
  15 H :   -0.183510
  16 H :   -0.177972
  17 H :   -0.175979
  18 H :   -0.175980
  19 H :   -0.177984
  20 H :   -0.183524
  21 H :   -0.176509
  22 H :   -0.173757

  Mayer bond orders larger than 0.100000
B(  0-C ,  1-C ) :   1.3538 B(  0-C ,  4-C ) :   0.3223 B(  0-C ,  5-C ) :   1.0492
B(  0-C ,  7-C ) :  -0.1171 B(  0-C , 12-C ) :   0.3106 B(  0-C , 22-H ) :   0.4645
B(  1-C ,  2-C ) :   1.4398 B(  1-C ,  5-C ) :  -0.2978 B(  1-C , 21-H ) :   0.7771
B(  2-C ,  3-C ) :   1.4548 B(  2-C ,  4-C ) :   0.3912 B(  2-C , 20-H ) :   0.5398
B(  3-C ,  4-C ) :   1.4686 B(  3-C ,  5-C ) :  -0.3440 B(  3-C , 19-H ) :   0.7480
B(  4-C ,  5-C ) :   0.4943 B(  4-C ,  6-O ) :   0.2558 B(  4-C , 18-H ) :   0.4269
B(  4-C , 19-H ) :   0.1251 B(  5-C ,  6-O ) :   0.3272 B(  5-C , 12-C ) :  -0.1156
B(  5-C , 18-H ) :   0.1065 B(  6-O ,  7-C ) :   0.3278 B(  6-O ,  8-C ) :   0.2554
B(  7-C ,  8-C ) :   0.4936 B(  7-C ,  9-C ) :  -0.3443 B(  7-C , 11-C ) :  -0.2981
B(  7-C , 12-C ) :   1.0498 B(  7-C , 17-H ) :   0.1061 B(  8-C ,  9-C ) :   1.4742
B(  8-C , 10-C ) :   0.3944 B(  8-C , 12-C ) :   0.3213 B(  8-C , 16-H ) :   0.1255
B(  8-C , 17-H ) :   0.4270 B(  9-C , 10-C ) :   1.4529 B(  9-C , 16-H ) :   0.7483
B( 10-C , 11-C ) :   1.4421 B( 10-C , 15-H ) :   0.5300 B( 11-C , 12-C ) :   1.3541
B( 11-C , 14-H ) :   0.7776 B( 12-C , 13-H ) :   0.4651

Dispersion correction           -0.031493154
FINAL SINGLE POINT ENERGY      -538.781025043296

DIPOLE MOMENT
-------------

Method             : SCF
Type of density    : Electron Density
Multiplicity       :   1
Irrep              :   0
Energy             :  -538.7495318894456204 Eh
Relativity type    :
Basis              : AO
                                X                 Y                 Z
Electronic contribution:     -0.000456040       2.505187709       0.000677905
Nuclear contribution   :      0.000049039      -3.043364969      -0.000541986
                        -----------------------------------------
Total Dipole Moment    :     -0.000407001      -0.538177260       0.000135919
                        -----------------------------------------
Magnitude (a.u.)       :      0.538177431
Magnitude (Debye)      :      1.367938318

VIBRATIONAL FREQUENCIES
-----------------------

Scaling factor for frequencies =  1.000000000  (already applied!)

     0:       0.00 cm**-1
     1:       0.00 cm**-1
     2:       0.00 cm**-1
     3:       0.00 cm**-1
     4:       0.00 cm**-1
     5:       0.00 cm**-1
     6:     -17.93 cm**-1 ***imaginary mode***
     7:      32.05 cm**-1
     8:      83.81 cm**-1
     9:     211.14 cm**-1
    10:     232.88 cm**-1
    11:     310.90 cm**-1
    12:     375.06 cm**-1
    13:     414.94 cm**-1
    14:     419.33 cm**-1
    15:     480.81 cm**-1
    16:     504.16 cm**-1
    17:     564.58 cm**-1
    18:     603.42 cm**-1
    19:     615.84 cm**-1
    20:     627.56 cm**-1
    21:     702.73 cm**-1
    22:     705.79 cm**-1
    23:     757.15 cm**-1
    24:     764.66 cm**-1
    25:     804.12 cm**-1
    26:     839.13 cm**-1
    27:     839.58 cm**-1
    28:     876.47 cm**-1
    29:     914.74 cm**-1
    30:     921.28 cm**-1
    31:     987.29 cm**-1
    32:     988.07 cm**-1
    33:    1005.84 cm**-1
    34:    1006.78 cm**-1
    35:    1011.92 cm**-1
    36:    1012.27 cm**-1
    37:    1036.91 cm**-1
    38:    1037.35 cm**-1
    39:    1087.15 cm**-1
    40:    1089.77 cm**-1
    41:    1157.83 cm**-1
    42:    1158.26 cm**-1
    43:    1168.45 cm**-1
    44:    1169.83 cm**-1
    45:    1209.75 cm**-1
    46:    1232.94 cm**-1
    47:    1318.07 cm**-1
    48:    1336.45 cm**-1
    49:    1350.22 cm**-1
    50:    1354.31 cm**-1
    51:    1474.40 cm**-1
    52:    1483.88 cm**-1
    53:    1506.89 cm**-1
    54:    1516.51 cm**-1
    55:    1616.89 cm**-1
    56:    1621.53 cm**-1
    57:    1627.89 cm**-1
    58:    1637.25 cm**-1
    59:    3165.99 cm**-1
    60:    3166.11 cm**-1
    61:    3173.31 cm**-1
    62:    3173.44 cm**-1
    63:    3184.29 cm**-1
    64:    3184.50 cm**-1
    65:    3190.89 cm**-1
    66:    3191.37 cm**-1
    67:    3194.90 cm**-1
    68:    3195.22 cm**-1

IR SPECTRUM
-----------

 Mode   freq       eps      Int      T**2         TX        TY        TZ
       cm**-1   L/(mol*cm) km/mol    a.u.
----------------------------------------------------------------------------
  7:     32.05   0.000030    0.15  0.000290  ( 0.000362  0.017037 -0.000197)
  8:     83.81   0.000074    0.37  0.000275  ( 0.000033 -0.016573  0.000074)
  9:    211.14   0.000489    2.47  0.000723  ( 0.026380 -0.000017  0.005185)
 10:    232.88   0.000031    0.16  0.000041  (-0.000012 -0.006418  0.000095)
 11:    310.90   0.000164    0.83  0.000165  ( 0.000021  0.012843  0.000097)
 12:    375.06   0.001662    8.40  0.001383  ( 0.035050  0.000013 -0.012426)
 13:    414.94   0.000212    1.07  0.000159  (-0.012288  0.000015 -0.002906)
 14:    419.33   0.000012    0.06  0.000009  ( 0.000076  0.003008 -0.000006)
 15:    480.81   0.003864   19.53  0.002508  ( 0.000086  0.050078  0.000124)
 16:    504.16   0.008931   45.13  0.005528  ( 0.049654  0.000016  0.055339)
 17:    564.58   0.000142    0.72  0.000079  ( 0.000685 -0.000010 -0.008840)
 18:    603.42   0.000104    0.52  0.000054  (-0.000009 -0.007319 -0.000086)
 19:    615.84   0.000273    1.38  0.000138  ( 0.007063  0.000004 -0.009412)
 20:    627.56   0.000423    2.14  0.000210  ( 0.000009 -0.014504  0.000024)
 21:    702.73   0.015911   80.41  0.007066  ( 0.035647 -0.000090  0.076125)
 22:    705.79   0.008109   40.98  0.003585  ( 0.000102  0.059876  0.000256)
 23:    757.15   0.002385   12.05  0.000983  (-0.000013 -0.031355  0.000040)
 24:    764.66   0.030934  156.33  0.012624  (-0.008680 -0.000012 -0.112023)
 25:    804.12   0.008431   42.61  0.003272  ( 0.000023  0.057200  0.000058)
 26:    839.13   0.000188    0.95  0.000070  (-0.007873  0.000211 -0.002835)
 27:    839.58   0.000112    0.57  0.000042  (-0.000173 -0.006452  0.000006)
 28:    876.47   0.016777   84.78  0.005973  ( 0.077271 -0.000017  0.001572)
 29:    914.74   0.002760   13.95  0.000941  ( 0.010181 -0.000102  0.028944)
 30:    921.28   0.001568    7.93  0.000531  (-0.000048 -0.023049 -0.000157)
 31:    987.29   0.000050    0.26  0.000016  (-0.003431 -0.000015  0.002047)
 32:    988.07   0.000008    0.04  0.000002  (-0.000002  0.001553 -0.000036)
 33:   1005.84   0.000087    0.44  0.000027  ( 0.004037  0.000002  0.003250)
 34:   1006.78   0.000015    0.08  0.000005  ( 0.000009  0.002151  0.000030)
 35:   1011.92   0.000034    0.17  0.000010  ( 0.003210  0.000105 -0.000141)
 36:   1012.27   0.000092    0.46  0.000028  (-0.000076  0.005314 -0.000029)
 37:   1036.91   0.000577    2.92  0.000174  ( 0.000169 -0.013181 -0.000061)
 38:   1037.35   0.005635   28.48  0.001695  ( 0.041087  0.000058  0.002669)
 39:   1087.15   0.004223   21.34  0.001212  ( 0.013410  0.000100 -0.032131)
 40:   1089.77   0.004649   23.49  0.001331  (-0.000034  0.036484  0.000231)
 41:   1157.83   0.000121    0.61  0.000033  ( 0.003085 -0.000093 -0.004803)
 42:   1158.26   0.000181    0.91  0.000049  ( 0.000011  0.006982 -0.000047)
 43:   1168.45   0.001344    6.79  0.000359  ( 0.000449  0.018938 -0.000139)
 44:   1169.83   0.013229   66.86  0.003529  (-0.059397  0.000148  0.001013)
 45:   1209.75   0.002466   12.46  0.000636  (-0.000074  0.025222 -0.000018)
 46:   1232.94   0.183639  928.04  0.046480  ( 0.215539  0.000068  0.004786)
 47:   1318.07   0.000020    0.10  0.000005  (-0.001968 -0.000018  0.000932)
 48:   1336.45   0.000218    1.10  0.000051  ( 0.000004  0.007134 -0.000120)
 49:   1350.22   0.003219   16.27  0.000744  ( 0.026716 -0.000021 -0.005500)
 50:   1354.31   0.000047    0.24  0.000011  (-0.000056 -0.003286  0.000035)
 51:   1474.40   0.000535    2.71  0.000113  (-0.007538 -0.000008 -0.007516)
 52:   1483.88   0.000392    1.98  0.000082  ( 0.000047 -0.009082 -0.000029)
 53:   1506.89   0.069917  353.33  0.014479  (-0.120221 -0.000109 -0.005107)
 54:   1516.51   0.005241   26.49  0.001079  ( 0.000136 -0.032841  0.000027)
 55:   1616.89   0.028391  143.48  0.005480  ( 0.073290 -0.000006  0.010396)
 56:   1621.53   0.011969   60.49  0.002303  (-0.044003  0.000035  0.019160)
 57:   1627.89   0.005715   28.88  0.001096  (-0.000137 -0.033098 -0.000082)
 58:   1637.25   0.000029    0.15  0.000006  ( 0.000010  0.002363  0.000031)
 59:   3165.99   0.000499    2.52  0.000049  ( 0.006716 -0.000596  0.001924)
 60:   3166.11   0.000128    0.65  0.000013  ( 0.001169  0.003336  0.000321)
 61:   3173.31   0.002730   13.79  0.000268  (-0.008618 -0.002143  0.013768)
 62:   3173.44   0.002695   13.62  0.000265  (-0.001132  0.016140  0.001808)
 63:   3184.29   0.009791   49.48  0.000960  ( 0.030454 -0.001880  0.005342)
 64:   3184.50   0.004625   23.37  0.000453  ( 0.002726  0.021109  0.000450)
 65:   3190.89   0.005649   28.55  0.000552  ( 0.016852  0.000731 -0.016368)
 66:   3191.37   0.002296   11.60  0.000224  ( 0.000882 -0.014937 -0.000771)
 67:   3194.90   0.001332    6.73  0.000130  (-0.011314  0.000238 -0.001438)
 68:   3195.22   0.000241    1.22  0.000024  (-0.000529 -0.004820 -0.000231)

--------------------------
THERMOCHEMISTRY AT 298.15K
--------------------------

Temperature         ...   298.15 K
Pressure            ...     1.00 atm
Total Mass          ...   170.21 AMU
Quasi RRHO          ...     True
Cut-Off Frequency   ...     1.00 cm^-1

Throughout the following assumptions are being made:
  (1) The electronic state is orbitally nondegenerate
  (2) There are no thermally accessible electronically excited states
  (3) Hindered rotations indicated by low frequency modes are not
      treated as such but are treated as vibrations and this may
      cause some error
  (4) All equations used are the standard statistical mechanics
      equations for an ideal gas
  (5) All vibrations are strictly harmonic

freq.      32.05  E(vib)   ...       0.55
freq.      83.81  E(vib)   ...       0.48
freq.     211.14  E(vib)   ...       0.34
freq.     232.88  E(vib)   ...       0.32
freq.     310.90  E(vib)   ...       0.26
freq.     375.06  E(vib)   ...       0.21
freq.     414.94  E(vib)   ...       0.19
freq.     419.33  E(vib)   ...       0.18
freq.     480.81  E(vib)   ...       0.15
freq.     504.16  E(vib)   ...       0.14
freq.     564.58  E(vib)   ...       0.11
freq.     603.42  E(vib)   ...       0.10
freq.     615.84  E(vib)   ...       0.10
freq.     627.56  E(vib)   ...       0.09
freq.     702.73  E(vib)   ...       0.07
freq.     705.79  E(vib)   ...       0.07
freq.     757.15  E(vib)   ...       0.06
freq.     764.66  E(vib)   ...       0.06
freq.     804.12  E(vib)   ...       0.05
freq.     839.13  E(vib)   ...       0.04
freq.     839.58  E(vib)   ...       0.04
freq.     876.47  E(vib)   ...       0.04
freq.     914.74  E(vib)   ...       0.03
freq.     921.28  E(vib)   ...       0.03
freq.     987.29  E(vib)   ...       0.02
freq.     988.07  E(vib)   ...       0.02
freq.    1005.84  E(vib)   ...       0.02
freq.    1006.78  E(vib)   ...       0.02
freq.    1011.92  E(vib)   ...       0.02
freq.    1012.27  E(vib)   ...       0.02
freq.    1036.91  E(vib)   ...       0.02
freq.    1037.35  E(vib)   ...       0.02
freq.    1087.15  E(vib)   ...       0.02
freq.    1089.77  E(vib)   ...       0.02
freq.    1157.83  E(vib)   ...       0.01
freq.    1158.26  E(vib)   ...       0.01
freq.    1168.45  E(vib)   ...       0.01
freq.    1169.83  E(vib)   ...       0.01
freq.    1209.75  E(vib)   ...       0.01
freq.    1232.94  E(vib)   ...       0.01
freq.    1318.07  E(vib)   ...       0.01
freq.    1336.45  E(vib)   ...       0.01
freq.    1350.22  E(vib)   ...       0.01
freq.    1354.31  E(vib)   ...       0.01
freq.    1474.40  E(vib)   ...       0.00
freq.    1483.88  E(vib)   ...       0.00
freq.    1506.89  E(vib)   ...       0.00
freq.    1516.51  E(vib)   ...       0.00
freq.    1616.89  E(vib)   ...       0.00
freq.    1621.53  E(vib)   ...       0.00
freq.    1627.89  E(vib)   ...       0.00
freq.    1637.25  E(vib)   ...       0.00
freq.    3165.99  E(vib)   ...       0.00
freq.    3166.11  E(vib)   ...       0.00
freq.    3173.31  E(vib)   ...       0.00
freq.    3173.44  E(vib)   ...       0.00
freq.    3184.29  E(vib)   ...       0.00
freq.    3184.50  E(vib)   ...       0.00
freq.    3190.89  E(vib)   ...       0.00
freq.    3191.37  E(vib)   ...       0.00
freq.    3194.90  E(vib)   ...       0.00
freq.    3195.22  E(vib)   ...       0.00

------------
INNER ENERGY
------------

The inner energy is: U= E(el) + E(ZPE) + E(vib) + E(rot) + E(trans)
    E(el)   - is the total energy from the electronic structure calculation
              = E(kin-el) + E(nuc-el) + E(el-el) + E(nuc-nuc)
    E(ZPE)  - the the zero temperature vibrational energy from the frequency calculation
    E(vib)  - the the finite temperature correction to E(ZPE) due to population
              of excited vibrational states
    E(rot)  - is the rotational thermal energy
    E(trans)- is the translational thermal energy

Summary of contributions to the inner energy U:
Electronic energy                ...   -538.78102504 Eh
Zero point energy                ...      0.18368142 Eh     115.26 kcal/mol
Thermal vibrational correction   ...      0.00640566 Eh       4.02 kcal/mol
Thermal rotational correction    ...      0.00141627 Eh       0.89 kcal/mol
Thermal translational correction ...      0.00141627 Eh       0.89 kcal/mol
-----------------------------------------------------------------------
Total thermal energy                   -538.58810542 Eh

Summary of corrections to the electronic energy:
(perhaps to be used in another calculation)
Total thermal correction                  0.00923820 Eh       5.80 kcal/mol
Non-thermal (ZPE) correction              0.18368142 Eh     115.26 kcal/mol
-----------------------------------------------------------------------
Total correction                          0.19291963 Eh     121.06 kcal/mol

--------
ENTHALPY
--------

The enthalpy is H = U + kB*T
                kB is Boltzmann's constant
Total thermal energy              ...   -538.58810542 Eh
Thermal Enthalpy correction       ...      0.00094421 Eh       0.59 kcal/mol
-----------------------------------------------------------------------
Total Enthalpy                    ...   -538.58716121 Eh

Note: Only C1 symmetry has been detected, increase convergence thresholds
      if your molecule has a higher symmetry. Symmetry factor of 1.0 is
      used for the rotational entropy correction.

Note: Rotational entropy computed according to Herzberg
Infrared and Raman Spectra, Chapter V,1, Van Nostrand Reinhold, 1945
Point Group:  C1, Symmetry Number:   1
Rotational constants in cm-1:     0.079790     0.014585     0.013634

Vibrational entropy computed according to the QRRHO of S. Grimme
Chem.Eur.J. 2012 18 9955 using a reference frequency of 100.0 cm-1

-------
ENTROPY
-------

The entropy contributions are T*S = T*(S(el)+S(vib)+S(rot)+S(trans))
     S(el)   - electronic entropy
     S(vib)  - vibrational entropy
     S(rot)  - rotational entropy
     S(trans)- translational entropy
The entropies will be listed as multiplied by the temperature to get
units of energy

Electronic entropy                ...      0.00000000 Eh      0.00 kcal/mol
Vibrational entropy               ...      0.01040965 Eh      6.53 kcal/mol
Rotational entropy                ...      0.01472801 Eh      9.24 kcal/mol
Translational entropy             ...      0.01962451 Eh     12.31 kcal/mol
-----------------------------------------------------------------------
Final entropy term                ...      0.04476217 Eh     28.09 kcal/mol

In case the symmetry of your molecule has not been determined correctly
or in case you have a reason to use a different symmetry number we print
out the resulting rotational entropy values for sn=1,12:

                             ****ORCA TERMINATED NORMALLY****
TOTAL RUN TIME: 0 days 1 hours 42 minutes 19 seconds 417 msec
