                         Program Version 6.0.0  -   RELEASE  -
|  1> !PBE0 aug-cc-pVTZ d3 TightSCF SlowConv RIJCOSX defgrid2
|  2>
|  3> %pal
|  4> nprocs 4
|  5> end
|  6>
|  7> %scf
|  8> MaxIter 1500
|  9> end
| 10>
| 11> %maxcore 3000
| 12>
| 13> !CPCM
| 14> %cpcm smd true
| 15> SMDsolvent "MeCN"
| 16> surfacetype gepol_ses
| 17> rsolv 2.19
| 18> end
| 19>
| 20> * xyz 0 1
| 21>   C           0.41599319251032     -1.69346177862022     -0.02279161454558
| 22>   C          -0.98199729558990     -1.81472676429341     -0.05134821794403
| 23>   C          -1.70677603729443     -0.64308652071241     -0.08326300415314
| 24>   C          -1.07495769550450      0.60196976211576     -0.08130065571313
| 25>   C           0.29269190626036      0.73274812090553     -0.04930153158760
| 26>   C           1.06792223663687     -0.45226147551338     -0.02238323387356
| 27>   C           2.53306012033092     -0.42784097336228      0.00411549390745
| 28>   C           3.33599029031163      0.64787454860086     -0.01298712184471
| 29>   C           4.82698252758222      0.59436334411775      0.01761658566321
| 30>   H           5.19519744878890     -0.44486528089433      0.05467264909477
| 31>   H           5.26493429112435      1.08145794661971     -0.87426846583011
| 32>   H           5.23044002906813      1.13215001785477      0.89657522514024
| 33>   H           2.89219341939334      1.65177321714680     -0.05310300701833
| 34>   H           3.00616156242134     -1.41849503169999      0.04140787797653
| 35>   H           0.75060774881743      1.72311804458948     -0.04152460092806
| 36>   O          -2.02238582974935      1.57759788099539     -0.08083816246866
| 37>   C          -3.25372937520391      0.92161898008569     -0.29920279195714
| 38>   H          -3.58643890672075      1.09093447235186     -1.34427577812255
| 39>   H          -4.00651814330382      1.30024105404657      0.41140327759572
| 40>   O          -3.05288326673628     -0.46068315840969     -0.08496008668725
| 41>   H          -1.47569728947849     -2.78849336669007     -0.04656446685497
| 42>   H           1.02272506633562     -2.60351753923440     -0.00236886984910
| 43> *
| 44>
| 45>                          ****END OF INPUT****

CARTESIAN COORDINATES (ANGSTROEM)
---------------------------------
  C      0.415993   -1.693462   -0.022792
  C     -0.981997   -1.814727   -0.051348
  C     -1.706776   -0.643087   -0.083263
  C     -1.074958    0.601970   -0.081301
  C      0.292692    0.732748   -0.049302
  C      1.067922   -0.452261   -0.022383
  C      2.533060   -0.427841    0.004115
  C      3.335990    0.647875   -0.012987
  C      4.826983    0.594363    0.017617
  H      5.195197   -0.444865    0.054673
  H      5.264934    1.081458   -0.874268
  H      5.230440    1.132150    0.896575
  H      2.892193    1.651773   -0.053103
  H      3.006162   -1.418495    0.041408
  H      0.750608    1.723118   -0.041525
  O     -2.022386    1.577598   -0.080838
  C     -3.253729    0.921619   -0.299203
  H     -3.586439    1.090934   -1.344276
  H     -4.006518    1.300241    0.411403
  O     -3.052883   -0.460683   -0.084960
  H     -1.475697   -2.788493   -0.046564
  H      1.022725   -2.603518   -0.002369

 Total Charge           Charge          ....    0
 Multiplicity           Mult            ....    1
 Number of Electrons    NEL             ....   86
 Basis Dimension        Dim             ....  782

ORBITAL ENERGIES
----------------

  NO   OCC          E(Eh)            E(eV)
   0   2.0000     -19.259746      -524.0843
   1   2.0000     -19.259145      -524.0680
   2   2.0000     -10.335350      -281.2392
   3   2.0000     -10.292248      -280.0663
   4   2.0000     -10.291091      -280.0348
   5   2.0000     -10.243438      -278.7381
   6   2.0000     -10.236094      -278.5383
   7   2.0000     -10.234597      -278.4975
   8   2.0000     -10.231057      -278.4012
   9   2.0000     -10.228131      -278.3216
  10   2.0000     -10.225156      -278.2406
  11   2.0000     -10.215505      -277.9780
  12   2.0000      -1.171877       -31.8884
  13   2.0000      -1.075825       -29.2747
  14   2.0000      -0.893671       -24.3180
  15   2.0000      -0.826618       -22.4934
  16   2.0000      -0.784155       -21.3379
  17   2.0000      -0.777214       -21.1491
  18   2.0000      -0.716743       -19.5036
  19   2.0000      -0.681776       -18.5521
  20   2.0000      -0.648782       -17.6543
  21   2.0000      -0.636958       -17.3325
  22   2.0000      -0.572525       -15.5792
  23   2.0000      -0.542925       -14.7738
  24   2.0000      -0.541657       -14.7392
  25   2.0000      -0.533578       -14.5194
  26   2.0000      -0.505487       -13.7550
  27   2.0000      -0.460191       -12.5224
  28   2.0000      -0.456504       -12.4221
  29   2.0000      -0.446847       -12.1593
  30   2.0000      -0.419922       -11.4267
  31   2.0000      -0.413713       -11.2577
  32   2.0000      -0.411303       -11.1921
  33   2.0000      -0.409186       -11.1345
  34   2.0000      -0.407650       -11.0927
  35   2.0000      -0.389563       -10.6006
  36   2.0000      -0.374977       -10.2036
  37   2.0000      -0.358645        -9.7592
  38   2.0000      -0.351047        -9.5525
  39   2.0000      -0.348499        -9.4831
  40   2.0000      -0.286963        -7.8087
  41   2.0000      -0.253440        -6.8964
  42   2.0000      -0.211347        -5.7511
  43   0.0000      -0.032449        -0.8830
  44   0.0000      -0.004379        -0.1192
  45   0.0000       0.002210         0.0601
  46   0.0000       0.010519         0.2862
  47   0.0000       0.015047         0.4094

MULLIKEN ATOMIC CHARGES
-----------------------
   0 C :   -1.101679
   1 C :   -0.720141
   2 C :    0.744081
   3 C :    0.898088
   4 C :   -0.711133
   5 C :    1.198044
   6 C :   -0.321296
   7 C :   -0.348557
   8 C :   -0.852807
   9 H :    0.275418
  10 H :    0.225871
  11 H :    0.230629
  12 H :    0.210245
  13 H :    0.129965
  14 H :    0.111329
  15 O :   -0.647381
  16 C :   -0.124810
  17 H :    0.257340
  18 H :    0.293777
  19 O :   -0.664834
  20 H :    0.605039
  21 H :    0.312815
Sum of atomic charges:   -0.0000000

LOEWDIN ATOMIC CHARGES
----------------------
   0 C :    0.183884
   1 C :    0.222615
   2 C :   -0.410481
   3 C :   -0.403449
   4 C :    0.232589
   5 C :   -0.166288
   6 C :    0.187236
   7 C :    0.190895
   8 C :    0.541447
   9 H :   -0.172641
  10 H :   -0.163101
  11 H :   -0.163053
  12 H :   -0.182843
  13 H :   -0.182239
  14 H :   -0.173437
  15 O :    0.620137
  16 C :   -0.165196
  17 H :   -0.137035
  18 H :   -0.143604
  19 O :    0.618079
  20 H :   -0.162645
  21 H :   -0.170869

  Mayer bond orders larger than 0.100000
B(  0-C ,  1-C ) :   1.3540 B(  0-C ,  2-C ) :  -0.2284 B(  0-C ,  4-C ) :  -0.1632
B(  0-C ,  5-C ) :   0.5813 B(  0-C ,  7-C ) :   0.2773 B(  0-C , 21-H ) :   0.9377
B(  1-C ,  2-C ) :   0.7580 B(  1-C ,  5-C ) :   0.1455 B(  1-C , 20-H ) :   0.3013
B(  2-C ,  3-C ) :   1.1677 B(  2-C ,  6-C ) :   0.1274 B(  2-C , 19-O ) :   0.3240
B(  2-C , 20-H ) :   0.1058 B(  3-C ,  4-C ) :   0.5303 B(  3-C ,  5-C ) :   0.3171
B(  3-C , 14-H ) :  -0.1737 B(  3-C , 15-O ) :   0.1927 B(  3-C , 19-O ) :   0.1396
B(  4-C ,  5-C ) :   0.5925 B(  4-C ,  6-C ) :   0.1244 B(  4-C ,  7-C ) :  -0.1046
B(  4-C , 12-H ) :  -0.1472 B(  4-C , 14-H ) :   1.2661 B(  4-C , 15-O ) :   0.2279
B(  5-C ,  7-C ) :  -0.1888 B(  5-C , 12-H ) :  -0.1296 B(  5-C , 14-H ) :  -0.1390
B(  6-C ,  7-C ) :   1.0877 B(  6-C , 13-H ) :   1.1815 B(  7-C ,  8-C ) :   0.7577
B(  7-C , 12-H ) :   1.2220 B(  8-C ,  9-H ) :   0.9142 B(  8-C , 10-H ) :   0.9865
B(  8-C , 11-H ) :   0.9855 B( 15-O , 16-C ) :   0.9111 B( 16-C , 17-H ) :   0.9078
B( 16-C , 18-H ) :   0.8945 B( 16-C , 19-O ) :   0.9130

Dispersion correction           -0.019824813
FINAL SINGLE POINT ENERGY      -537.100142555357

DIPOLE MOMENT
-------------

Method             : SCF
Type of density    : Electron Density
Multiplicity       :   1
Irrep              :   0
Energy             :  -537.0803177421182681 Eh
Relativity type    :
Basis              : AO
                                X                 Y                 Z
Electronic contribution:    -13.547809137      -0.471639743       0.109301619
Nuclear contribution   :     13.408506820       0.685068586      -0.272537228
                        -----------------------------------------
Total Dipole Moment    :     -0.139302316       0.213428843      -0.163235608
                        -----------------------------------------
Magnitude (a.u.)       :      0.302659661
Magnitude (Debye)      :      0.769299721

Rotational constants in cm-1:             0.089233             0.016100             0.013721
Rotational constants in MHz :          2675.143581           482.663889           411.333800

                             ****ORCA TERMINATED NORMALLY****
TOTAL RUN TIME: 0 days 0 hours 8 minutes 47 seconds 329 msec
