                         Program Version 6.0.0  -   RELEASE  -
|  1> !PBE0 aug-cc-pVTZ d3 TightSCF SlowConv RIJCOSX defgrid2
|  2>
|  3> %pal
|  4> nprocs 4
|  5> end
|  6>
|  7> %scf
|  8> MaxIter 1500
|  9> end
| 10>
| 11> %maxcore 3000
| 12>
| 13> !CPCM
| 14> %cpcm smd true
| 15> SMDsolvent "MeCN"
| 16> surfacetype gepol_ses
| 17> rsolv 2.19
| 18> end
| 19>
| 20> * xyz 0 1
| 21> C          -1.64824126618017      1.17962905218596     -0.27640852251821
| 22> C          -2.36732067057951      0.01222657741033      0.01013723312640
| 23> C          -1.65681369830039     -1.16061817519344      0.29208568093245
| 24> C          -0.26626323928183     -1.16443624467977      0.28791791148105
| 25> C           0.45854663028887      0.00217454247658      0.00256283796462
| 26> C          -0.26127971202858      1.17549258128224     -0.27984384623215
| 27> H           0.28089631587743      2.09137892779172     -0.53113220855770
| 28> C           1.93696149154138     -0.00279971672945      0.00051608331538
| 29> C           2.65303791085162     -1.10978954515941     -0.47925860702356
| 30> C           4.04531433476339     -1.11398347683307     -0.48167578797554
| 31> C           4.75102098587613     -0.01129559121339     -0.00116086906809
| 32> C           4.05248382144489      1.09572154879970      0.47984618566416
| 33> C           2.66020581714669      1.10014601648294      0.47888547594482
| 34> H           2.12182100458790      1.96339836557137      0.88035790986018
| 35> H           4.59686021513246      1.96228462828998      0.86676809069055
| 36> H           5.84493441172309     -0.01451276377516     -0.00190011189447
| 37> H           4.58410302781916     -1.98346854512299     -0.86991334409081
| 38> H           2.10898948157834     -1.96925435572582     -0.88135237996202
| 39> H           0.27006313897588     -2.08418650265354      0.53693846273009
| 40> H          -2.18747776526920     -2.08664808126969      0.52830693817217
| 41> C          -3.86122618809550      0.08310521129981     -0.00075253917882
| 42> O          -4.42728606147296      1.12411459370127     -0.25389321491014
| 43> C          -4.64225327233386     -1.17234258475983      0.31143142335015
| 44> H          -5.71614646164934     -0.94073069402301      0.26216108811743
| 45> H          -4.40777348323050     -1.97432489828778     -0.41030103402591
| 46> H          -4.39571168425506     -1.55218269043734      1.31835323175607
| 47> H          -2.21343058493032      2.08711072057180     -0.50408998766811
| 48> *
| 49>
| 50>                          ****END OF INPUT****

CARTESIAN COORDINATES (ANGSTROEM)
---------------------------------
  C     -1.648241    1.179629   -0.276409
  C     -2.367321    0.012227    0.010137
  C     -1.656814   -1.160618    0.292086
  C     -0.266263   -1.164436    0.287918
  C      0.458547    0.002175    0.002563
  C     -0.261280    1.175493   -0.279844
  H      0.280896    2.091379   -0.531132
  C      1.936961   -0.002800    0.000516
  C      2.653038   -1.109790   -0.479259
  C      4.045314   -1.113983   -0.481676
  C      4.751021   -0.011296   -0.001161
  C      4.052484    1.095722    0.479846
  C      2.660206    1.100146    0.478885
  H      2.121821    1.963398    0.880358
  H      4.596860    1.962285    0.866768
  H      5.844934   -0.014513   -0.001900
  H      4.584103   -1.983469   -0.869913
  H      2.108989   -1.969254   -0.881352
  H      0.270063   -2.084187    0.536938
  H     -2.187478   -2.086648    0.528307
  C     -3.861226    0.083105   -0.000753
  O     -4.427286    1.124115   -0.253893
  C     -4.642253   -1.172343    0.311431
  H     -5.716146   -0.940731    0.262161
  H     -4.407773   -1.974325   -0.410301
  H     -4.395712   -1.552183    1.318353
  H     -2.213431    2.087111   -0.504090

 Total Charge           Charge          ....    0
 Multiplicity           Mult            ....    1
 Number of Electrons    NEL             ....  104
 Basis Dimension        Dim             ....  966

ORBITAL ENERGIES
----------------

  NO   OCC          E(Eh)            E(eV)
   0   2.0000     -19.199091      -522.4338
   1   2.0000     -10.317397      -280.7507
   2   2.0000     -10.254652      -279.0433
   3   2.0000     -10.247935      -278.8605
   4   2.0000     -10.242685      -278.7176
   5   2.0000     -10.242041      -278.7001
   6   2.0000     -10.238395      -278.6009
   7   2.0000     -10.237284      -278.5706
   8   2.0000     -10.236967      -278.5620
   9   2.0000     -10.234707      -278.5005
  10   2.0000     -10.234660      -278.4993
  11   2.0000     -10.233591      -278.4702
  12   2.0000     -10.233226      -278.4602
  13   2.0000     -10.232681      -278.4454
  14   2.0000     -10.219160      -278.0775
  15   2.0000      -1.077650       -29.3243
  16   2.0000      -0.905012       -24.6266
  17   2.0000      -0.881693       -23.9921
  18   2.0000      -0.816698       -22.2235
  19   2.0000      -0.781418       -21.2635
  20   2.0000      -0.772011       -21.0075
  21   2.0000      -0.767595       -20.8873
  22   2.0000      -0.740888       -20.1606
  23   2.0000      -0.661973       -18.0132
  24   2.0000      -0.642217       -17.4756
  25   2.0000      -0.613052       -16.6820
  26   2.0000      -0.607310       -16.5257
  27   2.0000      -0.570396       -15.5213
  28   2.0000      -0.544699       -14.8220
  29   2.0000      -0.508431       -13.8351
  30   2.0000      -0.492890       -13.4122
  31   2.0000      -0.482363       -13.1258
  32   2.0000      -0.463387       -12.6094
  33   2.0000      -0.455949       -12.4070
  34   2.0000      -0.455414       -12.3924
  35   2.0000      -0.449861       -12.2413
  36   2.0000      -0.439449       -11.9580
  37   2.0000      -0.435872       -11.8607
  38   2.0000      -0.430251       -11.7077
  39   2.0000      -0.404113       -10.9965
  40   2.0000      -0.401403       -10.9227
  41   2.0000      -0.386593       -10.5197
  42   2.0000      -0.383261       -10.4291
  43   2.0000      -0.370768       -10.0891
  44   2.0000      -0.362295        -9.8586
  45   2.0000      -0.355094        -9.6626
  46   2.0000      -0.345666        -9.4061
  47   2.0000      -0.298681        -8.1275
  48   2.0000      -0.276906        -7.5350
  49   2.0000      -0.273075        -7.4307
  50   2.0000      -0.270488        -7.3604
  51   2.0000      -0.248472        -6.7613
  52   0.0000      -0.067215        -1.8290
  53   0.0000      -0.018707        -0.5090
  54   0.0000      -0.013281        -0.3614
  55   0.0000      -0.011571        -0.3149
  56   0.0000       0.000396         0.0108

MULLIKEN ATOMIC CHARGES
-----------------------
   0 C :   -1.220084
   1 C :    1.062490
   2 C :   -0.837225
   3 C :   -1.045278
   4 C :    1.662561
   5 C :   -0.975385
   6 H :    0.374780
   7 C :    1.813176
   8 C :   -0.936693
   9 C :   -0.867207
  10 C :   -0.244703
  11 C :   -0.859108
  12 C :   -0.956899
  13 H :    0.234362
  14 H :    0.527990
  15 H :    0.651599
  16 H :    0.497971
  17 H :    0.236204
  18 H :    0.334990
  19 H :    0.207853
  20 C :    0.956194
  21 O :   -0.920900
  22 C :   -0.650966
  23 H :    0.202124
  24 H :    0.295438
  25 H :    0.293836
  26 H :    0.162881
Sum of atomic charges:   -0.0000000

LOEWDIN ATOMIC CHARGES
----------------------
   0 C :    0.203257
   1 C :   -0.133035
   2 C :    0.217039
   3 C :    0.230962
   4 C :   -0.116274
   5 C :    0.227619
   6 H :   -0.161865
   7 C :   -0.127288
   8 C :    0.206358
   9 C :    0.193535
  10 C :    0.185260
  11 C :    0.193543
  12 C :    0.206367
  13 H :   -0.164693
  14 H :   -0.165589
  15 H :   -0.167251
  16 H :   -0.165566
  17 H :   -0.164594
  18 H :   -0.160526
  19 H :   -0.168735
  20 C :   -0.554670
  21 O :    0.487407
  22 C :    0.565091
  23 H :   -0.175029
  24 H :   -0.155155
  25 H :   -0.155514
  26 H :   -0.180654

  Mayer bond orders larger than 0.100000
B(  0-C ,  1-C ) :   0.5633 B(  0-C ,  2-C ) :  -0.3225 B(  0-C ,  3-C ) :   0.1705
B(  0-C ,  4-C ) :  -0.2009 B(  0-C ,  5-C ) :   1.7633 B(  0-C , 20-C ) :   0.1711
B(  0-C , 21-O ) :  -0.1135 B(  0-C , 26-H ) :   0.9950 B(  1-C ,  2-C ) :   0.6582
B(  1-C ,  3-C ) :   0.1205 B(  1-C ,  4-C ) :  -0.2248 B(  1-C ,  5-C ) :   0.1220
B(  1-C ,  7-C ) :   0.1778 B(  1-C , 14-H ) :   0.1278 B(  1-C , 15-H ) :  -0.1620
B(  1-C , 16-H ) :   0.1662 B(  1-C , 20-C ) :   0.6121 B(  1-C , 21-O ) :   0.4423
B(  1-C , 22-C ) :   0.1072 B(  2-C ,  3-C ) :   1.4095 B(  2-C ,  4-C ) :  -0.2571
B(  2-C , 19-H ) :   1.1626 B(  2-C , 20-C ) :   0.1357 B(  2-C , 26-H ) :   0.1231
B(  3-C ,  4-C ) :   0.2690 B(  3-C ,  5-C ) :  -0.3829 B(  3-C ,  8-C ) :  -0.1154
B(  3-C , 18-H ) :   0.8825 B(  3-C , 20-C ) :  -0.2102 B(  3-C , 26-H ) :   0.1098
B(  4-C ,  5-C ) :   0.5735 B(  4-C ,  8-C ) :   0.3781 B(  4-C , 10-C ) :   0.1746
B(  4-C , 12-C ) :   0.2653 B(  4-C , 13-H ) :  -0.1003 B(  4-C , 15-H ) :   0.1424
B(  4-C , 20-C ) :   0.1748 B(  5-C ,  6-H ) :   0.8048 B(  5-C ,  7-C ) :   0.1300
B(  5-C , 20-C ) :  -0.1294 B(  5-C , 21-O ) :  -0.1072 B(  6-H ,  7-C ) :  -0.1105
B(  7-C ,  8-C ) :   0.4364 B(  7-C ,  9-C ) :  -0.1298 B(  7-C , 10-C ) :  -0.1938
B(  7-C , 11-C ) :  -0.1085 B(  7-C , 12-C ) :   0.4002 B(  7-C , 14-H ) :   0.1113
B(  7-C , 16-H ) :   0.1250 B(  7-C , 18-H ) :  -0.1031 B(  8-C ,  9-C ) :   1.4191
B(  8-C , 12-C ) :  -0.4922 B(  8-C , 17-H ) :   1.1198 B(  9-C , 10-C ) :   1.3296
B(  9-C , 11-C ) :   0.1332 B(  9-C , 12-C ) :   0.1123 B(  9-C , 16-H ) :   0.5606
B(  9-C , 20-C ) :   0.1451 B( 10-C , 11-C ) :   1.3367 B( 10-C , 15-H ) :   0.3654
B( 11-C , 12-C ) :   1.4317 B( 11-C , 14-H ) :   0.5013 B( 11-C , 20-C ) :   0.1073
B( 12-C , 13-H ) :   1.1300 B( 13-H , 17-H ) :   0.1206 B( 13-H , 20-C ) :   0.1363
B( 14-H , 20-C ) :  -0.1220 B( 15-H , 20-C ) :   0.1392 B( 16-H , 20-C ) :  -0.1534
B( 17-H , 20-C ) :   0.1058 B( 19-H , 26-H ) :   0.1023 B( 20-C , 21-O ) :   0.6852
B( 20-C , 22-C ) :   0.9149 B( 20-C , 26-H ) :  -0.1150 B( 21-O , 26-H ) :   0.2214
B( 22-C , 23-H ) :   0.9363 B( 22-C , 24-H ) :   0.9051 B( 22-C , 25-H ) :   0.9153

Dispersion correction           -0.028917321
FINAL SINGLE POINT ENERGY      -615.480733699308

DIPOLE MOMENT
-------------

Method             : SCF
Type of density    : Electron Density
Multiplicity       :   1
Irrep              :   0
Energy             :  -615.4518163786052583 Eh
Relativity type    :
Basis              : AO
                                X                 Y                 Z
Electronic contribution:      0.465342028       2.930757875      -0.728415437
Nuclear contribution   :      0.745176245      -4.228888147       1.043265209
                        -----------------------------------------
Total Dipole Moment    :      1.210518273      -1.298130273       0.314849772
                        -----------------------------------------
Magnitude (a.u.)       :      1.802672203
Magnitude (Debye)      :      4.582028601

Rotational constants in cm-1:             0.074921             0.008604             0.007886
Rotational constants in MHz :          2246.083248           257.938515           236.409814

                             ****ORCA TERMINATED NORMALLY****
TOTAL RUN TIME: 0 days 0 hours 12 minutes 40 seconds 584 msec
