                         Program Version 6.0.0  -   RELEASE  -
|  1> !r2SCAN aug-cc-pVTZ d3 TightSCF SlowConv RIJCOSX defgrid2
|  2>
|  3> %pal
|  4> nprocs 4
|  5> end
|  6>
|  7> %scf
|  8> MaxIter 1500
|  9> end
| 10>
| 11> %maxcore 3000
| 12>
| 13> !CPCM
| 14> %cpcm smd true
| 15> SMDsolvent "MeCN"
| 16> surfacetype gepol_ses
| 17> rsolv 2.19
| 18> end
| 19>
| 20> * xyz 1 2
| 21> C           0.36827679708562      1.12909958561368      0.00001201858489
| 22> C           1.23021186730918     -0.05147463040440     -0.00001068145654
| 23> C           0.32335488869874     -1.13603513764026      0.00001262805170
| 24> N          -0.92044080134995     -0.70993319155687     -0.00001608440871
| 25> N          -0.85103182536878      0.66975840476644     -0.00001794399136
| 26> H          -1.72751346867464      1.19655640497152     -0.00003121087121
| 27> H           0.53889211956751     -2.20626533221750      0.00002437345705
| 28> H           2.32274963721698     -0.05868473826387     -0.00000548893473
| 29> H           0.61922738551534      2.19354113473125      0.00001908956891
| 30> *
| 31>
| 32>                          ****END OF INPUT****

CARTESIAN COORDINATES (ANGSTROEM)
---------------------------------
  C      0.368277    1.129100    0.000012
  C      1.230212   -0.051475   -0.000011
  C      0.323355   -1.136035    0.000013
  N     -0.920441   -0.709933   -0.000016
  N     -0.851032    0.669758   -0.000018
  H     -1.727513    1.196556   -0.000031
  H      0.538892   -2.206265    0.000024
  H      2.322750   -0.058685   -0.000005
  H      0.619227    2.193541    0.000019

 Total Charge           Charge          ....    1
 Multiplicity           Mult            ....    2
 Number of Electrons    NEL             ....   35
 Basis Dimension        Dim             ....  322

ORBITAL ENERGIES
----------------
                 SPIN UP ORBITALS
  NO   OCC          E(Eh)            E(eV)
   0   1.0000     -14.305514      -389.2728
   1   1.0000     -14.267526      -388.2391
   2   1.0000     -10.170236      -276.7462
   3   1.0000     -10.143001      -276.0051
   4   1.0000     -10.115038      -275.2442
   5   1.0000      -1.084238       -29.5036
   6   1.0000      -0.867302       -23.6005
   7   1.0000      -0.815932       -22.2026
   8   1.0000      -0.644017       -17.5246
   9   1.0000      -0.622476       -16.9384
  10   1.0000      -0.572099       -15.5676
  11   1.0000      -0.489226       -13.3125
  12   1.0000      -0.464905       -12.6507
  13   1.0000      -0.462099       -12.5744
  14   1.0000      -0.426291       -11.6000
  15   1.0000      -0.331146        -9.0110
  16   1.0000      -0.324507        -8.8303
  17   1.0000      -0.319212        -8.6862
  18   0.0000      -0.093100        -2.5334
  19   0.0000      -0.042188        -1.1480
  20   0.0000       0.008669         0.2359
  21   0.0000       0.027613         0.7514
  22   0.0000       0.030871         0.8400

                 SPIN DOWN ORBITALS
  NO   OCC          E(Eh)            E(eV)
   0   1.0000     -14.305557      -389.2740
   1   1.0000     -14.259251      -388.0139
   2   1.0000     -10.165827      -276.6262
   3   1.0000     -10.132558      -275.7209
   4   1.0000     -10.118030      -275.3256
   5   1.0000      -1.075046       -29.2535
   6   1.0000      -0.861252       -23.4359
   7   1.0000      -0.790879       -21.5209
   8   1.0000      -0.630824       -17.1656
   9   1.0000      -0.621169       -16.9029
  10   1.0000      -0.565872       -15.3982
  11   1.0000      -0.462621       -12.5885
  12   1.0000      -0.461989       -12.5714
  13   1.0000      -0.457572       -12.4512
  14   1.0000      -0.422397       -11.4940
  15   1.0000      -0.322815        -8.7842
  16   1.0000      -0.309030        -8.4091
  17   0.0000      -0.245896        -6.6912
  18   0.0000      -0.056029        -1.5246
  19   0.0000      -0.004088        -0.1113
  20   0.0000       0.011310         0.3077
  21   0.0000       0.029455         0.8015

MULLIKEN ATOMIC CHARGES AND SPIN POPULATIONS
--------------------------------------------
   0 C :   -0.308246    0.232300
   1 C :    0.102822    0.590255
   2 C :   -0.199188   -0.179821
   3 N :   -0.576932    0.328959
   4 N :    0.351378    0.005673
   5 H :    0.159556    0.000622
   6 H :    0.532103    0.005405
   7 H :    0.416355    0.009053
   8 H :    0.522152    0.007554
Sum of atomic charges         :    1.0000000

LOEWDIN ATOMIC CHARGES AND SPIN POPULATIONS
-------------------------------------------
   0 C :    0.279924    0.220077
   1 C :    0.365992    0.337583
   2 C :    0.081256    0.058079
   3 N :    0.375941    0.218271
   4 N :    0.429834    0.084646
   5 H :   -0.175682    0.002171
   6 H :   -0.150601   -0.014879
   7 H :   -0.117911    0.065959
   8 H :   -0.088754    0.028093

  Mayer bond orders larger than 0.100000
B(  0-C ,  1-C ) :   0.7692 B(  0-C ,  2-C ) :   0.1008 B(  0-C ,  4-N ) :   1.5390
B(  0-C ,  8-H ) :   0.6254 B(  1-C ,  2-C ) :   0.8612 B(  1-C ,  7-H ) :   0.8266
B(  2-C ,  3-N ) :   1.3748 B(  2-C ,  6-H ) :   0.6247 B(  3-N ,  4-N ) :   0.2350
B(  4-N ,  5-H ) :   1.0533

Dispersion correction           -0.001760064
FINAL SINGLE POINT ENERGY      -225.933480586338

DIPOLE MOMENT
-------------

Method             : SCF
Type of density    : Electron Density
Multiplicity       :   2
Irrep              :   0
Energy             :  -225.9317205223154303 Eh
Relativity type    :
Basis              : AO
                                X                 Y                 Z
Electronic contribution:     -0.747584615       0.387967907       0.001010878
Nuclear contribution   :      1.633121789       1.062560564       0.000022858
                        -----------------------------------------
Total Dipole Moment    :      0.885537174       1.450528472       0.001033736
                        -----------------------------------------
Magnitude (a.u.)       :      1.699473449
Magnitude (Debye)      :      4.319718212

Rotational constants in cm-1:             0.324934             0.302591             0.156683
Rotational constants in MHz :          9741.285807          9071.463346          4697.225081

                             ****ORCA TERMINATED NORMALLY****
TOTAL RUN TIME: 0 days 0 hours 1 minutes 32 seconds 789 msec
