                         Program Version 6.0.0  -   RELEASE  -
|  1> !PBE0 opt def2-SV(p) d3 TightSCF SlowConv RIJCOSX defgrid2
|  2>
|  3> %pal
|  4> nprocs 8
|  5> end
|  6>
|  7> %scf
|  8> MaxIter 1500
|  9> end
| 10>
| 11> %maxcore 3500
| 12>
| 13> !CPCM
| 14> %cpcm smd true
| 15> SMDsolvent "MeCN"
| 16> surfacetype gepol_ses
| 17> rsolv 2.19
| 18> end
| 19>
| 20> * xyz 1 2
| 21> C          -0.34270275561118      0.84711240516987     -0.00000461392678
| 22> C          -1.62114214149599      0.28310666085248      0.00005036258773
| 23> C          -1.76655845984461     -1.14534797316706      0.00015902441429
| 24> C          -0.64047775510568     -1.96124661886859      0.00020951229865
| 25> C           0.62711717490611     -1.39778631503778      0.00015498102973
| 26> C           0.79382657036915      0.03758278475822      0.00002872344792
| 27> C           2.09240943022637      0.64547974379403     -0.00003830185520
| 28> C           3.29430838690790     -0.01032166453559      0.00000281703843
| 29> C           4.60760132054960      0.65947907504340     -0.00004889316533
| 30> H           5.19809781171836      0.33504540056372     -0.87962451212125
| 31> H           5.19805381830583      0.33523637975460      0.87962749612829
| 32> H           4.53047503370681      1.75742824935659     -0.00016451192059
| 33> H           3.31318609028762     -1.10737767604801      0.00008430734855
| 34> H           2.10926613216247      1.74179274962735     -0.00012792598686
| 35> H           1.50121349078302     -2.05141955010833      0.00019397364887
| 36> H          -0.75915141594404     -3.04749102718735      0.00029347430122
| 37> H          -2.76100240605802     -1.59669233225998      0.00020413991672
| 38> O          -2.63949171539410      1.10870001849501     -0.00000818654028
| 39> C          -3.98618237230029      0.65565691136091      0.00006847700849
| 40> H          -4.60288239689184      1.56371892248403      0.00002378375357
| 41> H          -4.19996760244314      0.06636471722196      0.90775693220812
| 42> H          -4.20002007511970      0.06623874429631     -0.90752475328728
| 43> H          -0.25881356371464      1.93607439443420     -0.00008040632701
| 44> *
| 45>
| 46>                          ****END OF INPUT****
 Total Charge           Charge          ....    1
 Multiplicity           Mult            ....    2
 Number of Electrons    NEL             ....   79
Dispersion correction           -0.019943482
FINAL SINGLE POINT ENERGY      -462.402543944799
Dispersion correction             ... done (  0.1 sec)
Dispersion correction           -0.019983372
FINAL SINGLE POINT ENERGY      -462.402639918884
Dispersion correction             ... done (  0.1 sec)
Dispersion correction           -0.019995948
FINAL SINGLE POINT ENERGY      -462.402656034918
Dispersion correction             ... done (  0.1 sec)
Dispersion correction           -0.019996183
FINAL SINGLE POINT ENERGY      -462.402662679477
Dispersion correction             ... done (  0.1 sec)
Dispersion correction           -0.019994251
FINAL SINGLE POINT ENERGY      -462.402666647780
Dispersion correction             ... done (  0.1 sec)
                    ***********************HURRAY********************

CARTESIAN COORDINATES (ANGSTROEM)
---------------------------------
  C     -0.342693    0.863581    0.000173
  C     -1.616825    0.298728    0.000272
  C     -1.763276   -1.127031   -0.000432
  C     -0.637396   -1.943747    0.001116
  C      0.629864   -1.384058    0.002138
  C      0.793913    0.049579    0.000724
  C      2.089760    0.655916    0.000055
  C      3.284558   -0.014128    0.000225
  C      4.600767    0.645277   -0.000775
  H      5.184519    0.311380   -0.881290
  H      5.185703    0.310394    0.878545
  H      4.530608    1.744156   -0.000346
  H      3.295543   -1.110340    0.000952
  H      2.110822    1.751731   -0.001518
  H      1.503481   -2.037568    0.004054
  H     -0.758360   -3.029234    0.001533
  H     -2.757140   -1.578277   -0.003303
  O     -2.643612    1.123134    0.001095
  C     -3.978330    0.635373   -0.000100
  H     -4.620096    1.526706    0.004095
  H     -4.178085    0.035038    0.903002
  H     -4.178590    0.043190   -0.908424
  H     -0.247974    1.951533   -0.000555

 Multiplicity           Mult            ....    2
 Number of Electrons    NEL             ....   79
 Basis Dimension        Dim             ....  178

ORBITAL ENERGIES
----------------
                 SPIN UP ORBITALS
  NO   OCC          E(Eh)            E(eV)
   0   1.0000     -19.288321      -524.8619
   1   1.0000     -10.349649      -281.6283
   2   1.0000     -10.301993      -280.3315
   3   1.0000     -10.294178      -280.1188
   4   1.0000     -10.293580      -280.1025
   5   1.0000     -10.292322      -280.0683
   6   1.0000     -10.287746      -279.9438
   7   1.0000     -10.276525      -279.6385
   8   1.0000     -10.270332      -279.4699
   9   1.0000     -10.261532      -279.2305
  10   1.0000     -10.237909      -278.5877
  11   1.0000      -1.139460       -31.0063
  12   1.0000      -0.925036       -25.1715
  13   1.0000      -0.862709       -23.4755
  14   1.0000      -0.816287       -22.2123
  15   1.0000      -0.808177       -21.9916
  16   1.0000      -0.746360       -20.3095
  17   1.0000      -0.728618       -19.8267
  18   1.0000      -0.659414       -17.9436
  19   1.0000      -0.649581       -17.6760
  20   1.0000      -0.596988       -16.2449
  21   1.0000      -0.574897       -15.6437
  22   1.0000      -0.544102       -14.8058
  23   1.0000      -0.534488       -14.5442
  24   1.0000      -0.517814       -14.0904
  25   1.0000      -0.512671       -13.9505
  26   1.0000      -0.480020       -13.0620
  27   1.0000      -0.465809       -12.6753
  28   1.0000      -0.450476       -12.2581
  29   1.0000      -0.444692       -12.1007
  30   1.0000      -0.434760       -11.8304
  31   1.0000      -0.430458       -11.7133
  32   1.0000      -0.418249       -11.3811
  33   1.0000      -0.401874       -10.9355
  34   1.0000      -0.387248       -10.5376
  35   1.0000      -0.386883       -10.5276
  36   1.0000      -0.367340        -9.9958
  37   1.0000      -0.348762        -9.4903
  38   1.0000      -0.280735        -7.6392
  39   1.0000      -0.278121        -7.5681
  40   0.0000      -0.084845        -2.3088
  41   0.0000      -0.032789        -0.8922
  42   0.0000       0.020542         0.5590
  43   0.0000       0.073305         1.9947
  44   0.0000       0.081241         2.2107

                 SPIN DOWN ORBITALS
  NO   OCC          E(Eh)            E(eV)
   0   1.0000     -19.286276      -524.8063
   1   1.0000     -10.349183      -281.6156
   2   1.0000     -10.300823      -280.2997
   3   1.0000     -10.289746      -279.9982
   4   1.0000     -10.287845      -279.9465
   5   1.0000     -10.287740      -279.9436
   6   1.0000     -10.286348      -279.9058
   7   1.0000     -10.275884      -279.6210
   8   1.0000     -10.272800      -279.5371
   9   1.0000     -10.262370      -279.2533
  10   1.0000     -10.238088      -278.5925
  11   1.0000      -1.135736       -30.9050
  12   1.0000      -0.918186       -24.9851
  13   1.0000      -0.854621       -23.2554
  14   1.0000      -0.814599       -22.1664
  15   1.0000      -0.799048       -21.7432
  16   1.0000      -0.739601       -20.1256
  17   1.0000      -0.725260       -19.7353
  18   1.0000      -0.656154       -17.8549
  19   1.0000      -0.645097       -17.5540
  20   1.0000      -0.593936       -16.1618
  21   1.0000      -0.571985       -15.5645
  22   1.0000      -0.541720       -14.7409
  23   1.0000      -0.531132       -14.4528
  24   1.0000      -0.509860       -13.8740
  25   1.0000      -0.509243       -13.8572
  26   1.0000      -0.479200       -13.0397
  27   1.0000      -0.464973       -12.6526
  28   1.0000      -0.442780       -12.0487
  29   1.0000      -0.438792       -11.9401
  30   1.0000      -0.428152       -11.6506
  31   1.0000      -0.422772       -11.5042
  32   1.0000      -0.416598       -11.3362
  33   1.0000      -0.400535       -10.8991
  34   1.0000      -0.385439       -10.4883
  35   1.0000      -0.373229       -10.1561
  36   1.0000      -0.365406        -9.9432
  37   1.0000      -0.330142        -8.9836
  38   1.0000      -0.266889        -7.2624
  39   0.0000      -0.190946        -5.1959
  40   0.0000      -0.056807        -1.5458
  41   0.0000      -0.021288        -0.5793
  42   0.0000       0.040989         1.1154
  43   0.0000       0.074839         2.0365

MULLIKEN ATOMIC CHARGES AND SPIN POPULATIONS
--------------------------------------------
   0 C :   -0.204895   -0.063673
   1 C :    0.298369    0.023143
   2 C :   -0.118523    0.413345
   3 C :   -0.087583   -0.205081
   4 C :   -0.055502    0.409905
   5 C :    0.099455    0.063579
   6 C :   -0.114115    0.037217
   7 C :   -0.100100    0.288190
   8 C :   -0.329594   -0.025895
   9 H :    0.188947    0.020116
  10 H :    0.188774    0.020052
  11 H :    0.170030    0.000125
  12 H :    0.190518   -0.013668
  13 H :    0.159116   -0.002849
  14 H :    0.169437   -0.019454
  15 H :    0.161613    0.006882
  16 H :    0.176305   -0.019854
  17 O :   -0.283949    0.063902
  18 C :   -0.193679   -0.006772
  19 H :    0.183625   -0.000063
  20 H :    0.179838    0.004602
  21 H :    0.179807    0.004616
  22 H :    0.142106    0.001635
Sum of atomic charges         :    1.0000000

LOEWDIN ATOMIC CHARGES AND SPIN POPULATIONS
-------------------------------------------
   0 C :   -0.138795   -0.040518
   1 C :    0.080904    0.040711
   2 C :   -0.049304    0.329217
   3 C :   -0.106581   -0.109131
   4 C :   -0.020838    0.332082
   5 C :    0.011779    0.074688
   6 C :   -0.091127    0.050187
   7 C :   -0.005666    0.245078
   8 C :   -0.337108   -0.000803
   9 H :    0.168665    0.017438
  10 H :    0.168571    0.017384
  11 H :    0.145987    0.000080
  12 H :    0.159399   -0.007010
  13 H :    0.161982   -0.001576
  14 H :    0.166707   -0.009791
  15 H :    0.167176    0.003243
  16 H :    0.175360   -0.009788
  17 O :   -0.050845    0.064558
  18 C :   -0.198051   -0.002740
  19 H :    0.145549   -0.000050
  20 H :    0.139973    0.003062
  21 H :    0.140029    0.003077
  22 H :    0.166234    0.000603

  Mayer bond orders larger than 0.100000
B(  0-C ,  1-C ) :   1.3421 B(  0-C ,  5-C ) :   1.3264 B(  0-C , 22-H ) :   0.9657
B(  1-C ,  2-C ) :   1.1454 B(  1-C , 17-O ) :   1.2263 B(  2-C ,  3-C ) :   1.3694
B(  2-C , 16-H ) :   0.9431 B(  3-C ,  4-C ) :   1.4099 B(  3-C , 15-H ) :   0.9543
B(  4-C ,  5-C ) :   1.1391 B(  4-C , 14-H ) :   0.9374 B(  5-C ,  6-C ) :   1.2430
B(  6-C ,  7-C ) :   1.6044 B(  6-C , 13-H ) :   0.9298 B(  7-C ,  8-C ) :   1.1343
B(  7-C , 12-H ) :   0.8978 B(  8-C ,  9-H ) :   0.9047 B(  8-C , 10-H ) :   0.9048
B(  8-C , 11-H ) :   0.9444 B( 17-O , 18-C ) :   0.8882 B( 18-C , 19-H ) :   0.9479
B( 18-C , 20-H ) :   0.9365 B( 18-C , 21-H ) :   0.9366

Dispersion correction           -0.019993566
FINAL SINGLE POINT ENERGY      -462.402667449529

DIPOLE MOMENT
-------------

Method             : SCF
Type of density    : Electron Density
Multiplicity       :   2
Irrep              :   0
Energy             :  -462.3826738832688079 Eh
Relativity type    :
Basis              : AO
                                X                 Y                 Z
Electronic contribution:     -4.310794581      -0.752024436       0.005262997
Nuclear contribution   :      4.750293437      -0.213792472      -0.007224326
                        -----------------------------------------
Total Dipole Moment    :      0.439498855      -0.965816907      -0.001961329
                        -----------------------------------------
Magnitude (a.u.)       :      1.061115163
Magnitude (Debye)      :      2.697140399

Rotational constants in cm-1:             0.104172             0.017090             0.014764
Rotational constants in MHz :          3122.986002           512.353766           442.622704

                             ****ORCA TERMINATED NORMALLY****
TOTAL RUN TIME: 0 days 0 hours 9 minutes 39 seconds 855 msec
