                         Program Version 6.0.0  -   RELEASE  -
|  1> !B3LYP opt aug-cc-pVTZ d3 TightSCF SlowConv RIJCOSX defgrid2
|  2>
|  3> %pal
|  4> nprocs 8
|  5> end
|  6>
|  7> %scf
|  8> MaxIter 1500
|  9> end
| 10>
| 11> %maxcore 3500
| 12>
| 13> !CPCM
| 14> %cpcm smd true
| 15> SMDsolvent "MeCN"
| 16> surfacetype gepol_ses
| 17> rsolv 2.19
| 18> end
| 19>
| 20> * xyz -1 2
| 21>   C          -1.16908364743389     -1.25106043112589     -0.00046711885945
| 22>   C          -2.51558895662628     -0.94805778331016     -0.00048970260602
| 23>   C          -2.96951415995677      0.38786935411419     -0.00003437372110
| 24>   C          -1.99949719417351      1.41257476413842      0.00046952009611
| 25>   C          -0.64650719425624      1.13368035065037      0.00050575201273
| 26>   C          -0.16707249946699     -0.21739071251225      0.00002200149285
| 27>   C           1.18771930240505     -0.62830725495849      0.00000084051024
| 28>   O           1.69166054938407     -1.73447405522234     -0.00027921149921
| 29>   Cl          2.41415222066200      0.84117378911090      0.00088007792741
| 30>   H           0.08783721642061      1.94210741862158      0.00088650713536
| 31>   H          -2.32239478311716      2.46171169296406      0.00083360203305
| 32>   H          -4.03893270236722      0.62157662484535     -0.00006413910783
| 33>   H          -3.24555265578784     -1.76825494852385     -0.00088549117391
| 34>   H          -0.82790279568582     -2.29013880879190     -0.00083276424023
| 35> *
| 36>
| 37>                          ****END OF INPUT****
 Total Charge           Charge          ....   -1
 Multiplicity           Mult            ....    2
 Number of Electrons    NEL             ....   73
Dispersion correction           -0.028043367
FINAL SINGLE POINT ENERGY      -805.218008045750
Dispersion correction             ... done (  0.0 sec)
Dispersion correction           -0.028069164
FINAL SINGLE POINT ENERGY      -805.219036000367
Dispersion correction             ... done (  0.1 sec)
Dispersion correction           -0.028071964
FINAL SINGLE POINT ENERGY      -805.219147257749
Dispersion correction             ... done (  0.1 sec)
FINAL SINGLE POINT ENERGY      -805.219205070038
FINAL SINGLE POINT ENERGY      -805.219234607504
Dispersion correction             ... done (  0.0 sec)
Dispersion correction           -0.028042861
FINAL SINGLE POINT ENERGY      -805.219255213223
Dispersion correction             ... done (  0.0 sec)
Dispersion correction           -0.028039594
FINAL SINGLE POINT ENERGY      -805.219262425478
Dispersion correction             ... done (  0.1 sec)
                    ***********************HURRAY********************

CARTESIAN COORDINATES (ANGSTROEM)
---------------------------------
  C     -1.175317   -1.255038   -0.000425
  C     -2.517893   -0.945961   -0.000474
  C     -2.959906    0.386065   -0.000169
  C     -1.996312    1.407749    0.000240
  C     -0.646602    1.127370    0.000367
  C     -0.175597   -0.221835    0.000032
  C      1.167766   -0.634344    0.000139
  O      1.703056   -1.730627   -0.000426
  Cl     2.441010    0.870707    0.000951
  H      0.067887    1.935555    0.000908
  H     -2.315168    2.443201    0.001014
  H     -4.015548    0.619236    0.000010
  H     -3.242619   -1.751495   -0.000839
  H     -0.855434   -2.287571   -0.000784

 Multiplicity           Mult            ....    2
 Number of Electrons    NEL             ....   73
 Basis Dimension        Dim             ....  533

ORBITAL ENERGIES
----------------
                 SPIN UP ORBITALS
  NO   OCC          E(Eh)            E(eV)
   0   1.0000    -101.506785     -2762.1400
   1   1.0000     -19.096793      -519.6502
   2   1.0000     -10.247838      -278.8579
   3   1.0000     -10.167347      -276.6676
   4   1.0000     -10.157260      -276.3931
   5   1.0000     -10.156521      -276.3730
   6   1.0000     -10.155556      -276.3467
   7   1.0000     -10.154694      -276.3233
   8   1.0000     -10.149074      -276.1703
   9   1.0000      -9.411367      -256.0963
  10   1.0000      -7.172371      -195.1701
  11   1.0000      -7.166984      -195.0235
  12   1.0000      -7.166451      -195.0090
  13   1.0000      -1.020971       -27.7820
  14   1.0000      -0.838157       -22.8074
  15   1.0000      -0.779013       -21.1980
  16   1.0000      -0.738678       -20.1005
  17   1.0000      -0.729729       -19.8569
  18   1.0000      -0.628275       -17.0962
  19   1.0000      -0.582565       -15.8524
  20   1.0000      -0.534624       -14.5479
  21   1.0000      -0.484716       -13.1898
  22   1.0000      -0.445585       -12.1250
  23   1.0000      -0.439207       -11.9514
  24   1.0000      -0.413808       -11.2603
  25   1.0000      -0.405278       -11.0282
  26   1.0000      -0.403284       -10.9739
  27   1.0000      -0.389919       -10.6102
  28   1.0000      -0.349531        -9.5112
  29   1.0000      -0.343858        -9.3569
  30   1.0000      -0.318078        -8.6553
  31   1.0000      -0.285025        -7.7559
  32   1.0000      -0.282930        -7.6989
  33   1.0000      -0.253350        -6.8940
  34   1.0000      -0.251208        -6.8357
  35   1.0000      -0.249975        -6.8022
  36   1.0000      -0.111736        -3.0405
  37   0.0000      -0.003853        -0.1048
  38   0.0000       0.000646         0.0176
  39   0.0000       0.010973         0.2986
  40   0.0000       0.016957         0.4614
  41   0.0000       0.024567         0.6685

                 SPIN DOWN ORBITALS
  NO   OCC          E(Eh)            E(eV)
   0   1.0000    -101.506782     -2762.1400
   1   1.0000     -19.091367      -519.5025
   2   1.0000     -10.242870      -278.7227
   3   1.0000     -10.167145      -276.6621
   4   1.0000     -10.158479      -276.4263
   5   1.0000     -10.157662      -276.4040
   6   1.0000     -10.152791      -276.2715
   7   1.0000     -10.152060      -276.2516
   8   1.0000     -10.144948      -276.0581
   9   1.0000      -9.411364      -256.0962
  10   1.0000      -7.172606      -195.1765
  11   1.0000      -7.166723      -195.0164
  12   1.0000      -7.166458      -195.0092
  13   1.0000      -1.010717       -27.5030
  14   1.0000      -0.833969       -22.6935
  15   1.0000      -0.776369       -21.1261
  16   1.0000      -0.733613       -19.9626
  17   1.0000      -0.726283       -19.7632
  18   1.0000      -0.616725       -16.7819
  19   1.0000      -0.581049       -15.8112
  20   1.0000      -0.530837       -14.4448
  21   1.0000      -0.479684       -13.0529
  22   1.0000      -0.442852       -12.0506
  23   1.0000      -0.434198       -11.8151
  24   1.0000      -0.412090       -11.2135
  25   1.0000      -0.402417       -10.9503
  26   1.0000      -0.386666       -10.5217
  27   1.0000      -0.380007       -10.3405
  28   1.0000      -0.341467        -9.2918
  29   1.0000      -0.334604        -9.1050
  30   1.0000      -0.317081        -8.6282
  31   1.0000      -0.282379        -7.6839
  32   1.0000      -0.279133        -7.5956
  33   1.0000      -0.250410        -6.8140
  34   1.0000      -0.240263        -6.5379
  35   1.0000      -0.231043        -6.2870
  36   0.0000      -0.037924        -1.0320
  37   0.0000      -0.002947        -0.0802
  38   0.0000       0.005703         0.1552
  39   0.0000       0.011829         0.3219
  40   0.0000       0.016754         0.4559

MULLIKEN ATOMIC CHARGES AND SPIN POPULATIONS
--------------------------------------------
   0 C :   -0.883506    0.220807
   1 C :   -0.431228   -0.084022
   2 C :   -0.395025    0.297066
   3 C :   -0.652943   -0.080306
   4 C :   -0.906906    0.206719
   5 C :    1.618914    0.044902
   6 C :    0.406853    0.253627
   7 O :   -0.817650    0.199507
   8 Cl:   -0.506589    0.002463
   9 H :    0.134461   -0.018259
  10 H :    0.492629   -0.001704
  11 H :    0.420813   -0.012807
  12 H :    0.418942   -0.003923
  13 H :    0.101236   -0.024069
Sum of atomic charges         :   -1.0000000

LOEWDIN ATOMIC CHARGES AND SPIN POPULATIONS
-------------------------------------------
   0 C :    0.141912    0.096854
   1 C :    0.141382    0.031259
   2 C :    0.151532    0.132784
   3 C :    0.139141    0.032130
   4 C :    0.105036    0.093786
   5 C :   -0.326306    0.114244
   6 C :   -1.078952    0.213807
   7 O :    0.292076    0.195321
   8 Cl:    0.513984    0.022296
   9 H :   -0.279351    0.020064
  10 H :   -0.192539   -0.004836
  11 H :   -0.207083    0.035796
  12 H :   -0.191605   -0.005358
  13 H :   -0.209226    0.021852

  Mayer bond orders larger than 0.100000
B(  0-C ,  1-C ) :   1.2711 B(  0-C ,  4-C ) :  -0.2266 B(  0-C ,  5-C ) :   0.3176
B(  0-C ,  6-C ) :   0.2328 B(  0-C , 11-H ) :   0.1025 B(  0-C , 12-H ) :  -0.1452
B(  0-C , 13-H ) :   1.0914 B(  1-C ,  2-C ) :   1.0652 B(  1-C , 11-H ) :  -0.1074
B(  1-C , 12-H ) :   0.7178 B(  2-C ,  3-C ) :   1.1006 B(  2-C ,  5-C ) :  -0.1316
B(  2-C ,  6-C ) :   0.1332 B(  2-C , 11-H ) :   0.7486 B(  3-C ,  4-C ) :   1.2390
B(  3-C , 10-H ) :   0.6046 B(  3-C , 11-H ) :  -0.1012 B(  4-C ,  6-C ) :   0.4067
B(  4-C ,  9-H ) :   1.4114 B(  4-C , 10-H ) :  -0.1537 B(  4-C , 13-H ) :   0.1042
B(  5-C ,  6-C ) :   0.6909 B(  5-C ,  7-O ) :   0.2208 B(  5-C ,  9-H ) :  -0.1275
B(  5-C , 13-H ) :  -0.1206 B(  6-C ,  7-O ) :   0.8455 B(  6-C ,  8-Cl) :   0.6745
B(  7-O ,  8-Cl) :   0.1099 B(  7-O , 13-H ) :   0.1542

Dispersion correction           -0.028039818
FINAL SINGLE POINT ENERGY      -805.219264387130

DIPOLE MOMENT
-------------

Method             : SCF
Type of density    : Electron Density
Multiplicity       :   2
Irrep              :   0
Energy             :  -805.1912245690089094 Eh
Relativity type    :
Basis              : AO
                                X                 Y                 Z
Electronic contribution:     10.935023994       1.019937695       0.001889821
Nuclear contribution   :    -13.057793297      -0.354778221      -0.001558798
                        -----------------------------------------
Total Dipole Moment    :     -2.122769303       0.665159473       0.000331024
                        -----------------------------------------
Magnitude (a.u.)       :      2.224541919
Magnitude (Debye)      :      5.654336200

Rotational constants in cm-1:             0.099738             0.030190             0.023175
Rotational constants in MHz :          2990.058177           905.065806           694.765928

                             ****ORCA TERMINATED NORMALLY****
TOTAL RUN TIME: 0 days 0 hours 32 minutes 5 seconds 888 msec
