                         Program Version 6.0.0  -   RELEASE  -
|  1> !B3LYP freq aug-cc-pVTZ d3 TightSCF SlowConv RIJCOSX defgrid2
|  2>
|  3> %pal
|  4> nprocs 12
|  5>
|  6> end
|  7>
|  8> %scf
|  9> MaxIter 1500
| 10> end
| 11>
| 12> %maxcore 5000
| 13>
| 14> !CPCM
| 15> %cpcm smd true
| 16> SMDsolvent "MeCN"
| 17> surfacetype gepol_ses
| 18> rsolv 2.19
| 19> end
| 20>
| 21> * xyz -1 2
| 22> C           0.68328784252702     -1.22871239073802     -0.00202301979528
| 23> C          -0.68930655390779     -1.22438381933278     -0.00108966590940
| 24> C          -1.39082556437395      0.00344246711647      0.00042241561667
| 25> C          -0.66185742064073      1.21260769076775     -0.00016986181317
| 26> C           0.71371714594524      1.18642803836348     -0.00123631524335
| 27> C           1.42950310782110     -0.02947461622283     -0.00185512330177
| 28> C           2.89189435322828     -0.08237892377962     -0.00237201503270
| 29> O           3.50061740179733     -1.15708850910179     -0.00497714986034
| 30> C           3.66730235856799      1.21616958053221     -0.00261269858195
| 31> H           3.42950581459245      1.81667636529870      0.87752487107855
| 32> H           4.73218509897246      0.99613345792055     -0.00585911759448
| 33> H           3.42482025047176      1.81938223738908     -0.87951278203028
| 34> H           1.24651939828747      2.12637299395440     -0.00185936038465
| 35> H          -1.19914339002208      2.14728197631013      0.00042881610098
| 36> N          -2.77979190577170      0.01945920497461      0.00250312678167
| 37> O          -3.39487629668343      1.14030369216863      0.00284395707065
| 38> O          -3.42124570882378     -1.08653036403937      0.00186085662629
| 39> H          -1.24994180556142     -2.14547486748559     -0.00125009145097
| 40> H           1.21860137357379     -2.16766401409602     -0.00285234227647
| 41> *
| 42>
| 43>                          ****END OF INPUT****

CARTESIAN COORDINATES (ANGSTROEM)
---------------------------------
  C      0.683288   -1.228712   -0.002023
  C     -0.689307   -1.224384   -0.001090
  C     -1.390826    0.003442    0.000422
  C     -0.661857    1.212608   -0.000170
  C      0.713717    1.186428   -0.001236
  C      1.429503   -0.029475   -0.001855
  C      2.891894   -0.082379   -0.002372
  O      3.500617   -1.157089   -0.004977
  C      3.667302    1.216170   -0.002613
  H      3.429506    1.816676    0.877525
  H      4.732185    0.996133   -0.005859
  H      3.424820    1.819382   -0.879513
  H      1.246519    2.126373   -0.001859
  H     -1.199143    2.147282    0.000429
  N     -2.779792    0.019459    0.002503
  O     -3.394876    1.140304    0.002844
  O     -3.421246   -1.086530    0.001861
  H     -1.249942   -2.145475   -0.001250
  H      1.218601   -2.167664   -0.002852

 Total Charge           Charge          ....   -1
 Multiplicity           Mult            ....    2
 Number of Electrons    NEL             ....   87
 Basis Dimension        Dim             ....  713

ORBITAL ENERGIES
----------------
                 SPIN UP ORBITALS
  NO   OCC          E(Eh)            E(eV)
   0   1.0000     -19.094580      -519.5899
   1   1.0000     -19.093497      -519.5605
   2   1.0000     -19.093399      -519.5578
   3   1.0000     -14.466144      -393.6438
   4   1.0000     -10.241344      -278.6811
   5   1.0000     -10.202805      -277.6324
   6   1.0000     -10.170925      -276.7649
   7   1.0000     -10.167829      -276.6807
   8   1.0000     -10.166799      -276.6527
   9   1.0000     -10.166277      -276.6384
  10   1.0000     -10.166118      -276.6341
  11   1.0000     -10.153772      -276.2982
  12   1.0000      -1.133840       -30.8534
  13   1.0000      -1.016692       -27.6656
  14   1.0000      -0.964015       -26.2322
  15   1.0000      -0.858967       -23.3737
  16   1.0000      -0.789095       -21.4724
  17   1.0000      -0.746167       -20.3042
  18   1.0000      -0.728858       -19.8332
  19   1.0000      -0.681173       -18.5357
  20   1.0000      -0.597465       -16.2578
  21   1.0000      -0.582998       -15.8642
  22   1.0000      -0.541409       -14.7325
  23   1.0000      -0.506444       -13.7810
  24   1.0000      -0.478054       -13.0085
  25   1.0000      -0.473481       -12.8841
  26   1.0000      -0.463266       -12.6061
  27   1.0000      -0.436590       -11.8802
  28   1.0000      -0.434696       -11.8287
  29   1.0000      -0.428973       -11.6729
  30   1.0000      -0.415991       -11.3197
  31   1.0000      -0.399671       -10.8756
  32   1.0000      -0.392207       -10.6725
  33   1.0000      -0.367597       -10.0028
  34   1.0000      -0.364051        -9.9063
  35   1.0000      -0.341938        -9.3046
  36   1.0000      -0.329372        -8.9627
  37   1.0000      -0.276950        -7.5362
  38   1.0000      -0.268755        -7.3132
  39   1.0000      -0.258646        -7.0381
  40   1.0000      -0.256144        -6.9700
  41   1.0000      -0.241971        -6.5844
  42   1.0000      -0.238225        -6.4824
  43   1.0000      -0.137610        -3.7446
  44   0.0000      -0.036930        -1.0049
  45   0.0000      -0.005591        -0.1521
  46   0.0000      -0.001161        -0.0316
  47   0.0000       0.011969         0.3257
  48   0.0000       0.016892         0.4596

                 SPIN DOWN ORBITALS
  NO   OCC          E(Eh)            E(eV)
   0   1.0000     -19.092327      -519.5286
   1   1.0000     -19.088522      -519.4251
   2   1.0000     -19.088488      -519.4242
   3   1.0000     -14.460179      -393.4815
   4   1.0000     -10.240969      -278.6709
   5   1.0000     -10.202401      -277.6214
   6   1.0000     -10.171433      -276.7788
   7   1.0000     -10.168207      -276.6910
   8   1.0000     -10.165065      -276.6055
   9   1.0000     -10.164694      -276.5954
  10   1.0000     -10.164535      -276.5910
  11   1.0000     -10.153810      -276.2992
  12   1.0000      -1.123203       -30.5639
  13   1.0000      -1.012752       -27.5584
  14   1.0000      -0.954301       -25.9679
  15   1.0000      -0.855926       -23.2909
  16   1.0000      -0.782694       -21.2982
  17   1.0000      -0.743845       -20.2411
  18   1.0000      -0.725736       -19.7483
  19   1.0000      -0.674188       -18.3456
  20   1.0000      -0.596682       -16.2365
  21   1.0000      -0.578386       -15.7387
  22   1.0000      -0.539642       -14.6844
  23   1.0000      -0.500334       -13.6148
  24   1.0000      -0.469946       -12.7879
  25   1.0000      -0.460792       -12.5388
  26   1.0000      -0.448869       -12.2144
  27   1.0000      -0.434007       -11.8099
  28   1.0000      -0.432170       -11.7599
  29   1.0000      -0.424486       -11.5508
  30   1.0000      -0.415361       -11.3025
  31   1.0000      -0.398117       -10.8333
  32   1.0000      -0.391304       -10.6479
  33   1.0000      -0.362860        -9.8739
  34   1.0000      -0.360849        -9.8192
  35   1.0000      -0.332689        -9.0529
  36   1.0000      -0.328772        -8.9463
  37   1.0000      -0.264172        -7.1885
  38   1.0000      -0.254969        -6.9380
  39   1.0000      -0.242198        -6.5905
  40   1.0000      -0.239632        -6.5207
  41   1.0000      -0.238333        -6.4854
  42   1.0000      -0.233509        -6.3541
  43   0.0000      -0.072670        -1.9775
  44   0.0000      -0.011015        -0.2997
  45   0.0000      -0.002953        -0.0803
  46   0.0000      -0.001152        -0.0313
  47   0.0000       0.012022         0.3271

MULLIKEN ATOMIC CHARGES AND SPIN POPULATIONS
--------------------------------------------
   0 C :   -0.879404   -0.022394
   1 C :   -0.413008    0.097633
   2 C :    0.436329    0.015825
   3 C :   -0.661704    0.110296
   4 C :   -0.371404   -0.021301
   5 C :    1.449587    0.156494
   6 C :    0.568848    0.018565
   7 O :   -0.984849    0.083711
   8 C :   -0.609605   -0.004154
   9 H :    0.245879    0.002099
  10 H :    0.169250   -0.000773
  11 H :    0.244549    0.002091
  12 H :   -0.001344    0.002129
  13 H :    0.419852   -0.003724
  14 N :    0.582264    0.172103
  15 O :   -0.854403    0.197122
  16 O :   -0.852889    0.199264
  17 H :    0.472144   -0.004767
  18 H :    0.039906   -0.000221
Sum of atomic charges         :   -1.0000000

LOEWDIN ATOMIC CHARGES AND SPIN POPULATIONS
-------------------------------------------
   0 C :    0.177467    0.020526
   1 C :    0.183904    0.047033
   2 C :   -0.307289    0.058390
   3 C :    0.188559    0.052645
   4 C :    0.188145    0.023171
   5 C :   -0.154076    0.079737
   6 C :   -0.577936    0.052166
   7 O :    0.439134    0.071750
   8 C :    0.553325    0.006596
   9 H :   -0.168385    0.001524
  10 H :   -0.188365   -0.000074
  11 H :   -0.168639    0.001522
  12 H :   -0.191481   -0.001120
  13 H :   -0.216917    0.011762
  14 N :   -0.817815    0.203378
  15 O :    0.237764    0.179984
  16 O :    0.238000    0.181921
  17 H :   -0.217584    0.010408
  18 H :   -0.197811   -0.001319

  Mayer bond orders larger than 0.100000
B(  0-C ,  1-C ) :   1.4623 B(  0-C ,  2-C ) :  -0.3389 B(  0-C ,  4-C ) :  -0.4676
B(  0-C ,  5-C ) :   0.1371 B(  0-C ,  6-C ) :   0.3011 B(  0-C , 16-O ) :  -0.1643
B(  0-C , 18-H ) :   1.2744 B(  1-C ,  2-C ) :   0.8644 B(  1-C ,  3-C ) :   0.2210
B(  1-C ,  4-C ) :  -0.1793 B(  1-C ,  5-C ) :   0.2592 B(  1-C , 14-N ) :  -0.1490
B(  1-C , 16-O ) :  -0.1138 B(  1-C , 17-H ) :   0.4071 B(  2-C ,  3-C ) :   0.7590
B(  2-C ,  4-C ) :  -0.2819 B(  2-C , 14-N ) :   1.3326 B(  2-C , 15-O ) :   0.4619
B(  2-C , 16-O ) :   0.4851 B(  3-C ,  4-C ) :   1.0674 B(  3-C ,  5-C ) :   0.2814
B(  3-C , 13-H ) :   0.4724 B(  3-C , 14-N ) :  -0.2160 B(  4-C ,  5-C ) :   0.3034
B(  4-C ,  6-C ) :   0.1940 B(  4-C , 12-H ) :   1.4457 B(  4-C , 15-O ) :  -0.1524
B(  5-C ,  6-C ) :   0.2358 B(  5-C ,  7-O ) :   0.1987 B(  5-C , 12-H ) :  -0.2666
B(  5-C , 18-H ) :  -0.1731 B(  6-C ,  7-O ) :   0.7691 B(  6-C ,  8-C ) :   0.9337
B(  7-O , 18-H ) :   0.1659 B(  8-C ,  9-H ) :   0.9706 B(  8-C , 10-H ) :   0.9706
B(  8-C , 11-H ) :   0.9712 B( 14-N , 15-O ) :   0.7349 B( 14-N , 16-O ) :   0.7346
B( 15-O , 16-O ) :   0.1203

Dispersion correction           -0.035970651
FINAL SINGLE POINT ENERGY      -589.478182207266

DIPOLE MOMENT
-------------

Method             : SCF
Type of density    : Electron Density
Multiplicity       :   2
Irrep              :   0
Energy             :  -589.4422115567651872 Eh
Relativity type    :
Basis              : AO
                                X                 Y                 Z
Electronic contribution:     -7.253355025      -2.943855928       0.006871593
Nuclear contribution   :     10.840458354       4.296325044      -0.007969774
                        -----------------------------------------
Total Dipole Moment    :      3.587103330       1.352469117      -0.001098181
                        -----------------------------------------
Magnitude (a.u.)       :      3.833599381
Magnitude (Debye)      :      9.744235240

VIBRATIONAL FREQUENCIES
-----------------------

Scaling factor for frequencies =  1.000000000  (already applied!)

     0:       0.00 cm**-1
     1:       0.00 cm**-1
     2:       0.00 cm**-1
     3:       0.00 cm**-1
     4:       0.00 cm**-1
     5:       0.00 cm**-1
     6:      60.80 cm**-1
     7:      74.43 cm**-1
     8:     104.23 cm**-1
     9:     119.45 cm**-1
    10:     158.64 cm**-1
    11:     227.96 cm**-1
    12:     261.10 cm**-1
    13:     297.07 cm**-1
    14:     409.23 cm**-1
    15:     441.88 cm**-1
    16:     443.62 cm**-1
    17:     515.71 cm**-1
    18:     539.62 cm**-1
    19:     578.27 cm**-1
    20:     608.45 cm**-1
    21:     618.72 cm**-1
    22:     631.91 cm**-1
    23:     718.68 cm**-1
    24:     740.49 cm**-1
    25:     812.07 cm**-1
    26:     820.78 cm**-1
    27:     839.96 cm**-1
    28:     953.48 cm**-1
    29:     985.12 cm**-1
    30:     997.89 cm**-1
    31:    1003.99 cm**-1
    32:    1035.27 cm**-1
    33:    1057.84 cm**-1
    34:    1097.90 cm**-1
    35:    1117.45 cm**-1
    36:    1180.29 cm**-1
    37:    1286.24 cm**-1
    38:    1289.19 cm**-1
    39:    1312.96 cm**-1
    40:    1363.73 cm**-1
    41:    1370.73 cm**-1
    42:    1381.09 cm**-1
    43:    1449.24 cm**-1
    44:    1457.55 cm**-1
    45:    1458.03 cm**-1
    46:    1500.52 cm**-1
    47:    1547.67 cm**-1
    48:    1604.21 cm**-1
    49:    1645.89 cm**-1
    50:    3031.37 cm**-1
    51:    3084.46 cm**-1
    52:    3125.46 cm**-1
    53:    3185.56 cm**-1
    54:    3187.74 cm**-1
    55:    3217.73 cm**-1
    56:    3220.45 cm**-1

IR SPECTRUM
-----------

 Mode   freq       eps      Int      T**2         TX        TY        TZ
       cm**-1   L/(mol*cm) km/mol    a.u.
----------------------------------------------------------------------------
  6:     60.80   0.000717    3.62  0.003682  (-0.000466  0.000345  0.060674)
  7:     74.43   0.002245   11.35  0.009414  (-0.000678  0.000331  0.097025)
  8:    104.23   0.000246    1.24  0.000736  ( 0.000742  0.000902 -0.027109)
  9:    119.45   0.000037    0.19  0.000096  (-0.000194 -0.000265 -0.009805)
 10:    158.64   0.002439   12.32  0.004798  ( 0.049151  0.048802 -0.000113)
 11:    227.96   0.000547    2.77  0.000749  ( 0.000187 -0.000022 -0.027372)
 12:    261.10   0.001730    8.74  0.002068  (-0.041022  0.019620 -0.000068)
 13:    297.07   0.002451   12.39  0.002575  ( 0.049778 -0.009840 -0.000016)
 14:    409.23   0.000305    1.54  0.000233  (-0.001361 -0.000173  0.015194)
 15:    441.88   0.001661    8.39  0.001173  ( 0.020662  0.027310 -0.000483)
 16:    443.62   0.000036    0.18  0.000025  ( 0.001662  0.001982  0.004289)
 17:    515.71   0.009694   48.99  0.005866  (-0.075832  0.010749  0.000186)
 18:    539.62   0.004691   23.71  0.002713  (-0.045355 -0.025608  0.000086)
 19:    578.27   0.000418    2.11  0.000225  ( 0.001192 -0.000066  0.014966)
 20:    608.45   0.012104   61.17  0.006208  (-0.001344 -0.000002 -0.078780)
 21:    618.72   0.007060   35.68  0.003561  (-0.057359 -0.016457  0.000344)
 22:    631.91   0.000154    0.78  0.000076  ( 0.008681 -0.000948  0.000126)
 23:    718.68   0.017150   86.67  0.007447  ( 0.086048 -0.006542 -0.000080)
 24:    740.49   0.000002    0.01  0.000001  ( 0.000452 -0.000024 -0.000840)
 25:    812.07   0.027833  140.66  0.010696  ( 0.103341 -0.003996 -0.000555)
 26:    820.78   0.003201   16.18  0.001217  (-0.000206  0.000124 -0.034884)
 27:    839.96   0.018508   93.53  0.006876  ( 0.000294  0.000216 -0.082922)
 28:    953.48   0.083445  421.70  0.027311  ( 0.164112  0.019438 -0.000027)
 29:    985.12   0.000055    0.28  0.000017  ( 0.002314 -0.000116  0.003450)
 30:    997.89   0.002960   14.96  0.000926  ( 0.030414  0.000689 -0.000170)
 31:   1003.99   0.000044    0.22  0.000014  (-0.000227 -0.000406 -0.003681)
 32:   1035.27   0.000732    3.70  0.000221  (-0.001579  0.000149  0.014765)
 33:   1057.84   0.250228  1264.55  0.073818  ( 0.271184 -0.016636  0.000001)
 34:   1097.90   0.058458  295.42  0.016616  ( 0.128506  0.010109 -0.000091)
 35:   1117.45   0.010469   52.90  0.002924  (-0.018011  0.050982 -0.000047)
 36:   1180.29   0.000571    2.89  0.000151  ( 0.012158  0.001770 -0.000049)
 37:   1286.24   0.077139  389.83  0.018715  (-0.048984 -0.127734 -0.000002)
 38:   1289.19   0.290926  1470.22  0.070422  ( 0.265289 -0.006613 -0.000158)
 39:   1312.96   0.050724  256.34  0.012056  ( 0.090088 -0.062770 -0.000134)
 40:   1363.73   0.040095  202.62  0.009175  ( 0.081853  0.049748  0.000025)
 41:   1370.73   0.128573  649.75  0.029271  (-0.170670 -0.011945  0.000229)
 42:   1381.09   0.027254  137.73  0.006158  ( 0.045688 -0.063802  0.000035)
 43:   1449.24   0.011317   57.19  0.002437  ( 0.038112 -0.031375  0.000100)
 44:   1457.55   0.002710   13.69  0.000580  ( 0.001531  0.002072  0.023948)
 45:   1458.03   0.006600   33.35  0.001413  (-0.029272 -0.023526  0.001520)
 46:   1500.52   0.082978  419.34  0.017257  ( 0.130789 -0.012293 -0.000083)
 47:   1547.67   0.014500   73.28  0.002924  ( 0.051176 -0.017456 -0.000010)
 48:   1604.21   0.252408  1275.57  0.049101  (-0.211367  0.066516  0.000225)
 49:   1645.89   0.055405  279.99  0.010505  (-0.070978  0.073940  0.000047)
 50:   3031.37   0.002206   11.15  0.000227  (-0.011995 -0.009125 -0.000096)
 51:   3084.46   0.002792   14.11  0.000283  (-0.000019  0.000178 -0.016807)
 52:   3125.46   0.007141   36.09  0.000713  ( 0.026335 -0.004409  0.000040)
 53:   3185.56   0.001473    7.44  0.000144  ( 0.001879  0.011864 -0.000044)
 54:   3187.74   0.001437    7.26  0.000141  ( 0.004353  0.011032  0.000081)
 55:   3217.73   0.001086    5.49  0.000105  ( 0.002848 -0.009862 -0.000042)
 56:   3220.45   0.000734    3.71  0.000071  (-0.005861 -0.006064  0.000041)

--------------------------
THERMOCHEMISTRY AT 298.15K
--------------------------

Temperature         ...   298.15 K
Pressure            ...     1.00 atm
Total Mass          ...   165.15 AMU
Quasi RRHO          ...     True
Cut-Off Frequency   ...     1.00 cm^-1

Throughout the following assumptions are being made:
  (1) The electronic state is orbitally nondegenerate
      but the spin degeneracy is treated
  (2) There are no thermally accessible electronically excited states
  (3) Hindered rotations indicated by low frequency modes are not
      treated as such but are treated as vibrations and this may
      cause some error
  (4) All equations used are the standard statistical mechanics
      equations for an ideal gas
  (5) All vibrations are strictly harmonic

freq.      60.80  E(vib)   ...       0.51
freq.      74.43  E(vib)   ...       0.49
freq.     104.23  E(vib)   ...       0.46
freq.     119.45  E(vib)   ...       0.44
freq.     158.64  E(vib)   ...       0.39
freq.     227.96  E(vib)   ...       0.33
freq.     261.10  E(vib)   ...       0.30
freq.     297.07  E(vib)   ...       0.27
freq.     409.23  E(vib)   ...       0.19
freq.     441.88  E(vib)   ...       0.17
freq.     443.62  E(vib)   ...       0.17
freq.     515.71  E(vib)   ...       0.13
freq.     539.62  E(vib)   ...       0.12
freq.     578.27  E(vib)   ...       0.11
freq.     608.45  E(vib)   ...       0.10
freq.     618.72  E(vib)   ...       0.09
freq.     631.91  E(vib)   ...       0.09
freq.     718.68  E(vib)   ...       0.07
freq.     740.49  E(vib)   ...       0.06
freq.     812.07  E(vib)   ...       0.05
freq.     820.78  E(vib)   ...       0.05
freq.     839.96  E(vib)   ...       0.04
freq.     953.48  E(vib)   ...       0.03
freq.     985.12  E(vib)   ...       0.02
freq.     997.89  E(vib)   ...       0.02
freq.    1003.99  E(vib)   ...       0.02
freq.    1035.27  E(vib)   ...       0.02
freq.    1057.84  E(vib)   ...       0.02
freq.    1097.90  E(vib)   ...       0.02
freq.    1117.45  E(vib)   ...       0.01
freq.    1180.29  E(vib)   ...       0.01
freq.    1286.24  E(vib)   ...       0.01
freq.    1289.19  E(vib)   ...       0.01
freq.    1312.96  E(vib)   ...       0.01
freq.    1363.73  E(vib)   ...       0.01
freq.    1370.73  E(vib)   ...       0.01
freq.    1381.09  E(vib)   ...       0.01
freq.    1449.24  E(vib)   ...       0.00
freq.    1457.55  E(vib)   ...       0.00
freq.    1458.03  E(vib)   ...       0.00
freq.    1500.52  E(vib)   ...       0.00
freq.    1547.67  E(vib)   ...       0.00
freq.    1604.21  E(vib)   ...       0.00
freq.    1645.89  E(vib)   ...       0.00
freq.    3031.37  E(vib)   ...       0.00
freq.    3084.46  E(vib)   ...       0.00
freq.    3125.46  E(vib)   ...       0.00
freq.    3185.56  E(vib)   ...       0.00
freq.    3187.74  E(vib)   ...       0.00
freq.    3217.73  E(vib)   ...       0.00
freq.    3220.45  E(vib)   ...       0.00

------------
INNER ENERGY
------------

The inner energy is: U= E(el) + E(ZPE) + E(vib) + E(rot) + E(trans)
    E(el)   - is the total energy from the electronic structure calculation
              = E(kin-el) + E(nuc-el) + E(el-el) + E(nuc-nuc)
    E(ZPE)  - the the zero temperature vibrational energy from the frequency calculation
    E(vib)  - the the finite temperature correction to E(ZPE) due to population
              of excited vibrational states
    E(rot)  - is the rotational thermal energy
    E(trans)- is the translational thermal energy

Summary of contributions to the inner energy U:
Electronic energy                ...   -589.47818221 Eh
Zero point energy                ...      0.13708222 Eh      86.02 kcal/mol
Thermal vibrational correction   ...      0.00772873 Eh       4.85 kcal/mol
Thermal rotational correction    ...      0.00141627 Eh       0.89 kcal/mol
Thermal translational correction ...      0.00141627 Eh       0.89 kcal/mol
-----------------------------------------------------------------------
Total thermal energy                   -589.33053871 Eh

Summary of corrections to the electronic energy:
(perhaps to be used in another calculation)
Total thermal correction                  0.01056127 Eh       6.63 kcal/mol
Non-thermal (ZPE) correction              0.13708222 Eh      86.02 kcal/mol
-----------------------------------------------------------------------
Total correction                          0.14764350 Eh      92.65 kcal/mol

--------
ENTHALPY
--------

The enthalpy is H = U + kB*T
                kB is Boltzmann's constant
Total thermal energy              ...   -589.33053871 Eh
Thermal Enthalpy correction       ...      0.00094421 Eh       0.59 kcal/mol
-----------------------------------------------------------------------
Total Enthalpy                    ...   -589.32959450 Eh

Note: Only C1 symmetry has been detected, increase convergence thresholds
      if your molecule has a higher symmetry. Symmetry factor of 1.0 is
      used for the rotational entropy correction.

Note: Rotational entropy computed according to Herzberg
Infrared and Raman Spectra, Chapter V,1, Van Nostrand Reinhold, 1945
Point Group:  C1, Symmetry Number:   1
Rotational constants in cm-1:     0.094982     0.015869     0.013631

Vibrational entropy computed according to the QRRHO of S. Grimme
Chem.Eur.J. 2012 18 9955 using a reference frequency of 100.0 cm-1

-------
ENTROPY
-------

The entropy contributions are T*S = T*(S(el)+S(vib)+S(rot)+S(trans))
     S(el)   - electronic entropy
     S(vib)  - vibrational entropy
     S(rot)  - rotational entropy
     S(trans)- translational entropy
The entropies will be listed as multiplied by the temperature to get
units of energy

Electronic entropy                ...      0.00065446 Eh      0.41 kcal/mol
Vibrational entropy               ...      0.01331093 Eh      8.35 kcal/mol
Rotational entropy                ...      0.01460600 Eh      9.17 kcal/mol
Translational entropy             ...      0.01958175 Eh     12.29 kcal/mol
-----------------------------------------------------------------------
Final entropy term                ...      0.04815314 Eh     30.22 kcal/mol

In case the symmetry of your molecule has not been determined correctly
or in case you have a reason to use a different symmetry number we print
out the resulting rotational entropy values for sn=1,12:

 non-linear molecules -----------------------------------
|  sn= 1 | S(rot)=       0.01460600 Eh      9.17 kcal/mol|
|  sn= 2 | S(rot)=       0.01395155 Eh      8.75 kcal/mol|
|  sn= 3 | S(rot)=       0.01356872 Eh      8.51 kcal/mol|
|  sn= 4 | S(rot)=       0.01329709 Eh      8.34 kcal/mol|
|  sn= 5 | S(rot)=       0.01308640 Eh      8.21 kcal/mol|
|  sn= 6 | S(rot)=       0.01291426 Eh      8.10 kcal/mol|
|  sn= 7 | S(rot)=       0.01276871 Eh      8.01 kcal/mol|
|  sn= 8 | S(rot)=       0.01264264 Eh      7.93 kcal/mol|

                             ****ORCA TERMINATED NORMALLY****
TOTAL RUN TIME: 0 days 1 hours 0 minutes 32 seconds 402 msec
