                         Program Version 6.0.0  -   RELEASE  -
|  1> !PBE0 freq aug-cc-pVTZ d3 TightSCF SlowConv RIJCOSX defgrid2
|  2>
|  3> %pal
|  4> nprocs 12
|  5> end
|  6>
|  7> %scf
|  8> MaxIter 1500
|  9> end
| 10>
| 11> %maxcore 5000
| 12>
| 13> !CPCM
| 14> %cpcm smd true
| 15> SMDsolvent "MeCN"
| 16> surfacetype gepol_ses
| 17> rsolv 2.19
| 18> end
| 19>
| 20> * xyz 0 1
| 21> C           0.86553719344778     -1.19758508232208      0.00018061264088
| 22> C           1.22911851919186      0.14920842820099      0.00022498701608
| 23> C           0.20654395497221      1.09888688864602      0.00024652872468
| 24> C          -1.13824316879417      0.75004950140984      0.00014698282340
| 25> C          -1.48800828780161     -0.60734389277292     -0.00000197206900
| 26> C          -0.46938232447189     -1.55842953924984      0.00002692822824
| 27> H          -0.73365158270099     -2.61057419895656      0.00029881314710
| 28> C          -2.92200122936696     -1.02941159463177     -0.00025722078807
| 29> H          -3.01196028492132     -2.11581742861360      0.00011074863411
| 30> H          -3.45171913891079     -0.64683967321788     -0.87752508829882
| 31> H          -3.45225328552426     -0.64626650411591      0.87640330187839
| 32> C          -2.19284224915772      1.81102448108255      0.00007127993374
| 33> H          -2.84066522303426      1.73197240716418      0.87777603637284
| 34> H          -2.84224778400598      1.72999146014829     -0.87625294864241
| 35> H          -1.74867988122728      2.80657560109860     -0.00154339306014
| 36> H           0.47365519011534      2.15124878622487      0.00008198278339
| 37> C           2.61840912208763      0.60915636591787      0.00033473309388
| 38> C           3.71542210573957     -0.14659198479370     -0.00046894404798
| 39> H           3.68017483262831     -1.23059819173117     -0.00143795594710
| 40> H           4.69822785223949      0.30902292046654     -0.00010875175850
| 41> H           2.73791674010787      1.68996528412931      0.00093243447182
| 42> H           1.62388042938718     -1.97109643408359      0.00028090486345
| 43> *
| 44>
| 45>                          ****END OF INPUT****

CARTESIAN COORDINATES (ANGSTROEM)
---------------------------------
  C      0.865537   -1.197585    0.000181
  C      1.229119    0.149208    0.000225
  C      0.206544    1.098887    0.000247
  C     -1.138243    0.750050    0.000147
  C     -1.488008   -0.607344   -0.000002
  C     -0.469382   -1.558430    0.000027
  H     -0.733652   -2.610574    0.000299
  C     -2.922001   -1.029412   -0.000257
  H     -3.011960   -2.115817    0.000111
  H     -3.451719   -0.646840   -0.877525
  H     -3.452253   -0.646267    0.876403
  C     -2.192842    1.811024    0.000071
  H     -2.840665    1.731972    0.877776
  H     -2.842248    1.729991   -0.876253
  H     -1.748680    2.806576   -0.001543
  H      0.473655    2.151249    0.000082
  C      2.618409    0.609156    0.000335
  C      3.715422   -0.146592   -0.000469
  H      3.680175   -1.230598   -0.001438
  H      4.698228    0.309023   -0.000109
  H      2.737917    1.689965    0.000932
  H      1.623880   -1.971096    0.000281

 Total Charge           Charge          ....    0
 Multiplicity           Mult            ....    1
 Number of Electrons    NEL             ....   72
 Basis Dimension        Dim             ....  736

ORBITAL ENERGIES
----------------

  NO   OCC          E(Eh)            E(eV)
   0   2.0000     -10.234806      -278.5032
   1   2.0000     -10.234425      -278.4929
   2   2.0000     -10.233785      -278.4755
   3   2.0000     -10.230586      -278.3884
   4   2.0000     -10.223456      -278.1944
   5   2.0000     -10.222655      -278.1726
   6   2.0000     -10.222548      -278.1697
   7   2.0000     -10.216507      -278.0053
   8   2.0000     -10.211002      -277.8555
   9   2.0000     -10.210879      -277.8521
  10   2.0000      -0.894559       -24.3422
  11   2.0000      -0.828680       -22.5495
  12   2.0000      -0.789587       -21.4858
  13   2.0000      -0.770881       -20.9767
  14   2.0000      -0.718099       -19.5405
  15   2.0000      -0.689579       -18.7644
  16   2.0000      -0.621454       -16.9106
  17   2.0000      -0.615602       -16.7514
  18   2.0000      -0.557495       -15.1702
  19   2.0000      -0.513721       -13.9791
  20   2.0000      -0.495803       -13.4915
  21   2.0000      -0.462067       -12.5735
  22   2.0000      -0.446092       -12.1388
  23   2.0000      -0.441731       -12.0201
  24   2.0000      -0.426131       -11.5956
  25   2.0000      -0.418809       -11.3964
  26   2.0000      -0.404935       -11.0188
  27   2.0000      -0.391329       -10.6486
  28   2.0000      -0.389911       -10.6100
  29   2.0000      -0.381543       -10.3823
  30   2.0000      -0.369011       -10.0413
  31   2.0000      -0.344767        -9.3816
  32   2.0000      -0.339315        -9.2332
  33   2.0000      -0.308950        -8.4070
  34   2.0000      -0.261029        -7.1030
  35   2.0000      -0.232854        -6.3363
  36   0.0000      -0.038139        -1.0378
  37   0.0000      -0.006090        -0.1657
  38   0.0000       0.002215         0.0603
  39   0.0000       0.011354         0.3090
  40   0.0000       0.015241         0.4147

MULLIKEN ATOMIC CHARGES
-----------------------
   0 C :   -0.495866
   1 C :    1.669791
   2 C :   -1.106354
   3 C :    0.410401
   4 C :    0.593471
   5 C :   -1.320241
   6 H :    0.301019
   7 C :   -0.781801
   8 H :    0.140547
   9 H :    0.263978
  10 H :    0.264656
  11 C :   -0.775675
  12 H :    0.262992
  13 H :    0.262113
  14 H :    0.141466
  15 H :   -0.027882
  16 C :   -0.051691
  17 C :   -1.043264
  18 H :    0.337493
  19 H :    0.266359
  20 H :    0.272082
  21 H :    0.416407
Sum of atomic charges:    0.0000000

LOEWDIN ATOMIC CHARGES
----------------------
   0 C :    0.206649
   1 C :   -0.155720
   2 C :    0.221746
   3 C :   -0.107661
   4 C :   -0.112412
   5 C :    0.218235
   6 H :   -0.169659
   7 C :    0.580319
   8 H :   -0.169507
   9 H :   -0.157019
  10 H :   -0.157001
  11 C :    0.582251
  12 H :   -0.156732
  13 H :   -0.156893
  14 H :   -0.169067
  15 H :   -0.169157
  16 C :    0.162536
  17 C :    0.523676
  18 H :   -0.222855
  19 H :   -0.217916
  20 H :   -0.190490
  21 H :   -0.183325

  Mayer bond orders larger than 0.100000
B(  0-C ,  1-C ) :   0.4732 B(  0-C ,  2-C ) :  -0.7934 B(  0-C ,  3-C ) :  -0.1475
B(  0-C ,  5-C ) :   1.0052 B(  0-C , 11-C ) :   0.1052 B(  0-C , 16-C ) :   0.2504
B(  0-C , 21-H ) :   1.0599 B(  1-C ,  2-C ) :  -0.1317 B(  1-C ,  3-C ) :   0.2988
B(  1-C ,  4-C ) :  -0.3153 B(  1-C ,  7-C ) :   0.1263 B(  1-C , 15-H ) :  -0.2024
B(  1-C , 16-C ) :   0.1218 B(  1-C , 17-C ) :  -0.1931 B(  2-C ,  3-C ) :   0.7794
B(  2-C ,  4-C ) :  -0.2861 B(  2-C ,  5-C ) :   0.2233 B(  2-C , 11-C ) :  -0.2710
B(  2-C , 15-H ) :   1.8612 B(  2-C , 20-H ) :  -0.1434 B(  3-C ,  4-C ) :   1.4277
B(  3-C ,  5-C ) :   0.2492 B(  3-C ,  7-C ) :   0.1652 B(  3-C , 11-C ) :   0.1628
B(  3-C , 20-H ) :   0.1358 B(  3-C , 21-H ) :  -0.1875 B(  4-C ,  5-C ) :   0.8271
B(  4-C ,  6-H ) :   0.1769 B(  4-C ,  7-C ) :   0.3966 B(  4-C , 11-C ) :   0.4109
B(  4-C , 16-C ) :   0.1243 B(  5-C ,  6-H ) :   0.7880 B(  5-C ,  7-C ) :  -0.2113
B(  5-C , 17-C ) :  -0.1107 B(  5-C , 21-H ) :  -0.1281 B(  7-C ,  8-H ) :   1.0325
B(  7-C ,  9-H ) :   0.9609 B(  7-C , 10-H ) :   0.9578 B( 11-C , 12-H ) :   0.9593
B( 11-C , 13-H ) :   0.9589 B( 11-C , 14-H ) :   1.0175 B( 15-H , 16-C ) :  -0.1670
B( 15-H , 21-H ) :   0.1089 B( 16-C , 17-C ) :   1.1732 B( 16-C , 20-H ) :   0.9029
B( 17-C , 18-H ) :   0.9816 B( 17-C , 19-H ) :   0.9015 B( 17-C , 20-H ) :  -0.1531

Dispersion correction           -0.020289010
FINAL SINGLE POINT ENERGY      -387.967903911714

DIPOLE MOMENT
-------------

Method             : SCF
Type of density    : Electron Density
Multiplicity       :   1
Irrep              :   0
Energy             :  -387.9476149015591773 Eh
Relativity type    :
Basis              : AO
                                X                 Y                 Z
Electronic contribution:      3.984551190      -1.051030058       0.001410760
Nuclear contribution   :     -4.582846435       1.144544857      -0.001354038
                        -----------------------------------------
Total Dipole Moment    :     -0.598295245       0.093514799       0.000056721
                        -----------------------------------------
Magnitude (a.u.)       :      0.605559428
Magnitude (Debye)      :      1.539209744

VIBRATIONAL FREQUENCIES
-----------------------

Scaling factor for frequencies =  1.000000000  (already applied!)

     0:       0.00 cm**-1
     1:       0.00 cm**-1
     2:       0.00 cm**-1
     3:       0.00 cm**-1
     4:       0.00 cm**-1
     5:       0.00 cm**-1
     6:      29.86 cm**-1
     7:     116.71 cm**-1
     8:     128.47 cm**-1
     9:     154.74 cm**-1
    10:     184.17 cm**-1
    11:     207.72 cm**-1
    12:     289.96 cm**-1
    13:     309.26 cm**-1
    14:     369.65 cm**-1
    15:     423.14 cm**-1
    16:     447.68 cm**-1
    17:     520.96 cm**-1
    18:     531.77 cm**-1
    19:     564.16 cm**-1
    20:     686.54 cm**-1
    21:     721.97 cm**-1
    22:     757.05 cm**-1
    23:     763.60 cm**-1
    24:     847.32 cm**-1
    25:     916.98 cm**-1
    26:     939.61 cm**-1
    27:     940.93 cm**-1
    28:     983.86 cm**-1
    29:    1002.04 cm**-1
    30:    1004.27 cm**-1
    31:    1037.63 cm**-1
    32:    1038.05 cm**-1
    33:    1054.24 cm**-1
    34:    1066.48 cm**-1
    35:    1131.69 cm**-1
    36:    1184.31 cm**-1
    37:    1225.63 cm**-1
    38:    1272.98 cm**-1
    39:    1300.37 cm**-1
    40:    1315.98 cm**-1
    41:    1352.84 cm**-1
    42:    1391.41 cm**-1
    43:    1396.70 cm**-1
    44:    1417.21 cm**-1
    45:    1446.28 cm**-1
    46:    1449.37 cm**-1
    47:    1458.19 cm**-1
    48:    1462.74 cm**-1
    49:    1475.78 cm**-1
    50:    1538.85 cm**-1
    51:    1623.44 cm**-1
    52:    1667.42 cm**-1
    53:    1698.53 cm**-1
    54:    3035.29 cm**-1
    55:    3037.35 cm**-1
    56:    3087.93 cm**-1
    57:    3093.36 cm**-1
    58:    3130.33 cm**-1
    59:    3131.29 cm**-1
    60:    3145.72 cm**-1
    61:    3152.31 cm**-1
    62:    3166.18 cm**-1
    63:    3173.99 cm**-1
    64:    3194.32 cm**-1
    65:    3237.35 cm**-1

IR SPECTRUM
-----------

 Mode   freq       eps      Int      T**2         TX        TY        TZ
       cm**-1   L/(mol*cm) km/mol    a.u.
----------------------------------------------------------------------------
  6:     29.86   0.000021    0.10  0.000216  (-0.000145  0.000290  0.014698)
  7:    116.71   0.000013    0.06  0.000034  ( 0.000213  0.000230 -0.005798)
  8:    128.47   0.000504    2.55  0.001224  ( 0.000067 -0.000180 -0.034982)
  9:    154.74   0.000121    0.61  0.000243  (-0.000065  0.000383  0.015596)
 10:    184.17   0.000186    0.94  0.000316  (-0.013947  0.011015  0.000147)
 11:    207.72   0.001337    6.76  0.002009  (-0.000051  0.000217 -0.044821)
 12:    289.96   0.000254    1.28  0.000273  ( 0.016365 -0.002309  0.000008)
 13:    309.26   0.000057    0.29  0.000057  ( 0.000070  0.000117  0.007562)
 14:    369.65   0.000428    2.17  0.000362  (-0.014414 -0.012408 -0.000005)
 15:    423.14   0.000513    2.59  0.000379  ( 0.019399 -0.001475  0.000180)
 16:    447.68   0.003283   16.59  0.002288  (-0.000191 -0.000081  0.047838)
 17:    520.96   0.002343   11.84  0.001404  (-0.000325  0.000032  0.037464)
 18:    531.77   0.000626    3.16  0.000367  (-0.018305  0.005630 -0.000622)
 19:    564.16   0.000365    1.85  0.000202  (-0.012413 -0.006930 -0.000085)
 20:    686.54   0.000187    0.94  0.000085  (-0.000034 -0.000061  0.009215)
 21:    721.97   0.000270    1.37  0.000117  ( 0.010806 -0.000280  0.000110)
 22:    757.05   0.001107    5.60  0.000456  (-0.000121  0.000076  0.021363)
 23:    763.60   0.000104    0.53  0.000043  ( 0.006347  0.001534  0.000077)
 24:    847.32   0.008599   43.46  0.003167  (-0.000002  0.000036 -0.056277)
 25:    916.98   0.006274   31.71  0.002135  (-0.000104 -0.000038  0.046208)
 26:    939.61   0.000156    0.79  0.000052  ( 0.000775 -0.006308  0.003380)
 27:    940.93   0.015971   80.71  0.005297  (-0.000007  0.000358  0.072779)
 28:    983.86   0.000204    1.03  0.000065  (-0.000308  0.000170  0.008042)
 29:   1002.04   0.005102   25.78  0.001589  (-0.039791  0.002328  0.000398)
 30:   1004.27   0.002391   12.09  0.000743  (-0.025372  0.009965 -0.000196)
 31:   1037.63   0.008144   41.16  0.002449  ( 0.000164  0.000398 -0.049488)
 32:   1038.05   0.001542    7.79  0.000464  ( 0.000132  0.000173  0.021529)
 33:   1054.24   0.000634    3.20  0.000188  ( 0.011494  0.007427  0.000659)
 34:   1066.48   0.000001    0.00  0.000000  (-0.000356  0.000087  0.000143)
 35:   1131.69   0.001804    9.12  0.000497  (-0.012474 -0.018490 -0.000069)
 36:   1184.31   0.000655    3.31  0.000172  ( 0.010276 -0.008179  0.000014)
 37:   1225.63   0.000109    0.55  0.000028  ( 0.005242 -0.000589  0.000053)
 38:   1272.98   0.002462   12.44  0.000604  (-0.023717  0.006415 -0.000034)
 39:   1300.37   0.002611   13.19  0.000627  (-0.025008  0.001087  0.000012)
 40:   1315.98   0.000337    1.70  0.000080  ( 0.007433 -0.004969  0.000000)
 41:   1352.84   0.001687    8.53  0.000389  (-0.019711 -0.000854 -0.000024)
 42:   1391.41   0.000104    0.52  0.000023  (-0.004531  0.001620 -0.000268)
 43:   1396.70   0.000571    2.89  0.000128  ( 0.008653 -0.007264 -0.000057)
 44:   1417.21   0.000657    3.32  0.000145  ( 0.009346  0.007570 -0.000139)
 45:   1446.28   0.002811   14.21  0.000607  (-0.002635 -0.024486 -0.000241)
 46:   1449.37   0.000004    0.02  0.000001  (-0.000027  0.000598 -0.000760)
 47:   1458.19   0.006151   31.08  0.001316  ( 0.000190 -0.000387  0.036278)
 48:   1462.74   0.000681    3.44  0.000145  (-0.008154  0.008818  0.000976)
 49:   1475.78   0.004652   23.51  0.000984  (-0.013077 -0.028508  0.000133)
 50:   1538.85   0.010634   53.74  0.002156  ( 0.046218 -0.004510 -0.000004)
 51:   1623.44   0.002645   13.37  0.000509  (-0.018837  0.012397  0.000000)
 52:   1667.42   0.001869    9.44  0.000350  ( 0.000391 -0.018697 -0.000006)
 53:   1698.53   0.009622   48.63  0.001768  ( 0.041588 -0.006181 -0.000020)
 54:   3035.29   0.012954   65.47  0.001332  ( 0.036124 -0.005188  0.000063)
 55:   3037.35   0.002512   12.69  0.000258  (-0.003407  0.015699  0.000111)
 56:   3087.93   0.007977   40.31  0.000806  ( 0.000020  0.000006  0.028392)
 57:   3093.36   0.000344    1.74  0.000035  ( 0.000085 -0.000026  0.005888)
 58:   3130.33   0.009510   48.06  0.000948  ( 0.009526  0.029281  0.000070)
 59:   3131.29   0.001009    5.10  0.000101  (-0.004182  0.009113  0.000007)
 60:   3145.72   0.003564   18.01  0.000354  ( 0.003292  0.018512  0.000051)
 61:   3152.31   0.001255    6.34  0.000124  (-0.010065 -0.004791 -0.000045)
 62:   3166.18   0.006537   33.03  0.000644  (-0.006730 -0.024474 -0.000088)
 63:   3173.99   0.002755   13.92  0.000271  (-0.012488 -0.010720 -0.000060)
 64:   3194.32   0.003359   16.98  0.000328  ( 0.006373 -0.016958 -0.000021)
 65:   3237.35   0.002344   11.85  0.000226  ( 0.007873  0.012805 -0.000017)

--------------------------
THERMOCHEMISTRY AT 298.15K
--------------------------

Temperature         ...   298.15 K
Pressure            ...     1.00 atm
Total Mass          ...   132.21 AMU
Quasi RRHO          ...     True
Cut-Off Frequency   ...     1.00 cm^-1

Throughout the following assumptions are being made:
  (1) The electronic state is orbitally nondegenerate
  (2) There are no thermally accessible electronically excited states
  (3) Hindered rotations indicated by low frequency modes are not
      treated as such but are treated as vibrations and this may
      cause some error
  (4) All equations used are the standard statistical mechanics
      equations for an ideal gas
  (5) All vibrations are strictly harmonic

freq.      29.86  E(vib)   ...       0.55
freq.     116.71  E(vib)   ...       0.44
freq.     128.47  E(vib)   ...       0.43
freq.     154.74  E(vib)   ...       0.40
freq.     184.17  E(vib)   ...       0.37
freq.     207.72  E(vib)   ...       0.34
freq.     289.96  E(vib)   ...       0.27
freq.     309.26  E(vib)   ...       0.26
freq.     369.65  E(vib)   ...       0.21
freq.     423.14  E(vib)   ...       0.18
freq.     447.68  E(vib)   ...       0.17
freq.     520.96  E(vib)   ...       0.13
freq.     531.77  E(vib)   ...       0.13
freq.     564.16  E(vib)   ...       0.11
freq.     686.54  E(vib)   ...       0.07
freq.     721.97  E(vib)   ...       0.07
freq.     757.05  E(vib)   ...       0.06
freq.     763.60  E(vib)   ...       0.06
freq.     847.32  E(vib)   ...       0.04
freq.     916.98  E(vib)   ...       0.03
freq.     939.61  E(vib)   ...       0.03
freq.     940.93  E(vib)   ...       0.03
freq.     983.86  E(vib)   ...       0.02
freq.    1002.04  E(vib)   ...       0.02
freq.    1004.27  E(vib)   ...       0.02
freq.    1037.63  E(vib)   ...       0.02
freq.    1038.05  E(vib)   ...       0.02
freq.    1054.24  E(vib)   ...       0.02
freq.    1066.48  E(vib)   ...       0.02
freq.    1131.69  E(vib)   ...       0.01
freq.    1184.31  E(vib)   ...       0.01
freq.    1225.63  E(vib)   ...       0.01
freq.    1272.98  E(vib)   ...       0.01
freq.    1300.37  E(vib)   ...       0.01
freq.    1315.98  E(vib)   ...       0.01
freq.    1352.84  E(vib)   ...       0.01
freq.    1391.41  E(vib)   ...       0.00
freq.    1396.70  E(vib)   ...       0.00
freq.    1417.21  E(vib)   ...       0.00
freq.    1446.28  E(vib)   ...       0.00
freq.    1449.37  E(vib)   ...       0.00
freq.    1458.19  E(vib)   ...       0.00
freq.    1462.74  E(vib)   ...       0.00
freq.    1475.78  E(vib)   ...       0.00
freq.    1538.85  E(vib)   ...       0.00
freq.    1623.44  E(vib)   ...       0.00
freq.    1667.42  E(vib)   ...       0.00
freq.    1698.53  E(vib)   ...       0.00
freq.    3035.29  E(vib)   ...       0.00
freq.    3037.35  E(vib)   ...       0.00
freq.    3087.93  E(vib)   ...       0.00
freq.    3093.36  E(vib)   ...       0.00
freq.    3130.33  E(vib)   ...       0.00
freq.    3131.29  E(vib)   ...       0.00
freq.    3145.72  E(vib)   ...       0.00
freq.    3152.31  E(vib)   ...       0.00
freq.    3166.18  E(vib)   ...       0.00
freq.    3173.99  E(vib)   ...       0.00
freq.    3194.32  E(vib)   ...       0.00
freq.    3237.35  E(vib)   ...       0.00

------------
INNER ENERGY
------------

The inner energy is: U= E(el) + E(ZPE) + E(vib) + E(rot) + E(trans)
    E(el)   - is the total energy from the electronic structure calculation
              = E(kin-el) + E(nuc-el) + E(el-el) + E(nuc-nuc)
    E(ZPE)  - the the zero temperature vibrational energy from the frequency calculation
    E(vib)  - the the finite temperature correction to E(ZPE) due to population
              of excited vibrational states
    E(rot)  - is the rotational thermal energy
    E(trans)- is the translational thermal energy

Summary of contributions to the inner energy U:
Electronic energy                ...   -387.96790391 Eh
Zero point energy                ...      0.18779833 Eh     117.84 kcal/mol
Thermal vibrational correction   ...      0.00736703 Eh       4.62 kcal/mol
Thermal rotational correction    ...      0.00141627 Eh       0.89 kcal/mol
Thermal translational correction ...      0.00141627 Eh       0.89 kcal/mol
-----------------------------------------------------------------------
Total thermal energy                   -387.76990601 Eh

Summary of corrections to the electronic energy:
(perhaps to be used in another calculation)
Total thermal correction                  0.01019957 Eh       6.40 kcal/mol
Non-thermal (ZPE) correction              0.18779833 Eh     117.84 kcal/mol
-----------------------------------------------------------------------
Total correction                          0.19799790 Eh     124.25 kcal/mol

--------
ENTHALPY
--------

The enthalpy is H = U + kB*T
                kB is Boltzmann's constant
Total thermal energy              ...   -387.76990601 Eh
Thermal Enthalpy correction       ...      0.00094421 Eh       0.59 kcal/mol
-----------------------------------------------------------------------
Total Enthalpy                    ...   -387.76896180 Eh

Note: Only C1 symmetry has been detected, increase convergence thresholds
      if your molecule has a higher symmetry. Symmetry factor of 1.0 is
      used for the rotational entropy correction.

Note: Rotational entropy computed according to Herzberg
Infrared and Raman Spectra, Chapter V,1, Van Nostrand Reinhold, 1945
Point Group:  C1, Symmetry Number:   1
Rotational constants in cm-1:     0.098249     0.028894     0.022513

Vibrational entropy computed according to the QRRHO of S. Grimme
Chem.Eur.J. 2012 18 9955 using a reference frequency of 100.0 cm-1

-------
ENTROPY
-------

The entropy contributions are T*S = T*(S(el)+S(vib)+S(rot)+S(trans))
     S(el)   - electronic entropy
     S(vib)  - vibrational entropy
     S(rot)  - rotational entropy
     S(trans)- translational entropy
The entropies will be listed as multiplied by the temperature to get
units of energy

Electronic entropy                ...      0.00000000 Eh      0.00 kcal/mol
Vibrational entropy               ...      0.01274022 Eh      7.99 kcal/mol
Rotational entropy                ...      0.01407029 Eh      8.83 kcal/mol
Translational entropy             ...      0.01926665 Eh     12.09 kcal/mol
-----------------------------------------------------------------------
Final entropy term                ...      0.04607716 Eh     28.91 kcal/mol

In case the symmetry of your molecule has not been determined correctly
or in case you have a reason to use a different symmetry number we print
out the resulting rotational entropy values for sn=1,12:

 non-linear molecules -----------------------------------

                             ****ORCA TERMINATED NORMALLY****
TOTAL RUN TIME: 0 days 0 hours 49 minutes 37 seconds 612 msec
