                         Program Version 6.0.0  -   RELEASE  -
|  1> !r2SCAN freq aug-cc-pVTZ d3 TightSCF SlowConv RIJCOSX defgrid2
|  2>
|  3> %pal
|  4> nprocs 12
|  5> end
|  6>
|  7> %scf
|  8> MaxIter 1500
|  9> end
| 10>
| 11> %maxcore 5000
| 12>
| 13> !CPCM
| 14> %cpcm smd true
| 15> SMDsolvent "MeCN"
| 16> surfacetype gepol_ses
| 17> rsolv 2.19
| 18> end
| 19>
| 20> * xyz 1 2
| 21> C           2.41865188021588     -0.93158434534903      0.56435365652959
| 22> C           1.25873584058962     -0.38360098864689     -0.02733477412412
| 23> C           1.34934654274017      0.86825956109541     -0.67854029477772
| 24> C           2.55049053103354      1.54666133721470     -0.72378695347877
| 25> C           3.68012149991683      1.00241102009487     -0.11169460784484
| 26> C           3.60825514764218     -0.23498928228823      0.53469432712848
| 27> H           4.48697533707970     -0.64580982234139      1.01490917065172
| 28> H           4.62193265989574      1.53586611851090     -0.14778280705567
| 29> H           2.61807907221064      2.49211423453624     -1.24624786423873
| 30> H           0.48278931138413      1.26733120398344     -1.18939283078320
| 31> C          -0.00000709467052     -1.09973424287902      0.00006895165337
| 32> C          -0.00002342133702     -2.48696064830676      0.00008784085992
| 33> H          -0.92487192012170     -3.04657471355068     -0.02317216167649
| 34> H           0.92480439219329     -3.04660849627285      0.02339455504654
| 35> C          -1.25874866765269     -0.38359071245513      0.02744266300618
| 36> C          -2.41858360843436     -0.93148215605791     -0.56446956244280
| 37> C          -3.60816600903198     -0.23483373977614     -0.53498982251666
| 38> C          -3.68010371261944      1.00252482395253      0.11145857527041
| 39> C          -2.55057469119213      1.54666265079362      0.72384254849299
| 40> C          -1.34947243997808      0.86818980651903      0.67876767019636
| 41> H          -0.48307547805103      1.26724648745490      1.18992316327908
| 42> H          -2.61821437628918      2.49206854958815      1.24637890562885
| 43> H          -4.62189041823557      1.53603368626885      0.14738137262559
| 44> H          -4.48681085147328     -0.64558517261271     -1.01540136871834
| 45> H          -2.36261646956313     -1.87833864349570     -1.08509128055407
| 46> H           2.36274434374840     -1.87847051598024      1.08492502784230
| 47> *
| 48>
| 49>                          ****END OF INPUT****

CARTESIAN COORDINATES (ANGSTROEM)
---------------------------------
  C      2.418652   -0.931584    0.564354
  C      1.258736   -0.383601   -0.027335
  C      1.349347    0.868260   -0.678540
  C      2.550491    1.546661   -0.723787
  C      3.680121    1.002411   -0.111695
  C      3.608255   -0.234989    0.534694
  H      4.486975   -0.645810    1.014909
  H      4.621933    1.535866   -0.147783
  H      2.618079    2.492114   -1.246248
  H      0.482789    1.267331   -1.189393
  C     -0.000007   -1.099734    0.000069
  C     -0.000023   -2.486961    0.000088
  H     -0.924872   -3.046575   -0.023172
  H      0.924804   -3.046608    0.023395
  C     -1.258749   -0.383591    0.027443
  C     -2.418584   -0.931482   -0.564470
  C     -3.608166   -0.234834   -0.534990
  C     -3.680104    1.002525    0.111459
  C     -2.550575    1.546663    0.723843
  C     -1.349472    0.868190    0.678768
  H     -0.483075    1.267246    1.189923
  H     -2.618214    2.492069    1.246379
  H     -4.621890    1.536034    0.147381
  H     -4.486811   -0.645585   -1.015401
  H     -2.362616   -1.878339   -1.085091
  H      2.362744   -1.878471    1.084925

 Total Charge           Charge          ....    1
 Multiplicity           Mult            ....    2
 Number of Electrons    NEL             ....   95
 Basis Dimension        Dim             ....  920

ORBITAL ENERGIES
----------------
                 SPIN UP ORBITALS
  NO   OCC          E(Eh)            E(eV)
   0   1.0000     -10.114220      -275.2219
   1   1.0000     -10.100433      -274.8467
   2   1.0000     -10.091322      -274.5988
   3   1.0000     -10.091315      -274.5986
   4   1.0000     -10.072222      -274.0791
   5   1.0000     -10.072221      -274.0791
   6   1.0000     -10.071569      -274.0613
   7   1.0000     -10.071532      -274.0603
   8   1.0000     -10.070246      -274.0253
   9   1.0000     -10.070244      -274.0253
  10   1.0000     -10.060951      -273.7724
  11   1.0000     -10.060948      -273.7723
  12   1.0000     -10.060489      -273.7598
  13   1.0000     -10.060479      -273.7596
  14   1.0000      -0.876675       -23.8555
  15   1.0000      -0.851195       -23.1622
  16   1.0000      -0.812848       -22.1187
  17   1.0000      -0.747945       -20.3526
  18   1.0000      -0.746871       -20.3234
  19   1.0000      -0.738847       -20.1050
  20   1.0000      -0.723821       -19.6962
  21   1.0000      -0.641266       -17.4497
  22   1.0000      -0.607631       -16.5345
  23   1.0000      -0.597474       -16.2581
  24   1.0000      -0.591430       -16.0936
  25   1.0000      -0.549556       -14.9542
  26   1.0000      -0.519705       -14.1419
  27   1.0000      -0.498083       -13.5535
  28   1.0000      -0.463263       -12.6060
  29   1.0000      -0.462847       -12.5947
  30   1.0000      -0.444643       -12.0994
  31   1.0000      -0.435213       -11.8427
  32   1.0000      -0.433689       -11.8013
  33   1.0000      -0.414333       -11.2746
  34   1.0000      -0.413038       -11.2393
  35   1.0000      -0.412608       -11.2276
  36   1.0000      -0.383894       -10.4463
  37   1.0000      -0.381390       -10.3781
  38   1.0000      -0.375430       -10.2160
  39   1.0000      -0.349333        -9.5058
  40   1.0000      -0.339157        -9.2289
  41   1.0000      -0.336713        -9.1624
  42   1.0000      -0.329185        -8.9576
  43   1.0000      -0.322523        -8.7763
  44   1.0000      -0.271460        -7.3868
  45   1.0000      -0.268428        -7.3043
  46   1.0000      -0.262771        -7.1504
  47   1.0000      -0.252328        -6.8662
  48   0.0000      -0.123298        -3.3551
  49   0.0000      -0.074311        -2.0221
  50   0.0000      -0.063879        -1.7382
  51   0.0000      -0.051002        -1.3878
  52   0.0000      -0.009973        -0.2714

                 SPIN DOWN ORBITALS
  NO   OCC          E(Eh)            E(eV)
   0   1.0000     -10.114980      -275.2426
   1   1.0000     -10.090574      -274.5785
   2   1.0000     -10.090003      -274.5629
   3   1.0000     -10.089995      -274.5627
   4   1.0000     -10.070551      -274.0336
   5   1.0000     -10.070513      -274.0326
   6   1.0000     -10.070034      -274.0196
   7   1.0000     -10.070034      -274.0196
   8   1.0000     -10.069357      -274.0011
   9   1.0000     -10.069355      -274.0011
  10   1.0000     -10.061415      -273.7850
  11   1.0000     -10.061412      -273.7849
  12   1.0000     -10.061038      -273.7748
  13   1.0000     -10.061029      -273.7745
  14   1.0000      -0.872721       -23.7479
  15   1.0000      -0.848220       -23.0812
  16   1.0000      -0.806895       -21.9567
  17   1.0000      -0.745564       -20.2878
  18   1.0000      -0.743912       -20.2429
  19   1.0000      -0.736152       -20.0317
  20   1.0000      -0.709601       -19.3092
  21   1.0000      -0.633785       -17.2462
  22   1.0000      -0.605540       -16.4776
  23   1.0000      -0.593863       -16.1598
  24   1.0000      -0.589734       -16.0475
  25   1.0000      -0.546568       -14.8729
  26   1.0000      -0.519223       -14.1288
  27   1.0000      -0.495930       -13.4949
  28   1.0000      -0.461833       -12.5671
  29   1.0000      -0.460957       -12.5433
  30   1.0000      -0.443114       -12.0577
  31   1.0000      -0.432348       -11.7648
  32   1.0000      -0.431984       -11.7549
  33   1.0000      -0.413360       -11.2481
  34   1.0000      -0.412428       -11.2227
  35   1.0000      -0.410420       -11.1681
  36   1.0000      -0.381044       -10.3687
  37   1.0000      -0.374631       -10.1942
  38   1.0000      -0.368318       -10.0224
  39   1.0000      -0.348925        -9.4947
  40   1.0000      -0.338814        -9.2196
  41   1.0000      -0.330930        -9.0051
  42   1.0000      -0.328121        -8.9286
  43   1.0000      -0.309383        -8.4188
  44   1.0000      -0.266768        -7.2591
  45   1.0000      -0.260749        -7.0953
  46   1.0000      -0.257979        -7.0200
  47   0.0000      -0.211683        -5.7602
  48   0.0000      -0.090413        -2.4603
  49   0.0000      -0.065309        -1.7772
  50   0.0000      -0.059395        -1.6162
  51   0.0000      -0.046392        -1.2624

MULLIKEN ATOMIC CHARGES AND SPIN POPULATIONS
--------------------------------------------
   0 C :   -1.066446    0.036949
   1 C :    2.571430    0.148808
   2 C :   -0.605919    0.055232
   3 C :   -1.007690   -0.043146
   4 C :   -0.129732    0.136725
   5 C :   -0.813262   -0.039455
   6 H :    0.471755   -0.000556
   7 H :    0.543659    0.004393
   8 H :    0.471582   -0.000693
   9 H :    0.088733    0.001756
  10 C :    0.777219   -0.133107
  11 C :   -1.082579    0.451361
  12 H :    0.242071    0.037751
  13 H :    0.242111    0.037753
  14 C :    2.571895    0.148751
  15 C :   -1.066259    0.036947
  16 C :   -0.813207   -0.039445
  17 C :   -0.129675    0.136683
  18 C :   -1.007137   -0.043131
  19 C :   -0.607165    0.055258
  20 H :    0.088059    0.001748
  21 H :    0.471781   -0.000691
  22 H :    0.543436    0.004386
  23 H :    0.471743   -0.000569
  24 H :   -0.113159    0.003149
  25 H :   -0.113246    0.003140
Sum of atomic charges         :    1.0000000

LOEWDIN ATOMIC CHARGES AND SPIN POPULATIONS
-------------------------------------------
   0 C :    0.255651    0.033904
   1 C :   -0.092815    0.054998
   2 C :    0.244283    0.037938
   3 C :    0.251736    0.013328
   4 C :    0.249522    0.061972
   5 C :    0.249606    0.014629
   6 H :   -0.162050   -0.002049
   7 H :   -0.156996    0.015162
   8 H :   -0.161167   -0.002419
   9 H :   -0.160434    0.006459
  10 C :   -0.057435    0.096537
  11 C :    0.692929    0.297180
  12 H :   -0.167581    0.063478
  13 H :   -0.167587    0.063478
  14 C :   -0.092820    0.054977
  15 C :    0.255660    0.033900
  16 C :    0.249606    0.014623
  17 C :    0.249522    0.061957
  18 C :    0.251742    0.013325
  19 C :    0.244203    0.037932
  20 H :   -0.160487    0.006458
  21 H :   -0.161154   -0.002419
  22 H :   -0.156996    0.015159
  23 H :   -0.162049   -0.002050
  24 H :   -0.167441    0.005772
  25 H :   -0.167449    0.005771

  Mayer bond orders larger than 0.100000
B(  0-C ,  1-C ) :  -0.3526 B(  0-C ,  2-C ) :  -0.8274 B(  0-C ,  4-C ) :  -0.1369
B(  0-C ,  5-C ) :   1.2925 B(  0-C ,  6-H ) :  -0.1437 B(  0-C , 10-C ) :   0.3798
B(  0-C , 25-H ) :   1.8096 B(  1-C ,  2-C ) :   0.2773 B(  1-C ,  3-C ) :  -0.1528
B(  1-C ,  4-C ) :  -0.2322 B(  1-C ,  5-C ) :  -0.1083 B(  1-C , 10-C ) :  -0.2207
B(  1-C , 11-C ) :  -0.3724 B(  1-C , 14-C ) :  -0.2769 B(  1-C , 25-H ) :  -0.1584
B(  2-C ,  3-C ) :   1.2852 B(  2-C ,  9-H ) :   1.4261 B(  2-C , 10-C ) :   0.3300
B(  2-C , 11-C ) :   0.1154 B(  2-C , 19-C ) :   0.1319 B(  3-C ,  4-C ) :   1.2002
B(  3-C ,  5-C ) :   0.3436 B(  3-C ,  8-H ) :   0.4442 B(  3-C , 25-H ) :  -0.1261
B(  4-C ,  5-C ) :   1.0777 B(  4-C ,  7-H ) :   0.4947 B(  4-C , 10-C ) :   0.1968
B(  5-C ,  6-H ) :   0.5135 B(  5-C ,  9-H ) :  -0.1493 B(  5-C , 10-C ) :   0.1158
B(  9-H , 10-C ) :  -0.1026 B(  9-H , 25-H ) :   0.1682 B( 10-C , 11-C ) :   0.5433
B( 10-C , 14-C ) :  -0.2206 B( 10-C , 15-C ) :   0.3796 B( 10-C , 16-C ) :   0.1158
B( 10-C , 17-C ) :   0.1967 B( 10-C , 19-C ) :   0.3305 B( 10-C , 20-H ) :  -0.1022
B( 10-C , 24-H ) :  -0.2161 B( 10-C , 25-H ) :  -0.2160 B( 11-C , 12-H ) :   0.9635
B( 11-C , 13-H ) :   0.9634 B( 11-C , 14-C ) :  -0.3722 B( 11-C , 19-C ) :   0.1153
B( 14-C , 15-C ) :  -0.3519 B( 14-C , 16-C ) :  -0.1081 B( 14-C , 17-C ) :  -0.2318
B( 14-C , 18-C ) :  -0.1524 B( 14-C , 19-C ) :   0.2769 B( 14-C , 24-H ) :  -0.1584
B( 15-C , 16-C ) :   1.2923 B( 15-C , 17-C ) :  -0.1370 B( 15-C , 19-C ) :  -0.8276
B( 15-C , 23-H ) :  -0.1437 B( 15-C , 24-H ) :   1.8094 B( 16-C , 17-C ) :   1.0776
B( 16-C , 18-C ) :   0.3435 B( 16-C , 20-H ) :  -0.1493 B( 16-C , 23-H ) :   0.5135
B( 17-C , 18-C ) :   1.2000 B( 17-C , 22-H ) :   0.4950 B( 18-C , 19-C ) :   1.2852
B( 18-C , 21-H ) :   0.4440 B( 18-C , 24-H ) :  -0.1260 B( 19-C , 20-H ) :   1.4271
B( 20-H , 24-H ) :   0.1683

Dispersion correction           -0.010419532
FINAL SINGLE POINT ENERGY      -540.384335921499

DIPOLE MOMENT
-------------

Method             : SCF
Type of density    : Electron Density
Multiplicity       :   2
Irrep              :   0
Energy             :  -540.3739163898767401 Eh
Relativity type    :
Basis              : AO
                                X                 Y                 Z
Electronic contribution:     -0.000184280      -0.225695218      -0.000515700
Nuclear contribution   :     -0.000076465      -0.592983985      -0.000079286
                        -----------------------------------------
Total Dipole Moment    :     -0.000260745      -0.818679203      -0.000594986
                        -----------------------------------------
Magnitude (a.u.)       :      0.818679461
Magnitude (Debye)      :      2.080917816

VIBRATIONAL FREQUENCIES
-----------------------

Scaling factor for frequencies =  1.000000000  (already applied!)

     0:       0.00 cm**-1
     1:       0.00 cm**-1
     2:       0.00 cm**-1
     3:       0.00 cm**-1
     4:       0.00 cm**-1
     5:       0.00 cm**-1
     6:      44.80 cm**-1
     7:      67.79 cm**-1
     8:      79.36 cm**-1
     9:     119.33 cm**-1
    10:     210.55 cm**-1
    11:     251.86 cm**-1
    12:     302.67 cm**-1
    13:     341.96 cm**-1
    14:     391.91 cm**-1
    15:     402.81 cm**-1
    16:     418.52 cm**-1
    17:     424.73 cm**-1
    18:     486.76 cm**-1
    19:     560.92 cm**-1
    20:     591.25 cm**-1
    21:     609.17 cm**-1
    22:     612.98 cm**-1
    23:     617.31 cm**-1
    24:     678.19 cm**-1
    25:     683.27 cm**-1
    26:     734.39 cm**-1
    27:     790.84 cm**-1
    28:     797.25 cm**-1
    29:     836.56 cm**-1
    30:     837.27 cm**-1
    31:     846.30 cm**-1
    32:     933.21 cm**-1
    33:     958.10 cm**-1
    34:     960.46 cm**-1
    35:     998.08 cm**-1
    36:     998.23 cm**-1
    37:    1006.57 cm**-1
    38:    1011.69 cm**-1
    39:    1018.62 cm**-1
    40:    1019.80 cm**-1
    41:    1033.78 cm**-1
    42:    1037.35 cm**-1
    43:    1064.92 cm**-1
    44:    1109.82 cm**-1
    45:    1114.39 cm**-1
    46:    1163.37 cm**-1
    47:    1165.13 cm**-1
    48:    1169.91 cm**-1
    49:    1187.22 cm**-1
    50:    1198.87 cm**-1
    51:    1316.14 cm**-1
    52:    1319.68 cm**-1
    53:    1372.23 cm**-1
    54:    1377.40 cm**-1
    55:    1395.27 cm**-1
    56:    1396.35 cm**-1
    57:    1462.68 cm**-1
    58:    1463.91 cm**-1
    59:    1496.86 cm**-1
    60:    1504.29 cm**-1
    61:    1515.30 cm**-1
    62:    1564.20 cm**-1
    63:    1564.28 cm**-1
    64:    1591.82 cm**-1
    65:    1636.55 cm**-1
    66:    3162.45 cm**-1
    67:    3180.38 cm**-1
    68:    3180.66 cm**-1
    69:    3186.50 cm**-1
    70:    3187.66 cm**-1
    71:    3191.60 cm**-1
    72:    3192.77 cm**-1
    73:    3199.35 cm**-1
    74:    3200.11 cm**-1
    75:    3203.98 cm**-1
    76:    3205.20 cm**-1
    77:    3269.19 cm**-1

IR SPECTRUM
-----------

 Mode   freq       eps      Int      T**2         TX        TY        TZ
       cm**-1   L/(mol*cm) km/mol    a.u.
----------------------------------------------------------------------------
  6:     44.80   0.001462    7.39  0.010185  ( 0.100921 -0.000024 -0.000594)
  7:     67.79   0.000007    0.04  0.000033  ( 0.000052  0.005710  0.000058)
  8:     79.36   0.000031    0.16  0.000123  ( 0.000089 -0.011073 -0.000008)
  9:    119.33   0.002723   13.76  0.007122  ( 0.062164 -0.000033  0.057079)
 10:    210.55   0.000018    0.09  0.000026  (-0.000014 -0.005102  0.000005)
 11:    251.86   0.000530    2.68  0.000657  ( 0.018978  0.000025  0.017221)
 12:    302.67   0.000009    0.05  0.000009  ( 0.000018  0.003051  0.000011)
 13:    341.96   0.015767   79.68  0.014388  ( 0.119806 -0.000024 -0.005890)
 14:    391.91   0.011427   57.75  0.009099  ( 0.095352  0.000031 -0.002630)
 15:    402.81   0.000003    0.01  0.000002  (-0.000137  0.001458 -0.000024)
 16:    418.52   0.000417    2.11  0.000311  ( 0.000105  0.017629  0.000016)
 17:    424.73   0.009745   49.25  0.007160  ( 0.081163  0.000039  0.023932)
 18:    486.76   0.000155    0.79  0.000100  (-0.000068  0.009981 -0.000016)
 19:    560.92   0.003003   15.18  0.001671  ( 0.000027 -0.040873 -0.000008)
 20:    591.25   0.022116  111.76  0.011673  (-0.106382 -0.000007  0.018853)
 21:    609.17   0.001326    6.70  0.000679  (-0.025666 -0.000006 -0.004546)
 22:    612.98   0.000006    0.03  0.000003  ( 0.000125  0.001791 -0.000013)
 23:    617.31   0.009406   47.53  0.004755  (-0.067114 -0.000006  0.015830)
 24:    678.19   0.007119   35.98  0.003276  (-0.000042  0.057235  0.000006)
 25:    683.27   0.029200  147.56  0.013336  ( 0.026349  0.000025 -0.112436)
 26:    734.39   0.000021    0.11  0.000009  (-0.000009 -0.003006  0.000001)
 27:    790.84   0.004762   24.07  0.001879  ( 0.000212  0.043349 -0.000172)
 28:    797.25   0.027164  137.28  0.010633  (-0.072255  0.000121  0.073567)
 29:    836.56   0.000444    2.24  0.000166  (-0.002890  0.012537  0.000168)
 30:    837.27   0.009661   48.82  0.003601  (-0.059884 -0.000579  0.003784)
 31:    846.30   0.013115   66.28  0.004836  (-0.069525 -0.000001  0.001482)
 32:    933.21   0.016131   81.52  0.005394  ( 0.053351  0.000002 -0.050474)
 33:    958.10   0.000319    1.61  0.000104  (-0.000073  0.010194 -0.000109)
 34:    960.46   0.000164    0.83  0.000053  (-0.003456  0.000200  0.006417)
 35:    998.08   0.000457    2.31  0.000143  (-0.009151  0.007654  0.000775)
 36:    998.23   0.005576   28.18  0.001743  ( 0.041575  0.001724 -0.003412)
 37:   1006.57   0.033270  168.13  0.010315  ( 0.101554  0.000015  0.001180)
 38:   1011.69   0.000351    1.77  0.000108  ( 0.000075 -0.010407  0.000001)
 39:   1018.62   0.000229    1.16  0.000070  (-0.000115  0.008373 -0.000086)
 40:   1019.80   0.000161    0.82  0.000049  ( 0.005593  0.000086  0.004251)
 41:   1033.78   0.004500   22.74  0.001359  ( 0.036858 -0.000004 -0.000157)
 42:   1037.35   0.000000    0.00  0.000000  (-0.000037  0.000049 -0.000016)
 43:   1064.92   0.026592  134.39  0.007793  (-0.088025 -0.000003  0.006644)
 44:   1109.82   0.001400    7.08  0.000394  ( 0.000011 -0.019843 -0.000015)
 45:   1114.39   0.012407   62.70  0.003474  ( 0.055047  0.000008  0.021076)
 46:   1163.37   0.002324   11.75  0.000623  (-0.000002 -0.024969 -0.000004)
 47:   1165.13   0.000135    0.68  0.000036  ( 0.002242 -0.000058  0.005572)
 48:   1169.91   0.005800   29.31  0.001547  ( 0.000109  0.039333  0.000019)
 49:   1187.22   0.071107  359.35  0.018691  (-0.136629  0.000016  0.004809)
 50:   1198.87   0.000001    0.00  0.000000  (-0.000031 -0.000366  0.000029)
 51:   1316.14   0.014699   74.28  0.003485  (-0.058702 -0.000030  0.006258)
 52:   1319.68   0.001061    5.36  0.000251  (-0.000071  0.015841  0.000033)
 53:   1372.23   0.000093    0.47  0.000021  (-0.000020 -0.004592 -0.000008)
 54:   1377.40   0.027606  139.51  0.006254  (-0.078061  0.000008 -0.012683)
 55:   1395.27   0.077555  391.93  0.017346  ( 0.130370 -0.000162 -0.018691)
 56:   1396.35   0.011548   58.36  0.002581  ( 0.000432  0.050800 -0.000071)
 57:   1462.68   0.002077   10.49  0.000443  (-0.000041  0.021049 -0.000016)
 58:   1463.91   0.017190   86.87  0.003664  ( 0.055023  0.000004  0.025236)
 59:   1496.86   0.006380   32.24  0.001330  (-0.000061  0.036469  0.000015)
 60:   1504.29   0.055606  281.01  0.011536  ( 0.107400  0.000027  0.000840)
 61:   1515.30   0.000007    0.04  0.000001  ( 0.000031 -0.001210 -0.000002)
 62:   1564.20   0.000113    0.57  0.000023  ( 0.002856 -0.003754  0.000512)
 63:   1564.28   0.001136    5.74  0.000227  (-0.014778 -0.000727 -0.002792)
 64:   1591.82   0.423408  2139.73  0.083006  (-0.288005 -0.000010  0.007700)
 65:   1636.55   0.010377   52.44  0.001979  (-0.000021  0.044482 -0.000008)
 66:   3162.45   0.000111    0.56  0.000011  (-0.000000  0.003313 -0.000000)
 67:   3180.38   0.000446    2.25  0.000044  ( 0.006585  0.000001 -0.000625)
 68:   3180.66   0.000002    0.01  0.000000  ( 0.000022 -0.000402 -0.000004)
 69:   3186.50   0.000319    1.61  0.000031  (-0.005375 -0.000066 -0.001529)
 70:   3187.66   0.000611    3.09  0.000060  ( 0.000054 -0.007737  0.000026)
 71:   3191.60   0.000324    1.64  0.000032  (-0.005475  0.000077 -0.001299)
 72:   3192.77   0.001095    5.54  0.000107  ( 0.000077  0.010346  0.000000)
 73:   3199.35   0.001388    7.02  0.000135  ( 0.002524  0.000117  0.011359)
 74:   3200.11   0.001687    8.52  0.000164  (-0.000027  0.012825 -0.000088)
 75:   3203.98   0.025327  127.99  0.002467  ( 0.049664 -0.000006 -0.000575)
 76:   3205.20   0.000658    3.32  0.000064  (-0.000023 -0.008003  0.000012)
 77:   3269.19   0.000050    0.25  0.000005  ( 0.002081  0.000000 -0.000657)

--------------------------
THERMOCHEMISTRY AT 298.15K
--------------------------

Temperature         ...   298.15 K
Pressure            ...     1.00 atm
Total Mass          ...   180.25 AMU
Quasi RRHO          ...     True
Cut-Off Frequency   ...     1.00 cm^-1

Throughout the following assumptions are being made:
  (1) The electronic state is orbitally nondegenerate
      but the spin degeneracy is treated
  (2) There are no thermally accessible electronically excited states
  (3) Hindered rotations indicated by low frequency modes are not
      treated as such but are treated as vibrations and this may
      cause some error
  (4) All equations used are the standard statistical mechanics
      equations for an ideal gas
  (5) All vibrations are strictly harmonic

freq.      44.80  E(vib)   ...       0.53
freq.      67.79  E(vib)   ...       0.50
freq.      79.36  E(vib)   ...       0.49
freq.     119.33  E(vib)   ...       0.44
freq.     210.55  E(vib)   ...       0.34
freq.     251.86  E(vib)   ...       0.30
freq.     302.67  E(vib)   ...       0.26
freq.     341.96  E(vib)   ...       0.23
freq.     391.91  E(vib)   ...       0.20
freq.     402.81  E(vib)   ...       0.19
freq.     418.52  E(vib)   ...       0.18
freq.     424.73  E(vib)   ...       0.18
freq.     486.76  E(vib)   ...       0.15
freq.     560.92  E(vib)   ...       0.11
freq.     591.25  E(vib)   ...       0.10
freq.     609.17  E(vib)   ...       0.10
freq.     612.98  E(vib)   ...       0.10
freq.     617.31  E(vib)   ...       0.09
freq.     678.19  E(vib)   ...       0.08
freq.     683.27  E(vib)   ...       0.08
freq.     734.39  E(vib)   ...       0.06
freq.     790.84  E(vib)   ...       0.05
freq.     797.25  E(vib)   ...       0.05
freq.     836.56  E(vib)   ...       0.04
freq.     837.27  E(vib)   ...       0.04
freq.     846.30  E(vib)   ...       0.04
freq.     933.21  E(vib)   ...       0.03
freq.     958.10  E(vib)   ...       0.03
freq.     960.46  E(vib)   ...       0.03
freq.     998.08  E(vib)   ...       0.02
freq.     998.23  E(vib)   ...       0.02
freq.    1006.57  E(vib)   ...       0.02
freq.    1011.69  E(vib)   ...       0.02
freq.    1018.62  E(vib)   ...       0.02
freq.    1019.80  E(vib)   ...       0.02
freq.    1033.78  E(vib)   ...       0.02
freq.    1037.35  E(vib)   ...       0.02
freq.    1064.92  E(vib)   ...       0.02
freq.    1109.82  E(vib)   ...       0.02
freq.    1114.39  E(vib)   ...       0.01
freq.    1163.37  E(vib)   ...       0.01
freq.    1165.13  E(vib)   ...       0.01
freq.    1169.91  E(vib)   ...       0.01
freq.    1187.22  E(vib)   ...       0.01
freq.    1198.87  E(vib)   ...       0.01
freq.    1316.14  E(vib)   ...       0.01
freq.    1319.68  E(vib)   ...       0.01
freq.    1372.23  E(vib)   ...       0.01
freq.    1377.40  E(vib)   ...       0.01
freq.    1395.27  E(vib)   ...       0.00
freq.    1396.35  E(vib)   ...       0.00
freq.    1462.68  E(vib)   ...       0.00
freq.    1463.91  E(vib)   ...       0.00
freq.    1496.86  E(vib)   ...       0.00
freq.    1504.29  E(vib)   ...       0.00
freq.    1515.30  E(vib)   ...       0.00
freq.    1564.20  E(vib)   ...       0.00
freq.    1564.28  E(vib)   ...       0.00
freq.    1591.82  E(vib)   ...       0.00
freq.    1636.55  E(vib)   ...       0.00
freq.    3162.45  E(vib)   ...       0.00
freq.    3180.38  E(vib)   ...       0.00
freq.    3180.66  E(vib)   ...       0.00
freq.    3186.50  E(vib)   ...       0.00
freq.    3187.66  E(vib)   ...       0.00
freq.    3191.60  E(vib)   ...       0.00
freq.    3192.77  E(vib)   ...       0.00
freq.    3199.35  E(vib)   ...       0.00
freq.    3200.11  E(vib)   ...       0.00
freq.    3203.98  E(vib)   ...       0.00
freq.    3205.20  E(vib)   ...       0.00
freq.    3269.19  E(vib)   ...       0.00

------------
INNER ENERGY
------------

The inner energy is: U= E(el) + E(ZPE) + E(vib) + E(rot) + E(trans)
    E(el)   - is the total energy from the electronic structure calculation
              = E(kin-el) + E(nuc-el) + E(el-el) + E(nuc-nuc)
    E(ZPE)  - the the zero temperature vibrational energy from the frequency calculation
    E(vib)  - the the finite temperature correction to E(ZPE) due to population
              of excited vibrational states
    E(rot)  - is the rotational thermal energy
    E(trans)- is the translational thermal energy

Summary of contributions to the inner energy U:
Electronic energy                ...   -540.38433592 Eh
Zero point energy                ...      0.21238223 Eh     133.27 kcal/mol
Thermal vibrational correction   ...      0.00855098 Eh       5.37 kcal/mol
Thermal rotational correction    ...      0.00141627 Eh       0.89 kcal/mol
Thermal translational correction ...      0.00141627 Eh       0.89 kcal/mol
-----------------------------------------------------------------------
Total thermal energy                   -540.16057017 Eh

Summary of corrections to the electronic energy:
(perhaps to be used in another calculation)
Total thermal correction                  0.01138352 Eh       7.14 kcal/mol
Non-thermal (ZPE) correction              0.21238223 Eh     133.27 kcal/mol
-----------------------------------------------------------------------
Total correction                          0.22376575 Eh     140.41 kcal/mol

--------
ENTHALPY
--------

The enthalpy is H = U + kB*T
                kB is Boltzmann's constant
Total thermal energy              ...   -540.16057017 Eh
Thermal Enthalpy correction       ...      0.00094421 Eh       0.59 kcal/mol
-----------------------------------------------------------------------
Total Enthalpy                    ...   -540.15962596 Eh

Note: Only C1 symmetry has been detected, increase convergence thresholds
      if your molecule has a higher symmetry. Symmetry factor of 1.0 is
      used for the rotational entropy correction.

Note: Rotational entropy computed according to Herzberg
Infrared and Raman Spectra, Chapter V,1, Van Nostrand Reinhold, 1945
Point Group:  C1, Symmetry Number:   1
Rotational constants in cm-1:     0.054323     0.014328     0.012136

Vibrational entropy computed according to the QRRHO of S. Grimme
Chem.Eur.J. 2012 18 9955 using a reference frequency of 100.0 cm-1

-------
ENTROPY
-------

The entropy contributions are T*S = T*(S(el)+S(vib)+S(rot)+S(trans))
     S(el)   - electronic entropy
     S(vib)  - vibrational entropy
     S(rot)  - rotational entropy
     S(trans)- translational entropy
The entropies will be listed as multiplied by the temperature to get
units of energy

                             ****ORCA TERMINATED NORMALLY****
TOTAL RUN TIME: 0 days 2 hours 23 minutes 56 seconds 812 msec
