                         Program Version 6.0.0  -   RELEASE  -
|  1> !r2SCANh aug-cc-pVTZ d3 TightSCF SlowConv RIJCOSX defgrid2
|  2>
|  3> %pal
|  4> nprocs 10
|  5> end
|  6>
|  7> %scf
|  8> MaxIter 1500
|  9> end
| 10>
| 11> %maxcore 3500
| 12>
| 13> !CPCM
| 14> %cpcm smd true
| 15> SMDsolvent "WATER"
| 16> surfacetype gepol_ses
| 17> rsolv 1.40
| 18> end
| 19>
| 20> * xyz 0 2
| 21>   C          -0.11609874427787     -0.00549833146305     -1.09166051828012
| 22>   C          -0.06011683134759     -0.95278509536638     -0.14629559883637
| 23>   C          -0.12471069310473     -0.40669924924484      1.24362311758038
| 24>   N          -0.22754435037957      1.03434271135506      0.95079797263953
| 25>   C          -0.23150406587531      1.38042585937059     -0.48840792759055
| 26>   H           0.02559760749994     -2.01735042488152     -0.37607502307243
| 27>   O          -0.30719725434603      1.90352542466580      1.84763502630721
| 28>   C          -0.06026175824533     -0.38808249649150     -2.53546561747586
| 29>   O           0.04263596012876     -1.54903384399020     -2.88061155377649
| 30>   C          -1.54909261101230      2.09648655652139     -0.80036124124277
| 31>   H          -1.58247082249827      2.48576443460033     -1.83190594119848
| 32>   H          -2.40467570485958      1.41531605976659     -0.65984133217838
| 33>   H          -1.65709970518172      2.94563669192758     -0.10515427072988
| 34>   C           0.97137748294183      2.28793540378461     -0.76183532174647
| 35>   H           0.92403797538752      3.14845181915781     -0.07373708321239
| 36>   H           1.91466513722241      1.74585954892844     -0.58293263501816
| 37>   H           0.98323354337203      2.66940679234643     -1.79662980647134
| 38>   C           1.14603484773707     -0.67849930031598      2.05108178091850
| 39>   H           1.22944818447998     -1.74985812098869      2.29970024784929
| 40>   H           2.04188216597692     -0.37745827941083      1.48284498269252
| 41>   H           1.11122089200302     -0.09513329178683      2.98649209630369
| 42>   C          -1.36731121460930     -0.86517254295167      2.00958246948541
| 43>   H          -2.27834603550156     -0.69741684096779      1.41130352571173
| 44>   H          -1.30032457043791     -1.93784209757345      2.25766668368952
| 45>   H          -1.44837094192206     -0.28492100112544      2.94388101584222
| 46>   N          -0.12913367845321      0.62854904476097     -3.43820730517209
| 47>   H          -0.22721159511714      1.59778561337663     -3.17267086489660
| 48>   H          -0.09811273057999      0.38459799799591     -4.42137771112161
| 49> *
| 50>
| 51>                          ****END OF INPUT****

CARTESIAN COORDINATES (ANGSTROEM)
---------------------------------
  C     -0.116099   -0.005498   -1.091661
  C     -0.060117   -0.952785   -0.146296
  C     -0.124711   -0.406699    1.243623
  N     -0.227544    1.034343    0.950798
  C     -0.231504    1.380426   -0.488408
  H      0.025598   -2.017350   -0.376075
  O     -0.307197    1.903525    1.847635
  C     -0.060262   -0.388082   -2.535466
  O      0.042636   -1.549034   -2.880612
  C     -1.549093    2.096487   -0.800361
  H     -1.582471    2.485764   -1.831906
  H     -2.404676    1.415316   -0.659841
  H     -1.657100    2.945637   -0.105154
  C      0.971377    2.287935   -0.761835
  H      0.924038    3.148452   -0.073737
  H      1.914665    1.745860   -0.582933
  H      0.983234    2.669407   -1.796630
  C      1.146035   -0.678499    2.051082
  H      1.229448   -1.749858    2.299700
  H      2.041882   -0.377458    1.482845
  H      1.111221   -0.095133    2.986492
  C     -1.367311   -0.865173    2.009582
  H     -2.278346   -0.697417    1.411304
  H     -1.300325   -1.937842    2.257667
  H     -1.448371   -0.284921    2.943881
  N     -0.129134    0.628549   -3.438207
  H     -0.227212    1.597786   -3.172671
  H     -0.098113    0.384598   -4.421378

 Total Charge           Charge          ....    0
 Multiplicity           Mult            ....    2
 Number of Electrons    NEL             ....   99
 Basis Dimension        Dim             ....  943

ORBITAL ENERGIES
----------------
                 SPIN UP ORBITALS
  NO   OCC          E(Eh)            E(eV)
   0   1.0000     -19.133304      -520.6437
   1   1.0000     -19.096721      -519.6482
   2   1.0000     -14.408836      -392.0843
   3   1.0000     -14.329474      -389.9248
   4   1.0000     -10.275598      -279.6132
   5   1.0000     -10.220956      -278.1263
   6   1.0000     -10.215909      -277.9890
   7   1.0000     -10.179555      -276.9998
   8   1.0000     -10.177430      -276.9420
   9   1.0000     -10.152481      -276.2630
  10   1.0000     -10.152297      -276.2581
  11   1.0000     -10.150557      -276.2107
  12   1.0000     -10.150547      -276.2104
  13   1.0000      -1.130369       -30.7589
  14   1.0000      -1.060979       -28.8707
  15   1.0000      -0.916806       -24.9476
  16   1.0000      -0.906423       -24.6650
  17   1.0000      -0.820359       -22.3231
  18   1.0000      -0.763994       -20.7893
  19   1.0000      -0.725921       -19.7533
  20   1.0000      -0.696210       -18.9449
  21   1.0000      -0.687390       -18.7048
  22   1.0000      -0.649231       -17.6665
  23   1.0000      -0.605348       -16.4724
  24   1.0000      -0.568840       -15.4789
  25   1.0000      -0.556478       -15.1425
  26   1.0000      -0.526680       -14.3317
  27   1.0000      -0.491008       -13.3610
  28   1.0000      -0.486237       -13.2312
  29   1.0000      -0.475781       -12.9467
  30   1.0000      -0.448938       -12.2162
  31   1.0000      -0.439488       -11.9591
  32   1.0000      -0.430880       -11.7248
  33   1.0000      -0.426298       -11.6002
  34   1.0000      -0.420565       -11.4442
  35   1.0000      -0.405107       -11.0235
  36   1.0000      -0.400170       -10.8892
  37   1.0000      -0.392868       -10.6905
  38   1.0000      -0.378237       -10.2923
  39   1.0000      -0.369578       -10.0567
  40   1.0000      -0.367687       -10.0053
  41   1.0000      -0.344875        -9.3845
  42   1.0000      -0.343763        -9.3543
  43   1.0000      -0.339888        -9.2488
  44   1.0000      -0.333771        -9.0824
  45   1.0000      -0.277616        -7.5543
  46   1.0000      -0.275142        -7.4870
  47   1.0000      -0.264634        -7.2011
  48   1.0000      -0.264002        -7.1839
  49   1.0000      -0.194189        -5.2841
  50   0.0000      -0.061340        -1.6692
  51   0.0000       0.007278         0.1981
  52   0.0000       0.019864         0.5405
  53   0.0000       0.023225         0.6320
  54   0.0000       0.026577         0.7232

                 SPIN DOWN ORBITALS
  NO   OCC          E(Eh)            E(eV)
   0   1.0000     -19.118358      -520.2370
   1   1.0000     -19.096735      -519.6486
   2   1.0000     -14.393166      -391.6580
   3   1.0000     -14.329473      -389.9248
   4   1.0000     -10.275625      -279.6140
   5   1.0000     -10.221735      -278.1476
   6   1.0000     -10.216686      -278.0102
   7   1.0000     -10.179554      -276.9998
   8   1.0000     -10.177410      -276.9414
   9   1.0000     -10.151867      -276.2463
  10   1.0000     -10.151684      -276.2414
  11   1.0000     -10.149906      -276.1930
  12   1.0000     -10.149897      -276.1927
  13   1.0000      -1.106420       -30.1072
  14   1.0000      -1.060992       -28.8710
  15   1.0000      -0.914369       -24.8812
  16   1.0000      -0.899034       -24.4640
  17   1.0000      -0.819459       -22.2986
  18   1.0000      -0.758251       -20.6331
  19   1.0000      -0.713277       -19.4093
  20   1.0000      -0.693284       -18.8652
  21   1.0000      -0.685846       -18.6628
  22   1.0000      -0.647714       -17.6252
  23   1.0000      -0.602910       -16.4060
  24   1.0000      -0.567703       -15.4480
  25   1.0000      -0.547424       -14.8962
  26   1.0000      -0.526092       -14.3157
  27   1.0000      -0.484090       -13.1728
  28   1.0000      -0.470469       -12.8021
  29   1.0000      -0.457760       -12.4563
  30   1.0000      -0.445929       -12.1343
  31   1.0000      -0.438872       -11.9423
  32   1.0000      -0.425762       -11.5856
  33   1.0000      -0.424753       -11.5581
  34   1.0000      -0.420188       -11.4339
  35   1.0000      -0.403412       -10.9774
  36   1.0000      -0.389553       -10.6003
  37   1.0000      -0.388054       -10.5595
  38   1.0000      -0.377668       -10.2769
  39   1.0000      -0.366184        -9.9644
  40   1.0000      -0.354801        -9.6546
  41   1.0000      -0.342971        -9.3327
  42   1.0000      -0.338934        -9.2229
  43   1.0000      -0.332992        -9.0612
  44   1.0000      -0.323582        -8.8051
  45   1.0000      -0.277556        -7.5527
  46   1.0000      -0.273250        -7.4355
  47   1.0000      -0.261743        -7.1224
  48   1.0000      -0.255038        -6.9399
  49   0.0000      -0.072090        -1.9617
  50   0.0000      -0.059853        -1.6287
  51   0.0000       0.007817         0.2127
  52   0.0000       0.020744         0.5645
  53   0.0000       0.024086         0.6554

MULLIKEN ATOMIC CHARGES AND SPIN POPULATIONS
--------------------------------------------
   0 C :    1.579685    0.009711
   1 C :   -1.092847   -0.000860
   2 C :    1.291014   -0.094994
   3 N :    0.924922    0.563387
   4 C :    1.267160   -0.108807
   5 H :    0.348378   -0.001871
   6 O :   -1.120361    0.480581
   7 C :    0.392351    0.002250
   8 O :   -1.080612   -0.000239
   9 C :   -1.136551    0.027709
  10 H :    0.215366    0.006026
  11 H :    0.202660    0.004809
  12 H :    0.148571   -0.001096
  13 C :   -1.141377    0.027402
  14 H :    0.142801   -0.001120
  15 H :    0.197711    0.004929
  16 H :    0.220479    0.005830
  17 C :   -1.271648    0.030852
  18 H :    0.170194    0.004314
  19 H :    0.248289    0.004300
  20 H :    0.177389   -0.001578
  21 C :   -1.268122    0.031348
  22 H :    0.247005    0.004215
  23 H :    0.168494    0.004306
  24 H :    0.182206   -0.001512
  25 N :   -0.244298   -0.000368
  26 H :    0.126190    0.000445
  27 H :    0.104952    0.000031
Sum of atomic charges         :    0.0000000

LOEWDIN ATOMIC CHARGES AND SPIN POPULATIONS
-------------------------------------------
   0 C :   -0.078569    0.001229
   1 C :    0.260091    0.001848
   2 C :   -0.467377    0.040230
   3 N :   -0.165769    0.410820
   4 C :   -0.449817    0.038913
   5 H :   -0.134074   -0.000376
   6 O :    0.373559    0.430460
   7 C :   -0.697193   -0.000523
   8 O :    0.415959   -0.000398
   9 C :    0.605329    0.013564
  10 H :   -0.153877    0.003668
  11 H :   -0.138387    0.001700
  12 H :   -0.157807    0.000213
  13 C :    0.604696    0.013514
  14 H :   -0.157256    0.000224
  15 H :   -0.138764    0.001695
  16 H :   -0.153827    0.003648
  17 C :    0.602808    0.013941
  18 H :   -0.140098    0.003574
  19 H :   -0.144557    0.001683
  20 H :   -0.155834    0.000548
  21 C :    0.602971    0.014026
  22 H :   -0.144603    0.001691
  23 H :   -0.139994    0.003606
  24 H :   -0.156088    0.000553
  25 N :    0.886424    0.000011
  26 H :   -0.326601   -0.000070
  27 H :   -0.251344    0.000004

  Mayer bond orders larger than 0.100000
B(  0-C ,  2-C ) :   0.2630 B(  0-C ,  3-N ) :  -0.2974 B(  0-C ,  4-C ) :   0.4159
B(  0-C ,  5-H ) :  -0.2095 B(  0-C ,  7-C ) :  -0.7126 B(  0-C ,  8-O ) :   0.6894
B(  0-C , 25-N ) :  -0.2885 B(  1-C ,  2-C ) :   0.9258 B(  1-C ,  3-N ) :  -0.3073
B(  1-C ,  5-H ) :   0.9439 B(  1-C ,  7-C ) :   0.7187 B(  1-C ,  8-O ) :  -0.1152
B(  2-C ,  3-N ) :   1.2387 B(  2-C ,  4-C ) :  -0.1799 B(  2-C ,  6-O ) :  -0.2516
B(  2-C ,  7-C ) :  -0.2591 B(  2-C , 17-C ) :   0.2581 B(  2-C , 21-C ) :   0.2635
B(  3-N ,  4-C ) :   1.4306 B(  3-N ,  6-O ) :   0.4540 B(  4-C ,  5-H ) :   0.1714
B(  4-C ,  7-C ) :   0.5356 B(  4-C ,  9-C ) :   0.3451 B(  4-C , 13-C ) :   0.3326
B(  4-C , 25-N ) :  -0.1535 B(  7-C ,  8-O ) :   0.3520 B(  7-C , 25-N ) :   1.1545
B(  9-C , 10-H ) :   0.9497 B(  9-C , 11-H ) :   1.0303 B(  9-C , 12-H ) :   1.0760
B(  9-C , 13-C ) :   0.1763 B( 13-C , 14-H ) :   1.0819 B( 13-C , 15-H ) :   1.0375
B( 13-C , 16-H ) :   0.9461 B( 17-C , 18-H ) :   1.0794 B( 17-C , 19-H ) :   0.9712
B( 17-C , 20-H ) :   1.0776 B( 17-C , 21-C ) :   0.2833 B( 21-C , 22-H ) :   0.9737
B( 21-C , 23-H ) :   1.0823 B( 21-C , 24-H ) :   1.0696 B( 25-N , 26-H ) :   0.9897
B( 25-N , 27-H ) :   0.9756

Dispersion correction           -0.010815103
FINAL SINGLE POINT ENERGY      -611.775362067092

DIPOLE MOMENT
-------------

Method             : SCF
Type of density    : Electron Density
Multiplicity       :   2
Irrep              :   0
Energy             :  -611.7645469636385087 Eh
Relativity type    :
Basis              : AO
                                X                 Y                 Z
Electronic contribution:      0.312935288      -2.694779095      -5.510094758
Nuclear contribution   :     -0.388237367       3.445340699       4.719558355
                        -----------------------------------------
Total Dipole Moment    :     -0.075302079       0.750561604      -0.790536403
                        -----------------------------------------
Magnitude (a.u.)       :      1.092685192
Magnitude (Debye)      :      2.777385036

Rotational constants in cm-1:             0.040199             0.022321             0.017613
Rotational constants in MHz :          1205.148589           669.171544           528.030747

                             ****ORCA TERMINATED NORMALLY****
TOTAL RUN TIME: 0 days 0 hours 12 minutes 46 seconds 708 msec
