                         Program Version 6.0.0  -   RELEASE  -
|  1> !PBE0 def2-SV(p) Opt Freq d3 TightSCF SlowConv RIJCOSX defgrid2
|  2>
|  3> %pal
|  4> nprocs 4
|  5> end
|  6>
|  7> %scf
|  8> MaxIter 1500
|  9> end
| 10>
| 11> %maxcore 3000
| 12>
| 13>
| 14>
| 15> * xyz 0 1
| 16> C     1.9110002    0.8519244    0.2996021
| 17> C     1.6964620   -0.1179598   -0.6675141
| 18> C     2.6899935   -1.0295484   -0.9522425
| 19> C     3.9088590   -0.9950387   -0.2709244
| 20> C     4.1126513   -0.0197661    0.7023854
| 21> C     3.1165998    0.8988132    0.9808707
| 22> H     3.2734391    1.6561433    1.7336305
| 23> H     5.0401179    0.0391227    1.2481963
| 24> O     4.8146941   -1.9428073   -0.6282077
| 25> C     6.0685479   -1.9634964    0.0222755
| 26> H     5.9567630   -2.1388019    1.0962945
| 27> H     6.6184075   -1.0324396   -0.1433738
| 28> H     6.6138887   -2.7916633   -0.4262429
| 29> H     2.5404755   -1.7873716   -1.7046202
| 30> H     0.7614805   -0.1599872   -1.2058241
| 31> S     0.6695962    2.0567363    0.7619450
| 32> S    -0.6696988    2.0568487   -0.7618634
| 33> C    -1.9109813    0.8518469   -0.2996980
| 34> C    -1.6959338   -0.1188555    0.6664869
| 35> C    -2.6894253   -1.0305016    0.9511705
| 36> C    -3.9087519   -0.9952456    0.2707110
| 37> C    -4.1130268   -0.0191977   -0.7017191
| 38> C    -3.1170167    0.8994448   -0.9801430
| 39> H    -3.2742344    1.6573869   -1.7322066
| 40> H    -5.0408377    0.0402487   -1.2468841
| 41> O    -4.8145227   -1.9431082    0.6278964
| 42> C    -6.0689631   -1.9628385   -0.0214868
| 43> H    -5.9582084   -2.1374488   -1.0957264
| 44> H    -6.6142434   -2.7910924    0.4269443
| 45> H    -6.6182910   -1.0316704    0.1452950
| 46> H    -2.5395272   -1.7889445    1.7028482
| 47> H    -0.7606006   -0.1614569    1.2041402
| 48> *
| 49>
| 50>                          ****END OF INPUT****
 Total Charge           Charge          ....    0
 Multiplicity           Mult            ....    1
 Number of Electrons    NEL             ....  146
Dispersion correction           -0.037468876
FINAL SINGLE POINT ENERGY     -1486.907517934049
Dispersion correction             ... done (  0.0 sec)
Dispersion correction           -0.038375420
FINAL SINGLE POINT ENERGY     -1486.906850472076
Dispersion correction             ... done (  0.1 sec)
Dispersion correction           -0.037092643
FINAL SINGLE POINT ENERGY     -1486.906666238122
Dispersion correction             ... done (  0.0 sec)
FINAL SINGLE POINT ENERGY     -1486.910052434059
FINAL SINGLE POINT ENERGY     -1486.911024163874
FINAL SINGLE POINT ENERGY     -1486.911116161268
FINAL SINGLE POINT ENERGY     -1486.911190337016
Dispersion correction             ... done (  0.1 sec)
Dispersion correction           -0.037448307
FINAL SINGLE POINT ENERGY     -1486.911199662980
Dispersion correction             ... done (  0.0 sec)
Dispersion correction           -0.037452792
FINAL SINGLE POINT ENERGY     -1486.911202206551
Dispersion correction             ... done (  0.0 sec)
                    ***********************HURRAY********************

CARTESIAN COORDINATES (ANGSTROEM)
---------------------------------
  C      1.902041    0.851751    0.297460
  C      1.678063   -0.180077   -0.619920
  C      2.677664   -1.102180   -0.889988
  C      3.919715   -1.022437   -0.244879
  C      4.145956    0.010177    0.671315
  C      3.141658    0.943391    0.929916
  H      3.337644    1.756292    1.636408
  H      5.104264    0.111138    1.183999
  O      4.824374   -1.968086   -0.570267
  C      6.082125   -1.936042    0.039379
  H      6.008116   -2.044138    1.138993
  H      6.627623   -1.000928   -0.193261
  H      6.647489   -2.788665   -0.365566
  H      2.517258   -1.910245   -1.608126
  H      0.716554   -0.250117   -1.136253
  S      0.672995    2.052650    0.772282
  S     -0.672894    2.052909   -0.771385
  C     -1.902040    0.851987   -0.296886
  C     -1.678132   -0.180132    0.620185
  C     -2.677796   -1.102250    0.889968
  C     -3.919834   -1.022240    0.244864
  C     -4.146006    0.010668   -0.671014
  C     -3.141649    0.943900   -0.929318
  H     -3.337575    1.757034   -1.635559
  H     -5.104304    0.111849   -1.183676
  O     -4.824549   -1.967939    0.569948
  C     -6.082281   -1.935659   -0.039726
  H     -6.008242   -2.043427   -1.139370
  H     -6.647692   -2.788380    0.364947
  H     -6.627747   -1.000592    0.193178
  H     -2.517450   -1.910544    1.607862
  H     -0.716633   -0.250394    1.136507

 Multiplicity           Mult            ....    1
 Number of Electrons    NEL             ....  146
 Basis Dimension        Dim             ....  288

ORBITAL ENERGIES
----------------

  NO   OCC          E(Eh)            E(eV)
   0   2.0000     -89.031482     -2422.6698
   1   2.0000     -89.031450     -2422.6689
   2   2.0000     -19.247385      -523.7480
   3   2.0000     -19.247381      -523.7479
   4   2.0000     -10.299590      -280.2661
   5   2.0000     -10.299589      -280.2661
   6   2.0000     -10.286505      -279.9100
   7   2.0000     -10.286504      -279.9100
   8   2.0000     -10.266004      -279.3522
   9   2.0000     -10.265979      -279.3515
  10   2.0000     -10.246839      -278.8307
  11   2.0000     -10.246834      -278.8305
  12   2.0000     -10.242612      -278.7156
  13   2.0000     -10.242593      -278.7151
  14   2.0000     -10.240886      -278.6687
  15   2.0000     -10.240885      -278.6687
  16   2.0000     -10.236015      -278.5361
  17   2.0000     -10.236006      -278.5359
  18   2.0000      -8.030804      -218.5293
  19   2.0000      -8.030776      -218.5285
  20   2.0000      -5.973997      -162.5607
  21   2.0000      -5.973801      -162.5554
  22   2.0000      -5.969193      -162.4300
  23   2.0000      -5.969149      -162.4288
  24   2.0000      -5.962625      -162.2513
  25   2.0000      -5.962620      -162.2511
  26   2.0000      -1.099342       -29.9146
  27   2.0000      -1.099341       -29.9146
  28   2.0000      -0.894779       -24.3482
  29   2.0000      -0.884497       -24.0684
  30   2.0000      -0.840660       -22.8755
  31   2.0000      -0.796674       -21.6786
  32   2.0000      -0.777184       -21.1482
  33   2.0000      -0.770662       -20.9708
  34   2.0000      -0.761587       -20.7238
  35   2.0000      -0.734371       -19.9832
  36   2.0000      -0.707812       -19.2605
  37   2.0000      -0.662533       -18.0284
  38   2.0000      -0.637212       -17.3394
  39   2.0000      -0.633560       -17.2401
  40   2.0000      -0.606487       -16.5033
  41   2.0000      -0.588960       -16.0264
  42   2.0000      -0.562160       -15.2972
  43   2.0000      -0.558817       -15.2062
  44   2.0000      -0.518588       -14.1115
  45   2.0000      -0.509384       -13.8610
  46   2.0000      -0.496856       -13.5202
  47   2.0000      -0.493816       -13.4374
  48   2.0000      -0.493775       -13.4363
  49   2.0000      -0.468315       -12.7435
  50   2.0000      -0.468260       -12.7420
  51   2.0000      -0.462883       -12.5957
  52   2.0000      -0.445449       -12.1213
  53   2.0000      -0.445427       -12.1207
  54   2.0000      -0.440270       -11.9803
  55   2.0000      -0.434552       -11.8248
  56   2.0000      -0.409359       -11.1392
  57   2.0000      -0.406272       -11.0552
  58   2.0000      -0.397372       -10.8131
  59   2.0000      -0.384048       -10.4505
  60   2.0000      -0.378722       -10.3056
  61   2.0000      -0.375007       -10.2045
  62   2.0000      -0.353004        -9.6057
  63   2.0000      -0.351638        -9.5686
  64   2.0000      -0.348531        -9.4840
  65   2.0000      -0.344208        -9.3664
  66   2.0000      -0.341897        -9.3035
  67   2.0000      -0.285972        -7.7817
  68   2.0000      -0.284003        -7.7281
  69   2.0000      -0.275742        -7.5033
  70   2.0000      -0.271844        -7.3973
  71   2.0000      -0.222989        -6.0678
  72   2.0000      -0.215353        -5.8601
  73   0.0000      -0.022627        -0.6157
  74   0.0000      -0.013864        -0.3773
  75   0.0000      -0.005908        -0.1608
  76   0.0000       0.002812         0.0765
  77   0.0000       0.017980         0.4893

MULLIKEN ATOMIC CHARGES
-----------------------
   0 C :   -0.012672
   1 C :   -0.125302
   2 C :   -0.139662
   3 C :    0.280139
   4 C :   -0.227984
   5 C :   -0.109896
   6 H :    0.097422
   7 H :    0.092146
   8 O :   -0.325115
   9 C :   -0.161316
  10 H :    0.130157
  11 H :    0.130764
  12 H :    0.149841
  13 H :    0.097112
  14 H :    0.120933
  15 S :    0.003432
  16 S :    0.003428
  17 C :   -0.012673
  18 C :   -0.125307
  19 C :   -0.139655
  20 C :    0.280135
  21 C :   -0.227987
  22 C :   -0.109891
  23 H :    0.097424
  24 H :    0.092148
  25 O :   -0.325114
  26 C :   -0.161315
  27 H :    0.130157
  28 H :    0.149841
  29 H :    0.130764
  30 H :    0.097112
  31 H :    0.120933
Sum of atomic charges:   -0.0000000

LOEWDIN ATOMIC CHARGES
----------------------
   0 C :   -0.205304
   1 C :   -0.137612
   2 C :   -0.139525
   3 C :    0.036703
   4 C :   -0.176655
   5 C :   -0.132951
   6 H :    0.131218
   7 H :    0.134374
   8 O :   -0.109408
   9 C :   -0.202331
  10 H :    0.110660
  11 H :    0.110907
  12 H :    0.125706
  13 H :    0.139485
  14 H :    0.134835
  15 S :    0.179897
  16 S :    0.179898
  17 C :   -0.205306
  18 C :   -0.137612
  19 C :   -0.139524
  20 C :    0.036704
  21 C :   -0.176655
  22 C :   -0.132951
  23 H :    0.131219
  24 H :    0.134374
  25 O :   -0.109407
  26 C :   -0.202331
  27 H :    0.110661
  28 H :    0.125706
  29 H :    0.110907
  30 H :    0.139485
  31 H :    0.134836

  Mayer bond orders larger than 0.100000
B(  0-C ,  1-C ) :   1.3745 B(  0-C ,  5-C ) :   1.3990 B(  0-C , 15-S ) :   0.9289
B(  1-C ,  2-C ) :   1.4231 B(  1-C , 14-H ) :   0.9409 B(  2-C ,  3-C ) :   1.3525
B(  2-C , 13-H ) :   0.9629 B(  3-C ,  4-C ) :   1.3185 B(  3-C ,  8-O ) :   1.1089
B(  4-C ,  5-C ) :   1.3963 B(  4-C ,  7-H ) :   0.9593 B(  5-C ,  6-H ) :   0.9559
B(  8-O ,  9-C ) :   0.9626 B(  9-C , 10-H ) :   0.9408 B(  9-C , 11-H ) :   0.9410
B(  9-C , 12-H ) :   0.9567 B( 15-S , 16-S ) :   1.1187 B( 16-S , 17-C ) :   0.9289
B( 17-C , 18-C ) :   1.3745 B( 17-C , 22-C ) :   1.3990 B( 18-C , 19-C ) :   1.4231
B( 18-C , 31-H ) :   0.9409 B( 19-C , 20-C ) :   1.3525 B( 19-C , 30-H ) :   0.9629
B( 20-C , 21-C ) :   1.3185 B( 20-C , 25-O ) :   1.1090 B( 21-C , 22-C ) :   1.3963
B( 21-C , 24-H ) :   0.9593 B( 22-C , 23-H ) :   0.9558 B( 25-O , 26-C ) :   0.9626
B( 26-C , 27-H ) :   0.9408 B( 26-C , 28-H ) :   0.9567 B( 26-C , 29-H ) :   0.9410

Dispersion correction           -0.037448108
FINAL SINGLE POINT ENERGY     -1486.911202830187

DIPOLE MOMENT
-------------

Method             : SCF
Type of density    : Electron Density
Multiplicity       :   1
Irrep              :   0
Energy             : -1486.8737547224036462 Eh
Relativity type    :
Basis              : AO
                                X                 Y                 Z
Electronic contribution:      0.000325084      10.948659546       0.001733982
Nuclear contribution   :     -0.000353672     -11.568109553      -0.001837843
                        -----------------------------------------
Total Dipole Moment    :     -0.000028588      -0.619450007      -0.000103862
                        -----------------------------------------
Magnitude (a.u.)       :      0.619450016
Magnitude (Debye)      :      1.574516813

VIBRATIONAL FREQUENCIES
-----------------------

Scaling factor for frequencies =  1.000000000  (already applied!)

     0:       0.00 cm**-1
     1:       0.00 cm**-1
     2:       0.00 cm**-1
     3:       0.00 cm**-1
     4:       0.00 cm**-1
     5:       0.00 cm**-1
     6:       8.98 cm**-1
     7:      14.59 cm**-1
     8:      46.50 cm**-1
     9:      70.82 cm**-1
    10:      77.39 cm**-1
    11:     117.70 cm**-1
    12:     119.44 cm**-1
    13:     138.70 cm**-1
    14:     176.62 cm**-1
    15:     182.65 cm**-1
    16:     237.83 cm**-1
    17:     255.15 cm**-1
    18:     258.61 cm**-1
    19:     309.35 cm**-1
    20:     337.39 cm**-1
    21:     347.19 cm**-1
    22:     355.71 cm**-1
    23:     377.68 cm**-1
    24:     382.87 cm**-1
    25:     424.54 cm**-1
    26:     425.40 cm**-1
    27:     511.83 cm**-1
    28:     513.82 cm**-1
    29:     529.79 cm**-1
    30:     532.63 cm**-1
    31:     544.14 cm**-1
    32:     635.63 cm**-1
    33:     636.88 cm**-1
    34:     650.39 cm**-1
    35:     651.44 cm**-1
    36:     732.18 cm**-1
    37:     734.22 cm**-1
    38:     824.24 cm**-1
    39:     826.00 cm**-1
    40:     830.42 cm**-1
    41:     831.21 cm**-1
    42:     847.74 cm**-1
    43:     853.28 cm**-1
    44:     956.67 cm**-1
    45:     956.88 cm**-1
    46:     977.88 cm**-1
    47:     981.86 cm**-1
    48:    1021.41 cm**-1
    49:    1022.24 cm**-1
    50:    1118.41 cm**-1
    51:    1121.63 cm**-1
    52:    1128.50 cm**-1
    53:    1129.24 cm**-1
    54:    1133.76 cm**-1
    55:    1134.03 cm**-1
    56:    1184.67 cm**-1
    57:    1184.68 cm**-1
    58:    1192.38 cm**-1
    59:    1195.66 cm**-1
    60:    1217.22 cm**-1
    61:    1217.31 cm**-1
    62:    1314.62 cm**-1
    63:    1318.13 cm**-1
    64:    1339.88 cm**-1
    65:    1341.98 cm**-1
    66:    1387.37 cm**-1
    67:    1389.93 cm**-1
    68:    1468.10 cm**-1
    69:    1468.97 cm**-1
    70:    1479.75 cm**-1
    71:    1480.33 cm**-1
    72:    1481.56 cm**-1
    73:    1481.57 cm**-1
    74:    1498.26 cm**-1
    75:    1498.74 cm**-1
    76:    1554.35 cm**-1
    77:    1557.69 cm**-1
    78:    1656.98 cm**-1
    79:    1657.02 cm**-1
    80:    1698.53 cm**-1
    81:    1699.21 cm**-1
    82:    3008.89 cm**-1
    83:    3009.05 cm**-1
    84:    3087.15 cm**-1
    85:    3087.15 cm**-1
    86:    3164.29 cm**-1
    87:    3164.31 cm**-1
    88:    3195.01 cm**-1
    89:    3195.09 cm**-1
    90:    3207.32 cm**-1
    91:    3208.85 cm**-1
    92:    3225.00 cm**-1
    93:    3225.43 cm**-1
    94:    3232.89 cm**-1
    95:    3232.94 cm**-1

IR SPECTRUM
-----------

 Mode   freq       eps      Int      T**2         TX        TY        TZ
       cm**-1   L/(mol*cm) km/mol    a.u.
----------------------------------------------------------------------------
  6:      8.98   0.000369    1.86  0.012810  ( 0.077318  0.000283 -0.082654)
  7:     14.59   0.000088    0.45  0.001884  ( 0.000305 -0.043405 -0.000341)
  8:     46.50   0.000002    0.01  0.000013  (-0.000003  0.003601 -0.000003)
  9:     70.82   0.000178    0.90  0.000785  (-0.000006  0.028022  0.000038)
 10:     77.39   0.000276    1.39  0.001113  ( 0.004389  0.000031 -0.033067)
 11:    117.70   0.000222    1.12  0.000588  (-0.000010  0.024240  0.000002)
 12:    119.44   0.000178    0.90  0.000464  (-0.021520 -0.000011 -0.001015)
 13:    138.70   0.000719    3.64  0.001618  (-0.021377 -0.000006  0.034081)
 14:    176.62   0.000142    0.72  0.000251  (-0.000003 -0.015855 -0.000002)
 15:    182.65   0.000385    1.95  0.000658  ( 0.000000 -0.025658 -0.000003)
 16:    237.83   0.000547    2.76  0.000718  (-0.022777 -0.000000  0.014103)
 17:    255.15   0.000016    0.08  0.000019  (-0.003740 -0.000000 -0.002268)
 18:    258.61   0.000000    0.00  0.000000  (-0.000006 -0.000462 -0.000003)
 19:    309.35   0.000303    1.53  0.000306  ( 0.000001 -0.017488 -0.000005)
 20:    337.39   0.000310    1.57  0.000287  ( 0.000454 -0.000000  0.016928)
 21:    347.19   0.000326    1.65  0.000293  ( 0.000008  0.017120 -0.000005)
 22:    355.71   0.000643    3.25  0.000564  ( 0.022102 -0.000004 -0.008714)
 23:    377.68   0.000000    0.00  0.000000  ( 0.000003  0.000094  0.000006)
 24:    382.87   0.000432    2.19  0.000352  ( 0.000529 -0.000002  0.018766)
 25:    424.54   0.000186    0.94  0.000136  ( 0.011547 -0.000008  0.001760)
 26:    425.40   0.000017    0.08  0.000012  ( 0.000025  0.003494  0.000005)
 27:    511.83   0.000354    1.79  0.000216  (-0.014097 -0.000016 -0.004166)
 28:    513.82   0.000521    2.63  0.000316  ( 0.000012 -0.017781  0.000003)
 29:    529.79   0.003600   18.20  0.002121  (-0.020826 -0.000005  0.041074)
 30:    532.63   0.000741    3.75  0.000434  ( 0.000001  0.020841  0.000006)
 31:    544.14   0.000518    2.62  0.000297  ( 0.000003  0.017236  0.000001)
 32:    635.63   0.002110   10.66  0.001036  (-0.029498 -0.000070  0.012878)
 33:    636.88   0.001866    9.43  0.000914  ( 0.000069 -0.030235 -0.000034)
 34:    650.39   0.001062    5.37  0.000509  ( 0.021150  0.000005 -0.007879)
 35:    651.44   0.001148    5.80  0.000550  ( 0.000001  0.023454  0.000004)
 36:    732.18   0.000301    1.52  0.000128  ( 0.010895  0.000001 -0.003067)
 37:    734.22   0.000000    0.00  0.000000  ( 0.000003 -0.000316 -0.000001)
 38:    824.24   0.000991    5.01  0.000375  (-0.000912  0.000001  0.019348)
 39:    826.00   0.001520    7.68  0.000574  ( 0.000002  0.023961 -0.000001)
 40:    830.42   0.001340    6.77  0.000504  (-0.000041 -0.022441  0.000072)
 41:    831.21   0.001305    6.59  0.000490  (-0.010671  0.000100  0.019390)
 42:    847.74   0.011911   60.19  0.004385  (-0.036897 -0.000014  0.054983)
 43:    853.28   0.004628   23.39  0.001692  (-0.000002  0.041140  0.000008)
 44:    956.67   0.000137    0.69  0.000045  (-0.001823  0.000027  0.006427)
 45:    956.88   0.000048    0.25  0.000016  ( 0.000012  0.003976 -0.000043)
 46:    977.88   0.000239    1.21  0.000076  (-0.000806 -0.000002  0.008702)
 47:    981.86   0.000008    0.04  0.000002  (-0.000000 -0.001560 -0.000001)
 48:   1021.41   0.002298   11.61  0.000702  ( 0.026495 -0.000002  0.000399)
 49:   1022.24   0.000161    0.82  0.000049  ( 0.000003  0.007017  0.000000)
 50:   1118.41   0.000090    0.46  0.000025  ( 0.000023  0.005018  0.000008)
 51:   1121.63   0.013063   66.01  0.003634  ( 0.058703 -0.000003  0.013723)
 52:   1128.50   0.008367   42.28  0.002314  ( 0.033439 -0.000016  0.034576)
 53:   1129.24   0.000591    2.99  0.000163  (-0.000007 -0.012777 -0.000012)
 54:   1133.76   0.001027    5.19  0.000283  ( 0.000571  0.016803 -0.000017)
 55:   1134.03   0.002295   11.60  0.000632  ( 0.025092 -0.000378 -0.001330)
 56:   1184.67   0.000117    0.59  0.000031  ( 0.001836 -0.003128 -0.004202)
 57:   1184.68   0.000110    0.56  0.000029  (-0.001641 -0.003506  0.003748)
 58:   1192.38   0.015086   76.24  0.003948  (-0.062549 -0.000016 -0.005996)
 59:   1195.66   0.000732    3.70  0.000191  (-0.000087  0.013820 -0.000007)
 60:   1217.22   0.001969    9.95  0.000505  (-0.019790  0.000057 -0.010643)
 61:   1217.31   0.000053    0.27  0.000014  ( 0.000299  0.003667  0.000160)
 62:   1314.62   0.001141    5.77  0.000271  ( 0.005792  0.000022 -0.015405)
 63:   1318.13   0.000926    4.68  0.000219  ( 0.000018 -0.014804 -0.000024)
 64:   1339.88   0.086181  435.52  0.020072  ( 0.141635  0.000020 -0.003373)
 65:   1341.98   0.026681  134.83  0.006204  ( 0.000038 -0.078768 -0.000014)
 66:   1387.37   0.018365   92.81  0.004131  (-0.062618 -0.000002 -0.014484)
 67:   1389.93   0.001199    6.06  0.000269  (-0.000020  0.016411 -0.000002)
 68:   1468.10   0.001162    5.87  0.000247  ( 0.015619  0.000003 -0.001742)
 69:   1468.97   0.000324    1.64  0.000069  (-0.000008  0.008298  0.000003)
 70:   1479.75   0.005978   30.21  0.001261  (-0.034044 -0.000085  0.010089)
 71:   1480.33   0.002541   12.84  0.000536  ( 0.000115 -0.023144 -0.000047)
 72:   1481.56   0.002096   10.59  0.000441  ( 0.006860 -0.005234 -0.019156)
 73:   1481.57   0.001613    8.15  0.000340  (-0.002060 -0.017381  0.005776)
 74:   1498.26   0.018355   92.76  0.003823  (-0.061657  0.000167  0.004630)
 75:   1498.74   0.006149   31.08  0.001280  (-0.000288 -0.035781  0.000016)
 76:   1554.35   0.074287  375.42  0.014914  (-0.121491 -0.000035  0.012419)
 77:   1557.69   0.025974  131.26  0.005204  (-0.000059  0.072136  0.000018)
 78:   1656.98   0.002133   10.78  0.000402  ( 0.000191  0.020036 -0.000425)
 79:   1657.02   0.001126    5.69  0.000212  (-0.005901  0.000641  0.013297)
 80:   1698.53   0.017227   87.06  0.003165  ( 0.056109  0.000028 -0.004096)
 81:   1699.21   0.008819   44.57  0.001620  ( 0.000036 -0.040245 -0.000010)
 82:   3008.89   0.027384  138.39  0.002840  ( 0.050909 -0.000021  0.015760)
 83:   3009.05   0.000552    2.79  0.000057  (-0.000119 -0.007562 -0.000038)
 84:   3087.15   0.007832   39.58  0.000792  ( 0.011743  0.007799 -0.024350)
 85:   3087.15   0.004737   23.94  0.000479  (-0.004872  0.018787  0.010107)
 86:   3164.29   0.003342   16.89  0.000330  ( 0.016455 -0.000920 -0.007617)
 87:   3164.31   0.003466   17.52  0.000342  (-0.000821 -0.018467  0.000377)
 88:   3195.01   0.000793    4.01  0.000077  ( 0.000081 -0.008800 -0.000183)
 89:   3195.09   0.000353    1.78  0.000034  ( 0.002419  0.000300 -0.005343)
 90:   3207.32   0.000161    0.82  0.000016  (-0.003871  0.000000  0.000847)
 91:   3208.85   0.000026    0.13  0.000003  (-0.000001  0.001583  0.000001)
 92:   3225.00   0.000496    2.51  0.000048  ( 0.005365  0.000006 -0.004382)
 93:   3225.43   0.000493    2.49  0.000048  ( 0.000003 -0.006905 -0.000005)
 94:   3232.89   0.003022   15.27  0.000292  ( 0.016687  0.000069  0.003647)
 95:   3232.94   0.000137    0.69  0.000013  ( 0.000324 -0.003619  0.000070)

--------------------------
THERMOCHEMISTRY AT 298.15K
--------------------------

Temperature         ...   298.15 K
Pressure            ...     1.00 atm
Total Mass          ...   278.38 AMU
Quasi RRHO          ...     True
Cut-Off Frequency   ...     1.00 cm^-1

Throughout the following assumptions are being made:
  (1) The electronic state is orbitally nondegenerate
  (2) There are no thermally accessible electronically excited states
  (3) Hindered rotations indicated by low frequency modes are not
      treated as such but are treated as vibrations and this may
      cause some error
  (4) All equations used are the standard statistical mechanics
      equations for an ideal gas
  (5) All vibrations are strictly harmonic

freq.       8.98  E(vib)   ...       0.58
freq.      14.59  E(vib)   ...       0.57
freq.      46.50  E(vib)   ...       0.53
freq.      70.82  E(vib)   ...       0.50
freq.      77.39  E(vib)   ...       0.49
freq.     117.70  E(vib)   ...       0.44
freq.     119.44  E(vib)   ...       0.44
freq.     138.70  E(vib)   ...       0.42
freq.     176.62  E(vib)   ...       0.38
freq.     182.65  E(vib)   ...       0.37
freq.     237.83  E(vib)   ...       0.32
freq.     255.15  E(vib)   ...       0.30
freq.     258.61  E(vib)   ...       0.30
freq.     309.35  E(vib)   ...       0.26
freq.     337.39  E(vib)   ...       0.24
freq.     347.19  E(vib)   ...       0.23
freq.     355.71  E(vib)   ...       0.22
freq.     377.68  E(vib)   ...       0.21
freq.     382.87  E(vib)   ...       0.20
freq.     424.54  E(vib)   ...       0.18
freq.     425.40  E(vib)   ...       0.18
freq.     511.83  E(vib)   ...       0.14
freq.     513.82  E(vib)   ...       0.13
freq.     529.79  E(vib)   ...       0.13
freq.     532.63  E(vib)   ...       0.13
freq.     544.14  E(vib)   ...       0.12
freq.     635.63  E(vib)   ...       0.09
freq.     636.88  E(vib)   ...       0.09
freq.     650.39  E(vib)   ...       0.08
freq.     651.44  E(vib)   ...       0.08
freq.     732.18  E(vib)   ...       0.06
freq.     734.22  E(vib)   ...       0.06
freq.     824.24  E(vib)   ...       0.04
freq.     826.00  E(vib)   ...       0.04
freq.     830.42  E(vib)   ...       0.04
freq.     831.21  E(vib)   ...       0.04
freq.     847.74  E(vib)   ...       0.04
freq.     853.28  E(vib)   ...       0.04
freq.     956.67  E(vib)   ...       0.03
freq.     956.88  E(vib)   ...       0.03
freq.     977.88  E(vib)   ...       0.03
freq.     981.86  E(vib)   ...       0.02
freq.    1021.41  E(vib)   ...       0.02
freq.    1022.24  E(vib)   ...       0.02
freq.    1118.41  E(vib)   ...       0.01
freq.    1121.63  E(vib)   ...       0.01
freq.    1128.50  E(vib)   ...       0.01
freq.    1129.24  E(vib)   ...       0.01
freq.    1133.76  E(vib)   ...       0.01
freq.    1134.03  E(vib)   ...       0.01
freq.    1184.67  E(vib)   ...       0.01
freq.    1184.68  E(vib)   ...       0.01
freq.    1192.38  E(vib)   ...       0.01
freq.    1195.66  E(vib)   ...       0.01
freq.    1217.22  E(vib)   ...       0.01
freq.    1217.31  E(vib)   ...       0.01
freq.    1314.62  E(vib)   ...       0.01
freq.    1318.13  E(vib)   ...       0.01
freq.    1339.88  E(vib)   ...       0.01
freq.    1341.98  E(vib)   ...       0.01
freq.    1387.37  E(vib)   ...       0.00
freq.    1389.93  E(vib)   ...       0.00
freq.    1468.10  E(vib)   ...       0.00
freq.    1468.97  E(vib)   ...       0.00
freq.    1479.75  E(vib)   ...       0.00
freq.    1480.33  E(vib)   ...       0.00
freq.    1481.56  E(vib)   ...       0.00
freq.    1481.57  E(vib)   ...       0.00
freq.    1498.26  E(vib)   ...       0.00
freq.    1498.74  E(vib)   ...       0.00
freq.    1554.35  E(vib)   ...       0.00
freq.    1557.69  E(vib)   ...       0.00
freq.    1656.98  E(vib)   ...       0.00
freq.    1657.02  E(vib)   ...       0.00
freq.    1698.53  E(vib)   ...       0.00
freq.    1699.21  E(vib)   ...       0.00
freq.    3008.89  E(vib)   ...       0.00
freq.    3009.05  E(vib)   ...       0.00
freq.    3087.15  E(vib)   ...       0.00
freq.    3087.15  E(vib)   ...       0.00
freq.    3164.29  E(vib)   ...       0.00
freq.    3164.31  E(vib)   ...       0.00
freq.    3195.01  E(vib)   ...       0.00
freq.    3195.09  E(vib)   ...       0.00
freq.    3207.32  E(vib)   ...       0.00
freq.    3208.85  E(vib)   ...       0.00
freq.    3225.00  E(vib)   ...       0.00
freq.    3225.43  E(vib)   ...       0.00
freq.    3232.89  E(vib)   ...       0.00
freq.    3232.94  E(vib)   ...       0.00

------------
INNER ENERGY
------------

The inner energy is: U= E(el) + E(ZPE) + E(vib) + E(rot) + E(trans)
    E(el)   - is the total energy from the electronic structure calculation
              = E(kin-el) + E(nuc-el) + E(el-el) + E(nuc-nuc)
    E(ZPE)  - the the zero temperature vibrational energy from the frequency calculation
    E(vib)  - the the finite temperature correction to E(ZPE) due to population
              of excited vibrational states
    E(rot)  - is the rotational thermal energy
    E(trans)- is the translational thermal energy

Summary of contributions to the inner energy U:
Electronic energy                ...  -1486.91120283 Eh
Zero point energy                ...      0.25114914 Eh     157.60 kcal/mol
Thermal vibrational correction   ...      0.01446410 Eh       9.08 kcal/mol
Thermal rotational correction    ...      0.00141627 Eh       0.89 kcal/mol
Thermal translational correction ...      0.00141627 Eh       0.89 kcal/mol
-----------------------------------------------------------------------
Total thermal energy                  -1486.64275705 Eh

Summary of corrections to the electronic energy:
(perhaps to be used in another calculation)
Total thermal correction                  0.01729664 Eh      10.85 kcal/mol
Non-thermal (ZPE) correction              0.25114914 Eh     157.60 kcal/mol
-----------------------------------------------------------------------
Total correction                          0.26844578 Eh     168.45 kcal/mol

--------
ENTHALPY
--------

The enthalpy is H = U + kB*T
                kB is Boltzmann's constant
Total thermal energy              ...  -1486.64275705 Eh
Thermal Enthalpy correction       ...      0.00094421 Eh       0.59 kcal/mol
-----------------------------------------------------------------------
Total Enthalpy                    ...  -1486.64181284 Eh

Note: Rotational entropy computed according to Herzberg
Infrared and Raman Spectra, Chapter V,1, Van Nostrand Reinhold, 1945
Point Group:  C2, Symmetry Number:   2
Rotational constants in cm-1:     0.022512     0.004846     0.004251

Vibrational entropy computed according to the QRRHO of S. Grimme
Chem.Eur.J. 2012 18 9955 using a reference frequency of 100.0 cm-1

                             ****ORCA TERMINATED NORMALLY****
TOTAL RUN TIME: 0 days 0 hours 20 minutes 20 seconds 261 msec
