                         Program Version 6.0.0  -   RELEASE  -
|  1> !PBE0 def2-SV(p) Opt Freq d3 TightSCF SlowConv RIJCOSX defgrid2
|  2>
|  3> %pal
|  4> nprocs 15
|  5> end
|  6>
|  7> %scf
|  8> MaxIter 1500
|  9> end
| 10>
| 11> %maxcore 3500
| 12>
| 13>
| 14>
| 15> * xyz -1 2
| 16> C        0.004558812      0.000000000     -3.489690367
| 17> C       -0.056108968     -0.041695056      0.734815434
| 18> C        1.100442554     -0.178592914      1.507595227
| 19> C        0.996422886     -0.206810306      2.892232778
| 20> C       -0.260589785     -0.097742889      3.477472972
| 21> C       -1.365695149      0.035745257      2.642920802
| 22> N       -1.272951864      0.063773284      1.305431273
| 23> H        2.085183304     -0.263891796      1.043943022
| 24> H        1.893469747     -0.313467420      3.508699830
| 25> H       -0.382723826     -0.115841507      4.563891648
| 26> H       -2.374762822      0.124846981      3.057190647
| 27> C       -0.003918387     -0.005826117     -0.738868984
| 28> C        1.001184344      0.684949404     -1.421612535
| 29> C        1.004814116      0.687444036     -2.810431477
| 30> C       -0.962051684     -0.664321019     -2.741428371
| 31> N       -0.971945302     -0.671120592     -1.400488027
| 32> H        1.784447261      1.223261391     -0.884320244
| 33> H        1.785498525      1.223983885     -3.357018433
| 34> H       -0.026054626     -0.021039663     -4.582471223
| 35> H       -1.768598059     -1.218634998     -3.231321350
| 36> *
| 37>
| 38>                          ****END OF INPUT****
 Total Charge           Charge          ....   -1
 Multiplicity           Mult            ....    2
 Number of Electrons    NEL             ....   83
Dispersion correction           -0.020537148
FINAL SINGLE POINT ENERGY      -494.431429715098
Dispersion correction             ... done (  0.1 sec)
Dispersion correction           -0.020521260
FINAL SINGLE POINT ENERGY      -494.439874016958
Dispersion correction             ... done (  0.1 sec)
Dispersion correction           -0.020532381
FINAL SINGLE POINT ENERGY      -494.443622661989
Dispersion correction             ... done (  0.1 sec)
FINAL SINGLE POINT ENERGY      -494.445522118852
FINAL SINGLE POINT ENERGY      -494.446026155518
FINAL SINGLE POINT ENERGY      -494.446117649356
FINAL SINGLE POINT ENERGY      -494.446148494761
Dispersion correction             ... done (  0.1 sec)
Dispersion correction           -0.020503348
FINAL SINGLE POINT ENERGY      -494.446170189330
Dispersion correction             ... done (  0.1 sec)
Dispersion correction           -0.020502662
FINAL SINGLE POINT ENERGY      -494.446176977413
Dispersion correction             ... done (  0.1 sec)
                    ***********************HURRAY********************

CARTESIAN COORDINATES (ANGSTROEM)
---------------------------------
  C     -0.018732    0.040938   -3.528590
  C     -0.084820   -0.051548    0.714631
  C      1.060742    0.225147    1.534408
  C      0.968304    0.178829    2.907868
  C     -0.264706   -0.144239    3.515264
  C     -1.331284   -0.401748    2.637828
  N     -1.274857   -0.365562    1.325618
  H      2.021428    0.475401    1.076741
  H      1.853778    0.392759    3.520013
  H     -0.390612   -0.193704    4.600987
  H     -2.317253   -0.660485    3.064458
  C     -0.034911   -0.012889   -0.721114
  C      1.162700    0.311394   -1.443373
  C      1.166510    0.336579   -2.820482
  C     -1.142324   -0.264254   -2.742355
  N     -1.177758   -0.296509   -1.429331
  H      2.086774    0.543470   -0.907457
  H      2.090487    0.586862   -3.357295
  H     -0.068145    0.046841   -4.621566
  H     -2.094700   -0.502262   -3.249711

 Multiplicity           Mult            ....    2
 Number of Electrons    NEL             ....   83
 Basis Dimension        Dim             ....  184

ORBITAL ENERGIES
----------------
                 SPIN UP ORBITALS
  NO   OCC          E(Eh)            E(eV)
   0   1.0000     -14.201900      -386.4534
   1   1.0000     -14.201830      -386.4514
   2   1.0000     -10.100655      -274.8528
   3   1.0000     -10.100634      -274.8522
   4   1.0000     -10.090760      -274.5835
   5   1.0000     -10.090500      -274.5765
   6   1.0000     -10.088883      -274.5325
   7   1.0000     -10.088865      -274.5320
   8   1.0000     -10.075673      -274.1730
   9   1.0000     -10.075586      -274.1706
  10   1.0000     -10.069192      -273.9966
  11   1.0000     -10.069180      -273.9963
  12   1.0000      -0.792935       -21.5769
  13   1.0000      -0.773240       -21.0409
  14   1.0000      -0.654294       -17.8042
  15   1.0000      -0.647887       -17.6299
  16   1.0000      -0.636884       -17.3305
  17   1.0000      -0.583566       -15.8796
  18   1.0000      -0.509048       -13.8519
  19   1.0000      -0.484976       -13.1969
  20   1.0000      -0.455124       -12.3845
  21   1.0000      -0.447849       -12.1866
  22   1.0000      -0.388896       -10.5824
  23   1.0000      -0.353738        -9.6257
  24   1.0000      -0.343206        -9.3391
  25   1.0000      -0.335669        -9.1340
  26   1.0000      -0.305103        -8.3023
  27   1.0000      -0.288990        -7.8638
  28   1.0000      -0.280215        -7.6250
  29   1.0000      -0.266463        -7.2508
  30   1.0000      -0.253855        -6.9078
  31   1.0000      -0.253406        -6.8955
  32   1.0000      -0.236136        -6.4256
  33   1.0000      -0.218016        -5.9325
  34   1.0000      -0.213746        -5.8163
  35   1.0000      -0.153909        -4.1881
  36   1.0000      -0.139812        -3.8045
  37   1.0000      -0.138723        -3.7749
  38   1.0000      -0.098588        -2.6827
  39   1.0000      -0.085057        -2.3145
  40   1.0000      -0.079377        -2.1599
  41   1.0000       0.045928         1.2498
  42   0.0000       0.142865         3.8876
  43   0.0000       0.156960         4.2711
  44   0.0000       0.180831         4.9207
  45   0.0000       0.201501         5.4831
  46   0.0000       0.211647         5.7592

                 SPIN DOWN ORBITALS
  NO   OCC          E(Eh)            E(eV)
   0   1.0000     -14.198815      -386.3694
   1   1.0000     -14.198744      -386.3675
   2   1.0000     -10.101956      -274.8882
   3   1.0000     -10.101935      -274.8876
   4   1.0000     -10.089184      -274.5407
   5   1.0000     -10.089167      -274.5402
   6   1.0000     -10.088414      -274.5197
   7   1.0000     -10.088182      -274.5134
   8   1.0000     -10.074497      -274.1410
   9   1.0000     -10.074410      -274.1386
  10   1.0000     -10.065248      -273.8893
  11   1.0000     -10.065236      -273.8890
  12   1.0000      -0.787345       -21.4247
  13   1.0000      -0.768461       -20.9109
  14   1.0000      -0.649756       -17.6808
  15   1.0000      -0.643228       -17.5031
  16   1.0000      -0.630809       -17.1652
  17   1.0000      -0.579010       -15.7557
  18   1.0000      -0.500000       -13.6057
  19   1.0000      -0.484546       -13.1852
  20   1.0000      -0.453479       -12.3398
  21   1.0000      -0.444670       -12.1001
  22   1.0000      -0.387631       -10.5480
  23   1.0000      -0.351847        -9.5742
  24   1.0000      -0.341042        -9.2802
  25   1.0000      -0.332141        -9.0380
  26   1.0000      -0.303344        -8.2544
  27   1.0000      -0.287573        -7.8253
  28   1.0000      -0.278829        -7.5873
  29   1.0000      -0.252686        -6.8759
  30   1.0000      -0.252256        -6.8642
  31   1.0000      -0.251798        -6.8518
  32   1.0000      -0.225065        -6.1243
  33   1.0000      -0.216770        -5.8986
  34   1.0000      -0.211521        -5.7558
  35   1.0000      -0.134749        -3.6667
  36   1.0000      -0.126792        -3.4502
  37   1.0000      -0.126563        -3.4439
  38   1.0000      -0.094649        -2.5755
  39   1.0000      -0.075546        -2.0557
  40   1.0000      -0.064071        -1.7435
  41   0.0000       0.119949         3.2640
  42   0.0000       0.145583         3.9615
  43   0.0000       0.163235         4.4418
  44   0.0000       0.202130         5.5002
  45   0.0000       0.203837         5.5467

MULLIKEN ATOMIC CHARGES AND SPIN POPULATIONS
--------------------------------------------
   0 C :   -0.198042    0.288376
   1 C :    0.007796    0.139309
   2 C :   -0.176676    0.079430
   3 C :   -0.055869   -0.029630
   4 C :   -0.198218    0.288368
   5 C :   -0.060686   -0.093112
   6 N :   -0.170416    0.136031
   7 H :    0.044749   -0.005910
   8 H :    0.036007   -0.000318
   9 H :    0.031251   -0.017586
  10 H :    0.042115    0.003386
  11 C :    0.007903    0.139383
  12 C :   -0.176490    0.079430
  13 C :   -0.055982   -0.029636
  14 C :   -0.060751   -0.093097
  15 N :   -0.170535    0.136011
  16 H :    0.044689   -0.005912
  17 H :    0.035968   -0.000318
  18 H :    0.031169   -0.017590
  19 H :    0.042020    0.003386
Sum of atomic charges         :   -1.0000000

LOEWDIN ATOMIC CHARGES AND SPIN POPULATIONS
-------------------------------------------
   0 C :   -0.271274    0.226124
   1 C :   -0.057480    0.134765
   2 C :   -0.179542    0.071656
   3 C :   -0.148601    0.000428
   4 C :   -0.271284    0.226115
   5 C :   -0.099094   -0.051647
   6 N :   -0.133077    0.127869
   7 H :    0.106602   -0.002647
   8 H :    0.099674   -0.000111
   9 H :    0.098276   -0.007809
  10 H :    0.084549    0.001360
  11 C :   -0.057464    0.134804
  12 C :   -0.179559    0.071659
  13 C :   -0.148598    0.000422
  14 C :   -0.099089   -0.051638
  15 N :   -0.133088    0.127857
  16 H :    0.106596   -0.002647
  17 H :    0.099661   -0.000111
  18 H :    0.098263   -0.007810
  19 H :    0.084527    0.001359

  Mayer bond orders larger than 0.100000
B(  0-C , 13-C ) :   1.2874 B(  0-C , 14-C ) :   1.3119 B(  0-C , 18-H ) :   0.9521
B(  1-C ,  2-C ) :   1.2717 B(  1-C ,  6-N ) :   1.3635 B(  1-C , 11-C ) :   1.2402
B(  2-C ,  3-C ) :   1.5577 B(  2-C ,  7-H ) :   0.9239 B(  3-C ,  4-C ) :   1.2875
B(  3-C ,  8-H ) :   0.9527 B(  4-C ,  5-C ) :   1.3118 B(  4-C ,  9-H ) :   0.9521
B(  5-C ,  6-N ) :   1.6339 B(  5-C , 10-H ) :   0.9526 B( 11-C , 12-C ) :   1.2716
B( 11-C , 15-N ) :   1.3635 B( 12-C , 13-C ) :   1.5578 B( 12-C , 16-H ) :   0.9239
B( 13-C , 17-H ) :   0.9527 B( 14-C , 15-N ) :   1.6340 B( 14-C , 19-H ) :   0.9526

Dispersion correction           -0.020502527
FINAL SINGLE POINT ENERGY      -494.446178543574

DIPOLE MOMENT
-------------

Method             : SCF
Type of density    : Electron Density
Multiplicity       :   2
Irrep              :   0
Energy             :  -494.4256760165873175 Eh
Relativity type    :
Basis              : AO
                                X                 Y                 Z
Electronic contribution:     -2.560826687      -0.659032734      -0.106271342
Nuclear contribution   :      3.614122503       0.929387637       0.150326208
                        -----------------------------------------
Total Dipole Moment    :      1.053295816       0.270354903       0.044054867
                        -----------------------------------------
Magnitude (a.u.)       :      1.088331145
Magnitude (Debye)      :      2.766317927

VIBRATIONAL FREQUENCIES
-----------------------

Scaling factor for frequencies =  1.000000000  (already applied!)

     0:       0.00 cm**-1
     1:       0.00 cm**-1
     2:       0.00 cm**-1
     3:       0.00 cm**-1
     4:       0.00 cm**-1
     5:       0.00 cm**-1
     6:      52.63 cm**-1
     7:      83.84 cm**-1
     8:     157.12 cm**-1
     9:     171.61 cm**-1
    10:     339.60 cm**-1
    11:     373.12 cm**-1
    12:     431.14 cm**-1
    13:     437.63 cm**-1
    14:     438.03 cm**-1
    15:     511.63 cm**-1
    16:     598.21 cm**-1
    17:     632.19 cm**-1
    18:     654.12 cm**-1
    19:     666.69 cm**-1
    20:     683.15 cm**-1
    21:     721.80 cm**-1
    22:     735.15 cm**-1
    23:     768.20 cm**-1
    24:     790.79 cm**-1
    25:     824.19 cm**-1
    26:     947.59 cm**-1
    27:     951.14 cm**-1
    28:     954.16 cm**-1
    29:     959.13 cm**-1
    30:     977.29 cm**-1
    31:     991.51 cm**-1
    32:    1034.71 cm**-1
    33:    1053.54 cm**-1
    34:    1063.29 cm**-1
    35:    1092.61 cm**-1
    36:    1105.17 cm**-1
    37:    1151.23 cm**-1
    38:    1168.34 cm**-1
    39:    1237.49 cm**-1
    40:    1317.82 cm**-1
    41:    1379.52 cm**-1
    42:    1380.60 cm**-1
    43:    1396.68 cm**-1
    44:    1446.04 cm**-1
    45:    1458.33 cm**-1
    46:    1508.59 cm**-1
    47:    1515.92 cm**-1
    48:    1533.13 cm**-1
    49:    1568.18 cm**-1
    50:    1662.14 cm**-1
    51:    1689.87 cm**-1
    52:    3068.56 cm**-1
    53:    3070.15 cm**-1
    54:    3147.75 cm**-1
    55:    3148.87 cm**-1
    56:    3188.05 cm**-1
    57:    3193.09 cm**-1
    58:    3195.67 cm**-1
    59:    3206.66 cm**-1

IR SPECTRUM
-----------

 Mode   freq       eps      Int      T**2         TX        TY        TZ
       cm**-1   L/(mol*cm) km/mol    a.u.
----------------------------------------------------------------------------
  6:     52.63   0.000000    0.00  0.000000  (-0.000207  0.000059 -0.000371)
  7:     83.84   0.000185    0.94  0.000689  (-0.006531  0.025423  0.000427)
  8:    157.12   0.000001    0.00  0.000001  ( 0.001170  0.000217  0.000033)
  9:    171.61   0.000394    1.99  0.000716  (-0.025908 -0.006641 -0.000989)
 10:    339.60   0.000010    0.05  0.000009  (-0.002988 -0.000725 -0.000094)
 11:    373.12   0.001520    7.68  0.001271  ( 0.008938 -0.034497 -0.001170)
 12:    431.14   0.000644    3.25  0.000466  ( 0.000708  0.000693 -0.021562)
 13:    437.63   0.000005    0.03  0.000004  ( 0.000245 -0.001887  0.000206)
 14:    438.03   0.001076    5.44  0.000766  (-0.006861  0.026819  0.000073)
 15:    511.63   0.000000    0.00  0.000000  (-0.000255 -0.000039 -0.000172)
 16:    598.21   0.000003    0.01  0.000001  (-0.000000  0.000088 -0.001214)
 17:    632.19   0.000855    4.32  0.000422  ( 0.019919  0.004960  0.000852)
 18:    654.12   0.000272    1.37  0.000130  (-0.000403 -0.000440  0.011371)
 19:    666.69   0.016524   83.51  0.007735  (-0.021908  0.085163  0.001414)
 20:    683.15   0.000000    0.00  0.000000  (-0.000172 -0.000203 -0.000187)
 21:    721.80   0.000205    1.03  0.000089  ( 0.002292 -0.009120 -0.000280)
 22:    735.15   0.000000    0.00  0.000000  ( 0.000285  0.000052  0.000330)
 23:    768.20   0.000000    0.00  0.000000  (-0.000392 -0.000147 -0.000115)
 24:    790.79   0.003138   15.86  0.001238  ( 0.008821 -0.034057 -0.000869)
 25:    824.19   0.000000    0.00  0.000000  (-0.000268 -0.000052 -0.000133)
 26:    947.59   0.000000    0.00  0.000000  (-0.000161 -0.000037  0.000126)
 27:    951.14   0.000001    0.01  0.000000  ( 0.000152 -0.000651 -0.000083)
 28:    954.16   0.000000    0.00  0.000000  ( 0.000064  0.000008  0.000323)
 29:    959.13   0.000003    0.02  0.000001  ( 0.000330 -0.000971 -0.000214)
 30:    977.29   0.019302   97.54  0.006163  (-0.002876 -0.002107  0.078426)
 31:    991.51   0.001315    6.65  0.000414  ( 0.019672  0.005046  0.001245)
 32:   1034.71   0.031162  157.48  0.009398  (-0.003227 -0.002563  0.096856)
 33:   1053.54   0.000380    1.92  0.000113  (-0.010265 -0.002660  0.000300)
 34:   1063.29   0.000579    2.93  0.000170  ( 0.000524  0.000329 -0.013025)
 35:   1092.61   0.000066    0.33  0.000019  ( 0.004181  0.001055  0.000363)
 36:   1105.17   0.004100   20.72  0.001158  (-0.001217 -0.000900  0.033990)
 37:   1151.23   0.004266   21.56  0.001156  ( 0.001300  0.000895 -0.033970)
 38:   1168.34   0.003081   15.57  0.000823  (-0.027763 -0.007110 -0.001249)
 39:   1237.49   0.000741    3.74  0.000187  ( 0.013227  0.003414  0.000520)
 40:   1317.82   0.000029    0.15  0.000007  ( 0.000113  0.000079 -0.002625)
 41:   1379.52   0.004525   22.87  0.001024  (-0.030989 -0.007927 -0.000625)
 42:   1380.60   0.004967   25.10  0.001123  (-0.000569 -0.000826  0.033491)
 43:   1396.68   0.000885    4.47  0.000198  ( 0.013612  0.003477  0.000634)
 44:   1446.04   0.010378   52.45  0.002240  ( 0.045806  0.011751  0.001844)
 45:   1458.33   0.014058   71.04  0.003008  (-0.001797 -0.001408  0.054800)
 46:   1508.59   0.000041    0.21  0.000008  ( 0.000063 -0.000014 -0.002907)
 47:   1515.92   0.003708   18.74  0.000763  ( 0.026739  0.006845  0.001183)
 48:   1533.13   0.024965  126.17  0.005082  ( 0.002554  0.001824 -0.071216)
 49:   1568.18   0.000294    1.49  0.000059  ( 0.007400  0.001898  0.000472)
 50:   1662.14   0.169060  854.36  0.031741  ( 0.006228  0.004757 -0.177987)
 51:   1689.87   0.000738    3.73  0.000136  ( 0.011281  0.002877  0.000822)
 52:   3068.56   0.025693  129.84  0.002613  ( 0.001792  0.001225 -0.051070)
 53:   3070.15   0.032476  164.12  0.003301  ( 0.055633  0.014171  0.002265)
 54:   3147.75   0.003562   18.00  0.000353  ( 0.000322 -0.000329  0.018787)
 55:   3148.87   0.010621   53.67  0.001053  ( 0.031423  0.008032  0.000766)
 56:   3188.05   0.003637   18.38  0.000356  ( 0.000662  0.000369 -0.018852)
 57:   3193.09   0.000809    4.09  0.000079  ( 0.008581  0.002141  0.000937)
 58:   3195.67   0.012375   62.54  0.001208  ( 0.001304  0.000967 -0.034725)
 59:   3206.66   0.009611   48.57  0.000935  (-0.029626 -0.007498 -0.001197)

--------------------------
THERMOCHEMISTRY AT 298.15K
--------------------------

Temperature         ...   298.15 K
Pressure            ...     1.00 atm
Total Mass          ...   156.19 AMU
Quasi RRHO          ...     True
Cut-Off Frequency   ...     1.00 cm^-1

Throughout the following assumptions are being made:
  (1) The electronic state is orbitally nondegenerate
      but the spin degeneracy is treated
  (2) There are no thermally accessible electronically excited states
  (3) Hindered rotations indicated by low frequency modes are not
      treated as such but are treated as vibrations and this may
      cause some error
  (4) All equations used are the standard statistical mechanics
      equations for an ideal gas
  (5) All vibrations are strictly harmonic

freq.      52.63  E(vib)   ...       0.52
freq.      83.84  E(vib)   ...       0.48
freq.     157.12  E(vib)   ...       0.40
freq.     171.61  E(vib)   ...       0.38
freq.     339.60  E(vib)   ...       0.23
freq.     373.12  E(vib)   ...       0.21
freq.     431.14  E(vib)   ...       0.18
freq.     437.63  E(vib)   ...       0.17
freq.     438.03  E(vib)   ...       0.17
freq.     511.63  E(vib)   ...       0.14
freq.     598.21  E(vib)   ...       0.10
freq.     632.19  E(vib)   ...       0.09
freq.     654.12  E(vib)   ...       0.08
freq.     666.69  E(vib)   ...       0.08
freq.     683.15  E(vib)   ...       0.08
freq.     721.80  E(vib)   ...       0.07
freq.     735.15  E(vib)   ...       0.06
freq.     768.20  E(vib)   ...       0.06
freq.     790.79  E(vib)   ...       0.05
freq.     824.19  E(vib)   ...       0.04
freq.     947.59  E(vib)   ...       0.03
freq.     951.14  E(vib)   ...       0.03
freq.     954.16  E(vib)   ...       0.03
freq.     959.13  E(vib)   ...       0.03
freq.     977.29  E(vib)   ...       0.03
freq.     991.51  E(vib)   ...       0.02
freq.    1034.71  E(vib)   ...       0.02
freq.    1053.54  E(vib)   ...       0.02
freq.    1063.29  E(vib)   ...       0.02
freq.    1092.61  E(vib)   ...       0.02
freq.    1105.17  E(vib)   ...       0.02
freq.    1151.23  E(vib)   ...       0.01
freq.    1168.34  E(vib)   ...       0.01
freq.    1237.49  E(vib)   ...       0.01
freq.    1317.82  E(vib)   ...       0.01
freq.    1379.52  E(vib)   ...       0.01
freq.    1380.60  E(vib)   ...       0.01
freq.    1396.68  E(vib)   ...       0.00
freq.    1446.04  E(vib)   ...       0.00
freq.    1458.33  E(vib)   ...       0.00
freq.    1508.59  E(vib)   ...       0.00
freq.    1515.92  E(vib)   ...       0.00
freq.    1533.13  E(vib)   ...       0.00
freq.    1568.18  E(vib)   ...       0.00
freq.    1662.14  E(vib)   ...       0.00
freq.    1689.87  E(vib)   ...       0.00
freq.    3068.56  E(vib)   ...       0.00
freq.    3070.15  E(vib)   ...       0.00
freq.    3147.75  E(vib)   ...       0.00
freq.    3148.87  E(vib)   ...       0.00
freq.    3188.05  E(vib)   ...       0.00
freq.    3193.09  E(vib)   ...       0.00
freq.    3195.67  E(vib)   ...       0.00
freq.    3206.66  E(vib)   ...       0.00

------------
INNER ENERGY
------------

The inner energy is: U= E(el) + E(ZPE) + E(vib) + E(rot) + E(trans)
    E(el)   - is the total energy from the electronic structure calculation
              = E(kin-el) + E(nuc-el) + E(el-el) + E(nuc-nuc)
    E(ZPE)  - the the zero temperature vibrational energy from the frequency calculation
    E(vib)  - the the finite temperature correction to E(ZPE) due to population
              of excited vibrational states
    E(rot)  - is the rotational thermal energy
    E(trans)- is the translational thermal energy

Summary of contributions to the inner energy U:
Electronic energy                ...   -494.44617854 Eh
Zero point energy                ...      0.15453656 Eh      96.97 kcal/mol
Thermal vibrational correction   ...      0.00623251 Eh       3.91 kcal/mol
Thermal rotational correction    ...      0.00141627 Eh       0.89 kcal/mol
Thermal translational correction ...      0.00141627 Eh       0.89 kcal/mol
-----------------------------------------------------------------------
Total thermal energy                   -494.28257693 Eh

Summary of corrections to the electronic energy:
(perhaps to be used in another calculation)
Total thermal correction                  0.00906505 Eh       5.69 kcal/mol
Non-thermal (ZPE) correction              0.15453656 Eh      96.97 kcal/mol
-----------------------------------------------------------------------
Total correction                          0.16360161 Eh     102.66 kcal/mol

--------
ENTHALPY
--------

The enthalpy is H = U + kB*T
                kB is Boltzmann's constant
Total thermal energy              ...   -494.28257693 Eh
Thermal Enthalpy correction       ...      0.00094421 Eh       0.59 kcal/mol
-----------------------------------------------------------------------
Total Enthalpy                    ...   -494.28163272 Eh

Note: Only C1 symmetry has been detected, increase convergence thresholds
      if your molecule has a higher symmetry. Symmetry factor of 1.0 is
      used for the rotational entropy correction.

Note: Rotational entropy computed according to Herzberg
Infrared and Raman Spectra, Chapter V,1, Van Nostrand Reinhold, 1945
Point Group:  C1, Symmetry Number:   1
Rotational constants in cm-1:     0.097712     0.019197     0.016045

Vibrational entropy computed according to the QRRHO of S. Grimme
Chem.Eur.J. 2012 18 9955 using a reference frequency of 100.0 cm-1

-------
ENTROPY
-------

The entropy contributions are T*S = T*(S(el)+S(vib)+S(rot)+S(trans))
     S(el)   - electronic entropy
     S(vib)  - vibrational entropy
     S(rot)  - rotational entropy
     S(trans)- translational entropy
The entropies will be listed as multiplied by the temperature to get
units of energy

Electronic entropy                ...      0.00065446 Eh      0.41 kcal/mol
Vibrational entropy               ...      0.01029032 Eh      6.46 kcal/mol
Rotational entropy                ...      0.01442578 Eh      9.05 kcal/mol
Translational entropy             ...      0.01950274 Eh     12.24 kcal/mol
-----------------------------------------------------------------------
Final entropy term                ...      0.04487330 Eh     28.16 kcal/mol

In case the symmetry of your molecule has not been determined correctly
or in case you have a reason to use a different symmetry number we print
out the resulting rotational entropy values for sn=1,12:

 non-linear molecules -----------------------------------
|  sn= 1 | S(rot)=       0.01442578 Eh      9.05 kcal/mol|
|  sn= 2 | S(rot)=       0.01377132 Eh      8.64 kcal/mol|
|  sn= 3 | S(rot)=       0.01338849 Eh      8.40 kcal/mol|
|  sn= 4 | S(rot)=       0.01311687 Eh      8.23 kcal/mol|
|  sn= 5 | S(rot)=       0.01290618 Eh      8.10 kcal/mol|

                             ****ORCA TERMINATED NORMALLY****
TOTAL RUN TIME: 0 days 0 hours 28 minutes 6 seconds 747 msec
