                         Program Version 6.0.0  -   RELEASE  -
|  1> !PBE0 opt def2-SV(p) d3 TightSCF SlowConv RIJCOSX defgrid2
|  2>
|  3> %pal
|  4> nprocs 8
|  5> end
|  6>
|  7> %scf
|  8> MaxIter 1500
|  9> end
| 10>
| 11> %maxcore 3500
| 12>
| 13> !CPCM
| 14> %cpcm smd true
| 15> SMDsolvent "MeCN"
| 16> surfacetype gepol_ses
| 17> rsolv 2.19
| 18> end
| 19>
| 20> * xyz 0 1
| 21> C           0.94968287453071     -1.27993729727395      0.00000683726847
| 22> C           2.32072584922403     -1.03066468402730     -0.00000570192654
| 23> C           2.79045486785265      0.28126328538775     -0.00000619644263
| 24> C           1.88129493900205      1.34320110702256      0.00000552102250
| 25> C           0.51414900986878      1.09690334373603      0.00001977591165
| 26> C           0.03124775758730     -0.22186358373352      0.00001975571628
| 27> C          -1.40109719375212     -0.51811607942485      0.00002773818787
| 28> N          -2.27722630544222      0.40983670208196      0.00003187543002
| 29> O          -3.54943597920683     -0.07892856387383      0.00003589961153
| 30> H          -4.10699565150034      0.71269395667835      0.00004041054052
| 31> H          -1.72077053189788     -1.57247842719527      0.00002621709873
| 32> H          -0.20517984986564      1.91961492482438      0.00002936627338
| 33> H           2.24665800678188      2.37456842670514      0.00000344087776
| 34> H           3.86637191838654      0.47947397298735     -0.00001641660649
| 35> H           3.02594458116043     -1.86704493909579     -0.00001599324974
| 36> H           0.58187010727067     -2.31112044479903      0.00000487028669
| 37> *
| 38>
| 39>                          ****END OF INPUT****
 Total Charge           Charge          ....    0
 Multiplicity           Mult            ....    1
 Number of Electrons    NEL             ....   64
Dispersion correction           -0.013823529
FINAL SINGLE POINT ENERGY      -400.125681375874
Dispersion correction             ... done (  0.1 sec)
Dispersion correction           -0.013815686
FINAL SINGLE POINT ENERGY      -400.125713728381
Dispersion correction             ... done (  0.1 sec)
Dispersion correction           -0.013815142
FINAL SINGLE POINT ENERGY      -400.125716431974
Dispersion correction             ... done (  0.1 sec)
Dispersion correction           -0.013814928
FINAL SINGLE POINT ENERGY      -400.125720901395
Dispersion correction             ... done (  0.1 sec)
                    ***********************HURRAY********************

CARTESIAN COORDINATES (ANGSTROEM)
---------------------------------
  C      0.948308   -1.281244   -0.000209
  C      2.320295   -1.031354   -0.000289
  C      2.791489    0.281363   -0.000069
  C      1.882954    1.345140    0.000294
  C      0.514518    1.099060    0.000323
  C      0.030440   -0.220753    0.000026
  C     -1.401638   -0.522019    0.000124
  N     -2.279638    0.405611   -0.000859
  O     -3.552604   -0.078666   -0.000293
  H     -4.116634    0.715370   -0.000457
  H     -1.713494   -1.578133    0.001473
  H     -0.198125    1.928233    0.000659
  H      2.248754    2.376473    0.000091
  H      3.867679    0.478943   -0.000309
  H      3.024964   -1.868403   -0.000448
  H      0.580425   -2.312219    0.000149

 Multiplicity           Mult            ....    1
 Number of Electrons    NEL             ....   64
 Basis Dimension        Dim             ....  140

ORBITAL ENERGIES
----------------

  NO   OCC          E(Eh)            E(eV)
   0   2.0000     -19.251048      -523.8477
   1   2.0000     -14.443347      -393.0235
   2   2.0000     -10.266747      -279.3724
   3   2.0000     -10.253797      -279.0200
   4   2.0000     -10.241515      -278.6858
   5   2.0000     -10.239793      -278.6389
   6   2.0000     -10.239534      -278.6319
   7   2.0000     -10.239055      -278.6189
   8   2.0000     -10.238892      -278.6144
   9   2.0000      -1.120674       -30.4951
  10   2.0000      -0.900009       -24.4905
  11   2.0000      -0.866769       -23.5860
  12   2.0000      -0.773079       -21.0366
  13   2.0000      -0.765123       -20.8200
  14   2.0000      -0.655871       -17.8471
  15   2.0000      -0.625793       -17.0287
  16   2.0000      -0.585948       -15.9445
  17   2.0000      -0.549401       -14.9500
  18   2.0000      -0.530623       -14.4390
  19   2.0000      -0.486302       -13.2330
  20   2.0000      -0.468938       -12.7605
  21   2.0000      -0.452365       -12.3095
  22   2.0000      -0.445758       -12.1297
  23   2.0000      -0.435827       -11.8595
  24   2.0000      -0.426464       -11.6047
  25   2.0000      -0.394927       -10.7465
  26   2.0000      -0.365235        -9.9386
  27   2.0000      -0.357077        -9.7166
  28   2.0000      -0.313063        -8.5189
  29   2.0000      -0.294728        -8.0200
  30   2.0000      -0.273975        -7.4553
  31   2.0000      -0.243241        -6.6189
  32   0.0000      -0.044884        -1.2214
  33   0.0000      -0.007958        -0.2165
  34   0.0000       0.051114         1.3909
  35   0.0000       0.079459         2.1622
  36   0.0000       0.089229         2.4281

MULLIKEN ATOMIC CHARGES
-----------------------
   0 C :   -0.155988
   1 C :   -0.114459
   2 C :   -0.114640
   3 C :   -0.111604
   4 C :   -0.148464
   5 C :    0.044539
   6 C :   -0.075786
   7 N :   -0.046708
   8 O :   -0.390117
   9 H :    0.367143
  10 H :    0.121124
  11 H :    0.114144
  12 H :    0.127909
  13 H :    0.129661
  14 H :    0.128397
  15 H :    0.124848
Sum of atomic charges:   -0.0000000

LOEWDIN ATOMIC CHARGES
----------------------
   0 C :   -0.123440
   1 C :   -0.135172
   2 C :   -0.132848
   3 C :   -0.133458
   4 C :   -0.119564
   5 C :   -0.072811
   6 C :   -0.111643
   7 N :   -0.049846
   8 O :   -0.277208
   9 H :    0.312962
  10 H :    0.127220
  11 H :    0.139263
  12 H :    0.143839
  13 H :    0.143642
  14 H :    0.144207
  15 H :    0.144858

  Mayer bond orders larger than 0.100000
B(  0-C ,  1-C ) :   1.3820 B(  0-C ,  5-C ) :   1.3575 B(  0-C , 15-H ) :   0.9626
B(  1-C ,  2-C ) :   1.3873 B(  1-C , 14-H ) :   0.9628 B(  2-C ,  3-C ) :   1.3579
B(  2-C , 13-H ) :   0.9633 B(  3-C ,  4-C ) :   1.4039 B(  3-C , 12-H ) :   0.9637
B(  4-C ,  5-C ) :   1.3464 B(  4-C , 11-H ) :   0.9581 B(  5-C ,  6-C ) :   1.0588
B(  6-C ,  7-N ) :   1.8822 B(  6-C , 10-H ) :   0.9303 B(  7-N ,  8-O ) :   0.9894
B(  8-O ,  9-H ) :   0.8270

Dispersion correction           -0.013814976
FINAL SINGLE POINT ENERGY      -400.125721033549

DIPOLE MOMENT
-------------

Method             : SCF
Type of density    : Electron Density
Multiplicity       :   1
Irrep              :   0
Energy             :  -400.1119060572725061 Eh
Relativity type    :
Basis              : AO
                                X                 Y                 Z
Electronic contribution:     -3.239882124       0.237596915      -0.001061600
Nuclear contribution   :      3.396401723      -0.253467191       0.001793243
                        -----------------------------------------
Total Dipole Moment    :      0.156519599      -0.015870276       0.000731643
                        -----------------------------------------
Magnitude (a.u.)       :      0.157323825
Magnitude (Debye)      :      0.399885384

Rotational constants in cm-1:             0.172842             0.029943             0.025522
Rotational constants in MHz :          5181.683866           897.672627           765.123082

                             ****ORCA TERMINATED NORMALLY****
TOTAL RUN TIME: 0 days 0 hours 3 minutes 48 seconds 21 msec
