                         Program Version 6.0.0  -   RELEASE  -
|  1> !r2SCANh aug-cc-pVTZ d3 TightSCF SlowConv RIJCOSX defgrid2
|  2>
|  3> %pal
|  4> nprocs 4
|  5> end
|  6>
|  7> %scf
|  8> MaxIter 1500
|  9> end
| 10>
| 11> %maxcore 3000
| 12>
| 13> !CPCM
| 14> %cpcm smd true
| 15> SMDsolvent "MeCN"
| 16> surfacetype gepol_ses
| 17> rsolv 2.19
| 18> end
| 19>
| 20> * xyz 1 2
| 21> C          -1.44481249477950     -1.24089869043630     -0.04422599400373
| 22> C          -0.65270604847852     -0.00076368095320      0.28791614725384
| 23> C          -1.30929275863265      1.23982712865771      0.35161568821529
| 24> C          -2.74063823963677      1.43127678213719      0.02585737149656
| 25> C          -3.39505339125515      0.23037622200763     -0.64214547535322
| 26> C          -2.95552826966099     -1.04385052815768      0.05894599867098
| 27> H          -3.25015333818141     -1.00365338980094      1.12375920827710
| 28> H          -3.45411967363569     -1.92734186501785     -0.37018160543262
| 29> H          -3.10809852954095      0.19229025020268     -1.70915885064496
| 30> H          -4.49080288100221      0.33786121592847     -0.61492706244962
| 31> H          -3.25929625917231      1.67756120213297      0.97946727706286
| 32> H          -2.84476148649454      2.35439029011798     -0.57598988497406
| 33> H          -0.76469248652363      2.13141528408385      0.67016269395744
| 34> N           0.66752107988003     -0.10626256742495      0.51040491586712
| 35> C           1.56955562659101      1.00233502677147      0.81026146443154
| 36> H           1.02598182456206      1.94284494841719      0.94569175972172
| 37> C           2.60477512331413      1.13220701827643     -0.31350161995086
| 38> H           3.33201792543053      1.91420413707981     -0.04701570716605
| 39> H           2.09193033727133      1.43067631822316     -1.25179236728035
| 40> O           3.30361867772652     -0.05985085481676     -0.47723954868017
| 41> C           2.46362526797603     -1.12359131694069     -0.79016381810780
| 42> H           1.94257622699126     -0.95317296670009     -1.75539103320005
| 43> C           1.42056299159698     -1.34142967958749      0.31558716197835
| 44> H           1.93714553018002     -1.57576109367006      1.26235030582174
| 45> H           0.75880210570906     -2.17479036012822      0.05847316266350
| 46> H           3.08480888198717     -2.02759057110245     -0.88152456683608
| 47> H           2.08534474449633      0.75971289468002      1.75472159871514
| 48> H          -1.17788242047587     -1.56014085908261     -1.07070698702721
| 49> H          -1.13843616624223     -2.06145349489725      0.62645826697362
| 50> *
| 51>
| 52>                          ****END OF INPUT****

CARTESIAN COORDINATES (ANGSTROEM)
---------------------------------
  C     -1.444812   -1.240899   -0.044226
  C     -0.652706   -0.000764    0.287916
  C     -1.309293    1.239827    0.351616
  C     -2.740638    1.431277    0.025857
  C     -3.395053    0.230376   -0.642145
  C     -2.955528   -1.043851    0.058946
  H     -3.250153   -1.003653    1.123759
  H     -3.454120   -1.927342   -0.370182
  H     -3.108099    0.192290   -1.709159
  H     -4.490803    0.337861   -0.614927
  H     -3.259296    1.677561    0.979467
  H     -2.844761    2.354390   -0.575990
  H     -0.764692    2.131415    0.670163
  N      0.667521   -0.106263    0.510405
  C      1.569556    1.002335    0.810261
  H      1.025982    1.942845    0.945692
  C      2.604775    1.132207   -0.313502
  H      3.332018    1.914204   -0.047016
  H      2.091930    1.430676   -1.251792
  O      3.303619   -0.059851   -0.477240
  C      2.463625   -1.123591   -0.790164
  H      1.942576   -0.953173   -1.755391
  C      1.420563   -1.341430    0.315587
  H      1.937146   -1.575761    1.262350
  H      0.758802   -2.174790    0.058473
  H      3.084809   -2.027591   -0.881525
  H      2.085345    0.759713    1.754722
  H     -1.177882   -1.560141   -1.070707
  H     -1.138436   -2.061453    0.626458

 Total Charge           Charge          ....    1
 Multiplicity           Mult            ....    2
 Number of Electrons    NEL             ....   91
 Basis Dimension        Dim             ....  943

ORBITAL ENERGIES
----------------
                 SPIN UP ORBITALS
  NO   OCC          E(Eh)            E(eV)
   0   1.0000     -19.143836      -520.9303
   1   1.0000     -14.415778      -392.2733
   2   1.0000     -10.251840      -278.9667
   3   1.0000     -10.219714      -278.0926
   4   1.0000     -10.219078      -278.0753
   5   1.0000     -10.212117      -277.8858
   6   1.0000     -10.212086      -277.8850
   7   1.0000     -10.211584      -277.8713
   8   1.0000     -10.178225      -276.9636
   9   1.0000     -10.171552      -276.7820
  10   1.0000     -10.159590      -276.4565
  11   1.0000     -10.156570      -276.3743
  12   1.0000      -1.081539       -29.4302
  13   1.0000      -1.018368       -27.7112
  14   1.0000      -0.861750       -23.4494
  15   1.0000      -0.801306       -21.8047
  16   1.0000      -0.783394       -21.3172
  17   1.0000      -0.768754       -20.9189
  18   1.0000      -0.711416       -19.3586
  19   1.0000      -0.688033       -18.7223
  20   1.0000      -0.636437       -17.3183
  21   1.0000      -0.627008       -17.0618
  22   1.0000      -0.587165       -15.9776
  23   1.0000      -0.557628       -15.1738
  24   1.0000      -0.526115       -14.3163
  25   1.0000      -0.501413       -13.6441
  26   1.0000      -0.493329       -13.4242
  27   1.0000      -0.487740       -13.2721
  28   1.0000      -0.477989       -13.0067
  29   1.0000      -0.467602       -12.7241
  30   1.0000      -0.448644       -12.2082
  31   1.0000      -0.432608       -11.7719
  32   1.0000      -0.430827       -11.7234
  33   1.0000      -0.416488       -11.3332
  34   1.0000      -0.410865       -11.1802
  35   1.0000      -0.391535       -10.6542
  36   1.0000      -0.387199       -10.5362
  37   1.0000      -0.372307       -10.1310
  38   1.0000      -0.362105        -9.8534
  39   1.0000      -0.350061        -9.5256
  40   1.0000      -0.327943        -8.9238
  41   1.0000      -0.325592        -8.8598
  42   1.0000      -0.317249        -8.6328
  43   1.0000      -0.314579        -8.5601
  44   1.0000      -0.274942        -7.4816
  45   1.0000      -0.238870        -6.5000
  46   0.0000      -0.031172        -0.8482
  47   0.0000       0.007117         0.1937
  48   0.0000       0.019187         0.5221
  49   0.0000       0.020126         0.5477
  50   0.0000       0.021400         0.5823

                 SPIN DOWN ORBITALS
  NO   OCC          E(Eh)            E(eV)
   0   1.0000     -19.143325      -520.9164
   1   1.0000     -14.405242      -391.9866
   2   1.0000     -10.253846      -279.0213
   3   1.0000     -10.219052      -278.0745
   4   1.0000     -10.218567      -278.0614
   5   1.0000     -10.212378      -277.8929
   6   1.0000     -10.211881      -277.8794
   7   1.0000     -10.201131      -277.5869
   8   1.0000     -10.178131      -276.9610
   9   1.0000     -10.171995      -276.7940
  10   1.0000     -10.159612      -276.4571
  11   1.0000     -10.156513      -276.3728
  12   1.0000      -1.080093       -29.3908
  13   1.0000      -1.004806       -27.3422
  14   1.0000      -0.853378       -23.2216
  15   1.0000      -0.799402       -21.7528
  16   1.0000      -0.783316       -21.3151
  17   1.0000      -0.760594       -20.6968
  18   1.0000      -0.703032       -19.1305
  19   1.0000      -0.686966       -18.6933
  20   1.0000      -0.634274       -17.2595
  21   1.0000      -0.619796       -16.8655
  22   1.0000      -0.584365       -15.9014
  23   1.0000      -0.553307       -15.0563
  24   1.0000      -0.521933       -14.2025
  25   1.0000      -0.497761       -13.5448
  26   1.0000      -0.486037       -13.2257
  27   1.0000      -0.484073       -13.1723
  28   1.0000      -0.476014       -12.9530
  29   1.0000      -0.463506       -12.6126
  30   1.0000      -0.442062       -12.0291
  31   1.0000      -0.428835       -11.6692
  32   1.0000      -0.426138       -11.5958
  33   1.0000      -0.414287       -11.2733
  34   1.0000      -0.409004       -11.1296
  35   1.0000      -0.384811       -10.4712
  36   1.0000      -0.382550       -10.4097
  37   1.0000      -0.370579       -10.0840
  38   1.0000      -0.360185        -9.8011
  39   1.0000      -0.337735        -9.1902
  40   1.0000      -0.325665        -8.8618
  41   1.0000      -0.322477        -8.7751
  42   1.0000      -0.314947        -8.5701
  43   1.0000      -0.308655        -8.3989
  44   1.0000      -0.266301        -7.2464
  45   0.0000      -0.150344        -4.0911
  46   0.0000      -0.002895        -0.0788
  47   0.0000       0.010964         0.2984
  48   0.0000       0.021001         0.5715
  49   0.0000       0.021718         0.5910

MULLIKEN ATOMIC CHARGES AND SPIN POPULATIONS
--------------------------------------------
   0 C :    0.127611    0.042912
   1 C :    1.360408   -0.097646
   2 C :   -0.609322    0.597799
   3 C :   -0.221606   -0.113045
   4 C :   -0.334370   -0.001923
   5 C :   -0.549998   -0.001174
   6 H :    0.055666   -0.002421
   7 H :    0.222485    0.001203
   8 H :    0.132711   -0.002442
   9 H :    0.189766   -0.000954
  10 H :    0.174542    0.073107
  11 H :    0.178853    0.034295
  12 H :    0.176691    0.021955
  13 N :    0.067929    0.407766
  14 C :   -0.798974   -0.029279
  15 H :    0.214283    0.003795
  16 C :   -0.038666    0.024557
  17 H :    0.268826    0.003015
  18 H :    0.240098    0.003325
  19 O :   -0.669219    0.015729
  20 C :   -0.066313    0.033954
  21 H :    0.238592    0.003370
  22 C :   -0.613593   -0.041476
  23 H :    0.168830    0.016056
  24 H :    0.223314    0.001503
  25 H :    0.263125    0.004981
  26 H :    0.152448    0.013170
  27 H :    0.207500   -0.006607
  28 H :    0.238384   -0.005523
Sum of atomic charges         :    1.0000000

LOEWDIN ATOMIC CHARGES AND SPIN POPULATIONS
-------------------------------------------
   0 C :    0.319587   -0.000295
   1 C :   -0.076017    0.094955
   2 C :    0.364054    0.319067
   3 C :    0.302805    0.097620
   4 C :    0.291144    0.004506
   5 C :    0.299971    0.001699
   6 H :   -0.118230    0.000341
   7 H :   -0.120055    0.000171
   8 H :   -0.121294    0.000756
   9 H :   -0.124083    0.000006
  10 H :   -0.110254    0.027237
  11 H :   -0.117351    0.014985
  12 H :   -0.161058    0.060245
  13 N :    0.339735    0.236906
  14 C :    0.271455    0.030144
  15 H :   -0.157983    0.000134
  16 C :    0.064450    0.014345
  17 H :   -0.127949    0.002554
  18 H :   -0.122234    0.001611
  19 O :    0.605337    0.014079
  20 C :    0.064869    0.017802
  21 H :   -0.122726    0.002036
  22 C :    0.268852    0.037998
  23 H :   -0.097242    0.010181
  24 H :   -0.155581    0.001509
  25 H :   -0.127298    0.003474
  26 H :   -0.099746    0.007485
  27 H :   -0.102990   -0.000430
  28 H :   -0.130168   -0.001121

  Mayer bond orders larger than 0.100000
B(  0-C ,  1-C ) :   0.6185 B(  0-C ,  2-C ) :  -0.1822 B(  0-C ,  5-C ) :   0.8486
B(  0-C , 27-H ) :   0.9470 B(  0-C , 28-H ) :   0.9195 B(  1-C ,  3-C ) :  -0.1878
B(  1-C ,  4-C ) :  -0.1456 B(  1-C , 13-N ) :   0.1296 B(  1-C , 14-C ) :  -0.2492
B(  1-C , 22-C ) :  -0.1549 B(  2-C ,  3-C ) :   0.7850 B(  2-C ,  4-C ) :   0.1855
B(  2-C , 12-H ) :   0.8495 B(  2-C , 14-C ) :  -0.1529 B(  2-C , 22-C ) :   0.1045
B(  3-C ,  4-C ) :   0.9470 B(  3-C ,  5-C ) :   0.1041 B(  3-C , 10-H ) :   0.9970
B(  3-C , 11-H ) :   0.9551 B(  3-C , 12-H ) :  -0.1333 B(  4-C ,  5-C ) :   0.9399
B(  4-C ,  8-H ) :   1.0137 B(  4-C ,  9-H ) :   0.9618 B(  5-C ,  6-H ) :   1.0931
B(  5-C ,  7-H ) :   0.9071 B( 12-H , 15-H ) :  -0.1116 B( 13-N , 14-C ) :   1.2613
B( 13-N , 22-C ) :   1.0331 B( 14-C , 15-H ) :   0.9722 B( 14-C , 16-C ) :   0.8731
B( 14-C , 19-O ) :   0.1011 B( 14-C , 22-C ) :   0.2607 B( 14-C , 26-H ) :   1.0103
B( 16-C , 17-H ) :   0.9187 B( 16-C , 18-H ) :   0.9535 B( 16-C , 19-O ) :   0.8261
B( 19-O , 20-C ) :   0.8269 B( 20-C , 21-H ) :   0.9480 B( 20-C , 22-C ) :   0.9101
B( 20-C , 25-H ) :   0.9234 B( 22-C , 23-H ) :   0.9667 B( 22-C , 24-H ) :   0.9400

Dispersion correction           -0.010085609
FINAL SINGLE POINT ENERGY      -520.965284952052

DIPOLE MOMENT
-------------

Method             : SCF
Type of density    : Electron Density
Multiplicity       :   2
Irrep              :   0
Energy             :  -520.9551993426679246 Eh
Relativity type    :
Basis              : AO
                                X                 Y                 Z
Electronic contribution:      6.259626927       0.766623296       1.262022518
Nuclear contribution   :     -6.882345932      -0.552455491      -0.747170800
                        -----------------------------------------
Total Dipole Moment    :     -0.622719006       0.214167805       0.514851718
                        -----------------------------------------
Magnitude (a.u.)       :      0.835894192
Magnitude (Debye)      :      2.124674185

Rotational constants in cm-1:             0.071012             0.017984             0.015658
Rotational constants in MHz :          2128.893427           539.145769           469.425599

                             ****ORCA TERMINATED NORMALLY****
TOTAL RUN TIME: 0 days 0 hours 23 minutes 57 seconds 103 msec
