                         Program Version 6.0.0  -   RELEASE  -
|  1> !PBE0 aug-cc-pVTZ d3 TightSCF SlowConv RIJCOSX defgrid2
|  2>
|  3> %pal
|  4> nprocs 4
|  5> end
|  6>
|  7> %scf
|  8> MaxIter 1500
|  9> end
| 10>
| 11> %maxcore 3000
| 12>
| 13> !CPCM
| 14> %cpcm smd true
| 15> SMDsolvent "MeCN"
| 16> surfacetype gepol_ses
| 17> rsolv 2.19
| 18> end
| 19>
| 20> * xyz 0 1
| 21> C          -1.46623314437860      0.00011003866901      0.22138384864377
| 22> C          -0.72146821550608     -1.25556136021306     -0.22481675803302
| 23> C           0.73262554024155     -1.20678755712777      0.22695422389648
| 24> N           1.36188913054653     -0.00003006922571     -0.26913603967446
| 25> H           2.35649748423742      0.00003991081311     -0.05534562705397
| 26> C           0.73253990701766      1.20675926009467      0.22704999760922
| 27> C          -0.72144308108941      1.25558522950449     -0.22511308939031
| 28> H          -1.21016137962431      2.16287914838208      0.17240179576001
| 29> H          -0.74244280115887      1.32521043142589     -1.32823766113094
| 30> H           1.28241123896761      2.08000889090111     -0.16483545442717
| 31> H           0.76101367989671      1.27620173910910      1.34294202221842
| 32> H           1.28219641826463     -2.08008378359356     -0.16534993713385
| 33> H           0.76183907670503     -1.27697357186768      1.34279799676324
| 34> H          -1.21020710908673     -2.16266625677100      0.17304098184531
| 35> H          -0.74264320710994     -1.32505523098441     -1.32794132635220
| 36> H          -2.49942641463124      0.00003764837706     -0.16886144147242
| 37> H          -1.54597222329197      0.00034473250668      1.32642866793188
| 38> *
| 39>
| 40>                          ****END OF INPUT****

CARTESIAN COORDINATES (ANGSTROEM)
---------------------------------
  C     -1.466233    0.000110    0.221384
  C     -0.721468   -1.255561   -0.224817
  C      0.732626   -1.206788    0.226954
  N      1.361889   -0.000030   -0.269136
  H      2.356497    0.000040   -0.055346
  C      0.732540    1.206759    0.227050
  C     -0.721443    1.255585   -0.225113
  H     -1.210161    2.162879    0.172402
  H     -0.742443    1.325210   -1.328238
  H      1.282411    2.080009   -0.164835
  H      0.761014    1.276202    1.342942
  H      1.282196   -2.080084   -0.165350
  H      0.761839   -1.276974    1.342798
  H     -1.210207   -2.162666    0.173041
  H     -0.742643   -1.325055   -1.327941
  H     -2.499426    0.000038   -0.168861
  H     -1.545972    0.000345    1.326429

 Total Charge           Charge          ....    0
 Multiplicity           Mult            ....    1
 Number of Electrons    NEL             ....   48
 Basis Dimension        Dim             ....  529

ORBITAL ENERGIES
----------------

  NO   OCC          E(Eh)            E(eV)
   0   2.0000     -14.364151      -390.8684
   1   2.0000     -10.235040      -278.5096
   2   2.0000     -10.235035      -278.5095
   3   2.0000     -10.210770      -277.8492
   4   2.0000     -10.209485      -277.8142
   5   2.0000     -10.209456      -277.8134
   6   2.0000      -0.933292       -25.3962
   7   2.0000      -0.800518       -21.7832
   8   2.0000      -0.764909       -20.8142
   9   2.0000      -0.643687       -17.5156
  10   2.0000      -0.628039       -17.0898
  11   2.0000      -0.556370       -15.1396
  12   2.0000      -0.520168       -14.1545
  13   2.0000      -0.456269       -12.4157
  14   2.0000      -0.455439       -12.3931
  15   2.0000      -0.427427       -11.6309
  16   2.0000      -0.412819       -11.2334
  17   2.0000      -0.407375       -11.0852
  18   2.0000      -0.384901       -10.4737
  19   2.0000      -0.344866        -9.3843
  20   2.0000      -0.327010        -8.8984
  21   2.0000      -0.314240        -8.5509
  22   2.0000      -0.312054        -8.4914
  23   2.0000      -0.233696        -6.3592
  24   0.0000       0.003675         0.1000
  25   0.0000       0.016424         0.4469
  26   0.0000       0.018444         0.5019
  27   0.0000       0.019301         0.5252
  28   0.0000       0.039763         1.0820

MULLIKEN ATOMIC CHARGES
-----------------------
   0 C :   -0.283647
   1 C :   -0.374067
   2 C :   -0.271002
   3 N :   -0.342728
   4 H :   -0.034856
   5 C :   -0.271093
   6 C :   -0.374009
   7 H :    0.203126
   8 H :    0.160484
   9 H :    0.247271
  10 H :    0.179569
  11 H :    0.247330
  12 H :    0.179358
  13 H :    0.203129
  14 H :    0.160693
  15 H :    0.162758
  16 H :    0.207684
Sum of atomic charges:    0.0000000

LOEWDIN ATOMIC CHARGES
----------------------
   0 C :    0.259000
   1 C :    0.258433
   2 C :    0.132610
   3 N :    0.551374
   4 H :   -0.286087
   5 C :    0.132728
   6 C :    0.258362
   7 H :   -0.130789
   8 H :   -0.135372
   9 H :   -0.133070
  10 H :   -0.122119
  11 H :   -0.133080
  12 H :   -0.122078
  13 H :   -0.130794
  14 H :   -0.135387
  15 H :   -0.131505
  16 H :   -0.132224

  Mayer bond orders larger than 0.100000
B(  0-C ,  1-C ) :   0.9710 B(  0-C ,  6-C ) :   0.9708 B(  0-C , 15-H ) :   0.9817
B(  0-C , 16-H ) :   0.9416 B(  1-C ,  2-C ) :   0.9706 B(  1-C , 13-H ) :   0.9220
B(  1-C , 14-H ) :   1.0087 B(  2-C ,  3-N ) :   0.9152 B(  2-C , 11-H ) :   0.9288
B(  2-C , 12-H ) :   0.9574 B(  3-N ,  4-H ) :   1.0361 B(  3-N ,  5-C ) :   0.9151
B(  5-C ,  6-C ) :   0.9710 B(  5-C ,  9-H ) :   0.9289 B(  5-C , 10-H ) :   0.9571
B(  6-C ,  7-H ) :   0.9218 B(  6-C ,  8-H ) :   1.0089

Dispersion correction           -0.012308238
FINAL SINGLE POINT ENERGY      -251.710221683407

DIPOLE MOMENT
-------------

Method             : SCF
Type of density    : Electron Density
Multiplicity       :   1
Irrep              :   0
Energy             :  -251.6979134451525226 Eh
Relativity type    :
Basis              : AO
                                X                 Y                 Z
Electronic contribution:      1.556506654       0.000229914      -0.570043427
Nuclear contribution   :     -1.432111276      -0.000148884       1.063195941
                        -----------------------------------------
Total Dipole Moment    :      0.124395378       0.000081030       0.493152513
                        -----------------------------------------
Magnitude (a.u.)       :      0.508599664
Magnitude (Debye)      :      1.292757608

Rotational constants in cm-1:             0.151873             0.148898             0.085191
Rotational constants in MHz :          4553.029667          4463.848294          2553.974723

                             ****ORCA TERMINATED NORMALLY****
TOTAL RUN TIME: 0 days 0 hours 3 minutes 28 seconds 190 msec
