                         Program Version 6.0.0  -   RELEASE  -
|  1> !r2SCANh freq aug-cc-pVTZ d3 TightSCF SlowConv RIJCOSX defgrid2
|  2>
|  3> %pal
|  4> nprocs 12
|  5> end
|  6>
|  7> %scf
|  8> MaxIter 1500
|  9> end
| 10>
| 11> %maxcore 5000
| 12>
| 13> !CPCM
| 14> %cpcm smd true
| 15> SMDsolvent "MeCN"
| 16> surfacetype gepol_ses
| 17> rsolv 2.19
| 18> end
| 19>
| 20> * xyz 0 1
| 21> C          -0.02757473074249      1.19287592303552     -0.00016148987908
| 22> C           1.35740213754778      1.22246825555877      0.00004821632081
| 23> C           2.03305327617741      0.01892198377551      0.00010385812583
| 24> C           1.39212564216495     -1.20646771717308      0.00040072217005
| 25> C           0.01057857016173     -1.21540789383996     -0.00007634042497
| 26> C          -0.71516262193169     -0.02182461707788     -0.00046204812154
| 27> C          -2.20073604103272     -0.08662390713410     -0.00108172142568
| 28> O          -2.77298806917453     -1.16324288202778     -0.00218239097063
| 29> C          -2.97204903761815      1.19869913235268     -0.00010272274669
| 30> H          -2.72113463859739      1.79692878258129      0.87664107687735
| 31> H          -2.72325662095886      1.79712904067055     -0.87742044968208
| 32> H          -4.03578977799706      0.98167945951407      0.00118477781997
| 33> H          -0.52655700702233     -2.15301951215091      0.00009565767935
| 34> H           1.96909442202317     -2.12005261769561      0.00084221766091
| 35> F           3.37824013494455      0.03788608689202     -0.00004726896122
| 36> H           1.90569485410596      2.15333426478985      0.00005183720828
| 37> H          -0.56657239205032      2.12880831792905      0.00043966834935
| 38> *
| 39>
| 40>                          ****END OF INPUT****

CARTESIAN COORDINATES (ANGSTROEM)
---------------------------------
  C     -0.027575    1.192876   -0.000161
  C      1.357402    1.222468    0.000048
  C      2.033053    0.018922    0.000104
  C      1.392126   -1.206468    0.000401
  C      0.010579   -1.215408   -0.000076
  C     -0.715163   -0.021825   -0.000462
  C     -2.200736   -0.086624   -0.001082
  O     -2.772988   -1.163243   -0.002182
  C     -2.972049    1.198699   -0.000103
  H     -2.721135    1.796929    0.876641
  H     -2.723257    1.797129   -0.877420
  H     -4.035790    0.981679    0.001185
  H     -0.526557   -2.153020    0.000096
  H      1.969094   -2.120053    0.000842
  F      3.378240    0.037886   -0.000047
  H      1.905695    2.153334    0.000052
  H     -0.566572    2.128808    0.000440

 Total Charge           Charge          ....    0
 Multiplicity           Mult            ....    1
 Number of Electrons    NEL             ....   72
 Basis Dimension        Dim             ....  621

ORBITAL ENERGIES
----------------

  NO   OCC          E(Eh)            E(eV)
   0   2.0000     -24.696899      -672.0368
   1   2.0000     -19.103798      -519.8408
   2   2.0000     -10.255534      -279.0673
   3   2.0000     -10.246930      -278.8331
   4   2.0000     -10.177221      -276.9363
   5   2.0000     -10.174217      -276.8545
   6   2.0000     -10.172488      -276.8075
   7   2.0000     -10.170482      -276.7529
   8   2.0000     -10.170453      -276.7521
   9   2.0000     -10.145574      -276.0751
  10   2.0000      -1.246385       -33.9159
  11   2.0000      -1.045727       -28.4557
  12   2.0000      -0.878686       -23.9102
  13   2.0000      -0.780024       -21.2255
  14   2.0000      -0.767490       -20.8845
  15   2.0000      -0.729361       -19.8469
  16   2.0000      -0.635748       -17.2996
  17   2.0000      -0.626917       -17.0593
  18   2.0000      -0.553960       -15.0740
  19   2.0000      -0.546686       -14.8761
  20   2.0000      -0.495425       -13.4812
  21   2.0000      -0.475566       -12.9408
  22   2.0000      -0.472145       -12.8477
  23   2.0000      -0.446749       -12.1567
  24   2.0000      -0.434645       -11.8273
  25   2.0000      -0.428208       -11.6521
  26   2.0000      -0.424133       -11.5412
  27   2.0000      -0.399929       -10.8826
  28   2.0000      -0.391664       -10.6577
  29   2.0000      -0.372473       -10.1355
  30   2.0000      -0.366919        -9.9844
  31   2.0000      -0.347015        -9.4428
  32   2.0000      -0.338380        -9.2078
  33   2.0000      -0.269416        -7.3312
  34   2.0000      -0.255236        -6.9453
  35   2.0000      -0.245044        -6.6680
  36   0.0000      -0.073248        -1.9932
  37   0.0000      -0.037007        -1.0070
  38   0.0000       0.009414         0.2562
  39   0.0000       0.022417         0.6100
  40   0.0000       0.022874         0.6224

MULLIKEN ATOMIC CHARGES
-----------------------
   0 C :   -0.295377
   1 C :   -0.928697
   2 C :    0.684246
   3 C :   -0.735269
   4 C :   -0.780322
   5 C :    1.460757
   6 C :    0.765257
   7 O :   -0.968272
   8 C :   -0.579851
   9 H :    0.255210
  10 H :    0.256237
  11 H :    0.170519
  12 H :    0.183618
  13 H :    0.468033
  14 F :   -0.524350
  15 H :    0.438114
  16 H :    0.130146
Sum of atomic charges:   -0.0000000

LOEWDIN ATOMIC CHARGES
----------------------
   0 C :    0.208294
   1 C :    0.215738
   2 C :   -0.529584
   3 C :    0.211342
   4 C :    0.195994
   5 C :   -0.132621
   6 C :   -0.546335
   7 O :    0.478580
   8 C :    0.580709
   9 H :   -0.163928
  10 H :   -0.163720
  11 H :   -0.181202
  12 H :   -0.187221
  13 H :   -0.171618
  14 F :    0.536757
  15 H :   -0.170763
  16 H :   -0.180421

  Mayer bond orders larger than 0.100000
B(  0-C ,  1-C ) :   0.8044 B(  0-C ,  2-C ) :  -0.2614 B(  0-C ,  3-C ) :  -0.1679
B(  0-C ,  4-C ) :  -0.3336 B(  0-C ,  5-C ) :   0.4368 B(  0-C , 16-H ) :   1.2524
B(  1-C ,  2-C ) :   1.3681 B(  1-C ,  3-C ) :   0.2941 B(  1-C , 14-F ) :   0.1833
B(  1-C , 15-H ) :   0.5176 B(  2-C ,  3-C ) :   1.3614 B(  2-C ,  4-C ) :  -0.3479
B(  2-C , 14-F ) :   0.3104 B(  3-C ,  4-C ) :   1.2793 B(  3-C , 13-H ) :   0.4736
B(  3-C , 14-F ) :   0.1759 B(  4-C ,  5-C ) :   0.2245 B(  4-C ,  6-C ) :   0.2317
B(  4-C , 12-H ) :   1.0065 B(  4-C , 16-H ) :   0.1138 B(  5-C ,  6-C ) :   0.3357
B(  5-C ,  7-O ) :   0.1269 B(  5-C ,  8-C ) :   0.1163 B(  5-C , 16-H ) :  -0.1590
B(  6-C ,  7-O ) :   0.8461 B(  6-C ,  8-C ) :   0.9108 B(  7-O , 12-H ) :   0.1280
B(  8-C ,  9-H ) :   0.9624 B(  8-C , 10-H ) :   0.9615 B(  8-C , 11-H ) :   0.9620
B( 12-H , 16-H ) :   0.1241 B( 13-H , 14-F ) :   0.1119 B( 14-F , 15-H ) :   0.1030

Dispersion correction           -0.005440706
FINAL SINGLE POINT ENERGY      -484.051103079231

DIPOLE MOMENT
-------------

Method             : SCF
Type of density    : Electron Density
Multiplicity       :   1
Irrep              :   0
Energy             :  -484.0456623735403241 Eh
Relativity type    :
Basis              : AO
                                X                 Y                 Z
Electronic contribution:      9.787818840      -2.887570680      -0.001609265
Nuclear contribution   :     -9.438344206       4.250102474       0.003778136
                        -----------------------------------------
Total Dipole Moment    :      0.349474634       1.362531794       0.002168871
                        -----------------------------------------
Magnitude (a.u.)       :      1.406637876
Magnitude (Debye)      :      3.575389339

VIBRATIONAL FREQUENCIES
-----------------------

Scaling factor for frequencies =  1.000000000  (already applied!)

     0:       0.00 cm**-1
     1:       0.00 cm**-1
     2:       0.00 cm**-1
     3:       0.00 cm**-1
     4:       0.00 cm**-1
     5:       0.00 cm**-1
     6:      41.88 cm**-1
     7:     102.99 cm**-1
     8:     157.28 cm**-1
     9:     197.30 cm**-1
    10:     292.08 cm**-1
    11:     342.16 cm**-1
    12:     402.01 cm**-1
    13:     424.17 cm**-1
    14:     472.01 cm**-1
    15:     500.79 cm**-1
    16:     577.09 cm**-1
    17:     596.88 cm**-1
    18:     643.65 cm**-1
    19:     695.64 cm**-1
    20:     744.23 cm**-1
    21:     829.22 cm**-1
    22:     848.20 cm**-1
    23:     858.43 cm**-1
    24:     966.26 cm**-1
    25:     977.99 cm**-1
    26:    1000.08 cm**-1
    27:    1031.83 cm**-1
    28:    1041.27 cm**-1
    29:    1098.74 cm**-1
    30:    1117.98 cm**-1
    31:    1166.96 cm**-1
    32:    1242.31 cm**-1
    33:    1285.07 cm**-1
    34:    1316.22 cm**-1
    35:    1369.63 cm**-1
    36:    1384.58 cm**-1
    37:    1445.89 cm**-1
    38:    1449.40 cm**-1
    39:    1455.32 cm**-1
    40:    1537.30 cm**-1
    41:    1641.02 cm**-1
    42:    1647.06 cm**-1
    43:    1729.86 cm**-1
    44:    3054.76 cm**-1
    45:    3122.14 cm**-1
    46:    3169.18 cm**-1
    47:    3211.76 cm**-1
    48:    3214.65 cm**-1
    49:    3224.41 cm**-1
    50:    3227.42 cm**-1

IR SPECTRUM
-----------

 Mode   freq       eps      Int      T**2         TX        TY        TZ
       cm**-1   L/(mol*cm) km/mol    a.u.
----------------------------------------------------------------------------
  6:     41.88   0.001197    6.05  0.008923  (-0.000714 -0.000613  0.094457)
  7:    102.99   0.000380    1.92  0.001153  ( 0.000229 -0.000277  0.033951)
  8:    157.28   0.000076    0.39  0.000152  ( 0.000955 -0.000153  0.012281)
  9:    197.30   0.001805    9.12  0.002854  ( 0.050427 -0.017652  0.000057)
 10:    292.08   0.000149    0.75  0.000159  ( 0.000224  0.000115  0.012599)
 11:    342.16   0.000612    3.09  0.000559  ( 0.013958  0.019070  0.000214)
 12:    402.01   0.001420    7.18  0.001103  (-0.009729 -0.031749 -0.000042)
 13:    424.17   0.000002    0.01  0.000002  (-0.000059  0.000112  0.001270)
 14:    472.01   0.000574    2.90  0.000379  (-0.018758  0.005242  0.000262)
 15:    500.79   0.003411   17.24  0.002126  ( 0.000013  0.000017 -0.046107)
 16:    577.09   0.014285   72.19  0.007725  ( 0.085637 -0.019775  0.000050)
 17:    596.88   0.005047   25.51  0.002639  (-0.000025 -0.000060  0.051370)
 18:    643.65   0.000081    0.41  0.000039  (-0.000990  0.006197 -0.000142)
 19:    695.64   0.000387    1.95  0.000173  ( 0.009609  0.009007  0.000113)
 20:    744.23   0.000020    0.10  0.000008  (-0.000265 -0.000043  0.002903)
 21:    829.22   0.001105    5.58  0.000416  ( 0.000312 -0.000326 -0.020388)
 22:    848.20   0.009052   45.74  0.003330  ( 0.057578  0.003220 -0.002150)
 23:    858.43   0.024041  121.49  0.008740  ( 0.001002  0.000207  0.093480)
 24:    966.26   0.014794   74.76  0.004778  (-0.064597  0.024598 -0.000072)
 25:    977.99   0.000099    0.50  0.000032  ( 0.003246 -0.000907  0.004496)
 26:   1000.08   0.000071    0.36  0.000022  (-0.000342 -0.000549  0.004664)
 27:   1031.83   0.003497   17.67  0.001058  (-0.032311  0.003695  0.000251)
 28:   1041.27   0.000755    3.81  0.000226  ( 0.000338 -0.000146  0.015034)
 29:   1098.74   0.000288    1.46  0.000082  (-0.003416  0.008379  0.000051)
 30:   1117.98   0.004892   24.72  0.001366  ( 0.005732 -0.036507 -0.000090)
 31:   1166.96   0.025311  127.91  0.006769  (-0.082271  0.000384 -0.000188)
 32:   1242.31   0.037853  191.30  0.009509  (-0.097344 -0.005724  0.000020)
 33:   1285.07   0.074859  378.31  0.018179  (-0.134263  0.012333 -0.000066)
 34:   1316.22   0.002528   12.78  0.000599  (-0.020531  0.013336  0.000050)
 35:   1369.63   0.024346  123.03  0.005547  ( 0.048681 -0.056366 -0.000203)
 36:   1384.58   0.005675   28.68  0.001279  ( 0.035763 -0.000335 -0.000040)
 37:   1445.89   0.006720   33.96  0.001450  ( 0.031556 -0.021323  0.000095)
 38:   1449.40   0.008179   41.33  0.001761  ( 0.033665  0.025046  0.000641)
 39:   1455.32   0.003388   17.12  0.000726  (-0.000906 -0.000948  0.026922)
 40:   1537.30   0.011684   59.05  0.002372  (-0.048482 -0.004610 -0.000021)
 41:   1641.02   0.055106  278.48  0.010479  ( 0.102127  0.007017  0.000001)
 42:   1647.06   0.009755   49.30  0.001848  (-0.035544 -0.024183  0.000066)
 43:   1729.86   0.079226  400.38  0.014292  (-0.067020 -0.098998 -0.000161)
 44:   3054.76   0.000088    0.44  0.000009  (-0.002003 -0.002225  0.000031)
 45:   3122.14   0.000862    4.35  0.000086  ( 0.000014 -0.000172 -0.009279)
 46:   3169.18   0.004563   23.06  0.000449  (-0.021185 -0.000729 -0.000079)
 47:   3211.76   0.000248    1.26  0.000024  (-0.004260 -0.002447 -0.000075)
 48:   3214.65   0.000588    2.97  0.000057  ( 0.006156 -0.004383  0.000065)
 49:   3224.41   0.001078    5.45  0.000104  ( 0.008557 -0.005574 -0.000029)
 50:   3227.42   0.000548    2.77  0.000053  ( 0.006418  0.003436 -0.000070)

--------------------------
THERMOCHEMISTRY AT 298.15K
--------------------------

Temperature         ...   298.15 K
Pressure            ...     1.00 atm
Total Mass          ...   138.14 AMU
Quasi RRHO          ...     True
Cut-Off Frequency   ...     1.00 cm^-1

Throughout the following assumptions are being made:
  (1) The electronic state is orbitally nondegenerate
  (2) There are no thermally accessible electronically excited states
  (3) Hindered rotations indicated by low frequency modes are not
      treated as such but are treated as vibrations and this may
      cause some error
  (4) All equations used are the standard statistical mechanics
      equations for an ideal gas
  (5) All vibrations are strictly harmonic

freq.      41.88  E(vib)   ...       0.53
freq.     102.99  E(vib)   ...       0.46
freq.     157.28  E(vib)   ...       0.40
freq.     197.30  E(vib)   ...       0.35
freq.     292.08  E(vib)   ...       0.27
freq.     342.16  E(vib)   ...       0.23
freq.     402.01  E(vib)   ...       0.19
freq.     424.17  E(vib)   ...       0.18
freq.     472.01  E(vib)   ...       0.15
freq.     500.79  E(vib)   ...       0.14
freq.     577.09  E(vib)   ...       0.11
freq.     596.88  E(vib)   ...       0.10
freq.     643.65  E(vib)   ...       0.09
freq.     695.64  E(vib)   ...       0.07
freq.     744.23  E(vib)   ...       0.06
freq.     829.22  E(vib)   ...       0.04
freq.     848.20  E(vib)   ...       0.04
freq.     858.43  E(vib)   ...       0.04
freq.     966.26  E(vib)   ...       0.03
freq.     977.99  E(vib)   ...       0.03
freq.    1000.08  E(vib)   ...       0.02
freq.    1031.83  E(vib)   ...       0.02
freq.    1041.27  E(vib)   ...       0.02
freq.    1098.74  E(vib)   ...       0.02
freq.    1117.98  E(vib)   ...       0.01
freq.    1166.96  E(vib)   ...       0.01
freq.    1242.31  E(vib)   ...       0.01
freq.    1285.07  E(vib)   ...       0.01
freq.    1316.22  E(vib)   ...       0.01
freq.    1369.63  E(vib)   ...       0.01
freq.    1384.58  E(vib)   ...       0.00
freq.    1445.89  E(vib)   ...       0.00
freq.    1449.40  E(vib)   ...       0.00
freq.    1455.32  E(vib)   ...       0.00
freq.    1537.30  E(vib)   ...       0.00
freq.    1641.02  E(vib)   ...       0.00
freq.    1647.06  E(vib)   ...       0.00
freq.    1729.86  E(vib)   ...       0.00
freq.    3054.76  E(vib)   ...       0.00
freq.    3122.14  E(vib)   ...       0.00
freq.    3169.18  E(vib)   ...       0.00
freq.    3211.76  E(vib)   ...       0.00
freq.    3214.65  E(vib)   ...       0.00
freq.    3224.41  E(vib)   ...       0.00
freq.    3227.42  E(vib)   ...       0.00

------------
INNER ENERGY
------------

The inner energy is: U= E(el) + E(ZPE) + E(vib) + E(rot) + E(trans)
    E(el)   - is the total energy from the electronic structure calculation
              = E(kin-el) + E(nuc-el) + E(el-el) + E(nuc-nuc)
    E(ZPE)  - the the zero temperature vibrational energy from the frequency calculation
    E(vib)  - the the finite temperature correction to E(ZPE) due to population
              of excited vibrational states
    E(rot)  - is the rotational thermal energy
    E(trans)- is the translational thermal energy

Summary of contributions to the inner energy U:
Electronic energy                ...   -484.05110308 Eh
Zero point energy                ...      0.12952537 Eh      81.28 kcal/mol
Thermal vibrational correction   ...      0.00585480 Eh       3.67 kcal/mol
Thermal rotational correction    ...      0.00141627 Eh       0.89 kcal/mol
Thermal translational correction ...      0.00141627 Eh       0.89 kcal/mol
-----------------------------------------------------------------------
Total thermal energy                   -483.91289036 Eh

Summary of corrections to the electronic energy:
(perhaps to be used in another calculation)
Total thermal correction                  0.00868735 Eh       5.45 kcal/mol
Non-thermal (ZPE) correction              0.12952537 Eh      81.28 kcal/mol
-----------------------------------------------------------------------
Total correction                          0.13821272 Eh      86.73 kcal/mol

--------
ENTHALPY
--------

The enthalpy is H = U + kB*T
                kB is Boltzmann's constant
Total thermal energy              ...   -483.91289036 Eh
Thermal Enthalpy correction       ...      0.00094421 Eh       0.59 kcal/mol
-----------------------------------------------------------------------
Total Enthalpy                    ...   -483.91194615 Eh

Note: Only C1 symmetry has been detected, increase convergence thresholds
      if your molecule has a higher symmetry. Symmetry factor of 1.0 is
      used for the rotational entropy correction.

Note: Rotational entropy computed according to Herzberg
Infrared and Raman Spectra, Chapter V,1, Van Nostrand Reinhold, 1945
Point Group:  C1, Symmetry Number:   1
Rotational constants in cm-1:     0.123248     0.026080     0.021610

Vibrational entropy computed according to the QRRHO of S. Grimme
Chem.Eur.J. 2012 18 9955 using a reference frequency of 100.0 cm-1

-------
ENTROPY
-------

The entropy contributions are T*S = T*(S(el)+S(vib)+S(rot)+S(trans))
     S(el)   - electronic entropy
     S(vib)  - vibrational entropy
     S(rot)  - rotational entropy
     S(trans)- translational entropy
The entropies will be listed as multiplied by the temperature to get
units of energy

Electronic entropy                ...      0.00000000 Eh      0.00 kcal/mol
Vibrational entropy               ...      0.00986246 Eh      6.19 kcal/mol
Rotational entropy                ...      0.01403095 Eh      8.80 kcal/mol
Translational entropy             ...      0.01932885 Eh     12.13 kcal/mol
-----------------------------------------------------------------------
Final entropy term                ...      0.04322226 Eh     27.12 kcal/mol

In case the symmetry of your molecule has not been determined correctly
or in case you have a reason to use a different symmetry number we print
out the resulting rotational entropy values for sn=1,12:

 non-linear molecules -----------------------------------
|  sn= 1 | S(rot)=       0.01403095 Eh      8.80 kcal/mol|
|  sn= 2 | S(rot)=       0.01337649 Eh      8.39 kcal/mol|
|  sn= 3 | S(rot)=       0.01299366 Eh      8.15 kcal/mol|
|  sn= 4 | S(rot)=       0.01272204 Eh      7.98 kcal/mol|
|  sn= 5 | S(rot)=       0.01251135 Eh      7.85 kcal/mol|
|  sn= 6 | S(rot)=       0.01233920 Eh      7.74 kcal/mol|
|  sn= 7 | S(rot)=       0.01219366 Eh      7.65 kcal/mol|
|  sn= 8 | S(rot)=       0.01206758 Eh      7.57 kcal/mol|
|  sn= 9 | S(rot)=       0.01195637 Eh      7.50 kcal/mol|
|  sn=10 | S(rot)=       0.01185689 Eh      7.44 kcal/mol|
|  sn=11 | S(rot)=       0.01176690 Eh      7.38 kcal/mol|
|  sn=12 | S(rot)=       0.01168475 Eh      7.33 kcal/mol|
 linear molecules ---------------------------------------
|  Dinfh | S(rot)=       0.00894634 Eh      5.61 kcal/mol|
|  Cinfv | S(rot)=       0.00960080 Eh      6.02 kcal/mol|

                             ****ORCA TERMINATED NORMALLY****
TOTAL RUN TIME: 0 days 0 hours 36 minutes 26 seconds 811 msec
