                         Program Version 6.0.0  -   RELEASE  -
|  1> !TPSSh aug-cc-pVTZ d3 TightSCF SlowConv RIJCOSX defgrid2
|  2>
|  3> %pal
|  4> nprocs 4
|  5> end
|  6>
|  7> %scf
|  8> MaxIter 1500
|  9> end
| 10>
| 11> %maxcore 3000
| 12>
| 13> !CPCM
| 14> %cpcm smd true
| 15> SMDsolvent "MeCN"
| 16> surfacetype gepol_ses
| 17> rsolv 2.19
| 18> end
| 19>
| 20> * xyz 1 2
| 21> C          -1.44785730295075      0.00004383668014      0.19466020963487
| 22> C          -0.70463361625558     -1.25916288948137     -0.22052956548119
| 23> C           0.75402143901141     -1.23290095960195      0.33947310722511
| 24> N           1.35243621618336     -0.00003237928940     -0.05272629159437
| 25> H           2.03239855808840     -0.00001354242890     -0.81929831940591
| 26> C           0.75406824525088      1.23284300442693      0.33954722989484
| 27> C          -0.70453653205886      1.25917936755808     -0.22058410201994
| 28> H          -1.17735315978030      2.17530279259209      0.17075301961950
| 29> H          -0.65902932856967      1.35407679956949     -1.31943227945387
| 30> H           1.35320797568110      2.07738723598631     -0.02945728358028
| 31> H           0.70381655246538      1.26167123212667      1.44376020833185
| 32> H           1.35302530838177     -2.07746967992292     -0.02968877997992
| 33> H           0.70390247903722     -1.26179946828858      1.44369537598949
| 34> H          -1.17752329445998     -2.17518232566056      0.17094554694672
| 35> H          -0.65911553793050     -1.35406143771193     -1.31937325462627
| 36> H          -2.44852309487375      0.00006008079951     -0.27520329299314
| 37> H          -1.61728600722014      0.00008813264640      1.28682627149251
| 38> *
| 39>
| 40>                          ****END OF INPUT****

CARTESIAN COORDINATES (ANGSTROEM)
---------------------------------
  C     -1.447857    0.000044    0.194660
  C     -0.704634   -1.259163   -0.220530
  C      0.754021   -1.232901    0.339473
  N      1.352436   -0.000032   -0.052726
  H      2.032399   -0.000014   -0.819298
  C      0.754068    1.232843    0.339547
  C     -0.704537    1.259179   -0.220584
  H     -1.177353    2.175303    0.170753
  H     -0.659029    1.354077   -1.319432
  H      1.353208    2.077387   -0.029457
  H      0.703817    1.261671    1.443760
  H      1.353025   -2.077470   -0.029689
  H      0.703902   -1.261799    1.443695
  H     -1.177523   -2.175182    0.170946
  H     -0.659116   -1.354061   -1.319373
  H     -2.448523    0.000060   -0.275203
  H     -1.617286    0.000088    1.286826

 Total Charge           Charge          ....    1
 Multiplicity           Mult            ....    2
 Number of Electrons    NEL             ....   47
 Basis Dimension        Dim             ....  529

ORBITAL ENERGIES
----------------
                 SPIN UP ORBITALS
  NO   OCC          E(Eh)            E(eV)
   0   1.0000     -14.374677      -391.1549
   1   1.0000     -10.178498      -276.9710
   2   1.0000     -10.178489      -276.9708
   3   1.0000     -10.138788      -275.8905
   4   1.0000     -10.138787      -275.8904
   5   1.0000     -10.123925      -275.4860
   6   1.0000      -0.990209       -26.9450
   7   1.0000      -0.795050       -21.6344
   8   1.0000      -0.774047       -21.0629
   9   1.0000      -0.659035       -17.9333
  10   1.0000      -0.643647       -17.5145
  11   1.0000      -0.586029       -15.9466
  12   1.0000      -0.539738       -14.6870
  13   1.0000      -0.483350       -13.1526
  14   1.0000      -0.470882       -12.8134
  15   1.0000      -0.454709       -12.3733
  16   1.0000      -0.430181       -11.7058
  17   1.0000      -0.417889       -11.3714
  18   1.0000      -0.393405       -10.7051
  19   1.0000      -0.360804        -9.8180
  20   1.0000      -0.359109        -9.7719
  21   1.0000      -0.333318        -9.0700
  22   1.0000      -0.327365        -8.9081
  23   1.0000      -0.282767        -7.6945
  24   0.0000      -0.008357        -0.2274
  25   0.0000       0.004668         0.1270
  26   0.0000       0.010193         0.2774
  27   0.0000       0.010758         0.2927
  28   0.0000       0.029397         0.7999

                 SPIN DOWN ORBITALS
  NO   OCC          E(Eh)            E(eV)
   0   1.0000     -14.356998      -390.6738
   1   1.0000     -10.178695      -276.9764
   2   1.0000     -10.178687      -276.9761
   3   1.0000     -10.136796      -275.8362
   4   1.0000     -10.136795      -275.8362
   5   1.0000     -10.124037      -275.4891
   6   1.0000      -0.960998       -26.1501
   7   1.0000      -0.787736       -21.4354
   8   1.0000      -0.769073       -20.9275
   9   1.0000      -0.649908       -17.6849
  10   1.0000      -0.639333       -17.3971
  11   1.0000      -0.579671       -15.7737
  12   1.0000      -0.530645       -14.4396
  13   1.0000      -0.477147       -12.9838
  14   1.0000      -0.454325       -12.3628
  15   1.0000      -0.445443       -12.1211
  16   1.0000      -0.427422       -11.6307
  17   1.0000      -0.408055       -11.1037
  18   1.0000      -0.384525       -10.4635
  19   1.0000      -0.355688        -9.6788
  20   1.0000      -0.338714        -9.2169
  21   1.0000      -0.331746        -9.0273
  22   1.0000      -0.325897        -8.8681
  23   0.0000      -0.181074        -4.9273
  24   0.0000      -0.006653        -0.1810
  25   0.0000       0.006452         0.1756
  26   0.0000       0.011434         0.3111
  27   0.0000       0.011434         0.3111

MULLIKEN ATOMIC CHARGES AND SPIN POPULATIONS
--------------------------------------------
   0 C :    0.121017   -0.007009
   1 C :   -0.005230    0.111096
   2 C :    0.148747   -0.072390
   3 N :    0.035038    0.771586
   4 H :    0.083598    0.000642
   5 C :    0.148653   -0.072407
   6 C :   -0.005291    0.111120
   7 H :   -0.015868    0.019761
   8 H :    0.069801    0.003478
   9 H :    0.043055    0.000058
  10 H :    0.119374    0.043019
  11 H :    0.043002    0.000053
  12 H :    0.119335    0.043052
  13 H :   -0.015875    0.019753
  14 H :    0.069785    0.003478
  15 H :   -0.065308    0.022255
  16 H :    0.106168    0.002455
Sum of atomic charges         :    1.0000000

LOEWDIN ATOMIC CHARGES AND SPIN POPULATIONS
-------------------------------------------
   0 C :    0.292129    0.016547
   1 C :    0.336696    0.058425
   2 C :    0.294585    0.101349
   3 N :    0.699204    0.498895
   4 H :   -0.146721    0.068878
   5 C :    0.294591    0.101344
   6 C :    0.336690    0.058429
   7 H :   -0.115092    0.012856
   8 H :   -0.118046    0.006059
   9 H :   -0.100699    0.003760
  10 H :   -0.101364    0.019771
  11 H :   -0.100704    0.003760
  12 H :   -0.101357    0.019778
  13 H :   -0.115090    0.012853
  14 H :   -0.118049    0.006060
  15 H :   -0.116406    0.009784
  16 H :   -0.120367    0.001453

  Mayer bond orders larger than 0.100000
B(  0-C ,  1-C ) :   1.0561 B(  0-C ,  6-C ) :   1.0563 B(  0-C , 15-H ) :   0.9886
B(  0-C , 16-H ) :   0.9042 B(  1-C ,  2-C ) :   0.9743 B(  1-C ,  3-N ) :   0.1171
B(  1-C ,  6-C ) :   0.1080 B(  1-C , 13-H ) :   0.9583 B(  1-C , 14-H ) :   0.9587
B(  2-C ,  3-N ) :   0.9564 B(  2-C , 11-H ) :   1.0105 B(  2-C , 12-H ) :   0.8749
B(  3-N ,  4-H ) :   0.9294 B(  3-N ,  5-C ) :   0.9564 B(  3-N ,  6-C ) :   0.1171
B(  5-C ,  6-C ) :   0.9744 B(  5-C ,  9-H ) :   1.0105 B(  5-C , 10-H ) :   0.8749
B(  6-C ,  7-H ) :   0.9582 B(  6-C ,  8-H ) :   0.9587

Dispersion correction           -0.016434035
FINAL SINGLE POINT ENERGY      -251.847268605694

DIPOLE MOMENT
-------------

Method             : SCF
Type of density    : Electron Density
Multiplicity       :   2
Irrep              :   0
Energy             :  -251.8308345705598867 Eh
Relativity type    :
Basis              : AO
                                X                 Y                 Z
Electronic contribution:      2.929937223      -0.000111697      -0.269804896
Nuclear contribution   :     -1.624364743       0.000100191       0.049600711
                        -----------------------------------------
Total Dipole Moment    :      1.305572480      -0.000011506      -0.220204185
                        -----------------------------------------
Magnitude (a.u.)       :      1.324012608
Magnitude (Debye)      :      3.365372598

Rotational constants in cm-1:             0.150674             0.148298             0.085270
Rotational constants in MHz :          4517.103915          4445.872601          2556.320795

                             ****ORCA TERMINATED NORMALLY****
TOTAL RUN TIME: 0 days 0 hours 2 minutes 55 seconds 468 msec
