                         Program Version 6.0.0  -   RELEASE  -
|  1> !PBE0 def2-SV(p) Opt Freq d3 TightSCF SlowConv RIJCOSX defgrid2
|  2>
|  3> %pal
|  4> nprocs 4
|  5> end
|  6>
|  7> %scf
|  8> MaxIter 1500
|  9> end
| 10>
| 11> %maxcore 3000
| 12>
| 13>
| 14>
| 15> * xyz -1 2
| 16> C     1.1214647    1.2393666    0.0035876
| 17> C    -0.2388508    1.2464035    0.0101690
| 18> C    -0.9541358    0.0269761    0.0271803
| 19> C    -0.2302834   -1.1864416    0.0209791
| 20> C     1.1319332   -1.1881613    0.0124497
| 21> C     1.8786015    0.0283230    0.0041607
| 22> C     3.2987113    0.0830798   -0.0054767
| 23> O     3.9515019    1.1664320   -0.0092841
| 24> C     4.0679353   -1.2360671   -0.0124829
| 25> H     3.8310423   -1.8208646    0.8748999
| 26> H     3.8151333   -1.8199558   -0.8961009
| 27> H     5.1342360   -1.0207317   -0.0219437
| 28> H     1.6529713   -2.1329757    0.0112761
| 29> H    -0.7844382   -2.1164230    0.0275504
| 30> C    -2.4137681   -0.0047121    0.0073643
| 31> F    -2.9711601   -0.4166687   -1.1969489
| 32> F    -2.9774037   -0.8805778    0.8949754
| 33> F    -3.0185274    1.1762974    0.2504342
| 34> H    -0.7892266    2.1776932    0.0078727
| 35> H     1.6767447    2.1672125   -0.0047659
| 36> *
| 37>
| 38>                          ****END OF INPUT****
 Total Charge           Charge          ....   -1
 Multiplicity           Mult            ....    2
 Number of Electrons    NEL             ....   97
Dispersion correction           -0.018715745
FINAL SINGLE POINT ENERGY      -720.665118927658
Dispersion correction             ... done (  0.0 sec)
Dispersion correction           -0.018632568
FINAL SINGLE POINT ENERGY      -720.668028645084
Dispersion correction             ... done (  0.1 sec)
Dispersion correction           -0.018606913
FINAL SINGLE POINT ENERGY      -720.668363128790
Dispersion correction             ... done (  0.0 sec)
FINAL SINGLE POINT ENERGY      -720.668421586897
FINAL SINGLE POINT ENERGY      -720.668431829231
FINAL SINGLE POINT ENERGY      -720.668436644619
FINAL SINGLE POINT ENERGY      -720.668445104091
FINAL SINGLE POINT ENERGY      -720.668461619396
FINAL SINGLE POINT ENERGY      -720.668367898924
FINAL SINGLE POINT ENERGY      -720.668502984834
FINAL SINGLE POINT ENERGY      -720.668521972457
FINAL SINGLE POINT ENERGY      -720.668546726002
FINAL SINGLE POINT ENERGY      -720.668552786025
Dispersion correction             ... done (  0.0 sec)
Dispersion correction           -0.018604003
FINAL SINGLE POINT ENERGY      -720.668554250455
Dispersion correction             ... done (  0.0 sec)
Dispersion correction           -0.018604600
FINAL SINGLE POINT ENERGY      -720.668554915130
Dispersion correction             ... done (  0.0 sec)
                    ***********************HURRAY********************

CARTESIAN COORDINATES (ANGSTROEM)
---------------------------------
  C      1.114856    1.233465   -0.042460
  C     -0.258196    1.229339   -0.016842
  C     -0.987933    0.010648    0.053696
  C     -0.250584   -1.199141    0.084084
  C      1.126867   -1.197374    0.058638
  C      1.880492    0.021140   -0.007849
  C      3.314227    0.089993   -0.037957
  O      3.952344    1.162922   -0.093903
  C      4.094119   -1.222952    0.000211
  H      3.892672   -1.808637    0.918656
  H      3.854103   -1.882350   -0.856830
  H      5.167921   -0.976805   -0.033175
  H      1.651895   -2.157401    0.094790
  H     -0.789418   -2.151126    0.139159
  C     -2.455258    0.000505   -0.008502
  F     -2.972978   -0.049265   -1.272955
  F     -3.006177   -1.064348    0.617343
  F     -3.017223    1.101819    0.537709
  H     -0.806500    2.177404   -0.040852
  H      1.677251    2.170370   -0.087064

 Multiplicity           Mult            ....    2
 Number of Electrons    NEL             ....   97
 Basis Dimension        Dim             ....  196

ORBITAL ENERGIES
----------------
                 SPIN UP ORBITALS
  NO   OCC          E(Eh)            E(eV)
   0   1.0000     -24.663137      -671.1181
   1   1.0000     -24.662721      -671.1067
   2   1.0000     -24.650318      -670.7693
   3   1.0000     -18.997036      -516.9356
   4   1.0000     -10.327458      -281.0244
   5   1.0000     -10.120449      -275.3914
   6   1.0000     -10.089870      -274.5593
   7   1.0000     -10.086422      -274.4655
   8   1.0000     -10.082688      -274.3639
   9   1.0000     -10.081944      -274.3437
  10   1.0000     -10.080882      -274.3147
  11   1.0000     -10.072108      -274.0760
  12   1.0000     -10.067218      -273.9429
  13   1.0000      -1.183551       -32.2061
  14   1.0000      -1.094473       -29.7821
  15   1.0000      -1.081676       -29.4339
  16   1.0000      -0.850505       -23.1434
  17   1.0000      -0.722021       -19.6472
  18   1.0000      -0.648834       -17.6557
  19   1.0000      -0.612168       -16.6579
  20   1.0000      -0.598489       -16.2857
  21   1.0000      -0.562885       -15.3169
  22   1.0000      -0.506497       -13.7825
  23   1.0000      -0.480082       -13.0637
  24   1.0000      -0.463056       -12.6004
  25   1.0000      -0.448327       -12.1996
  26   1.0000      -0.429152       -11.6778
  27   1.0000      -0.407824       -11.0975
  28   1.0000      -0.346873        -9.4389
  29   1.0000      -0.344768        -9.3816
  30   1.0000      -0.336302        -9.1512
  31   1.0000      -0.322234        -8.7684
  32   1.0000      -0.307904        -8.3785
  33   1.0000      -0.300084        -8.1657
  34   1.0000      -0.298139        -8.1128
  35   1.0000      -0.296874        -8.0784
  36   1.0000      -0.290621        -7.9082
  37   1.0000      -0.282357        -7.6833
  38   1.0000      -0.279775        -7.6131
  39   1.0000      -0.251598        -6.8463
  40   1.0000      -0.245206        -6.6724
  41   1.0000      -0.236244        -6.4285
  42   1.0000      -0.221539        -6.0284
  43   1.0000      -0.201901        -5.4940
  44   1.0000      -0.191122        -5.2007
  45   1.0000      -0.125153        -3.4056
  46   1.0000      -0.118209        -3.2166
  47   1.0000      -0.084522        -2.3000
  48   1.0000       0.028742         0.7821
  49   0.0000       0.151725         4.1286
  50   0.0000       0.177449         4.8286
  51   0.0000       0.203518         5.5380
  52   0.0000       0.231581         6.3016
  53   0.0000       0.248607         6.7649

                 SPIN DOWN ORBITALS
  NO   OCC          E(Eh)            E(eV)
   0   1.0000     -24.662903      -671.1117
   1   1.0000     -24.662481      -671.1002
   2   1.0000     -24.649521      -670.7476
   3   1.0000     -18.990256      -516.7511
   4   1.0000     -10.327435      -281.0238
   5   1.0000     -10.118232      -275.3311
   6   1.0000     -10.090415      -274.5742
   7   1.0000     -10.086785      -274.4754
   8   1.0000     -10.082216      -274.3510
   9   1.0000     -10.079276      -274.2710
  10   1.0000     -10.077979      -274.2358
  11   1.0000     -10.070557      -274.0338
  12   1.0000     -10.064559      -273.8706
  13   1.0000      -1.182680       -32.1824
  14   1.0000      -1.093973       -29.7685
  15   1.0000      -1.080121       -29.3916
  16   1.0000      -0.838605       -22.8196
  17   1.0000      -0.716775       -19.5045
  18   1.0000      -0.641130       -17.4460
  19   1.0000      -0.608511       -16.5584
  20   1.0000      -0.594897       -16.1880
  21   1.0000      -0.560907       -15.2631
  22   1.0000      -0.500424       -13.6172
  23   1.0000      -0.479020       -13.0348
  24   1.0000      -0.460346       -12.5266
  25   1.0000      -0.447641       -12.1809
  26   1.0000      -0.425220       -11.5708
  27   1.0000      -0.403931       -10.9915
  28   1.0000      -0.345776        -9.4090
  29   1.0000      -0.343388        -9.3441
  30   1.0000      -0.333434        -9.0732
  31   1.0000      -0.320171        -8.7123
  32   1.0000      -0.305144        -8.3034
  33   1.0000      -0.297561        -8.0970
  34   1.0000      -0.295494        -8.0408
  35   1.0000      -0.292272        -7.9531
  36   1.0000      -0.289304        -7.8724
  37   1.0000      -0.281596        -7.6626
  38   1.0000      -0.279013        -7.5923
  39   1.0000      -0.248739        -6.7685
  40   1.0000      -0.241387        -6.5685
  41   1.0000      -0.222925        -6.0661
  42   1.0000      -0.218168        -5.9367
  43   1.0000      -0.189555        -5.1581
  44   1.0000      -0.174186        -4.7398
  45   1.0000      -0.113066        -3.0767
  46   1.0000      -0.089128        -2.4253
  47   1.0000      -0.078332        -2.1315
  48   0.0000       0.112254         3.0546
  49   0.0000       0.155636         4.2351
  50   0.0000       0.204342         5.5604
  51   0.0000       0.205213         5.5841
  52   0.0000       0.231813         6.3080

MULLIKEN ATOMIC CHARGES AND SPIN POPULATIONS
--------------------------------------------
   0 C :   -0.150196    0.113916
   1 C :   -0.117262   -0.035091
   2 C :   -0.151647    0.305148
   3 C :   -0.118068   -0.045909
   4 C :   -0.171659    0.112948
   5 C :    0.010480    0.178705
   6 C :    0.007369    0.129311
   7 O :   -0.362489    0.230763
   8 C :   -0.329630   -0.019668
   9 H :    0.101432    0.007595
  10 H :    0.101681    0.007445
  11 H :    0.091950   -0.000728
  12 H :    0.039600   -0.007524
  13 H :    0.045394    0.000753
  14 C :    0.561680    0.012266
  15 F :   -0.230874    0.011600
  16 F :   -0.218453    0.003138
  17 F :   -0.217171    0.003208
  18 H :    0.048592    0.000105
  19 H :    0.059273   -0.007983
Sum of atomic charges         :   -1.0000000

LOEWDIN ATOMIC CHARGES AND SPIN POPULATIONS
-------------------------------------------
   0 C :   -0.139673    0.098881
   1 C :   -0.143346   -0.001733
   2 C :   -0.197016    0.237618
   3 C :   -0.142514   -0.010584
   4 C :   -0.166256    0.096643
   5 C :   -0.132352    0.160137
   6 C :   -0.030896    0.137934
   7 O :   -0.306969    0.227058
   8 C :   -0.371365   -0.006273
   9 H :    0.111640    0.006578
  10 H :    0.111799    0.006474
  11 H :    0.111246   -0.000329
  12 H :    0.106020   -0.003460
  13 H :    0.108153    0.000272
  14 C :    0.171461    0.028507
  15 F :   -0.122977    0.015865
  16 F :   -0.097415    0.005041
  17 F :   -0.096003    0.005154
  18 H :    0.108651   -0.000016
  19 H :    0.117811   -0.003766

  Mayer bond orders larger than 0.100000
B(  0-C ,  1-C ) :   1.5109 B(  0-C ,  5-C ) :   1.2264 B(  0-C , 19-H ) :   0.9564
B(  1-C ,  2-C ) :   1.2354 B(  1-C , 18-H ) :   0.9648 B(  2-C ,  3-C ) :   1.2670
B(  2-C , 14-C ) :   1.0625 B(  3-C ,  4-C ) :   1.5219 B(  3-C , 13-H ) :   0.9590
B(  4-C ,  5-C ) :   1.2092 B(  4-C , 12-H ) :   0.9455 B(  5-C ,  6-C ) :   1.2034
B(  6-C ,  7-O ) :   1.9269 B(  6-C ,  8-C ) :   1.0638 B(  8-C ,  9-H ) :   0.9343
B(  8-C , 10-H ) :   0.9345 B(  8-C , 11-H ) :   0.9487 B( 14-C , 15-F ) :   1.0926
B( 14-C , 16-F ) :   1.0837 B( 14-C , 17-F ) :   1.0855

Dispersion correction           -0.018604508
FINAL SINGLE POINT ENERGY      -720.668554979352

DIPOLE MOMENT
-------------

Method             : SCF
Type of density    : Electron Density
Multiplicity       :   2
Irrep              :   0
Energy             :  -720.6499504715222884 Eh
Relativity type    :
Basis              : AO
                                X                 Y                 Z
Electronic contribution:    -24.078336027       3.463263179      -0.205966483
Nuclear contribution   :     22.174393419      -4.340377650       0.286944378
                        -----------------------------------------
Total Dipole Moment    :     -1.903942608      -0.877114471       0.080977895
                        -----------------------------------------
Magnitude (a.u.)       :      2.097828561
Magnitude (Debye)      :      5.332256440

VIBRATIONAL FREQUENCIES
-----------------------

Scaling factor for frequencies =  1.000000000  (already applied!)

     0:       0.00 cm**-1
     1:       0.00 cm**-1
     2:       0.00 cm**-1
     3:       0.00 cm**-1
     4:       0.00 cm**-1
     5:       0.00 cm**-1
     6:      19.05 cm**-1
     7:      62.33 cm**-1
     8:     112.64 cm**-1
     9:     137.07 cm**-1
    10:     145.50 cm**-1
    11:     167.74 cm**-1
    12:     234.70 cm**-1
    13:     262.12 cm**-1
    14:     327.05 cm**-1
    15:     405.14 cm**-1
    16:     430.61 cm**-1
    17:     435.87 cm**-1
    18:     451.33 cm**-1
    19:     513.82 cm**-1
    20:     555.40 cm**-1
    21:     586.02 cm**-1
    22:     591.41 cm**-1
    23:     605.82 cm**-1
    24:     641.79 cm**-1
    25:     725.13 cm**-1
    26:     728.92 cm**-1
    27:     783.14 cm**-1
    28:     787.08 cm**-1
    29:     811.16 cm**-1
    30:     949.45 cm**-1
    31:     953.35 cm**-1
    32:     980.73 cm**-1
    33:     992.83 cm**-1
    34:    1011.62 cm**-1
    35:    1067.36 cm**-1
    36:    1075.57 cm**-1
    37:    1116.37 cm**-1
    38:    1121.13 cm**-1
    39:    1179.55 cm**-1
    40:    1189.38 cm**-1
    41:    1293.85 cm**-1
    42:    1340.00 cm**-1
    43:    1357.45 cm**-1
    44:    1375.12 cm**-1
    45:    1399.51 cm**-1
    46:    1455.52 cm**-1
    47:    1462.71 cm**-1
    48:    1500.53 cm**-1
    49:    1524.21 cm**-1
    50:    1535.78 cm**-1
    51:    1651.60 cm**-1
    52:    1719.01 cm**-1
    53:    2995.94 cm**-1
    54:    3068.98 cm**-1
    55:    3134.96 cm**-1
    56:    3171.84 cm**-1
    57:    3176.72 cm**-1
    58:    3194.16 cm**-1
    59:    3211.33 cm**-1

IR SPECTRUM
-----------

 Mode   freq       eps      Int      T**2         TX        TY        TZ
       cm**-1   L/(mol*cm) km/mol    a.u.
----------------------------------------------------------------------------
  6:     19.05   0.000138    0.70  0.002267  ( 0.001067 -0.012100  0.046033)
  7:     62.33   0.000022    0.11  0.000109  ( 0.002459  0.000006  0.010131)
  8:    112.64   0.000374    1.89  0.001037  ( 0.001267  0.003458  0.031995)
  9:    137.07   0.000329    1.66  0.000748  (-0.023589  0.013842  0.000578)
 10:    145.50   0.000174    0.88  0.000374  ( 0.001099  0.001223  0.019275)
 11:    167.74   0.000113    0.57  0.000211  (-0.001316 -0.000968 -0.014417)
 12:    234.70   0.000568    2.87  0.000755  ( 0.027248  0.003445 -0.000771)
 13:    262.12   0.000046    0.23  0.000054  ( 0.006525  0.003423 -0.000357)
 14:    327.05   0.000728    3.68  0.000695  ( 0.015758  0.000243  0.021132)
 15:    405.14   0.000436    2.20  0.000336  ( 0.004262  0.017814 -0.000578)
 16:    430.61   0.000212    1.07  0.000153  ( 0.010352 -0.005578  0.003884)
 17:    435.87   0.003051   15.42  0.002185  ( 0.043891 -0.003015 -0.015783)
 18:    451.33   0.000200    1.01  0.000139  ( 0.010698 -0.001817 -0.004570)
 19:    513.82   0.007344   37.11  0.004460  (-0.066631  0.004492  0.000763)
 20:    555.40   0.000357    1.81  0.000201  (-0.005588  0.001383  0.012946)
 21:    586.02   0.000269    1.36  0.000143  (-0.011172  0.000338  0.004307)
 22:    591.41   0.002617   13.22  0.001381  (-0.015846 -0.000491  0.033606)
 23:    605.82   0.001132    5.72  0.000583  (-0.019137 -0.014374 -0.003222)
 24:    641.79   0.000002    0.01  0.000001  (-0.000070  0.000940 -0.000234)
 25:    725.13   0.001109    5.61  0.000477  ( 0.018876  0.001726  0.010865)
 26:    728.92   0.001766    8.93  0.000756  ( 0.027221 -0.002264  0.003163)
 27:    783.14   0.004309   21.77  0.001717  (-0.013041 -0.004861 -0.039028)
 28:    787.08   0.002991   15.11  0.001186  ( 0.034360  0.000129  0.002276)
 29:    811.16   0.003773   19.07  0.001452  (-0.010598  0.001926 -0.036546)
 30:    949.45   0.000738    3.73  0.000243  (-0.014214 -0.000569 -0.006338)
 31:    953.35   0.023276  117.62  0.007619  ( 0.086257 -0.013334  0.000907)
 32:    980.73   0.000033    0.17  0.000011  (-0.003008  0.001197  0.000278)
 33:    992.83   0.016648   84.13  0.005233  (-0.071780  0.004719 -0.007618)
 34:   1011.62   0.000406    2.05  0.000125  ( 0.000592  0.000516  0.011158)
 35:   1067.36   0.049439  249.84  0.014455  (-0.107134 -0.009753 -0.053682)
 36:   1075.57   0.009200   46.49  0.002669  ( 0.047359 -0.006296  0.019668)
 37:   1116.37   0.011562   58.43  0.003232  (-0.012329 -0.053486  0.014807)
 38:   1121.13   0.046781  236.41  0.013021  ( 0.018606  0.005367  0.112456)
 39:   1179.55   0.020544  103.82  0.005435  ( 0.034553 -0.064479 -0.009145)
 40:   1189.38   0.017648   89.19  0.004630  ( 0.035082  0.057498 -0.009679)
 41:   1293.85   0.005487   27.73  0.001323  ( 0.032144  0.016866 -0.002401)
 42:   1340.00   0.048177  243.47  0.011220  ( 0.105482 -0.007394 -0.006219)
 43:   1357.45   0.019853  100.33  0.004564  (-0.066338  0.012344  0.003293)
 44:   1375.12   0.106770  539.57  0.024230  (-0.153704  0.023753  0.006375)
 45:   1399.51   0.054342  274.62  0.012117  ( 0.098717  0.048283 -0.006399)
 46:   1455.52   0.003698   18.69  0.000793  (-0.026332 -0.009943  0.000797)
 47:   1462.71   0.000823    4.16  0.000176  ( 0.000112  0.000577  0.013235)
 48:   1500.53   0.004482   22.65  0.000932  ( 0.015556  0.026231 -0.001412)
 49:   1524.21   0.024369  123.15  0.004989  ( 0.069925 -0.009851 -0.001644)
 50:   1535.78   0.015496   78.31  0.003149  ( 0.055302 -0.009431 -0.001218)
 51:   1651.60   0.107711  544.33  0.020352  (-0.135957 -0.042889  0.005274)
 52:   1719.01   0.004466   22.57  0.000811  ( 0.003182 -0.028281  0.000902)
 53:   2995.94   0.015193   76.78  0.001583  ( 0.031220 -0.024648  0.000617)
 54:   3068.98   0.006695   33.83  0.000681  (-0.000556 -0.001069 -0.026064)
 55:   3134.96   0.003418   17.27  0.000340  (-0.017151 -0.006760  0.000594)
 56:   3171.84   0.001472    7.44  0.000145  (-0.011951 -0.001411  0.000045)
 57:   3176.72   0.003557   17.98  0.000349  (-0.009548  0.016055 -0.000708)
 58:   3194.16   0.007478   37.79  0.000731  (-0.001239 -0.026981  0.001034)
 59:   3211.33   0.002629   13.29  0.000256  (-0.005054  0.015154 -0.000564)

--------------------------
THERMOCHEMISTRY AT 298.15K
--------------------------

Temperature         ...   298.15 K
Pressure            ...     1.00 atm
Total Mass          ...   188.15 AMU
Quasi RRHO          ...     True
Cut-Off Frequency   ...     1.00 cm^-1

Throughout the following assumptions are being made:
  (1) The electronic state is orbitally nondegenerate
      but the spin degeneracy is treated
  (2) There are no thermally accessible electronically excited states
  (3) Hindered rotations indicated by low frequency modes are not
      treated as such but are treated as vibrations and this may
      cause some error
  (4) All equations used are the standard statistical mechanics
      equations for an ideal gas
  (5) All vibrations are strictly harmonic

freq.      19.05  E(vib)   ...       0.57
freq.      62.33  E(vib)   ...       0.51
freq.     112.64  E(vib)   ...       0.45
freq.     137.07  E(vib)   ...       0.42
freq.     145.50  E(vib)   ...       0.41
freq.     167.74  E(vib)   ...       0.38
freq.     234.70  E(vib)   ...       0.32
freq.     262.12  E(vib)   ...       0.29
freq.     327.05  E(vib)   ...       0.24
freq.     405.14  E(vib)   ...       0.19
freq.     430.61  E(vib)   ...       0.18
freq.     435.87  E(vib)   ...       0.17
freq.     451.33  E(vib)   ...       0.16
freq.     513.82  E(vib)   ...       0.13
freq.     555.40  E(vib)   ...       0.12
freq.     586.02  E(vib)   ...       0.11
freq.     591.41  E(vib)   ...       0.10
freq.     605.82  E(vib)   ...       0.10
freq.     641.79  E(vib)   ...       0.09
freq.     725.13  E(vib)   ...       0.06
freq.     728.92  E(vib)   ...       0.06
freq.     783.14  E(vib)   ...       0.05
freq.     787.08  E(vib)   ...       0.05
freq.     811.16  E(vib)   ...       0.05
freq.     949.45  E(vib)   ...       0.03
freq.     953.35  E(vib)   ...       0.03
freq.     980.73  E(vib)   ...       0.02
freq.     992.83  E(vib)   ...       0.02
freq.    1011.62  E(vib)   ...       0.02
freq.    1067.36  E(vib)   ...       0.02
freq.    1075.57  E(vib)   ...       0.02
freq.    1116.37  E(vib)   ...       0.01
freq.    1121.13  E(vib)   ...       0.01
freq.    1179.55  E(vib)   ...       0.01
freq.    1189.38  E(vib)   ...       0.01
freq.    1293.85  E(vib)   ...       0.01
freq.    1340.00  E(vib)   ...       0.01
freq.    1357.45  E(vib)   ...       0.01
freq.    1375.12  E(vib)   ...       0.01
freq.    1399.51  E(vib)   ...       0.00
freq.    1455.52  E(vib)   ...       0.00
freq.    1462.71  E(vib)   ...       0.00
freq.    1500.53  E(vib)   ...       0.00
freq.    1524.21  E(vib)   ...       0.00
freq.    1535.78  E(vib)   ...       0.00
freq.    1651.60  E(vib)   ...       0.00
freq.    1719.01  E(vib)   ...       0.00
freq.    2995.94  E(vib)   ...       0.00
freq.    3068.98  E(vib)   ...       0.00
freq.    3134.96  E(vib)   ...       0.00
freq.    3171.84  E(vib)   ...       0.00
freq.    3176.72  E(vib)   ...       0.00
freq.    3194.16  E(vib)   ...       0.00
freq.    3211.33  E(vib)   ...       0.00

------------
INNER ENERGY
------------

The inner energy is: U= E(el) + E(ZPE) + E(vib) + E(rot) + E(trans)
    E(el)   - is the total energy from the electronic structure calculation
              = E(kin-el) + E(nuc-el) + E(el-el) + E(nuc-nuc)
    E(ZPE)  - the the zero temperature vibrational energy from the frequency calculation
    E(vib)  - the the finite temperature correction to E(ZPE) due to population
              of excited vibrational states
    E(rot)  - is the rotational thermal energy
    E(trans)- is the translational thermal energy

Summary of contributions to the inner energy U:
Electronic energy                ...   -720.66855498 Eh
Zero point energy                ...      0.14062531 Eh      88.24 kcal/mol
Thermal vibrational correction   ...      0.00872970 Eh       5.48 kcal/mol
Thermal rotational correction    ...      0.00141627 Eh       0.89 kcal/mol
Thermal translational correction ...      0.00141627 Eh       0.89 kcal/mol
-----------------------------------------------------------------------
Total thermal energy                   -720.51636743 Eh

Summary of corrections to the electronic energy:
(perhaps to be used in another calculation)
Total thermal correction                  0.01156224 Eh       7.26 kcal/mol
Non-thermal (ZPE) correction              0.14062531 Eh      88.24 kcal/mol
-----------------------------------------------------------------------
Total correction                          0.15218754 Eh      95.50 kcal/mol

--------
ENTHALPY
--------

The enthalpy is H = U + kB*T
                kB is Boltzmann's constant
Total thermal energy              ...   -720.51636743 Eh
Thermal Enthalpy correction       ...      0.00094421 Eh       0.59 kcal/mol
-----------------------------------------------------------------------
Total Enthalpy                    ...   -720.51542323 Eh

Note: Only C1 symmetry has been detected, increase convergence thresholds
      if your molecule has a higher symmetry. Symmetry factor of 1.0 is
      used for the rotational entropy correction.

Note: Rotational entropy computed according to Herzberg
Infrared and Raman Spectra, Chapter V,1, Van Nostrand Reinhold, 1945
Point Group:  C1, Symmetry Number:   1
Rotational constants in cm-1:     0.074129     0.012365     0.011236

Vibrational entropy computed according to the QRRHO of S. Grimme
Chem.Eur.J. 2012 18 9955 using a reference frequency of 100.0 cm-1

-------
ENTROPY
-------

The entropy contributions are T*S = T*(S(el)+S(vib)+S(rot)+S(trans))
     S(el)   - electronic entropy
     S(vib)  - vibrational entropy
     S(rot)  - rotational entropy
     S(trans)- translational entropy
The entropies will be listed as multiplied by the temperature to get
units of energy

Electronic entropy                ...      0.00065446 Eh      0.41 kcal/mol
Vibrational entropy               ...      0.01533994 Eh      9.63 kcal/mol
Rotational entropy                ...      0.01493203 Eh      9.37 kcal/mol
Translational entropy             ...      0.01976641 Eh     12.40 kcal/mol
-----------------------------------------------------------------------
Final entropy term                ...      0.05069283 Eh     31.81 kcal/mol

In case the symmetry of your molecule has not been determined correctly
or in case you have a reason to use a different symmetry number we print
out the resulting rotational entropy values for sn=1,12:

 non-linear molecules -----------------------------------
|  sn= 1 | S(rot)=       0.01493203 Eh      9.37 kcal/mol|
|  sn= 2 | S(rot)=       0.01427757 Eh      8.96 kcal/mol|
|  sn= 3 | S(rot)=       0.01389474 Eh      8.72 kcal/mol|
|  sn= 4 | S(rot)=       0.01362311 Eh      8.55 kcal/mol|
|  sn= 5 | S(rot)=       0.01341242 Eh      8.42 kcal/mol|

                             ****ORCA TERMINATED NORMALLY****
TOTAL RUN TIME: 0 days 0 hours 17 minutes 54 seconds 999 msec
