                         Program Version 6.0.0  -   RELEASE  -
|  1> !r2SCANh opt aug-cc-pVTZ d3 TightSCF SlowConv RIJCOSX defgrid2
|  2>
|  3> %pal
|  4> nprocs 8
|  5> end
|  6>
|  7> %scf
|  8> MaxIter 1500
|  9> end
| 10>
| 11> %maxcore 3500
| 12>
| 13> !CPCM
| 14> %cpcm smd true
| 15> SMDsolvent "MeCN"
| 16> surfacetype gepol_ses
| 17> rsolv 2.19
| 18> end
| 19>
| 20> * xyz 1 2
| 21> C           0.86770061929664     -1.42689432299132      0.00000897101558
| 22> C           2.10468085183811     -0.72689058389273     -0.00000825447661
| 23> C           2.18067581844409      0.67999913600521     -0.00001076122154
| 24> C           1.03283927538202      1.45145343690800      0.00000700381243
| 25> C          -0.22537653673213      0.77678989280940      0.00001343275561
| 26> C          -0.25105693451531     -0.64408759720608      0.00001506224490
| 27> O          -1.55281870061497     -1.07751154880539      0.00002630462179
| 28> C          -2.31401480280601     -0.00668804123383      0.00001929043081
| 29> C          -1.56234358562406      1.18487206630760      0.00001231970991
| 30> H          -1.97074260676972      2.19593761753153      0.00001018835187
| 31> H          -3.39348512015147     -0.17364143845796      0.00002005021122
| 32> H           1.07805269996545      2.54351477894486     -0.00000377489980
| 33> H           3.16218666325774      1.15998906195145     -0.00002790877216
| 34> H           3.03083245792013     -1.30967197800346     -0.00002115939682
| 35> H           0.82193140110952     -2.51820987986727      0.00000983561282
| 36> *
| 37>
| 38>                          ****END OF INPUT****
 Total Charge           Charge          ....    1
 Multiplicity           Mult            ....    2
 Number of Electrons    NEL             ....   61
Dispersion correction           -0.004771429
FINAL SINGLE POINT ENERGY      -383.376018565170
Dispersion correction             ... done (  0.0 sec)
Dispersion correction           -0.004776751
FINAL SINGLE POINT ENERGY      -383.377315861532
Dispersion correction             ... done (  0.1 sec)
Dispersion correction           -0.004777604
FINAL SINGLE POINT ENERGY      -383.377377313451
Dispersion correction             ... done (  0.0 sec)
Dispersion correction           -0.004777935
FINAL SINGLE POINT ENERGY      -383.377387973341
Dispersion correction             ... done (  0.1 sec)
                    ***********************HURRAY********************

CARTESIAN COORDINATES (ANGSTROEM)
---------------------------------
  C      0.868750   -1.422743   -0.000750
  C      2.094587   -0.722617    0.000611
  C      2.166119    0.679021   -0.000284
  C      1.026272    1.445552   -0.001134
  C     -0.220768    0.770749   -0.001420
  C     -0.239841   -0.643587   -0.002256
  O     -1.548965   -1.085468   -0.002484
  C     -2.305512    0.001329   -0.000105
  C     -1.548338    1.178945    0.000330
  H     -1.950724    2.177196    0.002963
  H     -3.372447   -0.149892    0.002255
  H      1.064081    2.524632   -0.001611
  H      3.136101    1.152661    0.000481
  H      3.010506   -1.295671    0.003247
  H      0.829239   -2.501147    0.000227

 Multiplicity           Mult            ....    2
 Number of Electrons    NEL             ....   61
 Basis Dimension        Dim             ....  552

ORBITAL ENERGIES
----------------
                 SPIN UP ORBITALS
  NO   OCC          E(Eh)            E(eV)
   0   1.0000     -19.244931      -523.6812
   1   1.0000     -10.295439      -280.1531
   2   1.0000     -10.268003      -279.4066
   3   1.0000     -10.225190      -278.2416
   4   1.0000     -10.222483      -278.1679
   5   1.0000     -10.220361      -278.1102
   6   1.0000     -10.213522      -277.9241
   7   1.0000     -10.208148      -277.7778
   8   1.0000     -10.189764      -277.2776
   9   1.0000      -1.185039       -32.2466
  10   1.0000      -0.913830       -24.8666
  11   1.0000      -0.859182       -23.3795
  12   1.0000      -0.803003       -21.8508
  13   1.0000      -0.779099       -21.2004
  14   1.0000      -0.680679       -18.5222
  15   1.0000      -0.644581       -17.5400
  16   1.0000      -0.629610       -17.1326
  17   1.0000      -0.559176       -15.2160
  18   1.0000      -0.536450       -14.5975
  19   1.0000      -0.517770       -14.0892
  20   1.0000      -0.511281       -13.9127
  21   1.0000      -0.472065       -12.8456
  22   1.0000      -0.459454       -12.5024
  23   1.0000      -0.446613       -12.1530
  24   1.0000      -0.421019       -11.4565
  25   1.0000      -0.404071       -10.9953
  26   1.0000      -0.391250       -10.6465
  27   1.0000      -0.372274       -10.1301
  28   1.0000      -0.350754        -9.5445
  29   1.0000      -0.290621        -7.9082
  30   1.0000      -0.276605        -7.5268
  31   0.0000      -0.100095        -2.7237
  32   0.0000      -0.048129        -1.3097
  33   0.0000      -0.021580        -0.5872
  34   0.0000       0.008594         0.2339
  35   0.0000       0.020847         0.5673

                 SPIN DOWN ORBITALS
  NO   OCC          E(Eh)            E(eV)
   0   1.0000     -19.244392      -523.6665
   1   1.0000     -10.288939      -279.9763
   2   1.0000     -10.265859      -279.3482
   3   1.0000     -10.222604      -278.1712
   4   1.0000     -10.222035      -278.1557
   5   1.0000     -10.214479      -277.9501
   6   1.0000     -10.209302      -277.8092
   7   1.0000     -10.209011      -277.8013
   8   1.0000     -10.192245      -277.3451
   9   1.0000      -1.181523       -32.1509
  10   1.0000      -0.908083       -24.7102
  11   1.0000      -0.849769       -23.1234
  12   1.0000      -0.799516       -21.7559
  13   1.0000      -0.763262       -20.7694
  14   1.0000      -0.675762       -18.3884
  15   1.0000      -0.638605       -17.3773
  16   1.0000      -0.624168       -16.9845
  17   1.0000      -0.557219       -15.1627
  18   1.0000      -0.532094       -14.4790
  19   1.0000      -0.509357       -13.8603
  20   1.0000      -0.500346       -13.6151
  21   1.0000      -0.470883       -12.8134
  22   1.0000      -0.457081       -12.4378
  23   1.0000      -0.445082       -12.1113
  24   1.0000      -0.418518       -11.3885
  25   1.0000      -0.389914       -10.6101
  26   1.0000      -0.386627       -10.5207
  27   1.0000      -0.371048       -10.0967
  28   1.0000      -0.323927        -8.8145
  29   1.0000      -0.284581        -7.7438
  30   0.0000      -0.209242        -5.6938
  31   0.0000      -0.062683        -1.7057
  32   0.0000      -0.034660        -0.9432
  33   0.0000       0.006245         0.1699
  34   0.0000       0.010220         0.2781

MULLIKEN ATOMIC CHARGES AND SPIN POPULATIONS
--------------------------------------------
   0 C :   -0.894058   -0.047129
   1 C :   -0.096213    0.320227
   2 C :   -0.565407   -0.174377
   3 C :   -0.550707    0.249139
   4 C :    1.184164   -0.023229
   5 C :    0.407744    0.129558
   6 O :   -0.489294    0.006740
   7 C :   -0.379818    0.283480
   8 C :   -0.546523    0.197303
   9 H :    0.446743   -0.005554
  10 H :    0.637336    0.017448
  11 H :    0.146837    0.023011
  12 H :    0.678787   -0.000234
  13 H :    0.381373    0.024498
  14 H :    0.639035   -0.000881
Sum of atomic charges         :    1.0000000

LOEWDIN ATOMIC CHARGES AND SPIN POPULATIONS
-------------------------------------------
   0 C :    0.306152    0.041228
   1 C :    0.281781    0.155405
   2 C :    0.259446    0.014205
   3 C :    0.301396    0.112326
   4 C :   -0.105137    0.079763
   5 C :   -0.323494    0.061859
   6 O :    0.670413    0.057034
   7 C :    0.111936    0.223704
   8 C :    0.348279    0.147807
   9 H :   -0.130060    0.020121
  10 H :   -0.128045    0.039162
  11 H :   -0.141089    0.024397
  12 H :   -0.162646   -0.012558
  13 H :   -0.146195    0.037828
  14 H :   -0.142738   -0.002281

  Mayer bond orders larger than 0.100000
B(  0-C ,  1-C ) :   1.0901 B(  0-C ,  2-C ) :   0.3921 B(  0-C ,  4-C ) :   0.1027
B(  0-C ,  5-C ) :   1.2620 B(  0-C , 12-H ) :  -0.1057 B(  0-C , 13-H ) :   0.1006
B(  1-C ,  2-C ) :   1.0512 B(  1-C ,  3-C ) :  -0.3842 B(  1-C ,  5-C ) :  -0.6975
B(  1-C ,  7-C ) :   0.1086 B(  1-C ,  8-C ) :   0.1179 B(  1-C , 12-H ) :   0.1715
B(  1-C , 13-H ) :   0.7799 B(  1-C , 14-H ) :   0.1521 B(  2-C ,  3-C ) :   1.1413
B(  2-C ,  5-C ) :   0.1112 B(  2-C ,  8-C ) :   0.2190 B(  2-C , 12-H ) :   0.1644
B(  3-C ,  4-C ) :   0.6506 B(  3-C ,  5-C ) :  -0.7231 B(  3-C ,  9-H ) :   0.1414
B(  3-C , 11-H ) :   1.3701 B(  3-C , 12-H ) :  -0.1050 B(  3-C , 14-H ) :   0.1027
B(  4-C ,  5-C ) :   1.1793 B(  4-C ,  7-C ) :  -0.3642 B(  4-C ,  8-C ) :   0.6294
B(  4-C , 13-H ) :  -0.1324 B(  5-C ,  6-O ) :   0.5017 B(  5-C ,  8-C ) :   0.2801
B(  5-C , 11-H ) :   0.1913 B(  5-C , 13-H ) :   0.1388 B(  6-O ,  7-C ) :   1.3513
B(  7-C ,  8-C ) :   0.9149 B(  7-C , 10-H ) :   0.4780 B(  8-C ,  9-H ) :   0.7086
B(  8-C , 11-H ) :  -0.1225

Dispersion correction           -0.004777925
FINAL SINGLE POINT ENERGY      -383.377387686582

DIPOLE MOMENT
-------------

Method             : SCF
Type of density    : Electron Density
Multiplicity       :   2
Irrep              :   0
Energy             :  -383.3726097619273219 Eh
Relativity type    :
Basis              : AO
                                X                 Y                 Z
Electronic contribution:     -3.027132357      -1.150939330      -0.007658154
Nuclear contribution   :      2.522445336       1.773273589       0.011466023
                        -----------------------------------------
Total Dipole Moment    :     -0.504687021       0.622334260       0.003807869
                        -----------------------------------------
Magnitude (a.u.)       :      0.801263640
Magnitude (Debye)      :      2.036650317

Rotational constants in cm-1:             0.130320             0.056317             0.039324
Rotational constants in MHz :          3906.907724          1688.337216          1178.890721

                             ****ORCA TERMINATED NORMALLY****
TOTAL RUN TIME: 0 days 0 hours 25 minutes 9 seconds 163 msec
