                         Program Version 6.0.0  -   RELEASE  -
|  1> !B3LYP aug-cc-pVTZ d3 TightSCF SlowConv RIJCOSX defgrid2
|  2>
|  3> %pal
|  4> nprocs 10
|  5> end
|  6>
|  7> %scf
|  8> MaxIter 1500
|  9> end
| 10>
| 11> %maxcore 3500
| 12>
| 13> !CPCM
| 14> %cpcm smd true
| 15> SMDsolvent "WATER"
| 16> surfacetype gepol_ses
| 17> rsolv 1.40
| 18> end
| 19>
| 20> * xyz 0 2
| 21>   C          -0.11609874427787     -0.00549833146305     -1.09166051828012
| 22>   C          -0.06011683134759     -0.95278509536638     -0.14629559883637
| 23>   C          -0.12471069310473     -0.40669924924484      1.24362311758038
| 24>   N          -0.22754435037957      1.03434271135506      0.95079797263953
| 25>   C          -0.23150406587531      1.38042585937059     -0.48840792759055
| 26>   H           0.02559760749994     -2.01735042488152     -0.37607502307243
| 27>   O          -0.30719725434603      1.90352542466580      1.84763502630721
| 28>   C          -0.06026175824533     -0.38808249649150     -2.53546561747586
| 29>   O           0.04263596012876     -1.54903384399020     -2.88061155377649
| 30>   C          -1.54909261101230      2.09648655652139     -0.80036124124277
| 31>   H          -1.58247082249827      2.48576443460033     -1.83190594119848
| 32>   H          -2.40467570485958      1.41531605976659     -0.65984133217838
| 33>   H          -1.65709970518172      2.94563669192758     -0.10515427072988
| 34>   C           0.97137748294183      2.28793540378461     -0.76183532174647
| 35>   H           0.92403797538752      3.14845181915781     -0.07373708321239
| 36>   H           1.91466513722241      1.74585954892844     -0.58293263501816
| 37>   H           0.98323354337203      2.66940679234643     -1.79662980647134
| 38>   C           1.14603484773707     -0.67849930031598      2.05108178091850
| 39>   H           1.22944818447998     -1.74985812098869      2.29970024784929
| 40>   H           2.04188216597692     -0.37745827941083      1.48284498269252
| 41>   H           1.11122089200302     -0.09513329178683      2.98649209630369
| 42>   C          -1.36731121460930     -0.86517254295167      2.00958246948541
| 43>   H          -2.27834603550156     -0.69741684096779      1.41130352571173
| 44>   H          -1.30032457043791     -1.93784209757345      2.25766668368952
| 45>   H          -1.44837094192206     -0.28492100112544      2.94388101584222
| 46>   N          -0.12913367845321      0.62854904476097     -3.43820730517209
| 47>   H          -0.22721159511714      1.59778561337663     -3.17267086489660
| 48>   H          -0.09811273057999      0.38459799799591     -4.42137771112161
| 49> *
| 50>
| 51>                          ****END OF INPUT****

CARTESIAN COORDINATES (ANGSTROEM)
---------------------------------
  C     -0.116099   -0.005498   -1.091661
  C     -0.060117   -0.952785   -0.146296
  C     -0.124711   -0.406699    1.243623
  N     -0.227544    1.034343    0.950798
  C     -0.231504    1.380426   -0.488408
  H      0.025598   -2.017350   -0.376075
  O     -0.307197    1.903525    1.847635
  C     -0.060262   -0.388082   -2.535466
  O      0.042636   -1.549034   -2.880612
  C     -1.549093    2.096487   -0.800361
  H     -1.582471    2.485764   -1.831906
  H     -2.404676    1.415316   -0.659841
  H     -1.657100    2.945637   -0.105154
  C      0.971377    2.287935   -0.761835
  H      0.924038    3.148452   -0.073737
  H      1.914665    1.745860   -0.582933
  H      0.983234    2.669407   -1.796630
  C      1.146035   -0.678499    2.051082
  H      1.229448   -1.749858    2.299700
  H      2.041882   -0.377458    1.482845
  H      1.111221   -0.095133    2.986492
  C     -1.367311   -0.865173    2.009582
  H     -2.278346   -0.697417    1.411304
  H     -1.300325   -1.937842    2.257667
  H     -1.448371   -0.284921    2.943881
  N     -0.129134    0.628549   -3.438207
  H     -0.227212    1.597786   -3.172671
  H     -0.098113    0.384598   -4.421378

 Total Charge           Charge          ....    0
 Multiplicity           Mult            ....    2
 Number of Electrons    NEL             ....   99
 Basis Dimension        Dim             ....  943

ORBITAL ENERGIES
----------------
                 SPIN UP ORBITALS
  NO   OCC          E(Eh)            E(eV)
   0   1.0000     -19.143755      -520.9281
   1   1.0000     -19.107885      -519.9520
   2   1.0000     -14.416634      -392.2965
   3   1.0000     -14.341370      -390.2485
   4   1.0000     -10.292125      -280.0630
   5   1.0000     -10.234415      -278.4926
   6   1.0000     -10.229262      -278.3524
   7   1.0000     -10.193896      -277.3900
   8   1.0000     -10.191948      -277.3370
   9   1.0000     -10.167892      -276.6824
  10   1.0000     -10.167696      -276.6771
  11   1.0000     -10.165989      -276.6306
  12   1.0000     -10.165972      -276.6302
  13   1.0000      -1.126409       -30.6511
  14   1.0000      -1.057786       -28.7838
  15   1.0000      -0.915163       -24.9028
  16   1.0000      -0.904804       -24.6210
  17   1.0000      -0.819592       -22.3022
  18   1.0000      -0.763418       -20.7736
  19   1.0000      -0.726088       -19.7579
  20   1.0000      -0.697102       -18.9691
  21   1.0000      -0.688009       -18.7217
  22   1.0000      -0.651938       -17.7401
  23   1.0000      -0.609398       -16.5826
  24   1.0000      -0.576091       -15.6762
  25   1.0000      -0.561822       -15.2880
  26   1.0000      -0.534395       -14.5416
  27   1.0000      -0.496474       -13.5097
  28   1.0000      -0.493487       -13.4285
  29   1.0000      -0.484213       -13.1761
  30   1.0000      -0.456609       -12.4250
  31   1.0000      -0.448356       -12.2004
  32   1.0000      -0.438517       -11.9326
  33   1.0000      -0.435989       -11.8639
  34   1.0000      -0.429428       -11.6853
  35   1.0000      -0.412717       -11.2306
  36   1.0000      -0.408565       -11.1176
  37   1.0000      -0.401715       -10.9312
  38   1.0000      -0.387091       -10.5333
  39   1.0000      -0.379120       -10.3164
  40   1.0000      -0.376610       -10.2481
  41   1.0000      -0.354424        -9.6444
  42   1.0000      -0.354048        -9.6341
  43   1.0000      -0.349391        -9.5074
  44   1.0000      -0.344241        -9.3673
  45   1.0000      -0.287036        -7.8106
  46   1.0000      -0.285877        -7.7791
  47   1.0000      -0.276359        -7.5201
  48   1.0000      -0.270311        -7.3555
  49   1.0000      -0.202523        -5.5109
  50   0.0000      -0.048604        -1.3226
  51   0.0000      -0.004781        -0.1301
  52   0.0000       0.006947         0.1890
  53   0.0000       0.012039         0.3276
  54   0.0000       0.014846         0.4040

                 SPIN DOWN ORBITALS
  NO   OCC          E(Eh)            E(eV)
   0   1.0000     -19.131257      -520.5880
   1   1.0000     -19.107891      -519.9521
   2   1.0000     -14.403680      -391.9441
   3   1.0000     -14.341368      -390.2485
   4   1.0000     -10.292145      -280.0635
   5   1.0000     -10.235008      -278.5087
   6   1.0000     -10.229852      -278.3684
   7   1.0000     -10.193894      -277.3900
   8   1.0000     -10.191937      -277.3367
   9   1.0000     -10.167379      -276.6684
  10   1.0000     -10.167183      -276.6631
  11   1.0000     -10.165446      -276.6158
  12   1.0000     -10.165429      -276.6154
  13   1.0000      -1.102753       -30.0074
  14   1.0000      -1.057789       -28.7839
  15   1.0000      -0.912834       -24.8395
  16   1.0000      -0.897380       -24.4189
  17   1.0000      -0.818140       -22.2627
  18   1.0000      -0.758312       -20.6347
  19   1.0000      -0.714919       -19.4539
  20   1.0000      -0.694464       -18.8973
  21   1.0000      -0.686681       -18.6855
  22   1.0000      -0.650554       -17.7025
  23   1.0000      -0.606768       -16.5110
  24   1.0000      -0.574994       -15.6464
  25   1.0000      -0.553112       -15.0509
  26   1.0000      -0.533673       -14.5220
  27   1.0000      -0.491373       -13.3709
  28   1.0000      -0.478617       -13.0238
  29   1.0000      -0.465201       -12.6588
  30   1.0000      -0.453609       -12.3433
  31   1.0000      -0.447743       -12.1837
  32   1.0000      -0.434718       -11.8293
  33   1.0000      -0.433901       -11.8071
  34   1.0000      -0.428956       -11.6725
  35   1.0000      -0.410846       -11.1797
  36   1.0000      -0.398627       -10.8472
  37   1.0000      -0.396875       -10.7995
  38   1.0000      -0.386623       -10.5205
  39   1.0000      -0.375896       -10.2286
  40   1.0000      -0.364733        -9.9249
  41   1.0000      -0.353332        -9.6147
  42   1.0000      -0.348452        -9.4819
  43   1.0000      -0.343580        -9.3493
  44   1.0000      -0.333603        -9.0778
  45   1.0000      -0.285920        -7.7803
  46   1.0000      -0.285214        -7.7611
  47   1.0000      -0.268129        -7.2962
  48   1.0000      -0.267780        -7.2867
  49   0.0000      -0.064107        -1.7444
  50   0.0000      -0.047619        -1.2958
  51   0.0000      -0.004680        -0.1274
  52   0.0000       0.007026         0.1912
  53   0.0000       0.012351         0.3361

MULLIKEN ATOMIC CHARGES AND SPIN POPULATIONS
--------------------------------------------
   0 C :    1.437282    0.005928
   1 C :   -1.075741    0.010362
   2 C :    1.324883   -0.086781
   3 N :    0.872998    0.557909
   4 C :    1.613848   -0.067639
   5 H :    0.408640   -0.002042
   6 O :   -1.166895    0.458773
   7 C :    0.240156    0.000837
   8 O :   -1.038818   -0.000191
   9 C :   -1.179934    0.020631
  10 H :    0.187126    0.004469
  11 H :    0.226786    0.000370
  12 H :    0.140169    0.003132
  13 C :   -1.182347    0.020850
  14 H :    0.131582    0.003009
  15 H :    0.217292    0.000283
  16 H :    0.197619    0.004263
  17 C :   -1.259256    0.027813
  18 H :    0.171499    0.003439
  19 H :    0.243550    0.000136
  20 H :    0.155466    0.001613
  21 C :   -1.253653    0.028288
  22 H :    0.239462   -0.000181
  23 H :    0.170239    0.003453
  24 H :    0.163151    0.001732
  25 N :   -0.229286   -0.000407
  26 H :    0.137224   -0.000121
  27 H :    0.106959    0.000073
Sum of atomic charges         :    0.0000000

LOEWDIN ATOMIC CHARGES AND SPIN POPULATIONS
-------------------------------------------
   0 C :   -0.077989    0.001946
   1 C :    0.257662    0.002413
   2 C :   -0.462557    0.041904
   3 N :   -0.162904    0.404586
   4 C :   -0.444421    0.040688
   5 H :   -0.131729   -0.000241
   6 O :    0.375176    0.433878
   7 C :   -0.696421   -0.000293
   8 O :    0.418953   -0.000237
   9 C :    0.595690    0.013106
  10 H :   -0.152034    0.003466
  11 H :   -0.136096    0.001622
  12 H :   -0.156234    0.000402
  13 C :    0.595052    0.013052
  14 H :   -0.155690    0.000407
  15 H :   -0.136493    0.001616
  16 H :   -0.151992    0.003447
  17 C :    0.592895    0.013389
  18 H :   -0.138156    0.003390
  19 H :   -0.142386    0.001606
  20 H :   -0.154207    0.000657
  21 C :    0.593078    0.013464
  22 H :   -0.142451    0.001611
  23 H :   -0.138057    0.003417
  24 H :   -0.154458    0.000664
  25 N :    0.881766    0.000069
  26 H :   -0.325122   -0.000041
  27 H :   -0.250873    0.000010

  Mayer bond orders larger than 0.100000
B(  0-C ,  1-C ) :   0.3028 B(  0-C ,  2-C ) :   0.1538 B(  0-C ,  3-N ) :  -0.1951
B(  0-C ,  4-C ) :   0.7235 B(  0-C ,  5-H ) :  -0.1767 B(  0-C ,  7-C ) :  -0.6446
B(  0-C ,  8-O ) :   0.6584 B(  0-C , 25-N ) :  -0.2861 B(  1-C ,  2-C ) :   1.0340
B(  1-C ,  3-N ) :  -0.3444 B(  1-C ,  4-C ) :  -0.1136 B(  1-C ,  5-H ) :   0.9213
B(  1-C ,  7-C ) :   0.4919 B(  2-C ,  3-N ) :   1.2089 B(  2-C ,  4-C ) :  -0.2162
B(  2-C ,  6-O ) :  -0.2903 B(  2-C ,  7-C ) :  -0.1759 B(  2-C , 17-C ) :   0.2928
B(  2-C , 21-C ) :   0.3057 B(  3-N ,  4-C ) :   1.2508 B(  3-N ,  6-O ) :   0.4011
B(  3-N , 17-C ) :  -0.1016 B(  3-N , 21-C ) :  -0.1038 B(  4-C ,  5-H ) :   0.1427
B(  4-C ,  7-C ) :   0.3621 B(  4-C ,  9-C ) :   0.3137 B(  4-C , 13-C ) :   0.3005
B(  4-C , 25-N ) :  -0.1949 B(  6-O ,  9-C ) :   0.1129 B(  6-O , 13-C ) :   0.1116
B(  6-O , 17-C ) :   0.1059 B(  6-O , 21-C ) :   0.1030 B(  7-C ,  8-O ) :   0.3486
B(  7-C , 25-N ) :   1.2372 B(  9-C , 10-H ) :   1.0236 B(  9-C , 11-H ) :   1.0051
B(  9-C , 12-H ) :   1.1134 B(  9-C , 13-C ) :   0.1706 B( 13-C , 14-H ) :   1.1232
B( 13-C , 15-H ) :   1.0180 B( 13-C , 16-H ) :   1.0133 B( 17-C , 18-H ) :   1.0888
B( 17-C , 19-H ) :   0.9842 B( 17-C , 20-H ) :   1.1227 B( 17-C , 21-C ) :   0.2593
B( 21-C , 22-H ) :   0.9907 B( 21-C , 23-H ) :   1.0902 B( 21-C , 24-H ) :   1.1093
B( 25-N , 26-H ) :   1.0120 B( 25-N , 27-H ) :   0.9979

Dispersion correction           -0.053989275
FINAL SINGLE POINT ENERGY      -611.820346689664

DIPOLE MOMENT
-------------

Method             : SCF
Type of density    : Electron Density
Multiplicity       :   2
Irrep              :   0
Energy             :  -611.7663574148609769 Eh
Relativity type    :
Basis              : AO
                                X                 Y                 Z
Electronic contribution:      0.313434151      -2.702870471      -5.511370963
Nuclear contribution   :     -0.388237367       3.445340699       4.719558355
                        -----------------------------------------
Total Dipole Moment    :     -0.074803217       0.742470228      -0.791812608
                        -----------------------------------------
Magnitude (a.u.)       :      1.088037116
Magnitude (Debye)      :      2.765570567

Rotational constants in cm-1:             0.040199             0.022321             0.017613
Rotational constants in MHz :          1205.148589           669.171544           528.030747

                             ****ORCA TERMINATED NORMALLY****
TOTAL RUN TIME: 0 days 0 hours 10 minutes 33 seconds 275 msec
