                         Program Version 6.0.0  -   RELEASE  -
|  1> !r2SCANh aug-cc-pVTZ d3 TightSCF SlowConv RIJCOSX defgrid2
|  2>
|  3> %pal
|  4> nprocs 4
|  5> end
|  6>
|  7> %scf
|  8> MaxIter 1500
|  9> end
| 10>
| 11> %maxcore 3000
| 12>
| 13> !CPCM
| 14> %cpcm smd true
| 15> SMDsolvent "MeCN"
| 16> surfacetype gepol_ses
| 17> rsolv 2.19
| 18> end
| 19>
| 20> * xyz 1 2
| 21> C          -0.34387230731091     -1.07485258731093      0.00001401455947
| 22> C           1.01873873128556     -0.69031657008063      0.00000558569428
| 23> C           1.01870490582575      0.69036389318440     -0.00000682964124
| 24> C          -0.34392442171075      1.07483366235896      0.00001800846145
| 25> O          -1.13547856663301     -0.00002908301850      0.00002620600599
| 26> H          -0.83940000391177      2.04941022022650      0.00001956675718
| 27> H           1.87273127254573      1.37048388860066     -0.00002227053780
| 28> H           1.87279848731196     -1.37039565302222     -0.00000085844917
| 29> H          -0.83930199740254     -2.04945297093823      0.00002127714986
| 30> *
| 31>
| 32>                          ****END OF INPUT****

CARTESIAN COORDINATES (ANGSTROEM)
---------------------------------
  C     -0.343872   -1.074853    0.000014
  C      1.018739   -0.690317    0.000006
  C      1.018705    0.690364   -0.000007
  C     -0.343924    1.074834    0.000018
  O     -1.135479   -0.000029    0.000026
  H     -0.839400    2.049410    0.000020
  H      1.872731    1.370484   -0.000022
  H      1.872798   -1.370396   -0.000001
  H     -0.839302   -2.049453    0.000021

 Total Charge           Charge          ....    1
 Multiplicity           Mult            ....    2
 Number of Electrons    NEL             ....   35
 Basis Dimension        Dim             ....  322

ORBITAL ENERGIES
----------------
                 SPIN UP ORBITALS
  NO   OCC          E(Eh)            E(eV)
   0   1.0000     -19.263697      -524.1918
   1   1.0000     -10.313236      -280.6374
   2   1.0000     -10.313209      -280.6367
   3   1.0000     -10.232063      -278.4286
   4   1.0000     -10.231475      -278.4126
   5   1.0000      -1.212589       -32.9962
   6   1.0000      -0.875768       -23.8309
   7   1.0000      -0.827080       -22.5060
   8   1.0000      -0.660066       -17.9613
   9   1.0000      -0.631040       -17.1715
  10   1.0000      -0.593867       -16.1599
  11   1.0000      -0.536352       -14.5949
  12   1.0000      -0.495668       -13.4878
  13   1.0000      -0.455617       -12.3980
  14   1.0000      -0.444488       -12.0951
  15   1.0000      -0.428058       -11.6480
  16   1.0000      -0.347119        -9.4456
  17   1.0000      -0.320007        -8.7078
  18   0.0000      -0.098738        -2.6868
  19   0.0000      -0.018531        -0.5042
  20   0.0000       0.011678         0.3178
  21   0.0000       0.029061         0.7908
  22   0.0000       0.031139         0.8473

                 SPIN DOWN ORBITALS
  NO   OCC          E(Eh)            E(eV)
   0   1.0000     -19.266060      -524.2562
   1   1.0000     -10.303297      -280.3670
   2   1.0000     -10.303277      -280.3664
   3   1.0000     -10.231402      -278.4106
   4   1.0000     -10.230808      -278.3944
   5   1.0000      -1.209523       -32.9128
   6   1.0000      -0.869683       -23.6653
   7   1.0000      -0.799761       -21.7626
   8   1.0000      -0.654220       -17.8022
   9   1.0000      -0.615437       -16.7469
  10   1.0000      -0.592168       -16.1137
  11   1.0000      -0.511348       -13.9145
  12   1.0000      -0.491160       -13.3651
  13   1.0000      -0.456459       -12.4209
  14   1.0000      -0.439259       -11.9528
  15   1.0000      -0.425829       -11.5874
  16   1.0000      -0.338324        -9.2063
  17   0.0000      -0.210516        -5.7284
  18   0.0000      -0.038269        -1.0414
  19   0.0000       0.014665         0.3991
  20   0.0000       0.015499         0.4217
  21   0.0000       0.033292         0.9059

MULLIKEN ATOMIC CHARGES AND SPIN POPULATIONS
--------------------------------------------
   0 C :   -0.216639    0.461216
   1 C :   -0.233879    0.054012
   2 C :   -0.235701    0.053214
   3 C :   -0.217175    0.461161
   4 O :   -0.154541   -0.064831
   5 H :    0.623370    0.018809
   6 H :    0.405461   -0.001193
   7 H :    0.405824   -0.001167
   8 H :    0.623279    0.018779
Sum of atomic charges         :    1.0000000

LOEWDIN ATOMIC CHARGES AND SPIN POPULATIONS
-------------------------------------------
   0 C :    0.117920    0.297721
   1 C :    0.299225    0.110714
   2 C :    0.299116    0.110448
   3 C :    0.117742    0.297575
   4 O :    0.637710    0.058808
   5 H :   -0.109705    0.054851
   6 H :   -0.126201    0.007476
   7 H :   -0.126140    0.007547
   8 H :   -0.109667    0.054861

  Mayer bond orders larger than 0.100000
B(  0-C ,  1-C ) :   0.8887 B(  0-C ,  4-O ) :   1.0186 B(  0-C ,  8-H ) :   0.5248
B(  1-C ,  2-C ) :   1.2909 B(  1-C ,  7-H ) :   0.8855 B(  2-C ,  3-C ) :   0.8891
B(  2-C ,  6-H ) :   0.8858 B(  3-C ,  4-O ) :   1.0185 B(  3-C ,  5-H ) :   0.5243

Dispersion correction           -0.001718562
FINAL SINGLE POINT ENERGY      -229.753948519086

DIPOLE MOMENT
-------------

Method             : SCF
Type of density    : Electron Density
Multiplicity       :   2
Irrep              :   0
Energy             :  -229.7522299575473426 Eh
Relativity type    :
Basis              : AO
                                X                 Y                 Z
Electronic contribution:     -1.375485524      -0.001109900      -0.000361997
Nuclear contribution   :      1.915202636       0.000046579      -0.000027644
                        -----------------------------------------
Total Dipole Moment    :      0.539717112      -0.001063321      -0.000389641
                        -----------------------------------------
Magnitude (a.u.)       :      0.539718300
Magnitude (Debye)      :      1.371854896

Rotational constants in cm-1:             0.327624             0.296324             0.155594
Rotational constants in MHz :          9821.913267          8883.568671          4664.602670

                             ****ORCA TERMINATED NORMALLY****
TOTAL RUN TIME: 0 days 0 hours 1 minutes 42 seconds 837 msec
