                         Program Version 6.0.0  -   RELEASE  -
|  1> !r2SCAN opt aug-cc-pVTZ d3 TightSCF SlowConv RIJCOSX defgrid2
|  2>
|  3> %pal
|  4> nprocs 8
|  5> end
|  6>
|  7> %scf
|  8> MaxIter 1500
|  9> end
| 10>
| 11> %maxcore 3500
| 12>
| 13> !CPCM
| 14> %cpcm smd true
| 15> SMDsolvent "MeCN"
| 16> surfacetype gepol_ses
| 17> rsolv 2.19
| 18> end
| 19>
| 20> * xyz 0 1
| 21> C           0.94968287453071     -1.27993729727395      0.00000683726847
| 22> C           2.32072584922403     -1.03066468402730     -0.00000570192654
| 23> C           2.79045486785265      0.28126328538775     -0.00000619644263
| 24> C           1.88129493900205      1.34320110702256      0.00000552102250
| 25> C           0.51414900986878      1.09690334373603      0.00001977591165
| 26> C           0.03124775758730     -0.22186358373352      0.00001975571628
| 27> C          -1.40109719375212     -0.51811607942485      0.00002773818787
| 28> N          -2.27722630544222      0.40983670208196      0.00003187543002
| 29> O          -3.54943597920683     -0.07892856387383      0.00003589961153
| 30> H          -4.10699565150034      0.71269395667835      0.00004041054052
| 31> H          -1.72077053189788     -1.57247842719527      0.00002621709873
| 32> H          -0.20517984986564      1.91961492482438      0.00002936627338
| 33> H           2.24665800678188      2.37456842670514      0.00000344087776
| 34> H           3.86637191838654      0.47947397298735     -0.00001641660649
| 35> H           3.02594458116043     -1.86704493909579     -0.00001599324974
| 36> H           0.58187010727067     -2.31112044479903      0.00000487028669
| 37> *
| 38>
| 39>                          ****END OF INPUT****
 Total Charge           Charge          ....    0
 Multiplicity           Mult            ....    1
 Number of Electrons    NEL             ....   64
Dispersion correction           -0.004682804
FINAL SINGLE POINT ENERGY      -400.818769338727
Dispersion correction             ... done (  0.1 sec)
Dispersion correction           -0.004686858
FINAL SINGLE POINT ENERGY      -400.819828047612
Dispersion correction             ... done (  0.1 sec)
Dispersion correction           -0.004688099
FINAL SINGLE POINT ENERGY      -400.820046423024
Dispersion correction             ... done (  0.1 sec)
Dispersion correction           -0.004686959
FINAL SINGLE POINT ENERGY      -400.820088038050
Dispersion correction             ... done (  0.1 sec)
Dispersion correction           -0.004686536
FINAL SINGLE POINT ENERGY      -400.820091393299
Dispersion correction             ... done (  0.1 sec)
                    ***********************HURRAY********************

CARTESIAN COORDINATES (ANGSTROEM)
---------------------------------
  C      0.939424   -1.268101   -0.000152
  C      2.308726   -1.031092   -0.000588
  C      2.789107    0.273592   -0.000368
  C      1.891897    1.342230    0.000439
  C      0.525939    1.111575    0.000810
  C      0.032254   -0.201738    0.000383
  C     -1.391525   -0.507798    0.000610
  N     -2.274164    0.417516   -0.001569
  O     -3.568962   -0.121974   -0.000514
  H     -4.130254    0.667280   -0.001827
  H     -1.691026   -1.556874    0.002916
  H     -0.167646    1.943243    0.001602
  H      2.264168    2.360041    0.000248
  H      3.856349    0.460773   -0.000953
  H      2.999606   -1.865811   -0.001046
  H      0.563801   -2.285459    0.000217

 Multiplicity           Mult            ....    1
 Number of Electrons    NEL             ....   64
 Basis Dimension        Dim             ....  575

ORBITAL ENERGIES
----------------

  NO   OCC          E(Eh)            E(eV)
   0   2.0000     -19.003840      -517.1208
   1   2.0000     -14.218917      -386.9164
   2   2.0000     -10.074012      -274.1278
   3   2.0000     -10.058606      -273.7086
   4   2.0000     -10.044772      -273.3321
   5   2.0000     -10.043245      -273.2906
   6   2.0000     -10.042618      -273.2735
   7   2.0000     -10.042171      -273.2614
   8   2.0000     -10.041874      -273.2533
   9   2.0000      -1.051807       -28.6211
  10   2.0000      -0.851237       -23.1633
  11   2.0000      -0.817663       -22.2497
  12   2.0000      -0.726366       -19.7654
  13   2.0000      -0.718958       -19.5638
  14   2.0000      -0.610275       -16.6064
  15   2.0000      -0.579899       -15.7799
  16   2.0000      -0.537550       -14.6275
  17   2.0000      -0.500626       -13.6227
  18   2.0000      -0.481496       -13.1022
  19   2.0000      -0.438412       -11.9298
  20   2.0000      -0.424749       -11.5580
  21   2.0000      -0.405193       -11.0259
  22   2.0000      -0.393845       -10.7171
  23   2.0000      -0.390686       -10.6311
  24   2.0000      -0.381720       -10.3871
  25   2.0000      -0.353824        -9.6280
  26   2.0000      -0.320500        -8.7213
  27   2.0000      -0.312587        -8.5059
  28   2.0000      -0.278629        -7.5819
  29   2.0000      -0.259114        -7.0509
  30   2.0000      -0.245123        -6.6701
  31   2.0000      -0.215734        -5.8704
  32   0.0000      -0.079272        -2.1571
  33   0.0000      -0.040225        -1.0946
  34   0.0000       0.007180         0.1954
  35   0.0000       0.008124         0.2211
  36   0.0000       0.013919         0.3788

MULLIKEN ATOMIC CHARGES
-----------------------
   0 C :   -1.017153
   1 C :   -0.550768
   2 C :   -0.166539
   3 C :   -0.687198
   4 C :   -0.719909
   5 C :    1.955136
   6 C :   -0.000868
   7 N :   -0.492244
   8 O :   -0.310732
   9 H :    0.175611
  10 H :    0.431101
  11 H :   -0.001555
  12 H :    0.516905
  13 H :    0.418121
  14 H :    0.506371
  15 H :   -0.056280
Sum of atomic charges:    0.0000000

LOEWDIN ATOMIC CHARGES
----------------------
   0 C :    0.201675
   1 C :    0.200794
   2 C :    0.197722
   3 C :    0.198984
   4 C :    0.196724
   5 C :   -0.177853
   6 C :   -0.027389
   7 N :    0.139393
   8 O :    0.668362
   9 H :   -0.519213
  10 H :   -0.184512
  11 H :   -0.190459
  12 H :   -0.176735
  13 H :   -0.177577
  14 H :   -0.176608
  15 H :   -0.173310

  Mayer bond orders larger than 0.100000
B(  0-C ,  1-C ) :   1.0728 B(  0-C ,  2-C ) :  -0.1272 B(  0-C ,  4-C ) :  -0.4584
B(  0-C ,  6-C ) :   0.1099 B(  0-C , 11-H ) :   0.1430 B(  0-C , 13-H ) :   0.1015
B(  0-C , 14-H ) :  -0.1955 B(  0-C , 15-H ) :   1.7704 B(  1-C ,  2-C ) :   1.1375
B(  1-C ,  3-C ) :   0.1252 B(  1-C ,  5-C ) :   0.1064 B(  1-C , 11-H ) :  -0.1084
B(  1-C , 14-H ) :   0.5531 B(  1-C , 15-H ) :  -0.1627 B(  2-C ,  3-C ) :   1.0761
B(  2-C ,  4-C ) :  -0.1392 B(  2-C ,  5-C ) :  -0.1502 B(  2-C ,  6-C ) :   0.1321
B(  2-C , 13-H ) :   0.6927 B(  3-C ,  4-C ) :   1.0890 B(  3-C ,  5-C ) :   0.1297
B(  3-C , 12-H ) :   0.5130 B(  3-C , 15-H ) :  -0.1155 B(  4-C ,  5-C ) :   0.3140
B(  4-C ,  6-C ) :   0.2313 B(  4-C , 11-H ) :   1.3562 B(  4-C , 12-H ) :  -0.1188
B(  4-C , 15-H ) :   0.1423 B(  5-C ,  7-N ) :  -0.1023 B(  5-C , 11-H ) :  -0.2064
B(  5-C , 14-H ) :   0.1314 B(  5-C , 15-H ) :  -0.2994 B(  6-C ,  7-N ) :   1.0362
B(  6-C , 10-H ) :   0.5871 B(  6-C , 15-H ) :  -0.1284 B(  7-N ,  8-O ) :   0.6903
B(  7-N , 11-H ) :   0.1052 B(  8-O ,  9-H ) :   0.9997 B( 11-H , 15-H ) :   0.1808

Dispersion correction           -0.004686430
FINAL SINGLE POINT ENERGY      -400.820091863811

DIPOLE MOMENT
-------------

Method             : SCF
Type of density    : Electron Density
Multiplicity       :   1
Irrep              :   0
Energy             :  -400.8154054342397785 Eh
Relativity type    :
Basis              : AO
                                X                 Y                 Z
Electronic contribution:     -2.988679082       0.153208311      -0.000997003
Nuclear contribution   :      3.401340621      -0.272172150       0.001907427
                        -----------------------------------------
Total Dipole Moment    :      0.412661539      -0.118963840       0.000910423
                        -----------------------------------------
Magnitude (a.u.)       :      0.429468008
Magnitude (Debye)      :      1.091620923

Rotational constants in cm-1:             0.173860             0.029911             0.025521
Rotational constants in MHz :          5212.203420           896.714049           765.087603

                             ****ORCA TERMINATED NORMALLY****
TOTAL RUN TIME: 0 days 0 hours 10 minutes 13 seconds 673 msec
