                         Program Version 6.0.0  -   RELEASE  -
|  1> !r2SCANh aug-cc-pVTZ d3 TightSCF SlowConv RIJCOSX defgrid2
|  2>
|  3> %pal
|  4> nprocs 4
|  5> end
|  6>
|  7> %scf
|  8> MaxIter 1500
|  9> end
| 10>
| 11> %maxcore 3000
| 12>
| 13> !CPCM
| 14> %cpcm smd true
| 15> SMDsolvent "MeCN"
| 16> surfacetype gepol_ses
| 17> rsolv 2.19
| 18> end
| 19>
| 20> * xyz 1 2
| 21> C           2.57979434838040     -0.76512868779033      0.55002877373972
| 22> N           1.26500932172402     -1.28908125363632      0.40636602507995
| 23> C           0.28298609020251     -0.62522563405020     -0.18777766408559
| 24> N           0.31055121241113      0.70973986743819     -0.21944975029898
| 25> C          -0.90428464054798      1.50462363713153     -0.44239867601191
| 26> C          -2.03947642318260      1.21762022221086      0.53873406977095
| 27> C          -2.86207876844258     -0.03194236210921      0.24124470818338
| 28> C          -2.09231646642057     -1.34422284732392      0.30081277590326
| 29> C          -0.89800263393673     -1.40686847310809     -0.66426598959003
| 30> H          -1.19352492058052     -1.04767852417754     -1.66637286512155
| 31> H          -0.55567841992770     -2.44756644418100     -0.76734795095617
| 32> H          -1.73641294806257     -1.54754065839741      1.32696955727058
| 33> H          -2.77055233723731     -2.17340424344339      0.04048078954003
| 34> H          -3.70277523981103     -0.07756392292857      0.95370276319110
| 35> H          -3.31960998926737      0.07384959946049     -0.76068861915501
| 36> H          -1.62677902226913      1.18604117824051      1.56422468629433
| 37> H          -2.70692750664589      2.09548743827220      0.50583543871622
| 38> H          -1.23343592081792      1.34322694259980     -1.48570258502121
| 39> H          -0.59336721164102      2.55553341754968     -0.36087201839100
| 40> C           1.54294297274965      1.42951819328861      0.10261663203758
| 41> C           2.75435971769682      0.56347028127833     -0.16667570355996
| 42> H           3.66676062867917      1.07905197663072      0.17154765035364
| 43> H           2.85358487208654      0.39538376428371     -1.25327533388472
| 44> H           1.55803196576022      2.33719006220635     -0.52185668580850
| 45> H           1.49212710050547      1.76061659958086      1.15811318961915
| 46> H           2.78164201792086     -0.70742891166271      1.63950028346109
| 47> H           3.28595160067412     -1.53996281736316      0.18807279872366
| 48> *
| 49>
| 50>                          ****END OF INPUT****

CARTESIAN COORDINATES (ANGSTROEM)
---------------------------------
  C      2.579794   -0.765129    0.550029
  N      1.265009   -1.289081    0.406366
  C      0.282986   -0.625226   -0.187778
  N      0.310551    0.709740   -0.219450
  C     -0.904285    1.504624   -0.442399
  C     -2.039476    1.217620    0.538734
  C     -2.862079   -0.031942    0.241245
  C     -2.092316   -1.344223    0.300813
  C     -0.898003   -1.406868   -0.664266
  H     -1.193525   -1.047679   -1.666373
  H     -0.555678   -2.447566   -0.767348
  H     -1.736413   -1.547541    1.326970
  H     -2.770552   -2.173404    0.040481
  H     -3.702775   -0.077564    0.953703
  H     -3.319610    0.073850   -0.760689
  H     -1.626779    1.186041    1.564225
  H     -2.706928    2.095487    0.505835
  H     -1.233436    1.343227   -1.485703
  H     -0.593367    2.555533   -0.360872
  C      1.542943    1.429518    0.102617
  C      2.754360    0.563470   -0.166676
  H      3.666761    1.079052    0.171548
  H      2.853585    0.395384   -1.253275
  H      1.558032    2.337190   -0.521857
  H      1.492127    1.760617    1.158113
  H      2.781642   -0.707429    1.639500
  H      3.285952   -1.539963    0.188073

 Total Charge           Charge          ....    1
 Multiplicity           Mult            ....    2
 Number of Electrons    NEL             ....   83
 Basis Dimension        Dim             ....  874

ORBITAL ENERGIES
----------------
                 SPIN UP ORBITALS
  NO   OCC          E(Eh)            E(eV)
   0   1.0000     -14.419054      -392.3624
   1   1.0000     -14.371137      -391.0585
   2   1.0000     -10.278469      -279.6914
   3   1.0000     -10.216855      -278.0148
   4   1.0000     -10.213925      -277.9350
   5   1.0000     -10.208603      -277.7902
   6   1.0000     -10.179993      -277.0117
   7   1.0000     -10.173131      -276.8250
   8   1.0000     -10.167214      -276.6640
   9   1.0000     -10.164727      -276.5963
  10   1.0000     -10.156525      -276.3731
  11   1.0000      -1.050344       -28.5813
  12   1.0000      -0.953642       -25.9499
  13   1.0000      -0.840258       -22.8646
  14   1.0000      -0.806132       -21.9360
  15   1.0000      -0.781567       -21.2675
  16   1.0000      -0.715609       -19.4727
  17   1.0000      -0.701084       -19.0775
  18   1.0000      -0.686244       -18.6737
  19   1.0000      -0.615732       -16.7549
  20   1.0000      -0.582955       -15.8630
  21   1.0000      -0.538525       -14.6540
  22   1.0000      -0.535596       -14.5743
  23   1.0000      -0.516688       -14.0598
  24   1.0000      -0.500824       -13.6281
  25   1.0000      -0.462701       -12.5907
  26   1.0000      -0.458516       -12.4768
  27   1.0000      -0.450905       -12.2697
  28   1.0000      -0.438667       -11.9367
  29   1.0000      -0.434435       -11.8216
  30   1.0000      -0.409191       -11.1347
  31   1.0000      -0.407288       -11.0829
  32   1.0000      -0.405355       -11.0303
  33   1.0000      -0.379947       -10.3389
  34   1.0000      -0.371542       -10.1102
  35   1.0000      -0.351726        -9.5710
  36   1.0000      -0.337782        -9.1915
  37   1.0000      -0.323561        -8.8045
  38   1.0000      -0.321077        -8.7370
  39   1.0000      -0.315436        -8.5834
  40   1.0000      -0.299838        -8.1590
  41   1.0000      -0.281758        -7.6670
  42   0.0000      -0.048634        -1.3234
  43   0.0000       0.008523         0.2319
  44   0.0000       0.020725         0.5640
  45   0.0000       0.020983         0.5710
  46   0.0000       0.022005         0.5988

                 SPIN DOWN ORBITALS
  NO   OCC          E(Eh)            E(eV)
   0   1.0000     -14.409165      -392.0933
   1   1.0000     -14.354016      -390.5926
   2   1.0000     -10.281644      -279.7777
   3   1.0000     -10.217135      -278.0224
   4   1.0000     -10.214186      -277.9421
   5   1.0000     -10.208828      -277.7963
   6   1.0000     -10.179644      -277.0022
   7   1.0000     -10.173017      -276.8219
   8   1.0000     -10.166734      -276.6509
   9   1.0000     -10.164850      -276.5996
  10   1.0000     -10.156526      -276.3731
  11   1.0000      -1.034940       -28.1621
  12   1.0000      -0.924818       -25.1656
  13   1.0000      -0.840099       -22.8603
  14   1.0000      -0.805477       -21.9181
  15   1.0000      -0.778141       -21.1743
  16   1.0000      -0.712954       -19.4005
  17   1.0000      -0.695487       -18.9252
  18   1.0000      -0.683415       -18.5967
  19   1.0000      -0.613569       -16.6961
  20   1.0000      -0.580043       -15.7838
  21   1.0000      -0.533624       -14.5206
  22   1.0000      -0.530568       -14.4375
  23   1.0000      -0.508179       -13.8282
  24   1.0000      -0.490083       -13.3358
  25   1.0000      -0.458138       -12.4666
  26   1.0000      -0.451137       -12.2761
  27   1.0000      -0.446718       -12.1558
  28   1.0000      -0.432097       -11.7580
  29   1.0000      -0.428550       -11.6614
  30   1.0000      -0.406367       -11.0578
  31   1.0000      -0.404288       -11.0012
  32   1.0000      -0.395238       -10.7550
  33   1.0000      -0.373371       -10.1599
  34   1.0000      -0.366945        -9.9851
  35   1.0000      -0.349042        -9.4979
  36   1.0000      -0.335627        -9.1329
  37   1.0000      -0.323198        -8.7947
  38   1.0000      -0.320280        -8.7153
  39   1.0000      -0.309818        -8.4306
  40   1.0000      -0.278974        -7.5913
  41   0.0000      -0.175535        -4.7766
  42   0.0000      -0.030977        -0.8429
  43   0.0000       0.009399         0.2558
  44   0.0000       0.021056         0.5730
  45   0.0000       0.021569         0.5869

MULLIKEN ATOMIC CHARGES AND SPIN POPULATIONS
--------------------------------------------
   0 C :   -0.242860   -0.014743
   1 N :   -0.619548    0.703844
   2 C :    0.484038   -0.214523
   3 N :    0.443127    0.361830
   4 C :   -0.328411   -0.033603
   5 C :   -0.178059    0.021730
   6 C :   -0.215559    0.000231
   7 C :   -0.327691   -0.012970
   8 C :    0.025671    0.041527
   9 H :    0.121897   -0.002304
  10 H :    0.079292   -0.000852
  11 H :    0.089285    0.004534
  12 H :    0.149047   -0.002053
  13 H :    0.208020   -0.000559
  14 H :    0.068358    0.000235
  15 H :    0.108636    0.004731
  16 H :    0.135535    0.003611
  17 H :    0.182230    0.028965
  18 H :    0.183299   -0.003191
  19 C :   -0.360797   -0.041657
  20 C :   -0.205811    0.010082
  21 H :    0.241605    0.004508
  22 H :    0.064316   -0.001725
  23 H :    0.216718    0.017266
  24 H :    0.253956    0.022679
  25 H :    0.210164    0.041328
  26 H :    0.213541    0.061078
Sum of atomic charges         :    1.0000000

LOEWDIN ATOMIC CHARGES AND SPIN POPULATIONS
-------------------------------------------
   0 C :    0.172118    0.109872
   1 N :    0.520638    0.441613
   2 C :   -0.302634    0.063567
   3 N :    0.352870    0.214011
   4 C :    0.276086    0.035192
   5 C :    0.322394    0.010375
   6 C :    0.290888    0.001386
   7 C :    0.304365   -0.002015
   8 C :    0.323650   -0.004346
   9 H :   -0.116489   -0.001439
  10 H :   -0.132172    0.002748
  11 H :   -0.122346   -0.000333
  12 H :   -0.123737   -0.000414
  13 H :   -0.126241    0.000195
  14 H :   -0.125600    0.000234
  15 H :   -0.115405    0.001295
  16 H :   -0.120677    0.001834
  17 H :   -0.099078    0.011678
  18 H :   -0.124208    0.000448
  19 C :    0.265661    0.035847
  20 C :    0.326162    0.006977
  21 H :   -0.111007    0.001315
  22 H :   -0.115092   -0.000487
  23 H :   -0.106902    0.007909
  24 H :   -0.084204    0.010719
  25 H :   -0.115858    0.024026
  26 H :   -0.113181    0.027791

  Mayer bond orders larger than 0.100000
B(  0-C ,  1-N ) :   0.8743 B(  0-C , 20-C ) :   0.9001 B(  0-C , 25-H ) :   0.8913
B(  0-C , 26-H ) :   0.9130 B(  1-N ,  2-C ) :   0.3310 B(  1-N ,  3-N ) :   0.1335
B(  1-N ,  8-C ) :   0.1586 B(  2-C ,  3-N ) :   0.9964 B(  2-C ,  8-C ) :   0.6065
B(  3-N ,  4-C ) :   0.9631 B(  3-N , 19-C ) :   0.6532 B(  4-C ,  5-C ) :   0.8878
B(  4-C , 17-H ) :   0.9148 B(  4-C , 18-H ) :   0.9501 B(  5-C ,  6-C ) :   0.8835
B(  5-C , 15-H ) :   1.0174 B(  5-C , 16-H ) :   0.9730 B(  6-C ,  7-C ) :   0.8734
B(  6-C , 13-H ) :   0.9419 B(  6-C , 14-H ) :   1.0743 B(  7-C ,  8-C ) :   0.9421
B(  7-C , 11-H ) :   1.0218 B(  7-C , 12-H ) :   1.0065 B(  8-C ,  9-H ) :   0.9881
B(  8-C , 10-H ) :   0.9864 B( 19-C , 20-C ) :   0.9188 B( 19-C , 23-H ) :   0.9974
B( 19-C , 24-H ) :   0.8767 B( 20-C , 21-H ) :   0.8648 B( 20-C , 22-H ) :   1.1101

Dispersion correction           -0.009487161
FINAL SINGLE POINT ENERGY      -461.797319122711

DIPOLE MOMENT
-------------

Method             : SCF
Type of density    : Electron Density
Multiplicity       :   2
Irrep              :   0
Energy             :  -461.7878319612306086 Eh
Relativity type    :
Basis              : AO
                                X                 Y                 Z
Electronic contribution:      4.405012644      -1.721202552      -0.454685201
Nuclear contribution   :     -3.417837470       2.910727643       0.034174869
                        -----------------------------------------
Total Dipole Moment    :      0.987175173       1.189525091      -0.420510332
                        -----------------------------------------
Magnitude (a.u.)       :      1.601971818
Magnitude (Debye)      :      4.071888763

Rotational constants in cm-1:             0.070248             0.029206             0.022723
Rotational constants in MHz :          2105.969827           875.585908           681.207949

                             ****ORCA TERMINATED NORMALLY****
TOTAL RUN TIME: 0 days 0 hours 14 minutes 29 seconds 108 msec
