                         Program Version 6.0.0  -   RELEASE  -
|  1> !TPSSh aug-cc-pVTZ d3 TightSCF SlowConv RIJCOSX defgrid2
|  2>
|  3> %pal
|  4> nprocs 4
|  5> end
|  6>
|  7> %scf
|  8> MaxIter 1500
|  9> end
| 10>
| 11> %maxcore 3000
| 12>
| 13> !CPCM
| 14> %cpcm smd true
| 15> SMDsolvent "MeCN"
| 16> surfacetype gepol_ses
| 17> rsolv 2.19
| 18> end
| 19>
| 20> * xyz 1 2
| 21> N          -0.13330630053238      0.06463805569502     -0.18304866803580
| 22> C          -1.32995968454461     -0.05705711923400      0.61490351827717
| 23> C          -2.57421309286138      0.33481234464037     -0.19256986810199
| 24> H          -3.45480969375926      0.22323852439894      0.46049095721574
| 25> H          -2.70531629638278     -0.32397925846158     -1.06629352870040
| 26> H          -2.52831512549297      1.38214059969960     -0.53226116106563
| 27> H          -1.40987553635449     -1.09741088656851      0.96495289752573
| 28> H          -1.21877257502732      0.60521085770950      1.49113445986830
| 29> C           0.43429422987933     -1.10866495137441     -0.80815428990417
| 30> C           1.14824192611518     -2.02637648462657      0.18904742798723
| 31> H           0.46485226728110     -2.40600168320464      0.96542777225008
| 32> H           1.54101253446494     -2.89222669399406     -0.36800716513612
| 33> H           1.99361403139429     -1.51333347667236      0.67360854639463
| 34> H          -0.40183357197737     -1.65464503658306     -1.28440413538018
| 35> H           1.12467869031116     -0.77476724100708     -1.59754076820295
| 36> C           0.46556546208798      1.36302303485303     -0.38848915911148
| 37> C           1.83969934059673      1.47885748883746      0.27662539319278
| 38> H           2.56824381802577      0.77442980736822     -0.15544421644798
| 39> H           1.77196599043451      1.31206045111972      1.36382157767815
| 40> H           2.21499768699688      2.50090234957054      0.10662332519206
| 41> H           0.56270404138467      1.51155401080161     -1.48061267604024
| 42> H          -0.22507674203997      2.12332900703226      0.00577186054505
| 43> *
| 44>
| 45>                          ****END OF INPUT****

CARTESIAN COORDINATES (ANGSTROEM)
---------------------------------
  N     -0.133306    0.064638   -0.183049
  C     -1.329960   -0.057057    0.614904
  C     -2.574213    0.334812   -0.192570
  H     -3.454810    0.223239    0.460491
  H     -2.705316   -0.323979   -1.066294
  H     -2.528315    1.382141   -0.532261
  H     -1.409876   -1.097411    0.964953
  H     -1.218773    0.605211    1.491134
  C      0.434294   -1.108665   -0.808154
  C      1.148242   -2.026376    0.189047
  H      0.464852   -2.406002    0.965428
  H      1.541013   -2.892227   -0.368007
  H      1.993614   -1.513333    0.673609
  H     -0.401834   -1.654645   -1.284404
  H      1.124679   -0.774767   -1.597541
  C      0.465565    1.363023   -0.388489
  C      1.839699    1.478857    0.276625
  H      2.568244    0.774430   -0.155444
  H      1.771966    1.312060    1.363822
  H      2.214998    2.500902    0.106623
  H      0.562704    1.511554   -1.480613
  H     -0.225077    2.123329    0.005772

 Total Charge           Charge          ....    1
 Multiplicity           Mult            ....    2
 Number of Electrons    NEL             ....   57
 Basis Dimension        Dim             ....  667

ORBITAL ENERGIES
----------------
                 SPIN UP ORBITALS
  NO   OCC          E(Eh)            E(eV)
   0   1.0000     -14.381347      -391.3364
   1   1.0000     -10.178431      -276.9692
   2   1.0000     -10.177973      -276.9567
   3   1.0000     -10.177968      -276.9566
   4   1.0000     -10.128528      -275.6112
   5   1.0000     -10.127842      -275.5926
   6   1.0000     -10.127588      -275.5857
   7   1.0000      -1.000600       -27.2277
   8   1.0000      -0.783613       -21.3232
   9   1.0000      -0.781992       -21.2791
  10   1.0000      -0.718006       -19.5379
  11   1.0000      -0.653437       -17.7809
  12   1.0000      -0.646002       -17.5786
  13   1.0000      -0.571235       -15.5441
  14   1.0000      -0.524738       -14.2788
  15   1.0000      -0.508584       -13.8393
  16   1.0000      -0.483909       -13.1678
  17   1.0000      -0.442989       -12.0543
  18   1.0000      -0.433532       -11.7970
  19   1.0000      -0.425395       -11.5756
  20   1.0000      -0.397437       -10.8148
  21   1.0000      -0.390610       -10.6290
  22   1.0000      -0.384409       -10.4603
  23   1.0000      -0.376909       -10.2562
  24   1.0000      -0.370284       -10.0759
  25   1.0000      -0.355095        -9.6626
  26   1.0000      -0.351665        -9.5693
  27   1.0000      -0.346871        -9.4388
  28   1.0000      -0.283529        -7.7152
  29   0.0000      -0.008067        -0.2195
  30   0.0000       0.004433         0.1206
  31   0.0000       0.007619         0.2073
  32   0.0000       0.010220         0.2781
  33   0.0000       0.027796         0.7564

                 SPIN DOWN ORBITALS
  NO   OCC          E(Eh)            E(eV)
   0   1.0000     -14.362501      -390.8235
   1   1.0000     -10.178954      -276.9834
   2   1.0000     -10.178491      -276.9708
   3   1.0000     -10.178466      -276.9701
   4   1.0000     -10.126954      -275.5684
   5   1.0000     -10.126458      -275.5549
   6   1.0000     -10.126226      -275.5486
   7   1.0000      -0.970094       -26.3976
   8   1.0000      -0.779921       -21.2227
   9   1.0000      -0.778558       -21.1856
  10   1.0000      -0.709242       -19.2995
  11   1.0000      -0.648559       -17.6482
  12   1.0000      -0.642777       -17.4908
  13   1.0000      -0.562616       -15.3096
  14   1.0000      -0.512469       -13.9450
  15   1.0000      -0.503957       -13.7134
  16   1.0000      -0.460272       -12.5246
  17   1.0000      -0.440035       -11.9740
  18   1.0000      -0.429853       -11.6969
  19   1.0000      -0.415359       -11.3025
  20   1.0000      -0.393055       -10.6956
  21   1.0000      -0.384358       -10.4589
  22   1.0000      -0.378537       -10.3005
  23   1.0000      -0.374280       -10.1847
  24   1.0000      -0.367551       -10.0016
  25   1.0000      -0.353203        -9.6112
  26   1.0000      -0.349454        -9.5091
  27   1.0000      -0.344859        -9.3841
  28   0.0000      -0.171550        -4.6681
  29   0.0000      -0.007137        -0.1942
  30   0.0000       0.005364         0.1460
  31   0.0000       0.008305         0.2260
  32   0.0000       0.011242         0.3059

MULLIKEN ATOMIC CHARGES AND SPIN POPULATIONS
--------------------------------------------
   0 N :    0.560712    0.836533
   1 C :    0.012534   -0.087068
   2 C :   -0.234318    0.089965
   3 H :    0.083376    0.015011
   4 H :    0.107409    0.003861
   5 H :    0.121385    0.000811
   6 H :    0.023959    0.006578
   7 H :    0.016601    0.031303
   8 C :    0.083846   -0.094335
   9 C :   -0.238579    0.077109
  10 H :    0.105414   -0.000928
  11 H :    0.061453    0.011097
  12 H :    0.139108    0.006400
  13 H :   -0.029093    0.055039
  14 H :    0.023142   -0.003877
  15 C :   -0.019457   -0.092370
  16 C :   -0.219733    0.075707
  17 H :    0.187983   -0.000469
  18 H :    0.136033    0.002366
  19 H :   -0.025667    0.013300
  20 H :    0.049340    0.054499
  21 H :    0.054549   -0.000533
Sum of atomic charges         :    1.0000000

LOEWDIN ATOMIC CHARGES AND SPIN POPULATIONS
-------------------------------------------
   0 N :    0.369436    0.514135
   1 C :    0.240596    0.087794
   2 C :    0.632050    0.040312
   3 H :   -0.142667    0.009209
   4 H :   -0.145725    0.003966
   5 H :   -0.149326    0.003450
   6 H :   -0.123102    0.005121
   7 H :   -0.099940    0.014420
   8 C :    0.242134    0.086635
   9 C :    0.627711    0.034673
  10 H :   -0.152735    0.002864
  11 H :   -0.141058    0.007522
  12 H :   -0.154853    0.004171
  13 H :   -0.099009    0.019923
  14 H :   -0.114715    0.002854
  15 C :    0.241209    0.089036
  16 C :    0.625953    0.035036
  17 H :   -0.155516    0.003169
  18 H :   -0.141625    0.003951
  19 H :   -0.141736    0.007863
  20 H :   -0.096049    0.021740
  21 H :   -0.121033    0.002156

  Mayer bond orders larger than 0.100000
B(  0-N ,  1-C ) :   0.9418 B(  0-N ,  8-C ) :   0.8800 B(  0-N , 15-C ) :   0.9329
B(  1-C ,  2-C ) :   0.9868 B(  1-C ,  6-H ) :   0.9574 B(  1-C ,  7-H ) :   0.9329
B(  2-C ,  3-H ) :   1.0092 B(  2-C ,  4-H ) :   0.9635 B(  2-C ,  5-H ) :   0.9607
B(  8-C ,  9-C ) :   0.9581 B(  8-C , 13-H ) :   0.9312 B(  8-C , 14-H ) :   1.0119
B(  9-C , 10-H ) :   0.9718 B(  9-C , 11-H ) :   1.0206 B(  9-C , 12-H ) :   0.9506
B( 15-C , 16-C ) :   0.9811 B( 15-C , 20-H ) :   0.9140 B( 15-C , 21-H ) :   0.9845
B( 16-C , 17-H ) :   0.9125 B( 16-C , 18-H ) :   0.9416 B( 16-C , 19-H ) :   1.0765

Dispersion correction           -0.021259976
FINAL SINGLE POINT ENERGY      -292.389968943570

DIPOLE MOMENT
-------------

Method             : SCF
Type of density    : Electron Density
Multiplicity       :   2
Irrep              :   0
Energy             :  -292.3687089680623217 Eh
Relativity type    :
Basis              : AO
                                X                 Y                 Z
Electronic contribution:     -0.705138686       0.366050252      -0.684855864
Nuclear contribution   :      0.524236393      -0.282986655       0.510171142
                        -----------------------------------------
Total Dipole Moment    :     -0.180902293       0.083063597      -0.174684721
                        -----------------------------------------
Magnitude (a.u.)       :      0.264839485
Magnitude (Debye)      :      0.673168472

Rotational constants in cm-1:             0.091790             0.068571             0.045776
Rotational constants in MHz :          2751.807698          2055.699126          1372.315040

                             ****ORCA TERMINATED NORMALLY****
TOTAL RUN TIME: 0 days 0 hours 5 minutes 7 seconds 623 msec
