                         Program Version 6.0.0  -   RELEASE  -
|  1> !r2SCAN opt aug-cc-pVTZ d3 TightSCF SlowConv RIJCOSX defgrid2
|  2>
|  3> %pal
|  4> nprocs 8
|  5> end
|  6>
|  7> %scf
|  8> MaxIter 1500
|  9> end
| 10>
| 11> %maxcore 3500
| 12>
| 13> !CPCM
| 14> %cpcm smd true
| 15> SMDsolvent "MeCN"
| 16> surfacetype gepol_ses
| 17> rsolv 2.19
| 18> end
| 19>
| 20> * xyz 0 1
| 21> C          -0.01157783641881      1.20352898199244      0.00001890353025
| 22> C           1.37990540430455      1.22191450811359      0.00011854591947
| 23> C           2.06592899516975      0.01252414866139      0.00007181753194
| 24> C           1.39794249050432     -1.20933071970230     -0.00006681343243
| 25> C           0.01016197626576     -1.21076373795935     -0.00015906863819
| 26> C          -0.71228022521915     -0.00932565619212     -0.00012281102354
| 27> C          -2.20544538942687     -0.09111368239076     -0.00023883939795
| 28> O          -2.76237956084169     -1.16697560386648     -0.00031741607190
| 29> C          -2.99637020201978      1.19627311334720     -0.00027997588088
| 30> H          -2.76201741553525      1.80607989056811      0.88981335524989
| 31> H          -2.76168147330890      1.80627685436038     -0.89014621124470
| 32> H          -4.06823478710533      0.95066483560844     -0.00049545748797
| 33> H          -0.55378818786793     -2.14712022161097     -0.00026564570615
| 34> H           1.97664868381534     -2.13630478054762     -0.00010007290271
| 35> F           3.39392859180167      0.02324511926514      0.00015796253828
| 36> H           1.94353444532030      2.15785345098842      0.00023004641097
| 37> H          -0.54990740943796      2.15466559936447      0.00005528060562
| 38> *
| 39>
| 40>                          ****END OF INPUT****
 Total Charge           Charge          ....    0
 Multiplicity           Mult            ....    1
 Number of Electrons    NEL             ....   72
Dispersion correction           -0.005209652
FINAL SINGLE POINT ENERGY      -484.075714567676
Dispersion correction             ... done (  0.1 sec)
Dispersion correction           -0.005221689
FINAL SINGLE POINT ENERGY      -484.076888713485
Dispersion correction             ... done (  0.1 sec)
Dispersion correction           -0.005225483
FINAL SINGLE POINT ENERGY      -484.077055996532
Dispersion correction             ... done (  0.1 sec)
FINAL SINGLE POINT ENERGY      -484.077091187919
Dispersion correction             ... done (  0.1 sec)
Dispersion correction           -0.005224556
FINAL SINGLE POINT ENERGY      -484.077094352542
Dispersion correction             ... done (  0.1 sec)
Dispersion correction           -0.005223983
FINAL SINGLE POINT ENERGY      -484.077095886666
Dispersion correction             ... done (  0.1 sec)
                    ***********************HURRAY********************

CARTESIAN COORDINATES (ANGSTROEM)
---------------------------------
  C     -0.026817    1.195236   -0.000070
  C      1.360753    1.224834    0.000087
  C      2.036923    0.018405    0.000072
  C      1.395465   -1.209789    0.000369
  C      0.011369   -1.218526   -0.000059
  C     -0.716515   -0.022294   -0.000389
  C     -2.203501   -0.087308   -0.000998
  O     -2.778610   -1.167884   -0.002039
  C     -2.976732    1.200201   -0.000173
  H     -2.726049    1.800649    0.877613
  H     -2.728055    1.800760   -0.878558
  H     -4.042304    0.982736    0.001060
  H     -0.527077   -2.157720    0.000089
  H      1.973643   -2.124897    0.000758
  F      3.387915    0.037420   -0.000164
  H      1.910312    2.157190    0.000092
  H     -0.566353    2.133077    0.000584

 Multiplicity           Mult            ....    1
 Number of Electrons    NEL             ....   72
 Basis Dimension        Dim             ....  621

ORBITAL ENERGIES
----------------

  NO   OCC          E(Eh)            E(eV)
   0   2.0000     -24.514894      -667.0842
   1   2.0000     -18.942105      -515.4409
   2   2.0000     -10.135043      -275.7885
   3   2.0000     -10.125578      -275.5310
   4   2.0000     -10.057565      -273.6803
   5   2.0000     -10.054595      -273.5994
   6   2.0000     -10.053389      -273.5666
   7   2.0000     -10.051463      -273.5142
   8   2.0000     -10.051395      -273.5124
   9   2.0000     -10.026760      -272.8420
  10   2.0000      -1.198461       -32.6118
  11   2.0000      -1.002973       -27.2923
  12   2.0000      -0.842222       -22.9180
  13   2.0000      -0.746427       -20.3113
  14   2.0000      -0.734534       -19.9877
  15   2.0000      -0.697074       -18.9683
  16   2.0000      -0.606139       -16.4939
  17   2.0000      -0.597756       -16.2658
  18   2.0000      -0.527318       -14.3491
  19   2.0000      -0.519029       -14.1235
  20   2.0000      -0.468027       -12.7357
  21   2.0000      -0.449283       -12.2256
  22   2.0000      -0.442242       -12.0340
  23   2.0000      -0.423527       -11.5247
  24   2.0000      -0.411515       -11.1979
  25   2.0000      -0.405597       -11.0368
  26   2.0000      -0.397702       -10.8220
  27   2.0000      -0.377637       -10.2760
  28   2.0000      -0.365668        -9.9503
  29   2.0000      -0.351379        -9.5615
  30   2.0000      -0.345371        -9.3980
  31   2.0000      -0.326260        -8.8780
  32   2.0000      -0.317284        -8.6337
  33   2.0000      -0.255216        -6.9448
  34   2.0000      -0.240989        -6.5576
  35   2.0000      -0.222370        -6.0510
  36   0.0000      -0.086533        -2.3547
  37   0.0000      -0.049980        -1.3600
  38   0.0000       0.006325         0.1721
  39   0.0000       0.007120         0.1937
  40   0.0000       0.019877         0.5409

MULLIKEN ATOMIC CHARGES
-----------------------
   0 C :   -0.275673
   1 C :   -0.905199
   2 C :    0.678959
   3 C :   -0.707163
   4 C :   -0.746297
   5 C :    1.408501
   6 C :    0.777016
   7 O :   -0.958804
   8 C :   -0.521129
   9 H :    0.234980
  10 H :    0.235841
  11 H :    0.151091
  12 H :    0.160583
  13 H :    0.449687
  14 F :   -0.520785
  15 H :    0.419491
  16 H :    0.118901
Sum of atomic charges:    0.0000000

LOEWDIN ATOMIC CHARGES
----------------------
   0 C :    0.208473
   1 C :    0.215117
   2 C :   -0.524986
   3 C :    0.210762
   4 C :    0.195886
   5 C :   -0.132299
   6 C :   -0.543979
   7 O :    0.476428
   8 C :    0.578813
   9 H :   -0.163860
  10 H :   -0.163650
  11 H :   -0.181364
  12 H :   -0.187453
  13 H :   -0.171563
  14 F :    0.534744
  15 H :   -0.170729
  16 H :   -0.180339

  Mayer bond orders larger than 0.100000
B(  0-C ,  1-C ) :   0.7594 B(  0-C ,  2-C ) :  -0.2630 B(  0-C ,  3-C ) :  -0.1769
B(  0-C ,  4-C ) :  -0.3185 B(  0-C ,  5-C ) :   0.4673 B(  0-C , 16-H ) :   1.2293
B(  1-C ,  2-C ) :   1.3577 B(  1-C ,  3-C ) :   0.2944 B(  1-C , 14-F ) :   0.1895
B(  1-C , 15-H ) :   0.5204 B(  2-C ,  3-C ) :   1.3569 B(  2-C ,  4-C ) :  -0.3491
B(  2-C , 14-F ) :   0.2941 B(  3-C ,  4-C ) :   1.2328 B(  3-C , 13-H ) :   0.4757
B(  3-C , 14-F ) :   0.1848 B(  3-C , 16-H ) :  -0.1010 B(  4-C ,  5-C ) :   0.2315
B(  4-C ,  6-C ) :   0.2277 B(  4-C , 12-H ) :   0.9982 B(  4-C , 16-H ) :   0.1131
B(  5-C ,  6-C ) :   0.3421 B(  5-C ,  7-O ) :   0.1592 B(  5-C ,  8-C ) :   0.1315
B(  5-C , 16-H ) :  -0.1533 B(  6-C ,  7-O ) :   0.8215 B(  6-C ,  8-C ) :   0.9033
B(  7-O , 12-H ) :   0.1300 B(  8-C ,  9-H ) :   0.9689 B(  8-C , 10-H ) :   0.9681
B(  8-C , 11-H ) :   0.9576 B( 12-H , 16-H ) :   0.1197 B( 13-H , 14-F ) :   0.1113
B( 14-F , 15-H ) :   0.1028

Dispersion correction           -0.005224290
FINAL SINGLE POINT ENERGY      -484.077096295452

DIPOLE MOMENT
-------------

Method             : SCF
Type of density    : Electron Density
Multiplicity       :   1
Irrep              :   0
Energy             :  -484.0718720058449662 Eh
Relativity type    :
Basis              : AO
                                X                 Y                 Z
Electronic contribution:      9.832071140      -2.902280908      -0.001554222
Nuclear contribution   :     -9.459463611       4.261059345       0.003623980
                        -----------------------------------------
Total Dipole Moment    :      0.372607529       1.358778437       0.002069758
                        -----------------------------------------
Magnitude (a.u.)       :      1.408942688
Magnitude (Debye)      :      3.581247705

Rotational constants in cm-1:             0.122665             0.025967             0.021515
Rotational constants in MHz :          3677.398325           778.470999           645.015986

                             ****ORCA TERMINATED NORMALLY****
TOTAL RUN TIME: 0 days 0 hours 12 minutes 22 seconds 42 msec
