                         Program Version 6.0.0  -   RELEASE  -
|  1> !TPSSh freq aug-cc-pVTZ d3 TightSCF SlowConv RIJCOSX defgrid2
|  2>
|  3> %pal
|  4> nprocs 12
|  5> end
|  6>
|  7> %scf
|  8> MaxIter 1500
|  9> end
| 10>
| 11> %maxcore 5000
| 12>
| 13> !CPCM
| 14> %cpcm smd true
| 15> SMDsolvent "MeCN"
| 16> surfacetype gepol_ses
| 17> rsolv 2.19
| 18> end
| 19>
| 20> * xyz 0 1
| 21> C           2.40151675442959     -0.84798585379100      0.65753895397887
| 22> C           1.27266424852961     -0.39481725673195     -0.03583141869382
| 23> C           1.38011588468201      0.78238816818387     -0.78741687955246
| 24> C           2.58394783406903      1.47326480307467     -0.85979269046365
| 25> C           3.70131083914128      1.00832651393014     -0.17045773225976
| 26> C           3.60452235841405     -0.15428446437148      0.59022014490624
| 27> H           4.46427632456242     -0.51593666886599      1.14150423927602
| 28> H           4.63713557146549      1.55173882888937     -0.21931795906959
| 29> H           2.64948680121802      2.37641308570170     -1.45463453632497
| 30> H           0.51737616648935      1.15050278742381     -1.32885639310577
| 31> C          -0.00001304597097     -1.15621871764186      0.00018757468695
| 32> C           0.00005304400368     -2.49840698904332      0.00014554926908
| 33> H          -0.92182010055571     -3.06314745934077      0.06701575757582
| 34> H           0.92198753283710     -3.06304217067142     -0.06678377972214
| 35> C          -1.27274475342979     -0.39491342174637      0.03611225862761
| 36> C          -2.40142785222447     -0.84793215190418     -0.65761946587989
| 37> C          -3.60437014035580     -0.15407643932380     -0.59067195932158
| 38> C          -3.70128640460221      1.00849870338361      0.17003867439614
| 39> C          -2.58413111853620      1.47320474173454      0.85985101573710
| 40> C          -1.38039040462091      0.78217919703926      0.78779983749973
| 41> H          -0.51785455417022      1.15005732928396      1.32970971316195
| 42> H          -2.64977022861671      2.37627771772743      1.45478992245956
| 43> H          -4.63705678031490      1.55203765026455      0.21859473287916
| 44> H          -4.46396463126485     -0.51556504621463     -1.14230583063618
| 45> H          -2.32700387529532     -1.74064187324053     -1.26685971631834
| 46> H           2.32721043011644     -1.74071501374962      1.26676348689389
| 47> *
| 48>
| 49>                          ****END OF INPUT****

CARTESIAN COORDINATES (ANGSTROEM)
---------------------------------
  C      2.401517   -0.847986    0.657539
  C      1.272664   -0.394817   -0.035831
  C      1.380116    0.782388   -0.787417
  C      2.583948    1.473265   -0.859793
  C      3.701311    1.008327   -0.170458
  C      3.604522   -0.154284    0.590220
  H      4.464276   -0.515937    1.141504
  H      4.637136    1.551739   -0.219318
  H      2.649487    2.376413   -1.454635
  H      0.517376    1.150503   -1.328856
  C     -0.000013   -1.156219    0.000188
  C      0.000053   -2.498407    0.000146
  H     -0.921820   -3.063147    0.067016
  H      0.921988   -3.063042   -0.066784
  C     -1.272745   -0.394913    0.036112
  C     -2.401428   -0.847932   -0.657619
  C     -3.604370   -0.154076   -0.590672
  C     -3.701286    1.008499    0.170039
  C     -2.584131    1.473205    0.859851
  C     -1.380390    0.782179    0.787800
  H     -0.517855    1.150057    1.329710
  H     -2.649770    2.376278    1.454790
  H     -4.637057    1.552038    0.218595
  H     -4.463965   -0.515565   -1.142306
  H     -2.327004   -1.740642   -1.266860
  H      2.327210   -1.740715    1.266763

 Total Charge           Charge          ....    0
 Multiplicity           Mult            ....    1
 Number of Electrons    NEL             ....   96
 Basis Dimension        Dim             ....  920

ORBITAL ENERGIES
----------------

  NO   OCC          E(Eh)            E(eV)
   0   2.0000     -10.130647      -275.6689
   1   2.0000     -10.127076      -275.5718
   2   2.0000     -10.127070      -275.5716
   3   2.0000     -10.115941      -275.2687
   4   2.0000     -10.115916      -275.2681
   5   2.0000     -10.115797      -275.2648
   6   2.0000     -10.115796      -275.2648
   7   2.0000     -10.115422      -275.2546
   8   2.0000     -10.115420      -275.2546
   9   2.0000     -10.115183      -275.2481
  10   2.0000     -10.115181      -275.2481
  11   2.0000     -10.114783      -275.2372
  12   2.0000     -10.114780      -275.2372
  13   2.0000     -10.106360      -275.0080
  14   2.0000      -0.850929       -23.1550
  15   2.0000      -0.834780       -22.7155
  16   2.0000      -0.785418       -21.3723
  17   2.0000      -0.730110       -19.8673
  18   2.0000      -0.729349       -19.8466
  19   2.0000      -0.723742       -19.6940
  20   2.0000      -0.698870       -19.0172
  21   2.0000      -0.613541       -16.6953
  22   2.0000      -0.590279       -16.0623
  23   2.0000      -0.582860       -15.8604
  24   2.0000      -0.578967       -15.7545
  25   2.0000      -0.533230       -14.5099
  26   2.0000      -0.505852       -13.7649
  27   2.0000      -0.483440       -13.1551
  28   2.0000      -0.449593       -12.2340
  29   2.0000      -0.441689       -12.0190
  30   2.0000      -0.431956       -11.7541
  31   2.0000      -0.424772       -11.5586
  32   2.0000      -0.420233       -11.4351
  33   2.0000      -0.401879       -10.9357
  34   2.0000      -0.401461       -10.9243
  35   2.0000      -0.396061       -10.7774
  36   2.0000      -0.365952        -9.9581
  37   2.0000      -0.358885        -9.7657
  38   2.0000      -0.358196        -9.7470
  39   2.0000      -0.338135        -9.2011
  40   2.0000      -0.327866        -8.9217
  41   2.0000      -0.320074        -8.7097
  42   2.0000      -0.313971        -8.5436
  43   2.0000      -0.289939        -7.8897
  44   2.0000      -0.251755        -6.8506
  45   2.0000      -0.247976        -6.7478
  46   2.0000      -0.245247        -6.6735
  47   2.0000      -0.215952        -5.8764
  48   0.0000      -0.056445        -1.5359
  49   0.0000      -0.033158        -0.9023
  50   0.0000      -0.028930        -0.7872
  51   0.0000      -0.016668        -0.4536
  52   0.0000      -0.004504        -0.1225

MULLIKEN ATOMIC CHARGES
-----------------------
   0 C :   -1.048021
   1 C :    1.818659
   2 C :   -0.584439
   3 C :   -0.702105
   4 C :   -0.065165
   5 C :   -0.609046
   6 H :    0.418099
   7 H :    0.433907
   8 H :    0.376201
   9 H :   -0.053164
  10 C :    0.899939
  11 C :   -0.959751
  12 H :    0.127518
  13 H :    0.127940
  14 C :    1.821919
  15 C :   -1.044975
  16 C :   -0.607910
  17 C :   -0.059645
  18 C :   -0.710445
  19 C :   -0.586955
  20 H :   -0.055809
  21 H :    0.372787
  22 H :    0.456709
  23 H :    0.397549
  24 H :   -0.080380
  25 H :   -0.083417
Sum of atomic charges:   -0.0000000

LOEWDIN ATOMIC CHARGES
----------------------
   0 C :    0.211028
   1 C :   -0.141166
   2 C :    0.207834
   3 C :    0.205140
   4 C :    0.195355
   5 C :    0.203027
   6 H :   -0.177940
   7 H :   -0.179803
   8 H :   -0.177287
   9 H :   -0.171198
  10 C :   -0.139248
  11 C :    0.556619
  12 H :   -0.205188
  13 H :   -0.205196
  14 C :   -0.141161
  15 C :    0.211064
  16 C :    0.203047
  17 C :    0.195397
  18 C :    0.205176
  19 C :    0.207755
  20 H :   -0.171306
  21 H :   -0.177275
  22 H :   -0.179790
  23 H :   -0.177950
  24 H :   -0.178464
  25 H :   -0.178470

  Mayer bond orders larger than 0.100000
B(  0-C ,  1-C ) :   0.3883 B(  0-C ,  2-C ) :  -0.5146 B(  0-C ,  3-C ) :   0.1396
B(  0-C ,  5-C ) :   1.6061 B(  0-C ,  6-H ) :  -0.1124 B(  0-C , 10-C ) :   0.2680
B(  0-C , 25-H ) :   1.5117 B(  1-C ,  2-C ) :   0.7540 B(  1-C ,  3-C ) :  -0.1640
B(  1-C ,  4-C ) :  -0.1735 B(  1-C ,  8-H ) :   0.1266 B(  1-C , 11-C ) :  -0.2449
B(  1-C , 14-C ) :  -0.2197 B(  2-C ,  3-C ) :   1.5121 B(  2-C ,  9-H ) :   1.3763
B(  2-C , 11-C ) :   0.1269 B(  2-C , 19-C ) :   0.1451 B(  3-C ,  4-C ) :   1.4748
B(  3-C ,  5-C ) :   0.1946 B(  3-C ,  8-H ) :   0.5564 B(  4-C ,  5-C ) :   1.3378
B(  4-C ,  6-H ) :   0.1111 B(  4-C ,  7-H ) :   0.5278 B(  4-C ,  8-H ) :   0.1028
B(  4-C , 10-C ) :   0.1893 B(  5-C ,  6-H ) :   0.5396 B(  9-H , 10-C ) :  -0.1608
B(  9-H , 25-H ) :   0.1596 B( 10-C , 11-C ) :   0.9249 B( 10-C , 15-C ) :   0.2685
B( 10-C , 17-C ) :   0.1842 B( 10-C , 20-H ) :  -0.1608 B( 10-C , 24-H ) :  -0.1639
B( 10-C , 25-H ) :  -0.1648 B( 11-C , 12-H ) :   1.0566 B( 11-C , 13-H ) :   1.0565
B( 11-C , 14-C ) :  -0.2473 B( 11-C , 19-C ) :   0.1282 B( 14-C , 15-C ) :   0.3885
B( 14-C , 17-C ) :  -0.1791 B( 14-C , 18-C ) :  -0.1647 B( 14-C , 19-C ) :   0.7539
B( 14-C , 21-H ) :   0.1269 B( 15-C , 16-C ) :   1.6028 B( 15-C , 18-C ) :   0.1390
B( 15-C , 19-C ) :  -0.5163 B( 15-C , 23-H ) :  -0.1113 B( 15-C , 24-H ) :   1.5064
B( 16-C , 17-C ) :   1.3347 B( 16-C , 18-C ) :   0.1918 B( 16-C , 23-H ) :   0.5687
B( 17-C , 18-C ) :   1.4821 B( 17-C , 21-H ) :   0.1038 B( 17-C , 22-H ) :   0.5021
B( 17-C , 23-H ) :   0.1075 B( 18-C , 19-C ) :   1.5188 B( 18-C , 21-H ) :   0.5617
B( 19-C , 20-H ) :   1.3785 B( 20-H , 24-H ) :   0.1580

Dispersion correction           -0.038647601
FINAL SINGLE POINT ENERGY      -540.978941718197

DIPOLE MOMENT
-------------

Method             : SCF
Type of density    : Electron Density
Multiplicity       :   1
Irrep              :   0
Energy             :  -540.9402941167512608 Eh
Relativity type    :
Basis              : AO
                                X                 Y                 Z
Electronic contribution:     -0.001004028       0.616836568      -0.000512636
Nuclear contribution   :      0.000176936      -0.481308459      -0.000410817
                        -----------------------------------------
Total Dipole Moment    :     -0.000827093       0.135528108      -0.000923453
                        -----------------------------------------
Magnitude (a.u.)       :      0.135533778
Magnitude (Debye)      :      0.344499486

VIBRATIONAL FREQUENCIES
-----------------------

Scaling factor for frequencies =  1.000000000  (already applied!)

     0:       0.00 cm**-1
     1:       0.00 cm**-1
     2:       0.00 cm**-1
     3:       0.00 cm**-1
     4:       0.00 cm**-1
     5:       0.00 cm**-1
     6:      28.22 cm**-1
     7:      50.20 cm**-1
     8:      73.25 cm**-1
     9:     131.28 cm**-1
    10:     210.02 cm**-1
    11:     223.68 cm**-1
    12:     291.67 cm**-1
    13:     331.48 cm**-1
    14:     407.01 cm**-1
    15:     412.48 cm**-1
    16:     439.84 cm**-1
    17:     448.44 cm**-1
    18:     569.36 cm**-1
    19:     587.46 cm**-1
    20:     614.53 cm**-1
    21:     619.68 cm**-1
    22:     648.05 cm**-1
    23:     696.64 cm**-1
    24:     708.08 cm**-1
    25:     715.69 cm**-1
    26:     728.19 cm**-1
    27:     790.53 cm**-1
    28:     797.47 cm**-1
    29:     838.78 cm**-1
    30:     860.53 cm**-1
    31:     860.83 cm**-1
    32:     922.40 cm**-1
    33:     940.66 cm**-1
    34:     941.48 cm**-1
    35:     995.82 cm**-1
    36:     997.14 cm**-1
    37:    1011.51 cm**-1
    38:    1012.08 cm**-1
    39:    1013.86 cm**-1
    40:    1013.97 cm**-1
    41:    1041.40 cm**-1
    42:    1043.55 cm**-1
    43:    1079.83 cm**-1
    44:    1095.14 cm**-1
    45:    1101.82 cm**-1
    46:    1160.83 cm**-1
    47:    1160.95 cm**-1
    48:    1168.78 cm**-1
    49:    1185.69 cm**-1
    50:    1187.75 cm**-1
    51:    1307.22 cm**-1
    52:    1329.03 cm**-1
    53:    1345.56 cm**-1
    54:    1352.13 cm**-1
    55:    1352.90 cm**-1
    56:    1431.96 cm**-1
    57:    1468.03 cm**-1
    58:    1470.94 cm**-1
    59:    1517.68 cm**-1
    60:    1521.29 cm**-1
    61:    1606.97 cm**-1
    62:    1608.44 cm**-1
    63:    1631.38 cm**-1
    64:    1633.68 cm**-1
    65:    1651.29 cm**-1
    66:    3135.84 cm**-1
    67:    3160.92 cm**-1
    68:    3161.10 cm**-1
    69:    3166.75 cm**-1
    70:    3167.19 cm**-1
    71:    3175.30 cm**-1
    72:    3175.65 cm**-1
    73:    3181.07 cm**-1
    74:    3181.43 cm**-1
    75:    3189.28 cm**-1
    76:    3189.54 cm**-1
    77:    3221.29 cm**-1

IR SPECTRUM
-----------

 Mode   freq       eps      Int      T**2         TX        TY        TZ
       cm**-1   L/(mol*cm) km/mol    a.u.
----------------------------------------------------------------------------
  6:     28.22   0.000024    0.12  0.000267  (-0.008904  0.000014  0.013705)
  7:     50.20   0.000018    0.09  0.000110  ( 0.000068 -0.010476 -0.000142)
  8:     73.25   0.000075    0.38  0.000322  ( 0.000084  0.017930  0.000064)
  9:    131.28   0.000681    3.44  0.001618  (-0.004574  0.000076 -0.039964)
 10:    210.02   0.000025    0.13  0.000037  (-0.000056  0.006079 -0.000005)
 11:    223.68   0.000142    0.72  0.000197  (-0.006481 -0.000044 -0.012468)
 12:    291.67   0.000050    0.25  0.000054  ( 0.000038 -0.007316  0.000016)
 13:    331.48   0.000502    2.53  0.000472  ( 0.021522  0.000003  0.002988)
 14:    407.01   0.000015    0.07  0.000011  (-0.003172  0.000040 -0.001030)
 15:    412.48   0.000060    0.31  0.000046  ( 0.000041  0.006760 -0.000019)
 16:    439.84   0.000393    1.99  0.000279  ( 0.000013 -0.016705 -0.000106)
 17:    448.44   0.002395   12.11  0.001667  ( 0.008499  0.000048 -0.039934)
 18:    569.36   0.002668   13.49  0.001463  (-0.000272  0.038242  0.000117)
 19:    587.46   0.005624   28.42  0.002988  ( 0.049528  0.000301 -0.023118)
 20:    614.53   0.000681    3.44  0.000346  (-0.016080  0.000018  0.009343)
 21:    619.68   0.000023    0.11  0.000011  ( 0.000000  0.003372 -0.000045)
 22:    648.05   0.003533   17.85  0.001701  ( 0.027711  0.000029 -0.030551)
 23:    696.64   0.002245   11.34  0.001006  ( 0.000037 -0.031710 -0.000095)
 24:    708.08   0.024007  121.32  0.010580  (-0.040574 -0.000363  0.094519)
 25:    715.69   0.008128   41.07  0.003544  (-0.000203  0.059528  0.000487)
 26:    728.19   0.000314    1.58  0.000134  (-0.000001 -0.011592  0.000099)
 27:    790.53   0.017404   87.95  0.006870  ( 0.002089  0.000209 -0.082860)
 28:    797.47   0.008734   44.14  0.003418  ( 0.000028  0.058461  0.000323)
 29:    838.78   0.000141    0.71  0.000052  ( 0.004569 -0.000006 -0.005615)
 30:    860.53   0.000063    0.32  0.000023  (-0.003374  0.002724  0.002039)
 31:    860.83   0.000113    0.57  0.000041  (-0.001475 -0.006148  0.000922)
 32:    922.40   0.017302   87.44  0.005854  ( 0.021247  0.000022  0.073499)
 33:    940.66   0.000439    2.22  0.000146  (-0.005743 -0.002147  0.010392)
 34:    941.48   0.000869    4.39  0.000288  (-0.000705  0.016898  0.001475)
 35:    995.82   0.000108    0.54  0.000034  (-0.005593  0.000332 -0.001531)
 36:    997.14   0.000071    0.36  0.000022  (-0.000323 -0.004687 -0.000041)
 37:   1011.51   0.000048    0.24  0.000015  ( 0.001164  0.000068  0.003683)
 38:   1012.08   0.000002    0.01  0.000000  (-0.000074  0.000685 -0.000149)
 39:   1013.86   0.000038    0.19  0.000012  (-0.002590  0.000036  0.002245)
 40:   1013.97   0.000008    0.04  0.000003  (-0.000054 -0.001603  0.000086)
 41:   1041.40   0.005435   27.46  0.001629  ( 0.040352  0.000107 -0.000496)
 42:   1043.55   0.001119    5.66  0.000335  (-0.000125  0.018294  0.000032)
 43:   1079.83   0.002188   11.06  0.000632  (-0.017641 -0.000031 -0.017922)
 44:   1095.14   0.002218   11.21  0.000632  (-0.000018  0.025138  0.000017)
 45:   1101.82   0.001471    7.43  0.000417  (-0.001490 -0.000009 -0.020358)
 46:   1160.83   0.000001    0.01  0.000000  (-0.000440 -0.000127  0.000316)
 47:   1160.95   0.000010    0.05  0.000003  (-0.000025  0.001599  0.000026)
 48:   1168.78   0.000005    0.03  0.000001  ( 0.000013  0.001170  0.000005)
 49:   1185.69   0.000143    0.72  0.000038  (-0.006074 -0.000003  0.000844)
 50:   1187.75   0.000002    0.01  0.000001  (-0.000057  0.000805 -0.000012)
 51:   1307.22   0.001687    8.52  0.000403  ( 0.019718 -0.000018 -0.003713)
 52:   1329.03   0.000005    0.03  0.000001  ( 0.000011  0.001117 -0.000014)
 53:   1345.56   0.005123   25.89  0.001188  ( 0.033659 -0.000015 -0.007429)
 54:   1352.13   0.000198    1.00  0.000046  ( 0.000193  0.006765  0.000031)
 55:   1352.90   0.001337    6.75  0.000308  (-0.017477  0.000060 -0.001690)
 56:   1431.96   0.001025    5.18  0.000223  (-0.000010  0.014948  0.000009)
 57:   1468.03   0.003046   15.39  0.000647  ( 0.020939 -0.000010  0.014456)
 58:   1470.94   0.000993    5.02  0.000211  ( 0.000002  0.014518 -0.000006)
 59:   1517.68   0.002511   12.69  0.000516  ( 0.000032 -0.022725  0.000001)
 60:   1521.29   0.003893   19.67  0.000799  ( 0.028171 -0.000007 -0.002235)
 61:   1606.97   0.001685    8.51  0.000327  (-0.000017 -0.018087  0.000043)
 62:   1608.44   0.000501    2.53  0.000097  ( 0.001588 -0.000195 -0.009732)
 63:   1631.38   0.000881    4.45  0.000169  ( 0.012982  0.000017 -0.000007)
 64:   1633.68   0.000124    0.62  0.000024  ( 0.000104 -0.004856 -0.000000)
 65:   1651.29   0.008265   41.77  0.001562  ( 0.000001 -0.039521  0.000017)
 66:   3135.84   0.001421    7.18  0.000141  ( 0.000076  0.011891 -0.000017)
 67:   3160.92   0.000972    4.91  0.000096  ( 0.009781  0.000210 -0.000478)
 68:   3161.10   0.000221    1.12  0.000022  ( 0.000410 -0.004656 -0.000015)
 69:   3166.75   0.000110    0.56  0.000011  ( 0.001866 -0.000177  0.002705)
 70:   3167.19   0.000291    1.47  0.000029  ( 0.000040  0.005355  0.000065)
 71:   3175.30   0.006918   34.96  0.000680  ( 0.025785  0.000101 -0.003870)
 72:   3175.65   0.002774   14.02  0.000273  ( 0.000244 -0.016508 -0.000061)
 73:   3181.07   0.013632   68.89  0.001337  (-0.022506  0.001344 -0.028792)
 74:   3181.43   0.008237   41.63  0.000808  (-0.001139 -0.028370 -0.001349)
 75:   3189.28   0.005530   27.94  0.000541  (-0.023161 -0.000711  0.002033)
 76:   3189.54   0.002596   13.12  0.000254  (-0.001052  0.015901  0.000119)
 77:   3221.29   0.002891   14.61  0.000280  (-0.016589  0.000053  0.002203)

--------------------------
THERMOCHEMISTRY AT 298.15K
--------------------------

Temperature         ...   298.15 K
Pressure            ...     1.00 atm
Total Mass          ...   180.25 AMU
Quasi RRHO          ...     True
Cut-Off Frequency   ...     1.00 cm^-1

Throughout the following assumptions are being made:
  (1) The electronic state is orbitally nondegenerate
  (2) There are no thermally accessible electronically excited states
  (3) Hindered rotations indicated by low frequency modes are not
      treated as such but are treated as vibrations and this may
      cause some error
  (4) All equations used are the standard statistical mechanics
      equations for an ideal gas
  (5) All vibrations are strictly harmonic

freq.      28.22  E(vib)   ...       0.55
freq.      50.20  E(vib)   ...       0.52
freq.      73.25  E(vib)   ...       0.49
freq.     131.28  E(vib)   ...       0.42
freq.     210.02  E(vib)   ...       0.34
freq.     223.68  E(vib)   ...       0.33
freq.     291.67  E(vib)   ...       0.27
freq.     331.48  E(vib)   ...       0.24
freq.     407.01  E(vib)   ...       0.19
freq.     412.48  E(vib)   ...       0.19
freq.     439.84  E(vib)   ...       0.17
freq.     448.44  E(vib)   ...       0.17
freq.     569.36  E(vib)   ...       0.11
freq.     587.46  E(vib)   ...       0.10
freq.     614.53  E(vib)   ...       0.10
freq.     619.68  E(vib)   ...       0.09
freq.     648.05  E(vib)   ...       0.08
freq.     696.64  E(vib)   ...       0.07
freq.     708.08  E(vib)   ...       0.07
freq.     715.69  E(vib)   ...       0.07
freq.     728.19  E(vib)   ...       0.06
freq.     790.53  E(vib)   ...       0.05
freq.     797.47  E(vib)   ...       0.05
freq.     838.78  E(vib)   ...       0.04
freq.     860.53  E(vib)   ...       0.04
freq.     860.83  E(vib)   ...       0.04
freq.     922.40  E(vib)   ...       0.03
freq.     940.66  E(vib)   ...       0.03
freq.     941.48  E(vib)   ...       0.03
freq.     995.82  E(vib)   ...       0.02
freq.     997.14  E(vib)   ...       0.02
freq.    1011.51  E(vib)   ...       0.02
freq.    1012.08  E(vib)   ...       0.02
freq.    1013.86  E(vib)   ...       0.02
freq.    1013.97  E(vib)   ...       0.02
freq.    1041.40  E(vib)   ...       0.02
freq.    1043.55  E(vib)   ...       0.02
freq.    1079.83  E(vib)   ...       0.02
freq.    1095.14  E(vib)   ...       0.02
freq.    1101.82  E(vib)   ...       0.02
freq.    1160.83  E(vib)   ...       0.01
freq.    1160.95  E(vib)   ...       0.01
freq.    1168.78  E(vib)   ...       0.01
freq.    1185.69  E(vib)   ...       0.01
freq.    1187.75  E(vib)   ...       0.01
freq.    1307.22  E(vib)   ...       0.01
freq.    1329.03  E(vib)   ...       0.01
freq.    1345.56  E(vib)   ...       0.01
freq.    1352.13  E(vib)   ...       0.01
freq.    1352.90  E(vib)   ...       0.01
freq.    1431.96  E(vib)   ...       0.00
freq.    1468.03  E(vib)   ...       0.00
freq.    1470.94  E(vib)   ...       0.00
freq.    1517.68  E(vib)   ...       0.00
freq.    1521.29  E(vib)   ...       0.00
freq.    1606.97  E(vib)   ...       0.00
freq.    1608.44  E(vib)   ...       0.00
freq.    1631.38  E(vib)   ...       0.00
freq.    1633.68  E(vib)   ...       0.00
freq.    1651.29  E(vib)   ...       0.00
freq.    3135.84  E(vib)   ...       0.00
freq.    3160.92  E(vib)   ...       0.00
freq.    3161.10  E(vib)   ...       0.00
freq.    3166.75  E(vib)   ...       0.00
freq.    3167.19  E(vib)   ...       0.00
freq.    3175.30  E(vib)   ...       0.00
freq.    3175.65  E(vib)   ...       0.00
freq.    3181.07  E(vib)   ...       0.00
freq.    3181.43  E(vib)   ...       0.00
freq.    3189.28  E(vib)   ...       0.00
freq.    3189.54  E(vib)   ...       0.00
freq.    3221.29  E(vib)   ...       0.00

------------
INNER ENERGY
------------

The inner energy is: U= E(el) + E(ZPE) + E(vib) + E(rot) + E(trans)
    E(el)   - is the total energy from the electronic structure calculation
              = E(kin-el) + E(nuc-el) + E(el-el) + E(nuc-nuc)
    E(ZPE)  - the the zero temperature vibrational energy from the frequency calculation
    E(vib)  - the the finite temperature correction to E(ZPE) due to population
              of excited vibrational states
    E(rot)  - is the rotational thermal energy
    E(trans)- is the translational thermal energy

Summary of contributions to the inner energy U:
Electronic energy                ...   -540.97894172 Eh
Zero point energy                ...      0.21299028 Eh     133.65 kcal/mol
Thermal vibrational correction   ...      0.00844658 Eh       5.30 kcal/mol
Thermal rotational correction    ...      0.00141627 Eh       0.89 kcal/mol
Thermal translational correction ...      0.00141627 Eh       0.89 kcal/mol
-----------------------------------------------------------------------
Total thermal energy                   -540.75467231 Eh

Summary of corrections to the electronic energy:
(perhaps to be used in another calculation)
Total thermal correction                  0.01127913 Eh       7.08 kcal/mol
Non-thermal (ZPE) correction              0.21299028 Eh     133.65 kcal/mol
-----------------------------------------------------------------------
Total correction                          0.22426941 Eh     140.73 kcal/mol

--------
ENTHALPY
--------

The enthalpy is H = U + kB*T
                kB is Boltzmann's constant
Total thermal energy              ...   -540.75467231 Eh
Thermal Enthalpy correction       ...      0.00094421 Eh       0.59 kcal/mol
-----------------------------------------------------------------------
Total Enthalpy                    ...   -540.75372810 Eh

Note: Only C1 symmetry has been detected, increase convergence thresholds
      if your molecule has a higher symmetry. Symmetry factor of 1.0 is
      used for the rotational entropy correction.

Note: Rotational entropy computed according to Herzberg
Infrared and Raman Spectra, Chapter V,1, Van Nostrand Reinhold, 1945
Point Group:  C1, Symmetry Number:   1
Rotational constants in cm-1:     0.053636     0.014029     0.012180

Vibrational entropy computed according to the QRRHO of S. Grimme
Chem.Eur.J. 2012 18 9955 using a reference frequency of 100.0 cm-1

-------
ENTROPY
-------

The entropy contributions are T*S = T*(S(el)+S(vib)+S(rot)+S(trans))
     S(el)   - electronic entropy
     S(vib)  - vibrational entropy
     S(rot)  - rotational entropy
     S(trans)- translational entropy
The entropies will be listed as multiplied by the temperature to get
units of energy

                             ****ORCA TERMINATED NORMALLY****
TOTAL RUN TIME: 0 days 1 hours 53 minutes 58 seconds 448 msec
