                         Program Version 6.0.0  -   RELEASE  -
|  1> !r2SCANh aug-cc-pVTZ d3 TightSCF SlowConv RIJCOSX defgrid2
|  2>
|  3> %pal
|  4> nprocs 4
|  5> end
|  6>
|  7> %scf
|  8> MaxIter 1500
|  9> end
| 10>
| 11> %maxcore 3000
| 12>
| 13> !CPCM
| 14> %cpcm smd true
| 15> SMDsolvent "MeCN"
| 16> surfacetype gepol_ses
| 17> rsolv 2.19
| 18> end
| 19>
| 20> * xyz 0 1
| 21> C          -0.04647165541644      1.20175007347372     -0.00553050489943
| 22> C          -1.43870555706960      1.21239589451355     -0.01141185238374
| 23> C          -2.17026954226625      0.01947100552438     -0.01038224809804
| 24> C          -1.46074461278387     -1.19072092102756     -0.00906771027749
| 25> C          -0.07326224349215     -1.20622095149758     -0.00304890212203
| 26> C           0.65481182780619     -0.00920634999724     -0.00042230964481
| 27> C           2.14757419996696     -0.09199024361869      0.00402287730635
| 28> O           2.70671249810890     -1.16711072436472      0.00700907779024
| 29> C           2.93897617802630      1.19587993441016      0.00548036505340
| 30> H           4.01096899238357      0.95048347070739      0.01057835934714
| 31> H           2.69949954286715      1.80719828499160      0.89313893013017
| 32> H           2.70739245523851      1.80422714815017     -0.88630361962564
| 33> H           0.48538632677828     -2.14590904376286     -0.00336087408771
| 34> H          -2.01268479893227     -2.13645944857989     -0.01530874702934
| 35> C          -3.67109078228289      0.02991456776547      0.01617054647882
| 36> H          -4.04511368194266     -0.09506499069857      1.04953886808692
| 37> H          -4.07732921380228      0.97936405308667     -0.36930347193269
| 38> H          -4.09069162992769     -0.79514284196197     -0.58364116879760
| 39> H          -1.97059871816062      2.16919815395977     -0.01931477093783
| 40> H           0.49134391490087      2.15362812892619     -0.00824554435670
| 41> *
| 42>
| 43>                          ****END OF INPUT****

CARTESIAN COORDINATES (ANGSTROEM)
---------------------------------
  C     -0.046472    1.201750   -0.005531
  C     -1.438706    1.212396   -0.011412
  C     -2.170270    0.019471   -0.010382
  C     -1.460745   -1.190721   -0.009068
  C     -0.073262   -1.206221   -0.003049
  C      0.654812   -0.009206   -0.000422
  C      2.147574   -0.091990    0.004023
  O      2.706712   -1.167111    0.007009
  C      2.938976    1.195880    0.005480
  H      4.010969    0.950483    0.010578
  H      2.699500    1.807198    0.893139
  H      2.707392    1.804227   -0.886304
  H      0.485386   -2.145909   -0.003361
  H     -2.012685   -2.136459   -0.015309
  C     -3.671091    0.029915    0.016171
  H     -4.045114   -0.095065    1.049539
  H     -4.077329    0.979364   -0.369303
  H     -4.090692   -0.795143   -0.583641
  H     -1.970599    2.169198   -0.019315
  H      0.491344    2.153628   -0.008246

 Total Charge           Charge          ....    0
 Multiplicity           Mult            ....    1
 Number of Electrons    NEL             ....   72
 Basis Dimension        Dim             ....  690

ORBITAL ENERGIES
----------------

  NO   OCC          E(Eh)            E(eV)
   0   2.0000     -19.103216      -519.8249
   1   2.0000     -10.245647      -278.7982
   2   2.0000     -10.179906      -277.0093
   3   2.0000     -10.169749      -276.7329
   4   2.0000     -10.168189      -276.6905
   5   2.0000     -10.165662      -276.6217
   6   2.0000     -10.161896      -276.5192
   7   2.0000     -10.161683      -276.5134
   8   2.0000     -10.149669      -276.1865
   9   2.0000     -10.148963      -276.1673
  10   2.0000      -1.048507       -28.5313
  11   2.0000      -0.866939       -23.5906
  12   2.0000      -0.786661       -21.4061
  13   2.0000      -0.751218       -20.4417
  14   2.0000      -0.731961       -19.9177
  15   2.0000      -0.685783       -18.6611
  16   2.0000      -0.605439       -16.4748
  17   2.0000      -0.598445       -16.2845
  18   2.0000      -0.542852       -14.7718
  19   2.0000      -0.487517       -13.2660
  20   2.0000      -0.464396       -12.6368
  21   2.0000      -0.442048       -12.0287
  22   2.0000      -0.431987       -11.7550
  23   2.0000      -0.426422       -11.6035
  24   2.0000      -0.413975       -11.2648
  25   2.0000      -0.409088       -11.1319
  26   2.0000      -0.408844       -11.1252
  27   2.0000      -0.372121       -10.1259
  28   2.0000      -0.365600        -9.9485
  29   2.0000      -0.363348        -9.8872
  30   2.0000      -0.342660        -9.3243
  31   2.0000      -0.342137        -9.3100
  32   2.0000      -0.325122        -8.8470
  33   2.0000      -0.258143        -7.0244
  34   2.0000      -0.248003        -6.7485
  35   2.0000      -0.243117        -6.6155
  36   0.0000      -0.071491        -1.9454
  37   0.0000      -0.029524        -0.8034
  38   0.0000       0.008978         0.2443
  39   0.0000       0.020152         0.5484
  40   0.0000       0.021422         0.5829

MULLIKEN ATOMIC CHARGES
-----------------------
   0 C :   -0.439790
   1 C :   -1.111578
   2 C :    1.643628
   3 C :   -1.033143
   4 C :   -1.227640
   5 C :    1.669713
   6 C :    0.891664
   7 O :   -0.984183
   8 C :   -0.582557
   9 H :    0.169174
  10 H :    0.256382
  11 H :    0.256785
  12 H :    0.054343
  13 H :    0.274449
  14 C :   -0.763344
  15 H :    0.257419
  16 H :    0.191920
  17 H :    0.204286
  18 H :    0.183765
  19 H :    0.088708
Sum of atomic charges:    0.0000000

LOEWDIN ATOMIC CHARGES
----------------------
   0 C :    0.207107
   1 C :    0.226479
   2 C :   -0.133594
   3 C :    0.222267
   4 C :    0.193197
   5 C :   -0.140349
   6 C :   -0.554465
   7 O :    0.478525
   8 C :    0.569404
   9 H :   -0.178265
  10 H :   -0.158365
  11 H :   -0.158306
  12 H :   -0.186315
  13 H :   -0.160758
  14 C :    0.582694
  15 H :   -0.148068
  16 H :   -0.164543
  17 H :   -0.160406
  18 H :   -0.161890
  19 H :   -0.174348

  Mayer bond orders larger than 0.100000
B(  0-C ,  1-C ) :   1.0315 B(  0-C ,  3-C ) :  -0.1624 B(  0-C ,  4-C ) :  -0.4661
B(  0-C ,  5-C ) :   0.2991 B(  0-C , 19-H ) :   1.2878 B(  1-C ,  2-C ) :   0.4615
B(  1-C ,  5-C ) :  -0.1101 B(  1-C , 18-H ) :   1.1046 B(  2-C ,  3-C ) :   0.5692
B(  2-C , 12-H ) :  -0.1379 B(  2-C , 14-C ) :   0.2661 B(  3-C ,  4-C ) :   1.4319
B(  3-C ,  5-C ) :  -0.1613 B(  3-C , 13-H ) :   0.9240 B(  3-C , 14-C ) :   0.1538
B(  4-C ,  6-C ) :   0.2140 B(  4-C , 12-H ) :   1.2297 B(  5-C ,  6-C ) :   0.4519
B(  5-C ,  7-O ) :   0.2761 B(  5-C ,  8-C ) :   0.1279 B(  5-C , 12-H ) :  -0.1119
B(  5-C , 19-H ) :  -0.1571 B(  6-C ,  7-O ) :   0.6998 B(  6-C ,  8-C ) :   0.9174
B(  7-O , 12-H ) :   0.1677 B(  8-C ,  9-H ) :   0.9498 B(  8-C , 10-H ) :   0.9566
B(  8-C , 11-H ) :   0.9566 B( 14-C , 15-H ) :   0.9623 B( 14-C , 16-H ) :   1.0176
B( 14-C , 17-H ) :   1.0082

Dispersion correction           -0.006456926
FINAL SINGLE POINT ENERGY      -424.120398673813

DIPOLE MOMENT
-------------

Method             : SCF
Type of density    : Electron Density
Multiplicity       :   1
Irrep              :   0
Energy             :  -424.1139417478125324 Eh
Relativity type    :
Basis              : AO
                                X                 Y                 Z
Electronic contribution:      4.015906760      -3.048397489      -0.038113285
Nuclear contribution   :     -5.402543283       4.383900218       0.062989255
                        -----------------------------------------
Total Dipole Moment    :     -1.386636523       1.335502729       0.024875970
                        -----------------------------------------
Magnitude (a.u.)       :      1.925343398
Magnitude (Debye)      :      4.893833998

Rotational constants in cm-1:             0.120803             0.026206             0.021712
Rotational constants in MHz :          3621.570490           785.633269           650.900953

                             ****ORCA TERMINATED NORMALLY****
TOTAL RUN TIME: 0 days 0 hours 6 minutes 14 seconds 605 msec
