                         Program Version 6.0.0  -   RELEASE  -
|  1> !PBE0 aug-cc-pVTZ d3 TightSCF SlowConv RIJCOSX defgrid2
|  2>
|  3> %pal
|  4> nprocs 4
|  5> end
|  6>
|  7> %scf
|  8> MaxIter 1500
|  9> end
| 10>
| 11> %maxcore 3000
| 12>
| 13> !CPCM
| 14> %cpcm smd true
| 15> SMDsolvent "MeCN"
| 16> surfacetype gepol_ses
| 17> rsolv 2.19
| 18> end
| 19>
| 20> * xyz 1 2
| 21> C           2.42348472290459     -0.91745853608407      0.59245240880380
| 22> C           1.25995896348321     -0.39202749196625     -0.02333100512405
| 23> C           1.34845533499414      0.85031226217091     -0.70354304574749
| 24> C           2.54901795106357      1.53889253592779     -0.75588972072195
| 25> C           3.68078809059867      1.01347219167219     -0.12249703890860
| 26> C           3.61293527426724     -0.21317645517309      0.55511971135216
| 27> H           4.49963825852970     -0.61051765955941      1.05572901180402
| 28> H           4.62917087127076      1.55697433746367     -0.16496199627931
| 29> H           2.61592640542583      2.48137948500377     -1.30532606762871
| 30> H           0.47393529747941      1.23580556067586     -1.23411925330570
| 31> C          -0.00001731418985     -1.11439032518152     -0.00002747562644
| 32> C          -0.00002568960524     -2.50679262514812     -0.00005487800504
| 33> H          -0.93480054732863     -3.07584961343870     -0.00342574946663
| 34> H           0.93474533226452     -3.07585703929259      0.00329162420143
| 35> C          -1.25998231282226     -0.39200541574857      0.02329276572865
| 36> C          -2.42352655120021     -0.91741544935804     -0.59247757528391
| 37> C          -3.61296415978219     -0.21311035984979     -0.55512705740855
| 38> C          -3.68079177573927      1.01353038434026      0.12250956134291
| 39> C          -2.54900448879428      1.53892565378929      0.75589582496725
| 40> C          -1.34845157706727      0.85032505299238      0.70352498564033
| 41> H          -0.47391984231340      1.23578710201298      1.23410367351677
| 42> H          -2.61589448475022      2.48140107327864      1.30534730547376
| 43> H          -4.62916722704471      1.55704319189423      0.16499523284128
| 44> H          -4.49967994828211     -0.61043350047146     -1.05572841225155
| 45> H          -2.37320187697182     -1.85878167189054     -1.14547741375033
| 46> H           2.37313869360983     -1.85882668805983      1.14544868383589
| 47> *
| 48>
| 49>                          ****END OF INPUT****

CARTESIAN COORDINATES (ANGSTROEM)
---------------------------------
  C      2.423485   -0.917459    0.592452
  C      1.259959   -0.392027   -0.023331
  C      1.348455    0.850312   -0.703543
  C      2.549018    1.538893   -0.755890
  C      3.680788    1.013472   -0.122497
  C      3.612935   -0.213176    0.555120
  H      4.499638   -0.610518    1.055729
  H      4.629171    1.556974   -0.164962
  H      2.615926    2.481379   -1.305326
  H      0.473935    1.235806   -1.234119
  C     -0.000017   -1.114390   -0.000027
  C     -0.000026   -2.506793   -0.000055
  H     -0.934801   -3.075850   -0.003426
  H      0.934745   -3.075857    0.003292
  C     -1.259982   -0.392005    0.023293
  C     -2.423527   -0.917415   -0.592478
  C     -3.612964   -0.213110   -0.555127
  C     -3.680792    1.013530    0.122510
  C     -2.549004    1.538926    0.755896
  C     -1.348452    0.850325    0.703525
  H     -0.473920    1.235787    1.234104
  H     -2.615894    2.481401    1.305347
  H     -4.629167    1.557043    0.164995
  H     -4.499680   -0.610434   -1.055728
  H     -2.373202   -1.858782   -1.145477
  H      2.373139   -1.858827    1.145449

 Total Charge           Charge          ....    1
 Multiplicity           Mult            ....    2
 Number of Electrons    NEL             ....   95
 Basis Dimension        Dim             ....  920

ORBITAL ENERGIES
----------------
                 SPIN UP ORBITALS
  NO   OCC          E(Eh)            E(eV)
   0   1.0000     -10.310512      -280.5633
   1   1.0000     -10.298461      -280.2354
   2   1.0000     -10.283474      -279.8275
   3   1.0000     -10.283464      -279.8273
   4   1.0000     -10.265397      -279.3357
   5   1.0000     -10.265347      -279.3343
   6   1.0000     -10.264981      -279.3243
   7   1.0000     -10.264977      -279.3242
   8   1.0000     -10.263638      -279.2878
   9   1.0000     -10.263634      -279.2877
  10   1.0000     -10.253104      -279.0011
  11   1.0000     -10.253100      -279.0010
  12   1.0000     -10.252322      -278.9799
  13   1.0000     -10.252306      -278.9794
  14   1.0000      -0.936061       -25.4715
  15   1.0000      -0.909221       -24.7412
  16   1.0000      -0.870611       -23.6905
  17   1.0000      -0.802374       -21.8337
  18   1.0000      -0.800967       -21.7954
  19   1.0000      -0.793054       -21.5801
  20   1.0000      -0.778069       -21.1723
  21   1.0000      -0.692158       -18.8346
  22   1.0000      -0.657622       -17.8948
  23   1.0000      -0.646439       -17.5905
  24   1.0000      -0.640477       -17.4283
  25   1.0000      -0.597796       -16.2668
  26   1.0000      -0.566731       -15.4215
  27   1.0000      -0.544339       -14.8122
  28   1.0000      -0.509328       -13.8595
  29   1.0000      -0.509322       -13.8594
  30   1.0000      -0.490253       -13.3405
  31   1.0000      -0.479558       -13.0494
  32   1.0000      -0.478453       -13.0194
  33   1.0000      -0.458166       -12.4673
  34   1.0000      -0.457675       -12.4540
  35   1.0000      -0.456054       -12.4099
  36   1.0000      -0.427843       -11.6422
  37   1.0000      -0.420874       -11.4526
  38   1.0000      -0.414035       -11.2665
  39   1.0000      -0.392254       -10.6738
  40   1.0000      -0.381573       -10.3831
  41   1.0000      -0.376248       -10.2382
  42   1.0000      -0.371411       -10.1066
  43   1.0000      -0.360803        -9.8179
  44   1.0000      -0.300191        -8.1686
  45   1.0000      -0.297117        -8.0850
  46   1.0000      -0.291696        -7.9375
  47   1.0000      -0.279130        -7.5955
  48   0.0000      -0.097637        -2.6568
  49   0.0000      -0.048327        -1.3151
  50   0.0000      -0.038368        -1.0440
  51   0.0000      -0.023393        -0.6366
  52   0.0000      -0.003029        -0.0824

                 SPIN DOWN ORBITALS
  NO   OCC          E(Eh)            E(eV)
   0   1.0000     -10.310868      -280.5730
   1   1.0000     -10.289701      -279.9970
   2   1.0000     -10.282427      -279.7991
   3   1.0000     -10.282416      -279.7988
   4   1.0000     -10.264326      -279.3065
   5   1.0000     -10.264276      -279.3051
   6   1.0000     -10.263032      -279.2713
   7   1.0000     -10.263028      -279.2712
   8   1.0000     -10.262786      -279.2646
   9   1.0000     -10.262782      -279.2645
  10   1.0000     -10.253551      -279.0133
  11   1.0000     -10.253548      -279.0132
  12   1.0000     -10.252916      -278.9960
  13   1.0000     -10.252899      -278.9956
  14   1.0000      -0.931827       -25.3563
  15   1.0000      -0.906261       -24.6606
  16   1.0000      -0.864234       -23.5170
  17   1.0000      -0.799935       -21.7673
  18   1.0000      -0.798235       -21.7211
  19   1.0000      -0.790290       -21.5049
  20   1.0000      -0.764533       -20.8040
  21   1.0000      -0.685706       -18.6590
  22   1.0000      -0.655646       -17.8410
  23   1.0000      -0.643097       -17.4996
  24   1.0000      -0.638728       -17.3807
  25   1.0000      -0.594824       -16.1860
  26   1.0000      -0.565672       -15.3927
  27   1.0000      -0.541592       -14.7375
  28   1.0000      -0.507396       -13.8069
  29   1.0000      -0.507197       -13.8015
  30   1.0000      -0.488162       -13.2836
  31   1.0000      -0.476517       -12.9667
  32   1.0000      -0.476291       -12.9605
  33   1.0000      -0.456687       -12.4271
  34   1.0000      -0.455829       -12.4037
  35   1.0000      -0.454885       -12.3781
  36   1.0000      -0.424634       -11.5549
  37   1.0000      -0.412218       -11.2170
  38   1.0000      -0.405980       -11.0473
  39   1.0000      -0.391576       -10.6553
  40   1.0000      -0.381057       -10.3691
  41   1.0000      -0.372481       -10.1357
  42   1.0000      -0.370115       -10.0714
  43   1.0000      -0.339038        -9.2257
  44   1.0000      -0.296194        -8.0598
  45   1.0000      -0.289391        -7.8747
  46   1.0000      -0.280757        -7.6398
  47   0.0000      -0.193952        -5.2777
  48   0.0000      -0.066586        -1.8119
  49   0.0000      -0.040601        -1.1048
  50   0.0000      -0.033906        -0.9226
  51   0.0000      -0.017728        -0.4824

MULLIKEN ATOMIC CHARGES AND SPIN POPULATIONS
--------------------------------------------
   0 C :   -1.170409    0.027062
   1 C :    2.040169    0.108121
   2 C :   -0.736792    0.059323
   3 C :   -1.042355   -0.034073
   4 C :   -0.259405    0.123013
   5 C :   -0.838008   -0.021777
   6 H :    0.656396   -0.000357
   7 H :    0.699943    0.002671
   8 H :    0.580369    0.001150
   9 H :    0.263082   -0.002966
  10 C :    0.662397    0.025518
  11 C :   -0.991605    0.482593
  12 H :    0.343020   -0.003956
  13 H :    0.344670   -0.003745
  14 C :    2.033694    0.108301
  15 C :   -1.138074    0.027306
  16 C :   -0.821473   -0.021810
  17 C :   -0.248354    0.123107
  18 C :   -1.039357   -0.034301
  19 C :   -0.733808    0.059350
  20 H :    0.265016   -0.003104
  21 H :    0.583770    0.001101
  22 H :    0.692809    0.003082
  23 H :    0.588596   -0.000470
  24 H :    0.138330   -0.012715
  25 H :    0.127378   -0.012425
Sum of atomic charges         :    1.0000000

LOEWDIN ATOMIC CHARGES AND SPIN POPULATIONS
-------------------------------------------
   0 C :    0.244749    0.034087
   1 C :   -0.100884    0.054276
   2 C :    0.235331    0.040412
   3 C :    0.239371    0.011761
   4 C :    0.237573    0.059479
   5 C :    0.236929    0.014101
   6 H :   -0.152140   -0.001983
   7 H :   -0.146976    0.014178
   8 H :   -0.151717   -0.002733
   9 H :   -0.148337    0.006651
  10 C :   -0.064539    0.106804
  11 C :    0.687222    0.298391
  12 H :   -0.151264    0.061158
  13 H :   -0.151274    0.061160
  14 C :   -0.100855    0.054268
  15 C :    0.244794    0.034097
  16 C :    0.236947    0.014096
  17 C :    0.237589    0.059485
  18 C :    0.239398    0.011763
  19 C :    0.235275    0.040415
  20 H :   -0.148444    0.006653
  21 H :   -0.151709   -0.002733
  22 H :   -0.146976    0.014180
  23 H :   -0.152153   -0.001986
  24 H :   -0.153952    0.006011
  25 H :   -0.153959    0.006008

  Mayer bond orders larger than 0.100000
B(  0-C ,  1-C ) :   0.2291 B(  0-C ,  2-C ) :  -0.6274 B(  0-C ,  3-C ) :   0.1375
B(  0-C ,  4-C ) :  -0.1192 B(  0-C ,  5-C ) :   1.5959 B(  0-C ,  6-H ) :  -0.1278
B(  0-C , 10-C ) :   0.3415 B(  0-C , 25-H ) :   1.4246 B(  1-C ,  2-C ) :   0.6054
B(  1-C ,  3-C ) :  -0.1210 B(  1-C ,  4-C ) :  -0.2622 B(  1-C , 10-C ) :   0.1808
B(  1-C , 11-C ) :  -0.2505 B(  1-C , 14-C ) :  -0.2495 B(  2-C ,  3-C ) :   1.5137
B(  2-C ,  9-H ) :   1.1842 B(  2-C , 10-C ) :   0.2202 B(  2-C , 19-C ) :   0.1765
B(  3-C ,  4-C ) :   1.4762 B(  3-C ,  5-C ) :   0.2731 B(  3-C ,  8-H ) :   0.3158
B(  4-C ,  5-C ) :   1.3101 B(  4-C ,  6-H ) :   0.1310 B(  4-C ,  7-H ) :   0.2674
B(  4-C ,  8-H ) :   0.1013 B(  4-C , 10-C ) :   0.1969 B(  5-C ,  6-H ) :   0.2477
B(  5-C ,  9-H ) :  -0.1036 B(  9-H , 10-C ) :  -0.1338 B(  9-H , 25-H ) :   0.1517
B( 10-C , 11-C ) :   0.9027 B( 10-C , 14-C ) :   0.1780 B( 10-C , 15-C ) :   0.3459
B( 10-C , 17-C ) :   0.1945 B( 10-C , 19-C ) :   0.2201 B( 10-C , 20-H ) :  -0.1314
B( 10-C , 24-H ) :  -0.1254 B( 10-C , 25-H ) :  -0.1251 B( 11-C , 12-H ) :   0.8643
B( 11-C , 13-H ) :   0.8607 B( 11-C , 14-C ) :  -0.2537 B( 14-C , 15-C ) :   0.2351
B( 14-C , 17-C ) :  -0.2576 B( 14-C , 18-C ) :  -0.1217 B( 14-C , 19-C ) :   0.6037
B( 15-C , 16-C ) :   1.5450 B( 15-C , 17-C ) :  -0.1278 B( 15-C , 18-C ) :   0.1283
B( 15-C , 19-C ) :  -0.6303 B( 15-C , 23-H ) :  -0.1222 B( 15-C , 24-H ) :   1.3962
B( 16-C , 17-C ) :   1.2881 B( 16-C , 18-C ) :   0.2703 B( 16-C , 23-H ) :   0.3608
B( 17-C , 18-C ) :   1.4726 B( 17-C , 22-H ) :   0.2963 B( 17-C , 23-H ) :   0.1068
B( 18-C , 19-C ) :   1.5134 B( 18-C , 21-H ) :   0.3146 B( 19-C , 20-H ) :   1.1835
B( 20-H , 24-H ) :   0.1455

Dispersion correction           -0.029090467
FINAL SINGLE POINT ENERGY      -540.053719795216

DIPOLE MOMENT
-------------

Method             : SCF
Type of density    : Electron Density
Multiplicity       :   2
Irrep              :   0
Energy             :  -540.0246293285562160 Eh
Relativity type    :
Basis              : AO
                                X                 Y                 Z
Electronic contribution:     -0.000887777      -0.379296868      -0.000830489
Nuclear contribution   :     -0.000002786      -0.578596445       0.000006465
                        -----------------------------------------
Total Dipole Moment    :     -0.000890564      -0.957893313      -0.000824024
                        -----------------------------------------
Magnitude (a.u.)       :      0.957894081
Magnitude (Debye)      :      2.434773260

Rotational constants in cm-1:             0.053565             0.014254             0.012120
Rotational constants in MHz :          1605.831188           427.320428           363.336984

                             ****ORCA TERMINATED NORMALLY****
TOTAL RUN TIME: 0 days 0 hours 17 minutes 17 seconds 511 msec
