                         Program Version 6.0.0  -   RELEASE  -
|  1> !r2SCAN aug-cc-pVTZ d3 TightSCF SlowConv RIJCOSX defgrid2
|  2>
|  3> %pal
|  4> nprocs 4
|  5> end
|  6>
|  7> %scf
|  8> MaxIter 1500
|  9> end
| 10>
| 11> %maxcore 3000
| 12>
| 13> !CPCM
| 14> %cpcm smd true
| 15> SMDsolvent "MeCN"
| 16> surfacetype gepol_ses
| 17> rsolv 2.19
| 18> end
| 19>
| 20> * xyz 1 2
| 21> C           0.39027202850425     -0.55394955520482     -0.01147318884514
| 22> C           1.46538411398227     -1.41201451226685      0.32843134291825
| 23> C           2.76223371510298     -0.95181499222389      0.33062494963678
| 24> C           3.04842985596685      0.39380533103560     -0.01062127484712
| 25> C           2.02568592855862      1.26931648709972     -0.30266231954854
| 26> C           0.67678776447609      0.85315037925119     -0.22862200210739
| 27> C          -0.33926818993375      1.86220315940674     -0.30117717382418
| 28> C          -1.56489251647505      1.82515242057598      0.30424492715440
| 29> C          -2.56690840928871      2.90896571125331      0.23231417274704
| 30> H          -3.53355272254525      2.51293544975722     -0.13479632863314
| 31> H          -2.77605157275142      3.30247609624592      1.24606137329070
| 32> H          -2.25129259404292      3.73887527736490     -0.41869887051134
| 33> H          -1.81399596674726      0.96710759352235      0.94261722102013
| 34> H          -0.04671759270647      2.79850717185556     -0.79419889631908
| 35> H           2.24475638702766      2.31715758324724     -0.52473414148750
| 36> H           4.08568441615477      0.73993162783082     -0.02214310519638
| 37> H           3.58311040506705     -1.63750220541102      0.55778721997041
| 38> H           1.27533483486936     -2.47214630677441      0.50835511028523
| 39> C          -0.92089212283098     -1.06759805095657     -0.27601443140599
| 40> C          -1.40401796068071     -2.28526831606367      0.13493631580958
| 41> C          -2.74957477405163     -2.79884516770918     -0.18467320513625
| 42> H          -3.33583401509727     -2.10778381332124     -0.80996844556913
| 43> H          -2.66557343194919     -3.77317132724075     -0.70581020687802
| 44> H          -3.31016753031929     -3.01606684555296      0.74550545986431
| 45> H          -0.77234901522658     -2.92837616395213      0.76142767228746
| 46> H          -1.58084503506342     -0.44553323176908     -0.89033947467507
| 47> *
| 48>
| 49>                          ****END OF INPUT****

CARTESIAN COORDINATES (ANGSTROEM)
---------------------------------
  C      0.390272   -0.553950   -0.011473
  C      1.465384   -1.412015    0.328431
  C      2.762234   -0.951815    0.330625
  C      3.048430    0.393805   -0.010621
  C      2.025686    1.269316   -0.302662
  C      0.676788    0.853150   -0.228622
  C     -0.339268    1.862203   -0.301177
  C     -1.564893    1.825152    0.304245
  C     -2.566908    2.908966    0.232314
  H     -3.533553    2.512935   -0.134796
  H     -2.776052    3.302476    1.246061
  H     -2.251293    3.738875   -0.418699
  H     -1.813996    0.967108    0.942617
  H     -0.046718    2.798507   -0.794199
  H      2.244756    2.317158   -0.524734
  H      4.085684    0.739932   -0.022143
  H      3.583110   -1.637502    0.557787
  H      1.275335   -2.472146    0.508355
  C     -0.920892   -1.067598   -0.276014
  C     -1.404018   -2.285268    0.134936
  C     -2.749575   -2.798845   -0.184673
  H     -3.335834   -2.107784   -0.809968
  H     -2.665573   -3.773171   -0.705810
  H     -3.310168   -3.016067    0.745505
  H     -0.772349   -2.928376    0.761428
  H     -1.580845   -0.445533   -0.890339

 Total Charge           Charge          ....    1
 Multiplicity           Mult            ....    2
 Number of Electrons    NEL             ....   85
 Basis Dimension        Dim             ....  874

ORBITAL ENERGIES
----------------
                 SPIN UP ORBITALS
  NO   OCC          E(Eh)            E(eV)
   0   1.0000     -10.103022      -274.9172
   1   1.0000     -10.100685      -274.8536
   2   1.0000     -10.095255      -274.7059
   3   1.0000     -10.089824      -274.5581
   4   1.0000     -10.079955      -274.2895
   5   1.0000     -10.074592      -274.1436
   6   1.0000     -10.073663      -274.1183
   7   1.0000     -10.072213      -274.0789
   8   1.0000     -10.068625      -273.9812
   9   1.0000     -10.066328      -273.9187
  10   1.0000     -10.046349      -273.3751
  11   1.0000     -10.044545      -273.3260
  12   1.0000      -0.869092       -23.6492
  13   1.0000      -0.805323       -21.9139
  14   1.0000      -0.802104       -21.8264
  15   1.0000      -0.750048       -20.4098
  16   1.0000      -0.748418       -20.3655
  17   1.0000      -0.685523       -18.6540
  18   1.0000      -0.663912       -18.0660
  19   1.0000      -0.611979       -16.6528
  20   1.0000      -0.595162       -16.1952
  21   1.0000      -0.548715       -14.9313
  22   1.0000      -0.544020       -14.8035
  23   1.0000      -0.502415       -13.6714
  24   1.0000      -0.471862       -12.8400
  25   1.0000      -0.462893       -12.5960
  26   1.0000      -0.437028       -11.8921
  27   1.0000      -0.423727       -11.5302
  28   1.0000      -0.422122       -11.4865
  29   1.0000      -0.402603       -10.9554
  30   1.0000      -0.398721       -10.8498
  31   1.0000      -0.397705       -10.8221
  32   1.0000      -0.381446       -10.3797
  33   1.0000      -0.378495       -10.2994
  34   1.0000      -0.368805       -10.0357
  35   1.0000      -0.350849        -9.5471
  36   1.0000      -0.345281        -9.3956
  37   1.0000      -0.339359        -9.2344
  38   1.0000      -0.330281        -8.9874
  39   1.0000      -0.305870        -8.3231
  40   1.0000      -0.303181        -8.2500
  41   1.0000      -0.249894        -6.8000
  42   1.0000      -0.231747        -6.3062
  43   0.0000      -0.114396        -3.1129
  44   0.0000      -0.081528        -2.2185
  45   0.0000      -0.030533        -0.8308
  46   0.0000      -0.011320        -0.3080
  47   0.0000       0.005659         0.1540

                 SPIN DOWN ORBITALS
  NO   OCC          E(Eh)            E(eV)
   0   1.0000     -10.100178      -274.8398
   1   1.0000     -10.098157      -274.7848
   2   1.0000     -10.089173      -274.5403
   3   1.0000     -10.085474      -274.4397
   4   1.0000     -10.080093      -274.2933
   5   1.0000     -10.074550      -274.1424
   6   1.0000     -10.072100      -274.0758
   7   1.0000     -10.071069      -274.0477
   8   1.0000     -10.069165      -273.9959
   9   1.0000     -10.067108      -273.9399
  10   1.0000     -10.046499      -273.3791
  11   1.0000     -10.044662      -273.3291
  12   1.0000      -0.863461       -23.4960
  13   1.0000      -0.797728       -21.7073
  14   1.0000      -0.795669       -21.6513
  15   1.0000      -0.745426       -20.2841
  16   1.0000      -0.742174       -20.1956
  17   1.0000      -0.685093       -18.6423
  18   1.0000      -0.660555       -17.9746
  19   1.0000      -0.607373       -16.5275
  20   1.0000      -0.590858       -16.0781
  21   1.0000      -0.543638       -14.7931
  22   1.0000      -0.540414       -14.7054
  23   1.0000      -0.501082       -13.6351
  24   1.0000      -0.470364       -12.7993
  25   1.0000      -0.461274       -12.5519
  26   1.0000      -0.435226       -11.8431
  27   1.0000      -0.421500       -11.4696
  28   1.0000      -0.418956       -11.4004
  29   1.0000      -0.397857       -10.8263
  30   1.0000      -0.391438       -10.6516
  31   1.0000      -0.390808       -10.6344
  32   1.0000      -0.377974       -10.2852
  33   1.0000      -0.371337       -10.1046
  34   1.0000      -0.367030        -9.9874
  35   1.0000      -0.349675        -9.5151
  36   1.0000      -0.344258        -9.3677
  37   1.0000      -0.338131        -9.2010
  38   1.0000      -0.328350        -8.9349
  39   1.0000      -0.296599        -8.0709
  40   1.0000      -0.291457        -7.9309
  41   1.0000      -0.240191        -6.5359
  42   0.0000      -0.200656        -5.4601
  43   0.0000      -0.088396        -2.4054
  44   0.0000      -0.072073        -1.9612
  45   0.0000      -0.015512        -0.4221
  46   0.0000       0.003447         0.0938

MULLIKEN ATOMIC CHARGES AND SPIN POPULATIONS
--------------------------------------------
   0 C :    1.560463    0.232788
   1 C :   -0.851298   -0.075793
   2 C :   -0.655444    0.073239
   3 C :   -0.345118    0.098497
   4 C :   -0.937629   -0.081141
   5 C :    1.416449    0.167084
   6 C :   -0.305169   -0.020009
   7 C :    0.124990    0.226764
   8 C :   -0.762741   -0.026039
   9 H :    0.189299    0.022696
  10 H :    0.188280    0.022673
  11 H :    0.229133   -0.004261
  12 H :    0.249992    0.023257
  13 H :    0.005188    0.006390
  14 H :    0.047711   -0.000222
  15 H :    0.481819    0.005713
  16 H :    0.428012    0.002832
  17 H :    0.025588   -0.006051
  18 C :    0.127509   -0.024167
  19 C :   -0.431285    0.311705
  20 C :   -0.713025   -0.048938
  21 H :    0.235967   -0.007428
  22 H :    0.203591    0.034279
  23 H :    0.170297    0.032747
  24 H :    0.161937    0.037990
  25 H :    0.155484   -0.004603
Sum of atomic charges         :    1.0000000

LOEWDIN ATOMIC CHARGES AND SPIN POPULATIONS
-------------------------------------------
   0 C :   -0.064480    0.099383
   1 C :    0.250884    0.015211
   2 C :    0.251816    0.047525
   3 C :    0.250574    0.055426
   4 C :    0.247945    0.010834
   5 C :   -0.074302    0.093102
   6 C :    0.260556    0.062263
   7 C :    0.260003    0.131031
   8 C :    0.604290    0.042274
   9 H :   -0.145485    0.009635
  10 H :   -0.144329    0.009884
  11 H :   -0.157956    0.000926
  12 H :   -0.155293    0.020988
  13 H :   -0.151299    0.004991
  14 H :   -0.150308   -0.004848
  15 H :   -0.148904    0.011473
  16 H :   -0.149578    0.008631
  17 H :   -0.167329   -0.003844
  18 C :    0.252093    0.076295
  19 C :    0.287450    0.183768
  20 C :    0.608167    0.059467
  21 H :   -0.156312    0.001149
  22 H :   -0.142388    0.014620
  23 H :   -0.142977    0.012513
  24 H :   -0.150396    0.032649
  25 H :   -0.172440    0.004652

  Mayer bond orders larger than 0.100000
B(  0-C ,  1-C ) :   0.2956 B(  0-C ,  3-C ) :  -0.2854 B(  0-C ,  4-C ) :  -0.1878
B(  0-C ,  5-C ) :   0.8777 B(  0-C ,  6-C ) :  -0.1454 B(  0-C ,  7-C ) :  -0.1211
B(  0-C , 17-H ) :  -0.1346 B(  0-C , 18-C ) :   0.3154 B(  0-C , 19-C ) :  -0.1271
B(  0-C , 24-H ) :  -0.1322 B(  1-C ,  2-C ) :   1.0825 B(  1-C ,  5-C ) :  -0.3448
B(  1-C , 17-H ) :   1.3068 B(  1-C , 18-C ) :   0.1182 B(  2-C ,  3-C ) :   1.0623
B(  2-C ,  5-C ) :  -0.1968 B(  2-C , 16-H ) :   0.6448 B(  2-C , 17-H ) :  -0.1310
B(  3-C ,  4-C ) :   0.9724 B(  3-C , 15-H ) :   0.5970 B(  4-C ,  5-C ) :   0.1936
B(  4-C ,  6-C ) :  -0.1684 B(  4-C ,  7-C ) :   0.1310 B(  4-C , 14-H ) :   1.2283
B(  4-C , 18-C ) :   0.1587 B(  5-C ,  6-C ) :   0.4581 B(  5-C , 12-H ) :  -0.1256
B(  5-C , 18-C ) :  -0.2575 B(  5-C , 19-C ) :   0.1461 B(  6-C ,  7-C ) :   0.8948
B(  6-C , 13-H ) :   1.1977 B(  7-C ,  8-C ) :   0.6970 B(  7-C , 12-H ) :   1.0690
B(  7-C , 13-H ) :  -0.1459 B(  8-C ,  9-H ) :   1.0035 B(  8-C , 10-H ) :   1.0201
B(  8-C , 11-H ) :   0.9495 B( 18-C , 19-C ) :   0.8015 B( 18-C , 25-H ) :   1.0873
B( 19-C , 20-C ) :   0.7277 B( 19-C , 24-H ) :   1.1543 B( 19-C , 25-H ) :  -0.1500
B( 20-C , 21-H ) :   0.9503 B( 20-C , 22-H ) :   0.9846 B( 20-C , 23-H ) :   1.0466
B( 20-C , 24-H ) :  -0.1088

Dispersion correction           -0.008885354
FINAL SINGLE POINT ENERGY      -465.380277191097

DIPOLE MOMENT
-------------

Method             : SCF
Type of density    : Electron Density
Multiplicity       :   2
Irrep              :   0
Energy             :  -465.3713918374648983 Eh
Relativity type    :
Basis              : AO
                                X                 Y                 Z
Electronic contribution:      9.356141132      -0.247618607      -0.223054863
Nuclear contribution   :    -10.132740029      -0.046037469       0.378723665
                        -----------------------------------------
Total Dipole Moment    :     -0.776598897      -0.293656076       0.155668803
                        -----------------------------------------
Magnitude (a.u.)       :      0.844732214
Magnitude (Debye)      :      2.147138653

Rotational constants in cm-1:             0.031811             0.026577             0.014887
Rotational constants in MHz :           953.672417           796.765756           446.304428

                             ****ORCA TERMINATED NORMALLY****
TOTAL RUN TIME: 0 days 0 hours 9 minutes 12 seconds 915 msec
