                         Program Version 6.0.0  -   RELEASE  -
|  1> !PBE0 aug-cc-pVTZ d3 TightSCF SlowConv RIJCOSX defgrid2
|  2>
|  3> %pal
|  4> nprocs 4
|  5> end
|  6>
|  7> %scf
|  8> MaxIter 1500
|  9> end
| 10>
| 11> %maxcore 3000
| 12>
| 13> !CPCM
| 14> %cpcm smd true
| 15> SMDsolvent "MeCN"
| 16> surfacetype gepol_ses
| 17> rsolv 2.19
| 18> end
| 19>
| 20> * xyz 1 2
| 21> C          -0.67908643386725      1.23607676469241      0.05037688455432
| 22> C           0.69063537473082      1.22239505984825      0.03433122006490
| 23> C           1.41935940969442      0.00089697821530      0.02361032838992
| 24> C           2.90264582314279      0.00023187234458     -0.03154544602423
| 25> H           3.33275857806013      0.90982454248379      0.41704425889491
| 26> H           3.23040482362577     -0.02388819542517     -1.09174805024851
| 27> H           3.33188322628672     -0.89033444842890      0.45524306190015
| 28> C           0.69116135048355     -1.22128045675289      0.03322526814773
| 29> C          -0.67837863172589     -1.23584655805266      0.04927182441236
| 30> C          -1.40125371058004     -0.00006366269893      0.05776120704274
| 31> N          -2.73211521344069     -0.00040267889955      0.07439012831924
| 32> H          -3.26281790606968     -0.86988933466929      0.08068697932374
| 33> H          -3.26324263121073      0.86881860998728      0.08143282938743
| 34> H          -1.22754000431610     -2.18185307095538      0.05799598423108
| 35> H           1.24009901564024     -2.16715763912366      0.03003003714593
| 36> H           1.23900198016691      2.16857067789729      0.03198987167601
| 37> H          -1.22875875062097      2.18177673953752      0.05992551278228
| 38> *
| 39>
| 40>                          ****END OF INPUT****

CARTESIAN COORDINATES (ANGSTROEM)
---------------------------------
  C     -0.679086    1.236077    0.050377
  C      0.690635    1.222395    0.034331
  C      1.419359    0.000897    0.023610
  C      2.902646    0.000232   -0.031545
  H      3.332759    0.909825    0.417044
  H      3.230405   -0.023888   -1.091748
  H      3.331883   -0.890334    0.455243
  C      0.691161   -1.221280    0.033225
  C     -0.678379   -1.235847    0.049272
  C     -1.401254   -0.000064    0.057761
  N     -2.732115   -0.000403    0.074390
  H     -3.262818   -0.869889    0.080687
  H     -3.263243    0.868819    0.081433
  H     -1.227540   -2.181853    0.057996
  H      1.240099   -2.167158    0.030030
  H      1.239002    2.168571    0.031990
  H     -1.228759    2.181777    0.059926

 Total Charge           Charge          ....    1
 Multiplicity           Mult            ....    2
 Number of Electrons    NEL             ....   57
 Basis Dimension        Dim             ....  575

ORBITAL ENERGIES
----------------
                 SPIN UP ORBITALS
  NO   OCC          E(Eh)            E(eV)
   0   1.0000     -14.473523      -393.8446
   1   1.0000     -10.331705      -281.1400
   2   1.0000     -10.292014      -280.0599
   3   1.0000     -10.272446      -279.5275
   4   1.0000     -10.272359      -279.5251
   5   1.0000     -10.261582      -279.2319
   6   1.0000     -10.261542      -279.2307
   7   1.0000     -10.232453      -278.4392
   8   1.0000      -1.021154       -27.7870
   9   1.0000      -0.912431       -24.8285
  10   1.0000      -0.818935       -22.2844
  11   1.0000      -0.810710       -22.0605
  12   1.0000      -0.725007       -19.7284
  13   1.0000      -0.672504       -18.2998
  14   1.0000      -0.644902       -17.5487
  15   1.0000      -0.585122       -15.9220
  16   1.0000      -0.579926       -15.7806
  17   1.0000      -0.510202       -13.8833
  18   1.0000      -0.492778       -13.4092
  19   1.0000      -0.470661       -12.8073
  20   1.0000      -0.468939       -12.7605
  21   1.0000      -0.465954       -12.6793
  22   1.0000      -0.443529       -12.0690
  23   1.0000      -0.408848       -11.1253
  24   1.0000      -0.401037       -10.9128
  25   1.0000      -0.375245       -10.2109
  26   1.0000      -0.368796       -10.0355
  27   1.0000      -0.309632        -8.4255
  28   1.0000      -0.262103        -7.1322
  29   0.0000      -0.041083        -1.1179
  30   0.0000      -0.039478        -1.0742
  31   0.0000      -0.001764        -0.0480
  32   0.0000       0.007970         0.2169
  33   0.0000       0.014805         0.4029

                 SPIN DOWN ORBITALS
  NO   OCC          E(Eh)            E(eV)
   0   1.0000     -14.465316      -393.6213
   1   1.0000     -10.330982      -281.1203
   2   1.0000     -10.285925      -279.8943
   3   1.0000     -10.269401      -279.4446
   4   1.0000     -10.269340      -279.4430
   5   1.0000     -10.263020      -279.2710
   6   1.0000     -10.262988      -279.2701
   7   1.0000     -10.232669      -278.4451
   8   1.0000      -1.006816       -27.3968
   9   1.0000      -0.903409       -24.5830
  10   1.0000      -0.807488       -21.9729
  11   1.0000      -0.806885       -21.9565
  12   1.0000      -0.720773       -19.6132
  13   1.0000      -0.668632       -18.1944
  14   1.0000      -0.638125       -17.3643
  15   1.0000      -0.582370       -15.8471
  16   1.0000      -0.575117       -15.6497
  17   1.0000      -0.505700       -13.7608
  18   1.0000      -0.489349       -13.3159
  19   1.0000      -0.466940       -12.7061
  20   1.0000      -0.465093       -12.6558
  21   1.0000      -0.446964       -12.1625
  22   1.0000      -0.421879       -11.4799
  23   1.0000      -0.407904       -11.0996
  24   1.0000      -0.398556       -10.8453
  25   1.0000      -0.373165       -10.1543
  26   1.0000      -0.337974        -9.1967
  27   1.0000      -0.301157        -8.1949
  28   0.0000      -0.164199        -4.4681
  29   0.0000      -0.027500        -0.7483
  30   0.0000      -0.012261        -0.3336
  31   0.0000      -0.000889        -0.0242
  32   0.0000       0.008935         0.2431

MULLIKEN ATOMIC CHARGES AND SPIN POPULATIONS
--------------------------------------------
   0 C :   -0.687607    0.168502
   1 C :   -0.770391   -0.097325
   2 C :    1.001544    0.400856
   3 C :   -0.655716   -0.034356
   4 H :    0.281136    0.003248
   5 H :    0.279604    0.033049
   6 H :    0.281823    0.004658
   7 C :   -0.782564   -0.095607
   8 C :   -0.690491    0.166841
   9 C :    0.888680    0.105183
  10 N :   -0.403875    0.343250
  11 H :    0.079795   -0.004772
  12 H :    0.079305   -0.004787
  13 H :    0.684733   -0.001681
  14 H :    0.363531    0.007427
  15 H :    0.362123    0.007165
  16 H :    0.688371   -0.001651
Sum of atomic charges         :    1.0000000

LOEWDIN ATOMIC CHARGES AND SPIN POPULATIONS
-------------------------------------------
   0 C :    0.280207    0.102450
   1 C :    0.257655    0.037475
   2 C :   -0.081499    0.178270
   3 C :    0.601435    0.060747
   4 H :   -0.149569    0.005033
   5 H :   -0.129111    0.018359
   6 H :   -0.148669    0.005625
   7 C :    0.257435    0.037228
   8 C :    0.280073    0.101627
   9 C :   -0.170523    0.129563
  10 N :    0.956439    0.239345
  11 H :   -0.198701    0.031472
  12 H :   -0.198710    0.031457
  13 H :   -0.135905    0.017497
  14 H :   -0.142142   -0.006904
  15 H :   -0.142567   -0.006912
  16 H :   -0.135849    0.017668

  Mayer bond orders larger than 0.100000
B(  0-C ,  1-C ) :   1.6629 B(  0-C ,  2-C ) :   0.1764 B(  0-C ,  7-C ) :  -0.1004
B(  0-C ,  8-C ) :   0.1922 B(  0-C ,  9-C ) :   0.8860 B(  0-C , 10-N ) :  -0.1531
B(  0-C , 16-H ) :   0.1326 B(  1-C ,  2-C ) :   0.6376 B(  1-C ,  7-C ) :  -0.1189
B(  1-C ,  9-C ) :  -0.2225 B(  1-C , 15-H ) :   0.7795 B(  2-C ,  3-C ) :   0.6200
B(  2-C ,  7-C ) :   0.6386 B(  2-C ,  8-C ) :   0.1764 B(  2-C ,  9-C ) :   0.1398
B(  3-C ,  4-H ) :   0.9009 B(  3-C ,  5-H ) :   0.9030 B(  3-C ,  6-H ) :   0.9004
B(  7-C ,  8-C ) :   1.6626 B(  7-C ,  9-C ) :  -0.2216 B(  7-C , 14-H ) :   0.7766
B(  8-C ,  9-C ) :   0.8880 B(  8-C , 10-N ) :  -0.1553 B(  8-C , 13-H ) :   0.1401
B(  9-C , 10-N ) :   0.9724 B(  9-C , 13-H ) :   0.1021 B(  9-C , 16-H ) :   0.1030
B( 10-N , 11-H ) :   1.1245 B( 10-N , 12-H ) :   1.1255

Dispersion correction           -0.014275679
FINAL SINGLE POINT ENERGY      -326.487056887524

DIPOLE MOMENT
-------------

Method             : SCF
Type of density    : Electron Density
Multiplicity       :   2
Irrep              :   0
Energy             :  -326.4727812084938137 Eh
Relativity type    :
Basis              : AO
                                X                 Y                 Z
Electronic contribution:     -5.113059608       0.002392963       0.156857721
Nuclear contribution   :      3.125767574      -0.005388112      -0.182011929
                        -----------------------------------------
Total Dipole Moment    :     -1.987292034      -0.002995149      -0.025154208
                        -----------------------------------------
Magnitude (a.u.)       :      1.987453480
Magnitude (Debye)      :      5.051705279

Rotational constants in cm-1:             0.174913             0.049835             0.039071
Rotational constants in MHz :          5243.747665          1494.011541          1171.305405

                             ****ORCA TERMINATED NORMALLY****
TOTAL RUN TIME: 0 days 0 hours 5 minutes 27 seconds 558 msec
