                         Program Version 6.0.0  -   RELEASE  -
|  1> !PBE0 def2-SV(p) Opt Freq d3 TightSCF SlowConv RIJCOSX defgrid2
|  2>
|  3> %pal
|  4> nprocs 15
|  5> end
|  6>
|  7> %scf
|  8> MaxIter 1500
|  9> end
| 10>
| 11> %maxcore 3500
| 12>
| 13>
| 14>
| 15> * xyz 1 1
| 16> O        1.892148000      3.698010000      1.453118000
| 17> N        2.679299000      2.707472000      1.243603000
| 18> C        3.790696000      2.928351000      0.306337000
| 19> C        4.407191000      1.603078000     -0.074600000
| 20> C        4.673841000      0.680853000      1.061864000
| 21> C        3.381122000      0.396215000      1.757075000
| 22> C        2.704898000      1.678223000      2.337211000
| 23> C        4.793300000      3.830082000      0.961074000
| 24> C        3.182734000      3.627420000     -0.941233000
| 25> C        3.472850000      2.208787000      3.551450000
| 26> C        1.288453000      1.395862000      2.733227000
| 27> H        4.976756000      1.817126000     -0.895203000
| 28> H        3.824828000      1.202309000     -0.926948000
| 29> H        5.591117000      1.200032000      1.672157000
| 30> H        3.662704000     -0.118409000      2.827668000
| 31> H        2.468112000     -0.323348000      1.756281000
| 32> H        4.230136000      4.611128000      1.320584000
| 33> H        6.000692000      3.631975000      1.130115000
| 34> H        5.514322000      4.219466000      0.035713000
| 35> H        2.576906000      4.387972000     -0.761082000
| 36> H        2.235594000      2.907857000     -1.086466000
| 37> H        4.112810000      3.727613000     -1.578510000
| 38> H        2.815824000      3.199326000      3.745886000
| 39> H        4.330396000      2.356799000      2.674499000
| 40> H        3.199800000      1.286562000      4.341101000
| 41> H        0.486370000      2.236112000      3.064167000
| 42> H        0.678358000      1.029249000      1.818183000
| 43> H        1.104998000      0.710455000      3.492722000
| 44> C        5.564401994     -0.572797794      0.979034042
| 45> O        6.774376871     -0.561275393      0.866495800
| 46> O        4.860853049     -1.732359105      1.044470244
| 47> H        5.521060607     -2.442231685      0.983065170
| 48> *
| 49>
| 50>                          ****END OF INPUT****
 Total Charge           Charge          ....    1
 Multiplicity           Mult            ....    1
 Number of Electrons    NEL             ....  108
Dispersion correction           -0.033204122
FINAL SINGLE POINT ENERGY      -670.420304313658
Dispersion correction             ... done (  0.1 sec)
Dispersion correction           -0.033026876
FINAL SINGLE POINT ENERGY      -670.513294882092
Dispersion correction             ... done (  0.1 sec)
Dispersion correction           -0.032958967
FINAL SINGLE POINT ENERGY      -670.583838714022
Dispersion correction             ... done (  0.1 sec)
FINAL SINGLE POINT ENERGY      -670.658238078672
FINAL SINGLE POINT ENERGY      -670.723054911424
FINAL SINGLE POINT ENERGY      -670.754594779293
FINAL SINGLE POINT ENERGY      -670.765137358856
FINAL SINGLE POINT ENERGY      -670.767699592438
FINAL SINGLE POINT ENERGY      -670.768972759941
FINAL SINGLE POINT ENERGY      -670.769315847503
FINAL SINGLE POINT ENERGY      -670.770974287440
FINAL SINGLE POINT ENERGY      -670.771375758101
FINAL SINGLE POINT ENERGY      -670.771772364054
FINAL SINGLE POINT ENERGY      -670.772116092408
FINAL SINGLE POINT ENERGY      -670.772253202181
FINAL SINGLE POINT ENERGY      -670.772317708590
FINAL SINGLE POINT ENERGY      -670.772339631311
Dispersion correction             ... done (  0.1 sec)
Dispersion correction           -0.033176938
FINAL SINGLE POINT ENERGY      -670.772345165652
Dispersion correction             ... done (  0.1 sec)
Dispersion correction           -0.033172170
FINAL SINGLE POINT ENERGY      -670.772348380018
Dispersion correction             ... done (  0.1 sec)
                    ***********************HURRAY********************

CARTESIAN COORDINATES (ANGSTROEM)
---------------------------------
  O      1.690281    3.372749    1.116340
  N      2.645088    2.691817    1.222975
  C      3.793644    2.912795    0.255762
  C      4.416905    1.557357   -0.094763
  C      4.677337    0.664524    1.103837
  C      3.370453    0.397313    1.839705
  C      2.667995    1.665870    2.341132
  C      4.786645    3.855078    0.963138
  C      3.224219    3.595220   -0.980097
  C      3.409310    2.319978    3.522263
  C      1.224222    1.380827    2.729974
  H      5.348841    1.759070   -0.646313
  H      3.757964    1.025986   -0.802960
  H      5.400424    1.132885    1.795776
  H      3.537759   -0.246080    2.718089
  H      2.680013   -0.148190    1.171469
  H      4.279860    4.753597    1.351111
  H      5.348844    3.372563    1.773980
  H      5.508972    4.177779    0.195500
  H      2.861924    4.612636   -0.768515
  H      2.403949    3.007728   -1.424574
  H      4.034377    3.664426   -1.723415
  H      2.996107    3.315490    3.751984
  H      4.493822    2.399803    3.369096
  H      3.237455    1.671638    4.397031
  H      0.734080    2.253253    3.187934
  H      0.627839    1.050089    1.863467
  H      1.234753    0.564056    3.469100
  C      5.331661   -0.631973    0.652123
  O      5.670094   -0.858794   -0.474329
  O      5.484108   -1.474849    1.672903
  H      5.918003   -2.286731    1.343335

 Multiplicity           Mult            ....    1
 Number of Electrons    NEL             ....  108
 Basis Dimension        Dim             ....  232

ORBITAL ENERGIES
----------------

  NO   OCC          E(Eh)            E(eV)
   0   2.0000     -19.505455      -530.7704
   1   2.0000     -19.384290      -527.4734
   2   2.0000     -19.328924      -525.9668
   3   2.0000     -14.787475      -402.3876
   4   2.0000     -10.495747      -285.6038
   5   2.0000     -10.481580      -285.2183
   6   2.0000     -10.479526      -285.1624
   7   2.0000     -10.407979      -283.2155
   8   2.0000     -10.405973      -283.1609
   9   2.0000     -10.400880      -283.0223
  10   2.0000     -10.399636      -282.9885
  11   2.0000     -10.398766      -282.9648
  12   2.0000     -10.385479      -282.6032
  13   2.0000     -10.383077      -282.5379
  14   2.0000      -1.453857       -39.5615
  15   2.0000      -1.261011       -34.3139
  16   2.0000      -1.167664       -31.7737
  17   2.0000      -1.101688       -29.9785
  18   2.0000      -1.035629       -28.1809
  19   2.0000      -0.982672       -26.7399
  20   2.0000      -0.925365       -25.1805
  21   2.0000      -0.886915       -24.1342
  22   2.0000      -0.875042       -23.8111
  23   2.0000      -0.873767       -23.7764
  24   2.0000      -0.834916       -22.7192
  25   2.0000      -0.826885       -22.5007
  26   2.0000      -0.765526       -20.8310
  27   2.0000      -0.751686       -20.4544
  28   2.0000      -0.734103       -19.9760
  29   2.0000      -0.697998       -18.9935
  30   2.0000      -0.693511       -18.8714
  31   2.0000      -0.668835       -18.1999
  32   2.0000      -0.639594       -17.4042
  33   2.0000      -0.636707       -17.3257
  34   2.0000      -0.618537       -16.8313
  35   2.0000      -0.615084       -16.7373
  36   2.0000      -0.606213       -16.4959
  37   2.0000      -0.602656       -16.3991
  38   2.0000      -0.590447       -16.0669
  39   2.0000      -0.588813       -16.0224
  40   2.0000      -0.576475       -15.6867
  41   2.0000      -0.563713       -15.3394
  42   2.0000      -0.555663       -15.1203
  43   2.0000      -0.554667       -15.0933
  44   2.0000      -0.547576       -14.9003
  45   2.0000      -0.543251       -14.7826
  46   2.0000      -0.536122       -14.5886
  47   2.0000      -0.527379       -14.3507
  48   2.0000      -0.522916       -14.2293
  49   2.0000      -0.514570       -14.0022
  50   2.0000      -0.505017       -13.7422
  51   2.0000      -0.493138       -13.4190
  52   2.0000      -0.465305       -12.6616
  53   2.0000      -0.421787       -11.4774
  54   0.0000      -0.313998        -8.5443
  55   0.0000      -0.118275        -3.2184
  56   0.0000      -0.088229        -2.4008
  57   0.0000      -0.080576        -2.1926
  58   0.0000      -0.067550        -1.8381

MULLIKEN ATOMIC CHARGES
-----------------------
   0 O :   -0.028282
   1 N :    0.111739
   2 C :   -0.281171
   3 C :   -0.110171
   4 C :   -0.310351
   5 C :   -0.135704
   6 C :   -0.273482
   7 C :   -0.275435
   8 C :   -0.253573
   9 C :   -0.277308
  10 C :   -0.255214
  11 H :    0.179943
  12 H :    0.158956
  13 H :    0.163174
  14 H :    0.184641
  15 H :    0.154875
  16 H :    0.174000
  17 H :    0.173603
  18 H :    0.194011
  19 H :    0.178109
  20 H :    0.167629
  21 H :    0.184254
  22 H :    0.174787
  23 H :    0.176510
  24 H :    0.193610
  25 H :    0.179545
  26 H :    0.168485
  27 H :    0.182313
  28 C :    0.292110
  29 O :   -0.196423
  30 O :   -0.362732
  31 H :    0.367554
Sum of atomic charges:    1.0000000

LOEWDIN ATOMIC CHARGES
----------------------
   0 O :    0.051404
   1 N :    0.304633
   2 C :   -0.048417
   3 C :   -0.201869
   4 C :   -0.179683
   5 C :   -0.201001
   6 C :   -0.049337
   7 C :   -0.311925
   8 C :   -0.326552
   9 C :   -0.312105
  10 C :   -0.326930
  11 H :    0.162868
  12 H :    0.148136
  13 H :    0.149926
  14 H :    0.160981
  15 H :    0.144887
  16 H :    0.147202
  17 H :    0.137347
  18 H :    0.166082
  19 H :    0.147764
  20 H :    0.144645
  21 H :    0.160204
  22 H :    0.147717
  23 H :    0.138167
  24 H :    0.165654
  25 H :    0.148732
  26 H :    0.144667
  27 H :    0.159079
  28 C :    0.074464
  29 O :   -0.149556
  30 O :   -0.226388
  31 H :    0.329203

  Mayer bond orders larger than 0.100000
B(  0-O ,  1-N ) :   1.8453 B(  1-N ,  2-C ) :   0.7486 B(  1-N ,  6-C ) :   0.7514
B(  2-C ,  3-C ) :   0.9928 B(  2-C ,  7-C ) :   1.0268 B(  2-C ,  8-C ) :   1.0976
B(  3-C ,  4-C ) :   1.0507 B(  3-C , 11-H ) :   0.8990 B(  3-C , 12-H ) :   0.9048
B(  4-C ,  5-C ) :   1.0456 B(  4-C , 13-H ) :   0.8711 B(  4-C , 28-C ) :   0.9421
B(  5-C ,  6-C ) :   1.0009 B(  5-C , 14-H ) :   0.8946 B(  5-C , 15-H ) :   0.9088
B(  6-C ,  9-C ) :   1.0311 B(  6-C , 10-C ) :   1.0949 B(  7-C , 16-H ) :   0.9275
B(  7-C , 17-H ) :   0.9227 B(  7-C , 18-H ) :   0.9215 B(  8-C , 19-H ) :   0.9240
B(  8-C , 20-H ) :   0.9266 B(  8-C , 21-H ) :   0.9217 B(  9-C , 22-H ) :   0.9271
B(  9-C , 23-H ) :   0.9213 B(  9-C , 24-H ) :   0.9216 B( 10-C , 25-H ) :   0.9236
B( 10-C , 26-H ) :   0.9267 B( 10-C , 27-H ) :   0.9225 B( 28-C , 29-O ) :   2.1214
B( 28-C , 30-O ) :   1.2598 B( 30-O , 31-H ) :   0.8059

Dispersion correction           -0.033172388
FINAL SINGLE POINT ENERGY      -670.772349198176

DIPOLE MOMENT
-------------

Method             : SCF
Type of density    : Electron Density
Multiplicity       :   1
Irrep              :   0
Energy             :  -670.7391768103552749 Eh
Relativity type    :
Basis              : AO
                                X                 Y                 Z
Electronic contribution:      2.259641547      -7.160854788      -3.322279051
Nuclear contribution   :     -2.863841370       8.211044193       4.273231293
                        -----------------------------------------
Total Dipole Moment    :     -0.604199823       1.050189404       0.950952242
                        -----------------------------------------
Magnitude (a.u.)       :      1.540216017
Magnitude (Debye)      :      3.914917990

VIBRATIONAL FREQUENCIES
-----------------------

Scaling factor for frequencies =  1.000000000  (already applied!)

     0:       0.00 cm**-1
     1:       0.00 cm**-1
     2:       0.00 cm**-1
     3:       0.00 cm**-1
     4:       0.00 cm**-1
     5:       0.00 cm**-1
     6:      33.10 cm**-1
     7:      58.90 cm**-1
     8:     104.64 cm**-1
     9:     113.79 cm**-1
    10:     152.59 cm**-1
    11:     190.27 cm**-1
    12:     210.60 cm**-1
    13:     261.87 cm**-1
    14:     266.71 cm**-1
    15:     275.79 cm**-1
    16:     285.74 cm**-1
    17:     292.91 cm**-1
    18:     294.41 cm**-1
    19:     332.66 cm**-1
    20:     344.48 cm**-1
    21:     356.32 cm**-1
    22:     379.74 cm**-1
    23:     410.19 cm**-1
    24:     420.15 cm**-1
    25:     466.70 cm**-1
    26:     496.57 cm**-1
    27:     532.15 cm**-1
    28:     588.46 cm**-1
    29:     630.05 cm**-1
    30:     640.55 cm**-1
    31:     688.74 cm**-1
    32:     750.02 cm**-1
    33:     763.87 cm**-1
    34:     825.00 cm**-1
    35:     848.39 cm**-1
    36:     880.77 cm**-1
    37:     918.88 cm**-1
    38:     931.89 cm**-1
    39:     956.19 cm**-1
    40:     959.37 cm**-1
    41:     968.30 cm**-1
    42:     973.28 cm**-1
    43:    1012.65 cm**-1
    44:    1029.78 cm**-1
    45:    1033.61 cm**-1
    46:    1063.75 cm**-1
    47:    1107.37 cm**-1
    48:    1144.22 cm**-1
    49:    1165.27 cm**-1
    50:    1185.82 cm**-1
    51:    1214.39 cm**-1
    52:    1230.79 cm**-1
    53:    1238.46 cm**-1
    54:    1251.86 cm**-1
    55:    1272.61 cm**-1
    56:    1292.05 cm**-1
    57:    1319.33 cm**-1
    58:    1322.98 cm**-1
    59:    1384.65 cm**-1
    60:    1390.45 cm**-1
    61:    1405.16 cm**-1
    62:    1407.30 cm**-1
    63:    1415.67 cm**-1
    64:    1418.15 cm**-1
    65:    1436.44 cm**-1
    66:    1447.86 cm**-1
    67:    1458.78 cm**-1
    68:    1461.08 cm**-1
    69:    1463.93 cm**-1
    70:    1469.55 cm**-1
    71:    1477.08 cm**-1
    72:    1482.10 cm**-1
    73:    1485.48 cm**-1
    74:    1487.24 cm**-1
    75:    1497.39 cm**-1
    76:    1822.15 cm**-1
    77:    1913.80 cm**-1
    78:    3059.38 cm**-1
    79:    3064.24 cm**-1
    80:    3064.65 cm**-1
    81:    3066.58 cm**-1
    82:    3068.90 cm**-1
    83:    3071.67 cm**-1
    84:    3079.69 cm**-1
    85:    3139.60 cm**-1
    86:    3141.40 cm**-1
    87:    3161.82 cm**-1
    88:    3163.05 cm**-1
    89:    3164.97 cm**-1
    90:    3165.35 cm**-1
    91:    3177.50 cm**-1
    92:    3177.87 cm**-1
    93:    3189.96 cm**-1
    94:    3202.81 cm**-1
    95:    3633.46 cm**-1

IR SPECTRUM
-----------

 Mode   freq       eps      Int      T**2         TX        TY        TZ
       cm**-1   L/(mol*cm) km/mol    a.u.
----------------------------------------------------------------------------
  6:     33.10   0.000300    1.52  0.002829  ( 0.044977  0.025401  0.012668)
  7:     58.90   0.000203    1.03  0.001078  ( 0.023689  0.010134  0.020349)
  8:    104.64   0.000004    0.02  0.000013  ( 0.000434 -0.002058 -0.002953)
  9:    113.79   0.000022    0.11  0.000059  ( 0.004517 -0.006202  0.000678)
 10:    152.59   0.000206    1.04  0.000421  (-0.000770  0.019752 -0.005475)
 11:    190.27   0.000008    0.04  0.000013  (-0.000053 -0.003612  0.000279)
 12:    210.60   0.000070    0.35  0.000104  (-0.007987  0.005215 -0.003587)
 13:    261.87   0.000086    0.44  0.000103  (-0.005552  0.008473  0.000526)
 14:    266.71   0.000035    0.18  0.000041  (-0.002458 -0.005800 -0.001306)
 15:    275.79   0.000658    3.33  0.000745  ( 0.004851 -0.026318 -0.005366)
 16:    285.74   0.000002    0.01  0.000002  (-0.000094 -0.001406 -0.000467)
 17:    292.91   0.000014    0.07  0.000015  ( 0.000832  0.002495  0.002858)
 18:    294.41   0.000163    0.82  0.000172  ( 0.004899  0.005451 -0.010891)
 19:    332.66   0.000354    1.79  0.000332  (-0.006106  0.011148  0.013061)
 20:    344.48   0.000135    0.68  0.000122  (-0.000564  0.010842 -0.002071)
 21:    356.32   0.000713    3.60  0.000624  (-0.006211  0.011088 -0.021507)
 22:    379.74   0.000173    0.87  0.000142  (-0.011383 -0.001829  0.003057)
 23:    410.19   0.000254    1.28  0.000193  (-0.013129 -0.004453 -0.000985)
 24:    420.15   0.000523    2.65  0.000389  ( 0.004372  0.008640 -0.017176)
 25:    466.70   0.001337    6.76  0.000894  (-0.007828 -0.019240  0.021514)
 26:    496.57   0.001183    5.98  0.000744  ( 0.010620 -0.018553  0.016932)
 27:    532.15   0.001681    8.49  0.000986  (-0.031082  0.003956 -0.001988)
 28:    588.46   0.000752    3.80  0.000399  (-0.016623  0.011047  0.000770)
 29:    630.05   0.010442   52.77  0.005172  ( 0.069053 -0.009467  0.017714)
 30:    640.55   0.007212   36.45  0.003514  (-0.019917 -0.055758  0.002854)
 31:    688.74   0.007965   40.25  0.003609  ( 0.023890  0.055016  0.003353)
 32:    750.02   0.007899   39.92  0.003287  ( 0.055508 -0.000301  0.014331)
 33:    763.87   0.004040   20.42  0.001651  ( 0.034923  0.006036  0.019860)
 34:    825.00   0.001155    5.84  0.000437  (-0.016684 -0.007514  0.010108)
 35:    848.39   0.000189    0.96  0.000070  ( 0.004526  0.006072  0.003494)
 36:    880.77   0.000904    4.57  0.000320  (-0.004721 -0.009844  0.014182)
 37:    918.88   0.000364    1.84  0.000123  (-0.000352  0.004926  0.009955)
 38:    931.89   0.004081   20.62  0.001367  (-0.016329 -0.018644  0.027431)
 39:    956.19   0.001325    6.70  0.000432  ( 0.006133  0.011786 -0.015996)
 40:    959.37   0.000530    2.68  0.000172  (-0.008435  0.009932 -0.001636)
 41:    968.30   0.000407    2.06  0.000131  ( 0.000358  0.009175 -0.006846)
 42:    973.28   0.000902    4.56  0.000289  ( 0.007164  0.014228  0.005960)
 43:   1012.65   0.002048   10.35  0.000631  ( 0.014365 -0.020546 -0.001589)
 44:   1029.78   0.000171    0.86  0.000052  (-0.000670 -0.005397  0.004708)
 45:   1033.61   0.000728    3.68  0.000220  ( 0.004672 -0.012788 -0.005860)
 46:   1063.75   0.000125    0.63  0.000037  (-0.004485 -0.001495  0.003780)
 47:   1107.37   0.002726   13.78  0.000768  ( 0.011331  0.014027 -0.021050)
 48:   1144.22   0.000418    2.11  0.000114  (-0.009041  0.004453  0.003529)
 49:   1165.27   0.000192    0.97  0.000052  (-0.003828  0.004021 -0.004553)
 50:   1185.82   0.026505  133.94  0.006975  ( 0.009429 -0.061100  0.056150)
 51:   1214.39   0.004124   20.84  0.001060  (-0.010539  0.021857 -0.021700)
 52:   1230.79   0.016094   81.33  0.004081  (-0.020490  0.053432 -0.028385)
 53:   1238.46   0.002007   10.14  0.000506  ( 0.012062 -0.017918  0.006260)
 54:   1251.86   0.001784    9.02  0.000445  (-0.002134 -0.014876  0.014796)
 55:   1272.61   0.000652    3.29  0.000160  (-0.000281  0.005658  0.011302)
 56:   1292.05   0.001587    8.02  0.000383  (-0.014499  0.012796 -0.003073)
 57:   1319.33   0.001059    5.35  0.000250  (-0.002559  0.014411 -0.006012)
 58:   1322.98   0.001126    5.69  0.000266  (-0.009108  0.003235  0.013124)
 59:   1384.65   0.000475    2.40  0.000107  (-0.006314  0.004173  0.007051)
 60:   1390.45   0.009503   48.02  0.002133  (-0.005985  0.045426  0.005782)
 61:   1405.16   0.009228   46.63  0.002049  ( 0.025666 -0.025957  0.026774)
 62:   1407.30   0.001676    8.47  0.000372  (-0.011890 -0.015059  0.001892)
 63:   1415.67   0.001280    6.47  0.000282  (-0.012179  0.001715  0.011443)
 64:   1418.15   0.000330    1.67  0.000073  ( 0.006113  0.002829 -0.005219)
 65:   1436.44   0.014469   73.12  0.003143  (-0.029746  0.046227 -0.011024)
 66:   1447.86   0.000754    3.81  0.000163  ( 0.009225 -0.004734 -0.007418)
 67:   1458.78   0.000738    3.73  0.000158  (-0.005678 -0.006308  0.009260)
 68:   1461.08   0.000933    4.71  0.000199  ( 0.012265 -0.002902 -0.006358)
 69:   1463.93   0.001499    7.58  0.000320  ( 0.007148 -0.001598  0.016306)
 70:   1469.55   0.004109   20.76  0.000872  (-0.023102  0.017734 -0.004928)
 71:   1477.08   0.000112    0.56  0.000024  (-0.004011 -0.002739 -0.000148)
 72:   1482.10   0.004415   22.31  0.000929  ( 0.010088  0.023115  0.017130)
 73:   1485.48   0.006871   34.72  0.001443  (-0.016875 -0.018755  0.028407)
 74:   1487.24   0.005684   28.72  0.001193  ( 0.007217 -0.032504 -0.009167)
 75:   1497.39   0.004436   22.42  0.000924  (-0.018973  0.023639  0.002384)
 76:   1822.15   0.014192   71.72  0.002431  ( 0.042795 -0.023714  0.006070)
 77:   1913.80   0.057542  290.79  0.009383  (-0.026419  0.007684  0.092875)
 78:   3059.38   0.000179    0.90  0.000018  (-0.002479 -0.003467  0.000228)
 79:   3064.24   0.000007    0.04  0.000001  (-0.000320  0.000683  0.000422)
 80:   3064.65   0.000035    0.18  0.000004  (-0.000875 -0.001375 -0.000968)
 81:   3066.58   0.000238    1.20  0.000024  (-0.003118 -0.002051  0.003211)
 82:   3068.90   0.000193    0.97  0.000020  ( 0.003869  0.000272  0.002139)
 83:   3071.67   0.000325    1.64  0.000033  (-0.004671 -0.001791 -0.002827)
 84:   3079.69   0.000995    5.03  0.000101  ( 0.008081  0.000615  0.005929)
 85:   3139.60   0.000190    0.96  0.000019  (-0.001146  0.003945  0.001421)
 86:   3141.40   0.000299    1.51  0.000030  ( 0.001439 -0.004841 -0.002055)
 87:   3161.82   0.000439    2.22  0.000043  (-0.003841 -0.004147  0.003374)
 88:   3163.05   0.000688    3.48  0.000068  ( 0.003996  0.003785  0.006131)
 89:   3164.97   0.000052    0.26  0.000005  ( 0.000983  0.001833 -0.000905)
 90:   3165.35   0.000113    0.57  0.000011  (-0.000363 -0.001943 -0.002698)
 91:   3177.50   0.000206    1.04  0.000020  ( 0.002020  0.003066 -0.002590)
 92:   3177.87   0.000096    0.48  0.000009  (-0.000486  0.000407  0.002997)
 93:   3189.96   0.000123    0.62  0.000012  ( 0.000876  0.001776 -0.002845)
 94:   3202.81   0.001275    6.45  0.000124  ( 0.010155 -0.001873  0.004200)
 95:   3633.46   0.031747  160.43  0.002727  (-0.022910  0.046880  0.002009)

--------------------------
THERMOCHEMISTRY AT 298.15K
--------------------------

Temperature         ...   298.15 K
Pressure            ...     1.00 atm
Total Mass          ...   200.26 AMU
Quasi RRHO          ...     True
Cut-Off Frequency   ...     1.00 cm^-1

Throughout the following assumptions are being made:
  (1) The electronic state is orbitally nondegenerate
  (2) There are no thermally accessible electronically excited states
  (3) Hindered rotations indicated by low frequency modes are not
      treated as such but are treated as vibrations and this may
      cause some error
  (4) All equations used are the standard statistical mechanics
      equations for an ideal gas
  (5) All vibrations are strictly harmonic

freq.      33.10  E(vib)   ...       0.55
freq.      58.90  E(vib)   ...       0.51
freq.     104.64  E(vib)   ...       0.46
freq.     113.79  E(vib)   ...       0.44
freq.     152.59  E(vib)   ...       0.40
freq.     190.27  E(vib)   ...       0.36
freq.     210.60  E(vib)   ...       0.34
freq.     261.87  E(vib)   ...       0.29
freq.     266.71  E(vib)   ...       0.29
freq.     275.79  E(vib)   ...       0.28
freq.     285.74  E(vib)   ...       0.28
freq.     292.91  E(vib)   ...       0.27
freq.     294.41  E(vib)   ...       0.27
freq.     332.66  E(vib)   ...       0.24
freq.     344.48  E(vib)   ...       0.23
freq.     356.32  E(vib)   ...       0.22
freq.     379.74  E(vib)   ...       0.21
freq.     410.19  E(vib)   ...       0.19
freq.     420.15  E(vib)   ...       0.18
freq.     466.70  E(vib)   ...       0.16
freq.     496.57  E(vib)   ...       0.14
freq.     532.15  E(vib)   ...       0.13
freq.     588.46  E(vib)   ...       0.10
freq.     630.05  E(vib)   ...       0.09
freq.     640.55  E(vib)   ...       0.09
freq.     688.74  E(vib)   ...       0.07
freq.     750.02  E(vib)   ...       0.06
freq.     763.87  E(vib)   ...       0.06
freq.     825.00  E(vib)   ...       0.04
freq.     848.39  E(vib)   ...       0.04
freq.     880.77  E(vib)   ...       0.04
freq.     918.88  E(vib)   ...       0.03
freq.     931.89  E(vib)   ...       0.03
freq.     956.19  E(vib)   ...       0.03
freq.     959.37  E(vib)   ...       0.03
freq.     968.30  E(vib)   ...       0.03
freq.     973.28  E(vib)   ...       0.03
freq.    1012.65  E(vib)   ...       0.02
freq.    1029.78  E(vib)   ...       0.02
freq.    1033.61  E(vib)   ...       0.02
freq.    1063.75  E(vib)   ...       0.02
freq.    1107.37  E(vib)   ...       0.02
freq.    1144.22  E(vib)   ...       0.01
freq.    1165.27  E(vib)   ...       0.01
freq.    1185.82  E(vib)   ...       0.01
freq.    1214.39  E(vib)   ...       0.01
freq.    1230.79  E(vib)   ...       0.01
freq.    1238.46  E(vib)   ...       0.01
freq.    1251.86  E(vib)   ...       0.01
freq.    1272.61  E(vib)   ...       0.01
freq.    1292.05  E(vib)   ...       0.01
freq.    1319.33  E(vib)   ...       0.01
freq.    1322.98  E(vib)   ...       0.01
freq.    1384.65  E(vib)   ...       0.00
freq.    1390.45  E(vib)   ...       0.00
freq.    1405.16  E(vib)   ...       0.00
freq.    1407.30  E(vib)   ...       0.00
freq.    1415.67  E(vib)   ...       0.00
freq.    1418.15  E(vib)   ...       0.00
freq.    1436.44  E(vib)   ...       0.00
freq.    1447.86  E(vib)   ...       0.00
freq.    1458.78  E(vib)   ...       0.00
freq.    1461.08  E(vib)   ...       0.00
freq.    1463.93  E(vib)   ...       0.00
freq.    1469.55  E(vib)   ...       0.00
freq.    1477.08  E(vib)   ...       0.00
freq.    1482.10  E(vib)   ...       0.00
freq.    1485.48  E(vib)   ...       0.00
freq.    1487.24  E(vib)   ...       0.00
freq.    1497.39  E(vib)   ...       0.00
freq.    1822.15  E(vib)   ...       0.00
freq.    1913.80  E(vib)   ...       0.00
freq.    3059.38  E(vib)   ...       0.00
freq.    3064.24  E(vib)   ...       0.00
freq.    3064.65  E(vib)   ...       0.00
freq.    3066.58  E(vib)   ...       0.00
freq.    3068.90  E(vib)   ...       0.00
freq.    3071.67  E(vib)   ...       0.00
freq.    3079.69  E(vib)   ...       0.00
freq.    3139.60  E(vib)   ...       0.00
freq.    3141.40  E(vib)   ...       0.00
freq.    3161.82  E(vib)   ...       0.00
freq.    3163.05  E(vib)   ...       0.00
freq.    3164.97  E(vib)   ...       0.00
freq.    3165.35  E(vib)   ...       0.00
freq.    3177.50  E(vib)   ...       0.00
freq.    3177.87  E(vib)   ...       0.00
freq.    3189.96  E(vib)   ...       0.00
freq.    3202.81  E(vib)   ...       0.00
freq.    3633.46  E(vib)   ...       0.00

------------
INNER ENERGY
------------

The inner energy is: U= E(el) + E(ZPE) + E(vib) + E(rot) + E(trans)
    E(el)   - is the total energy from the electronic structure calculation
              = E(kin-el) + E(nuc-el) + E(el-el) + E(nuc-nuc)
    E(ZPE)  - the the zero temperature vibrational energy from the frequency calculation
    E(vib)  - the the finite temperature correction to E(ZPE) due to population
              of excited vibrational states
    E(rot)  - is the rotational thermal energy
    E(trans)- is the translational thermal energy

Summary of contributions to the inner energy U:
Electronic energy                ...   -670.77234920 Eh
Zero point energy                ...      0.27931735 Eh     175.27 kcal/mol
Thermal vibrational correction   ...      0.01189553 Eh       7.46 kcal/mol
Thermal rotational correction    ...      0.00141627 Eh       0.89 kcal/mol
Thermal translational correction ...      0.00141627 Eh       0.89 kcal/mol
-----------------------------------------------------------------------
Total thermal energy                   -670.47830377 Eh

Summary of corrections to the electronic energy:
(perhaps to be used in another calculation)
Total thermal correction                  0.01472807 Eh       9.24 kcal/mol
Non-thermal (ZPE) correction              0.27931735 Eh     175.27 kcal/mol
-----------------------------------------------------------------------
Total correction                          0.29404543 Eh     184.52 kcal/mol

--------
ENTHALPY
--------

The enthalpy is H = U + kB*T
                kB is Boltzmann's constant
Total thermal energy              ...   -670.47830377 Eh
Thermal Enthalpy correction       ...      0.00094421 Eh       0.59 kcal/mol
-----------------------------------------------------------------------
Total Enthalpy                    ...   -670.47735956 Eh

Note: Only C1 symmetry has been detected, increase convergence thresholds
      if your molecule has a higher symmetry. Symmetry factor of 1.0 is
      used for the rotational entropy correction.

Note: Rotational entropy computed according to Herzberg
Infrared and Raman Spectra, Chapter V,1, Van Nostrand Reinhold, 1945
Point Group:  C1, Symmetry Number:   1
Rotational constants in cm-1:     0.032285     0.018393     0.014243

                             ****ORCA TERMINATED NORMALLY****
TOTAL RUN TIME: 0 days 0 hours 47 minutes 17 seconds 311 msec
