                         Program Version 6.0.0  -   RELEASE  -
|  1> !B3LYP aug-cc-pVTZ d3 TightSCF SlowConv RIJCOSX defgrid2
|  2>
|  3> %pal
|  4> nprocs 4
|  5> end
|  6>
|  7> %scf
|  8> MaxIter 1500
|  9> end
| 10>
| 11> %maxcore 3000
| 12>
| 13> !CPCM
| 14> %cpcm smd true
| 15> SMDsolvent "MeCN"
| 16> surfacetype gepol_ses
| 17> rsolv 2.19
| 18> end
| 19>
| 20> * xyz 1 2
| 21> C          -0.22428548195010     -1.24213438922305     -0.03849982740281
| 22> C           1.14800811610277     -1.22870080724969      0.00227297677880
| 23> C           1.84566180598227     -0.00004019353139      0.02297012210753
| 24> C           1.14805042698559      1.22864411313713      0.00227054482980
| 25> C          -0.22424154749405      1.24212983950181     -0.03850931873892
| 26> C          -0.94084900168795      0.00001024661649     -0.05989305493678
| 27> N          -2.26985305582395      0.00003075135377     -0.09979281491323
| 28> H          -2.80165535396914      0.86997483968693     -0.11591197867223
| 29> H          -2.80167508667297     -0.86990117124685     -0.11590823438470
| 30> H          -0.77890173993705      2.18488554366972     -0.05504522287995
| 31> H           1.70373713208460      2.16980587419055      0.01885237386387
| 32> H           2.93889913121278     -0.00005967561260      0.05550059305168
| 33> H           1.70365895934134     -2.16988118368011      0.01885253182221
| 34> H          -0.77898600417414     -2.18486378761269     -0.05503389052528
| 35> *
| 36>
| 37>                          ****END OF INPUT****

CARTESIAN COORDINATES (ANGSTROEM)
---------------------------------
  C     -0.224285   -1.242134   -0.038500
  C      1.148008   -1.228701    0.002273
  C      1.845662   -0.000040    0.022970
  C      1.148050    1.228644    0.002271
  C     -0.224242    1.242130   -0.038509
  C     -0.940849    0.000010   -0.059893
  N     -2.269853    0.000031   -0.099793
  H     -2.801655    0.869975   -0.115912
  H     -2.801675   -0.869901   -0.115908
  H     -0.778902    2.184886   -0.055045
  H      1.703737    2.169806    0.018852
  H      2.938899   -0.000060    0.055501
  H      1.703659   -2.169881    0.018853
  H     -0.778986   -2.184864   -0.055034

 Total Charge           Charge          ....    1
 Multiplicity           Mult            ....    2
 Number of Electrons    NEL             ....   49
 Basis Dimension        Dim             ....  483

ORBITAL ENERGIES
----------------
                 SPIN UP ORBITALS
  NO   OCC          E(Eh)            E(eV)
   0   1.0000     -14.409924      -392.1140
   1   1.0000     -10.281276      -279.7677
   2   1.0000     -10.226470      -278.2764
   3   1.0000     -10.221249      -278.1343
   4   1.0000     -10.221245      -278.1342
   5   1.0000     -10.209602      -277.8174
   6   1.0000     -10.209601      -277.8174
   7   1.0000      -0.997601       -27.1461
   8   1.0000      -0.881717       -23.9927
   9   1.0000      -0.788270       -21.4499
  10   1.0000      -0.768187       -20.9034
  11   1.0000      -0.652721       -17.7614
  12   1.0000      -0.650301       -17.6956
  13   1.0000      -0.570566       -15.5259
  14   1.0000      -0.562644       -15.3103
  15   1.0000      -0.519041       -14.1238
  16   1.0000      -0.470953       -12.8153
  17   1.0000      -0.461161       -12.5488
  18   1.0000      -0.454328       -12.3629
  19   1.0000      -0.451792       -12.2939
  20   1.0000      -0.394407       -10.7324
  21   1.0000      -0.374340       -10.1863
  22   1.0000      -0.373530       -10.1643
  23   1.0000      -0.298834        -8.1317
  24   1.0000      -0.261550        -7.1171
  25   0.0000      -0.045053        -1.2260
  26   0.0000      -0.044385        -1.2078
  27   0.0000      -0.008515        -0.2317
  28   0.0000       0.004152         0.1130
  29   0.0000       0.009758         0.2655

                 SPIN DOWN ORBITALS
  NO   OCC          E(Eh)            E(eV)
   0   1.0000     -14.401598      -391.8874
   1   1.0000     -10.280701      -279.7521
   2   1.0000     -10.220962      -278.1265
   3   1.0000     -10.218115      -278.0491
   4   1.0000     -10.218115      -278.0490
   5   1.0000     -10.211040      -277.8565
   6   1.0000     -10.211035      -277.8564
   7   1.0000      -0.983381       -26.7591
   8   1.0000      -0.873652       -23.7733
   9   1.0000      -0.784736       -21.3537
  10   1.0000      -0.754788       -20.5388
  11   1.0000      -0.649262       -17.6673
  12   1.0000      -0.643852       -17.5201
  13   1.0000      -0.567907       -15.4535
  14   1.0000      -0.557544       -15.1715
  15   1.0000      -0.514647       -14.0043
  16   1.0000      -0.467335       -12.7168
  17   1.0000      -0.458663       -12.4809
  18   1.0000      -0.453534       -12.3413
  19   1.0000      -0.423675       -11.5288
  20   1.0000      -0.392118       -10.6701
  21   1.0000      -0.371613       -10.1121
  22   1.0000      -0.341924        -9.3042
  23   1.0000      -0.289824        -7.8865
  24   0.0000      -0.175430        -4.7737
  25   0.0000      -0.033554        -0.9130
  26   0.0000      -0.020699        -0.5633
  27   0.0000      -0.007885        -0.2146
  28   0.0000       0.004727         0.1286

MULLIKEN ATOMIC CHARGES AND SPIN POPULATIONS
--------------------------------------------
   0 C :   -0.648271    0.196419
   1 C :   -0.339875   -0.102615
   2 C :   -0.352237    0.365077
   3 C :   -0.340977   -0.102607
   4 C :   -0.647335    0.196415
   5 C :    1.134590    0.093693
   6 N :   -0.351143    0.367078
   7 H :    0.075135   -0.006331
   8 H :    0.075300   -0.006328
   9 H :    0.561467   -0.005121
  10 H :    0.390998    0.002578
  11 H :    0.490925    0.004286
  12 H :    0.390181    0.002571
  13 H :    0.561241   -0.005115
Sum of atomic charges         :    1.0000000

LOEWDIN ATOMIC CHARGES AND SPIN POPULATIONS
-------------------------------------------
   0 C :    0.277651    0.109648
   1 C :    0.241653    0.042314
   2 C :    0.262470    0.180300
   3 C :    0.241650    0.042314
   4 C :    0.277651    0.109648
   5 C :   -0.162525    0.131116
   6 N :    0.958563    0.252216
   7 H :   -0.193274    0.032779
   8 H :   -0.193275    0.032779
   9 H :   -0.136256    0.019192
  10 H :   -0.148067   -0.006812
  11 H :   -0.141913    0.042128
  12 H :   -0.148069   -0.006812
  13 H :   -0.136259    0.019192

  Mayer bond orders larger than 0.100000
B(  0-C ,  1-C ) :   1.4565 B(  0-C ,  2-C ) :   0.2262 B(  0-C ,  4-C ) :   0.2954
B(  0-C ,  5-C ) :   0.6472 B(  0-C ,  6-N ) :  -0.1255 B(  0-C , 13-H ) :   0.3390
B(  1-C ,  2-C ) :   1.0323 B(  1-C ,  3-C ) :  -0.1059 B(  1-C ,  5-C ) :  -0.2150
B(  1-C , 12-H ) :   0.7839 B(  2-C ,  3-C ) :   1.0320 B(  2-C ,  4-C ) :   0.2263
B(  2-C , 11-H ) :   0.5901 B(  3-C ,  4-C ) :   1.4547 B(  3-C ,  5-C ) :  -0.2153
B(  3-C , 10-H ) :   0.7833 B(  4-C ,  5-C ) :   0.6450 B(  4-C ,  6-N ) :  -0.1254
B(  4-C ,  9-H ) :   0.3393 B(  5-C ,  6-N ) :   1.0219 B(  6-N ,  7-H ) :   1.1068
B(  6-N ,  8-H ) :   1.1064

Dispersion correction           -0.022790345
FINAL SINGLE POINT ENERGY      -287.379053267467

DIPOLE MOMENT
-------------

Method             : SCF
Type of density    : Electron Density
Multiplicity       :   2
Irrep              :   0
Energy             :  -287.3562629226622107 Eh
Relativity type    :
Basis              : AO
                                X                 Y                 Z
Electronic contribution:     -0.884556642       0.000021249      -0.026523867
Nuclear contribution   :     -0.808315718       0.000012771      -0.024795382
                        -----------------------------------------
Total Dipole Moment    :     -1.692872360       0.000034020      -0.051319249
                        -----------------------------------------
Magnitude (a.u.)       :      1.693650051
Magnitude (Debye)      :      4.304916312

Rotational constants in cm-1:             0.179396             0.089500             0.059711
Rotational constants in MHz :          5378.149152          2683.142053          1790.077786

                             ****ORCA TERMINATED NORMALLY****
TOTAL RUN TIME: 0 days 0 hours 2 minutes 32 seconds 995 msec
