                         Program Version 6.0.0  -   RELEASE  -
|  1> !TPSSh aug-cc-pVTZ d3 TightSCF SlowConv RIJCOSX defgrid2
|  2>
|  3> %pal
|  4> nprocs 10
|  5> end
|  6>
|  7> %scf
|  8> MaxIter 1500
|  9> end
| 10>
| 11> %maxcore 3500
| 12>
| 13> !CPCM
| 14> %cpcm smd true
| 15> SMDsolvent "WATER"
| 16> surfacetype gepol_ses
| 17> rsolv 1.40
| 18> end
| 19>
| 20> * xyz 0 2
| 21>   C          -0.11609874427787     -0.00549833146305     -1.09166051828012
| 22>   C          -0.06011683134759     -0.95278509536638     -0.14629559883637
| 23>   C          -0.12471069310473     -0.40669924924484      1.24362311758038
| 24>   N          -0.22754435037957      1.03434271135506      0.95079797263953
| 25>   C          -0.23150406587531      1.38042585937059     -0.48840792759055
| 26>   H           0.02559760749994     -2.01735042488152     -0.37607502307243
| 27>   O          -0.30719725434603      1.90352542466580      1.84763502630721
| 28>   C          -0.06026175824533     -0.38808249649150     -2.53546561747586
| 29>   O           0.04263596012876     -1.54903384399020     -2.88061155377649
| 30>   C          -1.54909261101230      2.09648655652139     -0.80036124124277
| 31>   H          -1.58247082249827      2.48576443460033     -1.83190594119848
| 32>   H          -2.40467570485958      1.41531605976659     -0.65984133217838
| 33>   H          -1.65709970518172      2.94563669192758     -0.10515427072988
| 34>   C           0.97137748294183      2.28793540378461     -0.76183532174647
| 35>   H           0.92403797538752      3.14845181915781     -0.07373708321239
| 36>   H           1.91466513722241      1.74585954892844     -0.58293263501816
| 37>   H           0.98323354337203      2.66940679234643     -1.79662980647134
| 38>   C           1.14603484773707     -0.67849930031598      2.05108178091850
| 39>   H           1.22944818447998     -1.74985812098869      2.29970024784929
| 40>   H           2.04188216597692     -0.37745827941083      1.48284498269252
| 41>   H           1.11122089200302     -0.09513329178683      2.98649209630369
| 42>   C          -1.36731121460930     -0.86517254295167      2.00958246948541
| 43>   H          -2.27834603550156     -0.69741684096779      1.41130352571173
| 44>   H          -1.30032457043791     -1.93784209757345      2.25766668368952
| 45>   H          -1.44837094192206     -0.28492100112544      2.94388101584222
| 46>   N          -0.12913367845321      0.62854904476097     -3.43820730517209
| 47>   H          -0.22721159511714      1.59778561337663     -3.17267086489660
| 48>   H          -0.09811273057999      0.38459799799591     -4.42137771112161
| 49> *
| 50>
| 51>                          ****END OF INPUT****

CARTESIAN COORDINATES (ANGSTROEM)
---------------------------------
  C     -0.116099   -0.005498   -1.091661
  C     -0.060117   -0.952785   -0.146296
  C     -0.124711   -0.406699    1.243623
  N     -0.227544    1.034343    0.950798
  C     -0.231504    1.380426   -0.488408
  H      0.025598   -2.017350   -0.376075
  O     -0.307197    1.903525    1.847635
  C     -0.060262   -0.388082   -2.535466
  O      0.042636   -1.549034   -2.880612
  C     -1.549093    2.096487   -0.800361
  H     -1.582471    2.485764   -1.831906
  H     -2.404676    1.415316   -0.659841
  H     -1.657100    2.945637   -0.105154
  C      0.971377    2.287935   -0.761835
  H      0.924038    3.148452   -0.073737
  H      1.914665    1.745860   -0.582933
  H      0.983234    2.669407   -1.796630
  C      1.146035   -0.678499    2.051082
  H      1.229448   -1.749858    2.299700
  H      2.041882   -0.377458    1.482845
  H      1.111221   -0.095133    2.986492
  C     -1.367311   -0.865173    2.009582
  H     -2.278346   -0.697417    1.411304
  H     -1.300325   -1.937842    2.257667
  H     -1.448371   -0.284921    2.943881
  N     -0.129134    0.628549   -3.438207
  H     -0.227212    1.597786   -3.172671
  H     -0.098113    0.384598   -4.421378

 Total Charge           Charge          ....    0
 Multiplicity           Mult            ....    2
 Number of Electrons    NEL             ....   99
 Basis Dimension        Dim             ....  943

ORBITAL ENERGIES
----------------
                 SPIN UP ORBITALS
  NO   OCC          E(Eh)            E(eV)
   0   1.0000     -19.068362      -518.8765
   1   1.0000     -19.032710      -517.9064
   2   1.0000     -14.348537      -390.4435
   3   1.0000     -14.274858      -388.4386
   4   1.0000     -10.227531      -278.3053
   5   1.0000     -10.175341      -276.8851
   6   1.0000     -10.170326      -276.7486
   7   1.0000     -10.134116      -275.7633
   8   1.0000     -10.132763      -275.7265
   9   1.0000     -10.111941      -275.1599
  10   1.0000     -10.111751      -275.1547
  11   1.0000     -10.109938      -275.1054
  12   1.0000     -10.109931      -275.1052
  13   1.0000      -1.098925       -29.9033
  14   1.0000      -1.032079       -28.0843
  15   1.0000      -0.893118       -24.3030
  16   1.0000      -0.882776       -24.0216
  17   1.0000      -0.799241       -21.7485
  18   1.0000      -0.743212       -20.2238
  19   1.0000      -0.707832       -19.2611
  20   1.0000      -0.680210       -18.5094
  21   1.0000      -0.671711       -18.2782
  22   1.0000      -0.633406       -17.2359
  23   1.0000      -0.590358       -16.0644
  24   1.0000      -0.555677       -15.1207
  25   1.0000      -0.542162       -14.7530
  26   1.0000      -0.515749       -14.0342
  27   1.0000      -0.477443       -12.9919
  28   1.0000      -0.475341       -12.9347
  29   1.0000      -0.463032       -12.5997
  30   1.0000      -0.439009       -11.9460
  31   1.0000      -0.428874       -11.6703
  32   1.0000      -0.419756       -11.4221
  33   1.0000      -0.417314       -11.3557
  34   1.0000      -0.411824       -11.2063
  35   1.0000      -0.397093       -10.8055
  36   1.0000      -0.390977       -10.6390
  37   1.0000      -0.386104       -10.5064
  38   1.0000      -0.372756       -10.1432
  39   1.0000      -0.362911        -9.8753
  40   1.0000      -0.361594        -9.8395
  41   1.0000      -0.338362        -9.2073
  42   1.0000      -0.337219        -9.1762
  43   1.0000      -0.334386        -9.0991
  44   1.0000      -0.327425        -8.9097
  45   1.0000      -0.268262        -7.2998
  46   1.0000      -0.265746        -7.2313
  47   1.0000      -0.257523        -7.0075
  48   1.0000      -0.254540        -6.9264
  49   1.0000      -0.183736        -4.9997
  50   0.0000      -0.059679        -1.6240
  51   0.0000      -0.005674        -0.1544
  52   0.0000       0.006379         0.1736
  53   0.0000       0.010467         0.2848
  54   0.0000       0.013582         0.3696

                 SPIN DOWN ORBITALS
  NO   OCC          E(Eh)            E(eV)
   0   1.0000     -19.055652      -518.5306
   1   1.0000     -19.032719      -517.9066
   2   1.0000     -14.335176      -390.0800
   3   1.0000     -14.274856      -388.4386
   4   1.0000     -10.227553      -278.3059
   5   1.0000     -10.175954      -276.9018
   6   1.0000     -10.170939      -276.7653
   7   1.0000     -10.134123      -275.7635
   8   1.0000     -10.132761      -275.7264
   9   1.0000     -10.111379      -275.1446
  10   1.0000     -10.111190      -275.1395
  11   1.0000     -10.109342      -275.0892
  12   1.0000     -10.109334      -275.0890
  13   1.0000      -1.077308       -29.3151
  14   1.0000      -1.032085       -28.0845
  15   1.0000      -0.891345       -24.2547
  16   1.0000      -0.875779       -23.8312
  17   1.0000      -0.798206       -21.7203
  18   1.0000      -0.738619       -20.0988
  19   1.0000      -0.697059       -18.9679
  20   1.0000      -0.677592       -18.4382
  21   1.0000      -0.670365       -18.2416
  22   1.0000      -0.632166       -17.2021
  23   1.0000      -0.588542       -16.0150
  24   1.0000      -0.554831       -15.0977
  25   1.0000      -0.534281       -14.5385
  26   1.0000      -0.515218       -14.0198
  27   1.0000      -0.473389       -12.8816
  28   1.0000      -0.458611       -12.4794
  29   1.0000      -0.448146       -12.1947
  30   1.0000      -0.436331       -11.8732
  31   1.0000      -0.428420       -11.6579
  32   1.0000      -0.415846       -11.3158
  33   1.0000      -0.415091       -11.2952
  34   1.0000      -0.411607       -11.2004
  35   1.0000      -0.395397       -10.7593
  36   1.0000      -0.383071       -10.4239
  37   1.0000      -0.381336       -10.3767
  38   1.0000      -0.372316       -10.1312
  39   1.0000      -0.360297        -9.8042
  40   1.0000      -0.350017        -9.5244
  41   1.0000      -0.336524        -9.1573
  42   1.0000      -0.333429        -9.0731
  43   1.0000      -0.326695        -8.8898
  44   1.0000      -0.317264        -8.6332
  45   1.0000      -0.268206        -7.2982
  46   1.0000      -0.264450        -7.1961
  47   1.0000      -0.254964        -6.9379
  48   1.0000      -0.248543        -6.7632
  49   0.0000      -0.075250        -2.0476
  50   0.0000      -0.058716        -1.5977
  51   0.0000      -0.005255        -0.1430
  52   0.0000       0.006863         0.1867
  53   0.0000       0.011257         0.3063

MULLIKEN ATOMIC CHARGES AND SPIN POPULATIONS
--------------------------------------------
   0 C :    0.865816    0.005347
   1 C :   -0.551794    0.007624
   2 C :    0.617812   -0.090442
   3 N :    1.105877    0.510194
   4 C :    1.012992   -0.055061
   5 H :    0.138229   -0.002739
   6 O :   -1.292408    0.475337
   7 C :    0.691293    0.000306
   8 O :   -1.150505   -0.000245
   9 C :   -0.491361    0.024860
  10 H :    0.051696    0.005974
  11 H :    0.096752   -0.001050
  12 H :    0.022117    0.005584
  13 C :   -0.495915    0.024862
  14 H :    0.017237    0.005383
  15 H :    0.091372   -0.001330
  16 H :    0.058313    0.005773
  17 C :   -0.570770    0.033821
  18 H :    0.028974    0.004690
  19 H :    0.103990   -0.001301
  20 H :    0.052247    0.002927
  21 C :   -0.570770    0.034135
  22 H :    0.103775   -0.001502
  23 H :    0.027654    0.004742
  24 H :    0.057578    0.003017
  25 N :   -0.163564   -0.000470
  26 H :    0.086996   -0.000522
  27 H :    0.056368    0.000087
Sum of atomic charges         :    0.0000000

LOEWDIN ATOMIC CHARGES AND SPIN POPULATIONS
-------------------------------------------
   0 C :   -0.078588    0.002165
   1 C :    0.259603    0.002616
   2 C :   -0.461306    0.043624
   3 N :   -0.163249    0.399746
   4 C :   -0.444328    0.042430
   5 H :   -0.135383   -0.000333
   6 O :    0.376252    0.428147
   7 C :   -0.699026   -0.000371
   8 O :    0.421610   -0.000315
   9 C :    0.601859    0.014168
  10 H :   -0.154323    0.003735
  11 H :   -0.138671    0.001746
  12 H :   -0.158388    0.000648
  13 C :    0.601239    0.014115
  14 H :   -0.157844    0.000649
  15 H :   -0.139055    0.001739
  16 H :   -0.154261    0.003716
  17 C :    0.599549    0.014511
  18 H :   -0.140583    0.003657
  19 H :   -0.144835    0.001738
  20 H :   -0.156500    0.000884
  21 C :    0.599708    0.014593
  22 H :   -0.144886    0.001745
  23 H :   -0.140476    0.003687
  24 H :   -0.156748    0.000891
  25 N :    0.884647    0.000082
  26 H :   -0.325241   -0.000026
  27 H :   -0.250776    0.000010

  Mayer bond orders larger than 0.100000
B(  0-C ,  1-C ) :   0.8489 B(  0-C ,  2-C ) :   0.1173 B(  0-C ,  3-N ) :  -0.1785
B(  0-C ,  4-C ) :   0.7073 B(  0-C ,  5-H ) :  -0.1121 B(  0-C ,  7-C ) :  -0.2003
B(  0-C ,  8-O ) :   0.9054 B(  0-C , 25-N ) :  -0.2294 B(  1-C ,  2-C ) :   1.1228
B(  1-C ,  3-N ) :  -0.3301 B(  1-C ,  4-C ) :  -0.1882 B(  1-C ,  5-H ) :   1.0560
B(  1-C ,  7-C ) :   0.4846 B(  1-C ,  8-O ) :  -0.1134 B(  2-C ,  3-N ) :   1.1384
B(  2-C ,  4-C ) :  -0.3110 B(  2-C ,  6-O ) :  -0.2341 B(  2-C ,  7-C ) :  -0.1315
B(  2-C , 17-C ) :   0.8334 B(  2-C , 21-C ) :   0.8365 B(  3-N ,  4-C ) :   1.2500
B(  4-C ,  5-H ) :   0.1228 B(  4-C ,  7-C ) :   0.3947 B(  4-C ,  9-C ) :   0.8574
B(  4-C , 13-C ) :   0.8481 B(  4-C , 25-N ) :  -0.1415 B(  5-H ,  8-O ) :   0.1308
B(  6-O ,  9-C ) :   0.1086 B(  6-O , 13-C ) :   0.1072 B(  7-C ,  8-O ) :  -0.1304
B(  7-C , 25-N ) :   1.1363 B(  9-C , 10-H ) :   0.9985 B(  9-C , 11-H ) :   0.9478
B(  9-C , 12-H ) :   1.0596 B( 13-C , 14-H ) :   1.0635 B( 13-C , 15-H ) :   0.9531
B( 13-C , 16-H ) :   0.9960 B( 17-C , 18-H ) :   1.0509 B( 17-C , 19-H ) :   0.9451
B( 17-C , 20-H ) :   1.0575 B( 17-C , 21-C ) :   0.1484 B( 21-C , 22-H ) :   0.9484
B( 21-C , 23-H ) :   1.0521 B( 21-C , 24-H ) :   1.0509 B( 25-N , 26-H ) :   1.0052
B( 25-N , 27-H ) :   0.9918

Dispersion correction           -0.038046755
FINAL SINGLE POINT ENERGY      -612.189879004175

DIPOLE MOMENT
-------------

Method             : SCF
Type of density    : Electron Density
Multiplicity       :   2
Irrep              :   0
Energy             :  -612.1518322488296917 Eh
Relativity type    :
Basis              : AO
                                X                 Y                 Z
Electronic contribution:      0.314555369      -2.709385763      -5.523526259
Nuclear contribution   :     -0.388237367       3.445340699       4.719558355
                        -----------------------------------------
Total Dipole Moment    :     -0.073681999       0.735954936      -0.803967903
                        -----------------------------------------
Magnitude (a.u.)       :      1.092439058
Magnitude (Debye)      :      2.776759412

Rotational constants in cm-1:             0.040199             0.022321             0.017613
Rotational constants in MHz :          1205.148589           669.171544           528.030747

                             ****ORCA TERMINATED NORMALLY****
TOTAL RUN TIME: 0 days 0 hours 11 minutes 7 seconds 359 msec
