                         Program Version 6.0.0  -   RELEASE  -
|  1> !TPSSh aug-cc-pVTZ d3 TightSCF SlowConv RIJCOSX defgrid2
|  2>
|  3> %pal
|  4> nprocs 4
|  5> end
|  6>
|  7> %scf
|  8> MaxIter 1500
|  9> end
| 10>
| 11> %maxcore 3000
| 12>
| 13> !CPCM
| 14> %cpcm smd true
| 15> SMDsolvent "MeCN"
| 16> surfacetype gepol_ses
| 17> rsolv 2.19
| 18> end
| 19>
| 20> * xyz 1 2
| 21> C          -0.08274669059718     -1.04399274826201      0.00954198550444
| 22> C          -1.44314186979999     -1.21224349192059      0.01464115375041
| 23> C          -2.32257727617337     -0.09487222329371      0.01274887003500
| 24> C          -1.76475290459407      1.20761482302953      0.00780256836072
| 25> C          -0.40273191503338      1.38761253420536      0.00299374201136
| 26> C           0.48723075022230      0.26923379961588      0.00339892002300
| 27> C           1.88361104255076      0.51997141228763     -0.00136731410568
| 28> C           2.88609272782847     -0.43252038403740     -0.00211440107444
| 29> C           4.32371272330116     -0.12403052833475     -0.00716059814151
| 30> H           4.81199450703941     -0.59263895023193      0.87108589562038
| 31> H           4.80704713115468     -0.59771697456439     -0.88539713829447
| 32> H           4.53724499406217      0.95562079688104     -0.01081444259812
| 33> H           2.61316130337916     -1.49525746809077      0.00127055185440
| 34> H           2.19060539304120      1.57295312497944     -0.00515248687208
| 35> H           0.01742107746022      2.39740330737597      0.00010725500974
| 36> H          -2.43168783850088      2.07400339025986      0.00974847718212
| 37> C          -3.79206162044774     -0.30228879497229     -0.00564898818348
| 38> H          -4.34940861071486      0.62196968873633      0.20771494941170
| 39> H          -4.10189712650768     -0.66414858988669     -1.00697947362935
| 40> H          -4.09284114272650     -1.08666315679518      0.71118909458011
| 41> H          -1.86630567510074     -2.22073732773736      0.02172898720586
| 42> H           0.56388072015687     -1.92419663924397      0.01175289234987
| 43> *
| 44>
| 45>                          ****END OF INPUT****

CARTESIAN COORDINATES (ANGSTROEM)
---------------------------------
  C     -0.082747   -1.043993    0.009542
  C     -1.443142   -1.212243    0.014641
  C     -2.322577   -0.094872    0.012749
  C     -1.764753    1.207615    0.007803
  C     -0.402732    1.387613    0.002994
  C      0.487231    0.269234    0.003399
  C      1.883611    0.519971   -0.001367
  C      2.886093   -0.432520   -0.002114
  C      4.323713   -0.124031   -0.007161
  H      4.811995   -0.592639    0.871086
  H      4.807047   -0.597717   -0.885397
  H      4.537245    0.955621   -0.010814
  H      2.613161   -1.495257    0.001271
  H      2.190605    1.572953   -0.005152
  H      0.017421    2.397403    0.000107
  H     -2.431688    2.074003    0.009748
  C     -3.792062   -0.302289   -0.005649
  H     -4.349409    0.621970    0.207715
  H     -4.101897   -0.664149   -1.006979
  H     -4.092841   -1.086663    0.711189
  H     -1.866306   -2.220737    0.021729
  H      0.563881   -1.924197    0.011753

 Total Charge           Charge          ....    1
 Multiplicity           Mult            ....    2
 Number of Electrons    NEL             ....   71
 Basis Dimension        Dim             ....  736

ORBITAL ENERGIES
----------------
                 SPIN UP ORBITALS
  NO   OCC          E(Eh)            E(eV)
   0   1.0000     -10.183999      -277.1207
   1   1.0000     -10.178434      -276.9693
   2   1.0000     -10.177156      -276.9345
   3   1.0000     -10.167136      -276.6618
   4   1.0000     -10.157037      -276.3870
   5   1.0000     -10.156630      -276.3760
   6   1.0000     -10.145769      -276.0804
   7   1.0000     -10.145696      -276.0784
   8   1.0000     -10.129158      -275.6284
   9   1.0000     -10.124347      -275.4975
  10   1.0000      -0.880343       -23.9554
  11   1.0000      -0.829441       -22.5702
  12   1.0000      -0.782759       -21.2999
  13   1.0000      -0.761870       -20.7315
  14   1.0000      -0.719950       -19.5908
  15   1.0000      -0.665893       -18.1199
  16   1.0000      -0.624586       -16.9959
  17   1.0000      -0.600312       -16.3353
  18   1.0000      -0.564496       -15.3607
  19   1.0000      -0.518671       -14.1138
  20   1.0000      -0.483791       -13.1646
  21   1.0000      -0.467131       -12.7113
  22   1.0000      -0.441117       -12.0034
  23   1.0000      -0.430593       -11.7170
  24   1.0000      -0.427944       -11.6449
  25   1.0000      -0.425408       -11.5759
  26   1.0000      -0.419677       -11.4200
  27   1.0000      -0.389150       -10.5893
  28   1.0000      -0.385547       -10.4913
  29   1.0000      -0.381404       -10.3785
  30   1.0000      -0.367026        -9.9873
  31   1.0000      -0.358863        -9.7652
  32   1.0000      -0.341893        -9.3034
  33   1.0000      -0.317054        -8.6275
  34   1.0000      -0.281449        -7.6586
  35   1.0000      -0.248154        -6.7526
  36   0.0000      -0.101949        -2.7742
  37   0.0000      -0.052496        -1.4285
  38   0.0000      -0.010650        -0.2898
  39   0.0000      -0.006050        -0.1646
  40   0.0000       0.001947         0.0530

                 SPIN DOWN ORBITALS
  NO   OCC          E(Eh)            E(eV)
   0   1.0000     -10.177795      -276.9519
   1   1.0000     -10.174862      -276.8721
   2   1.0000     -10.174320      -276.8573
   3   1.0000     -10.166304      -276.6392
   4   1.0000     -10.155619      -276.3484
   5   1.0000     -10.155218      -276.3375
   6   1.0000     -10.146299      -276.0948
   7   1.0000     -10.146105      -276.0896
   8   1.0000     -10.129413      -275.6353
   9   1.0000     -10.124478      -275.5010
  10   1.0000      -0.874660       -23.8007
  11   1.0000      -0.820481       -22.3264
  12   1.0000      -0.774253       -21.0685
  13   1.0000      -0.760324       -20.6895
  14   1.0000      -0.718533       -19.5523
  15   1.0000      -0.660585       -17.9754
  16   1.0000      -0.621627       -16.9153
  17   1.0000      -0.595187       -16.1959
  18   1.0000      -0.560062       -15.2401
  19   1.0000      -0.516451       -14.0534
  20   1.0000      -0.481712       -13.1080
  21   1.0000      -0.464751       -12.6465
  22   1.0000      -0.438593       -11.9347
  23   1.0000      -0.429992       -11.7007
  24   1.0000      -0.423359       -11.5202
  25   1.0000      -0.416512       -11.3339
  26   1.0000      -0.407370       -11.0851
  27   1.0000      -0.386538       -10.5182
  28   1.0000      -0.380481       -10.3534
  29   1.0000      -0.373566       -10.1652
  30   1.0000      -0.365982        -9.9589
  31   1.0000      -0.357594        -9.7306
  32   1.0000      -0.340271        -9.2592
  33   1.0000      -0.297138        -8.0855
  34   1.0000      -0.276691        -7.5291
  35   0.0000      -0.196109        -5.3364
  36   0.0000      -0.074541        -2.0284
  37   0.0000      -0.043785        -1.1915
  38   0.0000      -0.005485        -0.1492
  39   0.0000       0.002574         0.0701

MULLIKEN ATOMIC CHARGES AND SPIN POPULATIONS
--------------------------------------------
   0 C :   -0.501031    0.065813
   1 C :   -0.804207   -0.039031
   2 C :    0.840782    0.302863
   3 C :   -0.608794   -0.034859
   4 C :   -0.605458    0.060585
   5 C :    1.634883    0.168907
   6 C :    0.151568    0.076280
   7 C :   -0.255848    0.417027
   8 C :   -0.333901   -0.063873
   9 H :    0.152073    0.030945
  10 H :    0.150262    0.030845
  11 H :    0.142905   -0.005514
  12 H :    0.194676   -0.015130
  13 H :    0.078278    0.001015
  14 H :    0.141449    0.003937
  15 H :    0.197936   -0.005077
  16 C :   -0.210759   -0.036976
  17 H :    0.129009   -0.001919
  18 H :    0.170120    0.025783
  19 H :    0.145281    0.012707
  20 H :    0.194533   -0.000562
  21 H :   -0.003757    0.006234
Sum of atomic charges         :    1.0000000

LOEWDIN ATOMIC CHARGES AND SPIN POPULATIONS
-------------------------------------------
   0 C :    0.269459    0.061781
   1 C :    0.271942    0.033040
   2 C :   -0.072546    0.130318
   3 C :    0.274568    0.039355
   4 C :    0.267555    0.065277
   5 C :   -0.080486    0.111953
   6 C :    0.290999    0.116010
   7 C :    0.306656    0.216955
   8 C :    0.611809    0.068113
   9 H :   -0.138336    0.015944
  10 H :   -0.138339    0.015947
  11 H :   -0.154022    0.001382
  12 H :   -0.148750    0.035552
  13 H :   -0.150654    0.008091
  14 H :   -0.142956    0.008779
  15 H :   -0.147245   -0.001109
  16 C :    0.611608    0.044260
  17 H :   -0.153924    0.001899
  18 H :   -0.131238    0.013454
  19 H :   -0.142644    0.007745
  20 H :   -0.142585   -0.002249
  21 H :   -0.160870    0.007504

  Mayer bond orders larger than 0.100000
B(  0-C ,  1-C ) :   1.5100 B(  0-C ,  2-C ) :   0.1455 B(  0-C ,  4-C ) :  -0.3818
B(  0-C ,  5-C ) :   0.4808 B(  0-C , 21-H ) :   1.2135 B(  1-C ,  2-C ) :   0.8528
B(  1-C ,  5-C ) :  -0.1012 B(  1-C , 20-H ) :   0.8372 B(  2-C ,  3-C ) :   0.8347
B(  2-C ,  5-C ) :  -0.1551 B(  2-C ,  6-C ) :   0.1450 B(  2-C , 15-H ) :   0.1014
B(  2-C , 16-C ) :   0.7732 B(  3-C ,  4-C ) :   1.7798 B(  3-C ,  5-C ) :  -0.1669
B(  3-C , 15-H ) :   0.8476 B(  3-C , 16-C ) :  -0.1428 B(  4-C ,  5-C ) :   0.2500
B(  4-C , 14-H ) :   1.0165 B(  5-C ,  6-C ) :   0.5601 B(  5-C ,  7-C ) :  -0.1811
B(  5-C , 12-H ) :  -0.1221 B(  6-C ,  7-C ) :   0.9394 B(  6-C , 12-H ) :   0.1080
B(  6-C , 13-H ) :   1.0115 B(  7-C ,  8-C ) :   1.1754 B(  7-C , 11-H ) :   0.1188
B(  7-C , 12-H ) :   1.0245 B(  8-C ,  9-H ) :   0.9266 B(  8-C , 10-H ) :   0.9253
B(  8-C , 11-H ) :   0.9275 B( 16-C , 17-H ) :   0.9460 B( 16-C , 18-H ) :   0.9460
B( 16-C , 19-H ) :   0.9553

Dispersion correction           -0.025536560
FINAL SINGLE POINT ENERGY      -388.282232261371

DIPOLE MOMENT
-------------

Method             : SCF
Type of density    : Electron Density
Multiplicity       :   2
Irrep              :   0
Energy             :  -388.2566957018508447 Eh
Relativity type    :
Basis              : AO
                                X                 Y                 Z
Electronic contribution:     -1.595933716       0.808748454       0.057794897
Nuclear contribution   :      2.533197376      -0.996205714      -0.098486582
                        -----------------------------------------
Total Dipole Moment    :      0.937263660      -0.187457260      -0.040691685
                        -----------------------------------------
Magnitude (a.u.)       :      0.956691803
Magnitude (Debye)      :      2.431717312

Rotational constants in cm-1:             0.153944             0.020635             0.018320
Rotational constants in MHz :          4615.121792           618.608795           549.210532

                             ****ORCA TERMINATED NORMALLY****
TOTAL RUN TIME: 0 days 0 hours 10 minutes 58 seconds 862 msec
