                         Program Version 6.0.0  -   RELEASE  -
|  1> !PBE0 freq def2-SV(p) d3 TightSCF SlowConv RIJCOSX defgrid2
|  2>
|  3> %pal
|  4> nprocs 12
|  5> end
|  6>
|  7> %scf
|  8> MaxIter 1500
|  9> end
| 10>
| 11> %maxcore 5000
| 12>
| 13> !CPCM
| 14> %cpcm smd true
| 15> SMDsolvent "MeCN"
| 16> surfacetype gepol_ses
| 17> rsolv 2.19
| 18> end
| 19>
| 20> * xyz 0 1
| 21> C           0.69277091304089     -1.21996188500112     -0.00239150202794
| 22> C          -0.69479958177935     -1.22216816179253     -0.00151824709753
| 23> C          -1.35841188938533      0.00281384424836     -0.00034515605819
| 24> C          -0.68022118044650      1.21723004712011      0.00026915650133
| 25> C           0.71069531760091      1.20221124089897     -0.00057483701577
| 26> C           1.40618483782808     -0.01365662626569     -0.00196998994594
| 27> C           2.90789967215350     -0.08272477208951     -0.00279212501687
| 28> O           3.46071232895778     -1.16307205877204     -0.00256623066793
| 29> C           3.68208579167981      1.20351284292946     -0.00349513411197
| 30> H           3.43762086546760      1.80914797566131      0.88689539634925
| 31> H           4.75877001925416      0.97735222951353     -0.00570596956664
| 32> H           3.43427387001526      1.81089863385808     -0.89168166482399
| 33> H           1.24672178376856      2.15356784306333      0.00000401754384
| 34> H          -1.23703763839592      2.15501906811350      0.00201448305598
| 35> N          -2.82445700212803      0.01257955936525      0.00150986003596
| 36> O          -3.38221509280324      1.08876723358627      0.00266285913938
| 37> O          -3.39542827035796     -1.05669402829273      0.00233892411264
| 38> H          -1.26414223180366     -2.15257120282496     -0.00124715997189
| 39> H           1.24991938733345     -2.15963828331960     -0.00344138043376
| 40> *
| 41>
| 42>                          ****END OF INPUT****

CARTESIAN COORDINATES (ANGSTROEM)
---------------------------------
  C      0.692771   -1.219962   -0.002392
  C     -0.694800   -1.222168   -0.001518
  C     -1.358412    0.002814   -0.000345
  C     -0.680221    1.217230    0.000269
  C      0.710695    1.202211   -0.000575
  C      1.406185   -0.013657   -0.001970
  C      2.907900   -0.082725   -0.002792
  O      3.460712   -1.163072   -0.002566
  C      3.682086    1.203513   -0.003495
  H      3.437621    1.809148    0.886895
  H      4.758770    0.977352   -0.005706
  H      3.434274    1.810899   -0.891682
  H      1.246722    2.153568    0.000004
  H     -1.237038    2.155019    0.002014
  N     -2.824457    0.012580    0.001510
  O     -3.382215    1.088767    0.002663
  O     -3.395428   -1.056694    0.002339
  H     -1.264142   -2.152571   -0.001247
  H      1.249919   -2.159638   -0.003441

 Total Charge           Charge          ....    0
 Multiplicity           Mult            ....    1
 Number of Electrons    NEL             ....   86
 Basis Dimension        Dim             ....  182

ORBITAL ENERGIES
----------------

  NO   OCC          E(Eh)            E(eV)
   0   2.0000     -19.247046      -523.7387
   1   2.0000     -19.246984      -523.7371
   2   2.0000     -19.207887      -522.6732
   3   2.0000     -14.634747      -398.2317
   4   2.0000     -10.330400      -281.1045
   5   2.0000     -10.302249      -280.3385
   6   2.0000     -10.264921      -279.3227
   7   2.0000     -10.263345      -279.2798
   8   2.0000     -10.262629      -279.2603
   9   2.0000     -10.260708      -279.2081
  10   2.0000     -10.257019      -279.1077
  11   2.0000     -10.224308      -278.2176
  12   2.0000      -1.273143       -34.6440
  13   2.0000      -1.092259       -29.7219
  14   2.0000      -1.069168       -29.0936
  15   2.0000      -0.915486       -24.9116
  16   2.0000      -0.838092       -22.8056
  17   2.0000      -0.790735       -21.5170
  18   2.0000      -0.765903       -20.8413
  19   2.0000      -0.721948       -19.6452
  20   2.0000      -0.646605       -17.5950
  21   2.0000      -0.623533       -16.9672
  22   2.0000      -0.586839       -15.9687
  23   2.0000      -0.572732       -15.5848
  24   2.0000      -0.571720       -15.5573
  25   2.0000      -0.540593       -14.7103
  26   2.0000      -0.507769       -13.8171
  27   2.0000      -0.497680       -13.5426
  28   2.0000      -0.474610       -12.9148
  29   2.0000      -0.462528       -12.5860
  30   2.0000      -0.458908       -12.4875
  31   2.0000      -0.444266       -12.0891
  32   2.0000      -0.432150       -11.7594
  33   2.0000      -0.408953       -11.1282
  34   2.0000      -0.394252       -10.7281
  35   2.0000      -0.377456       -10.2711
  36   2.0000      -0.376948       -10.2573
  37   2.0000      -0.337047        -9.1715
  38   2.0000      -0.335089        -9.1182
  39   2.0000      -0.318433        -8.6650
  40   2.0000      -0.296744        -8.0748
  41   2.0000      -0.291452        -7.9308
  42   2.0000      -0.275471        -7.4960
  43   0.0000      -0.099171        -2.6986
  44   0.0000      -0.036933        -1.0050
  45   0.0000      -0.025112        -0.6833
  46   0.0000       0.044231         1.2036
  47   0.0000       0.079892         2.1740

MULLIKEN ATOMIC CHARGES
-----------------------
   0 C :   -0.141552
   1 C :   -0.130384
   2 C :    0.221310
   3 C :   -0.130507
   4 C :   -0.145185
   5 C :    0.036126
   6 C :    0.098915
   7 O :   -0.241221
   8 C :   -0.350074
   9 H :    0.181366
  10 H :    0.152555
  11 H :    0.181317
  12 H :    0.147402
  13 H :    0.140780
  14 N :    0.233035
  15 O :   -0.264071
  16 O :   -0.264412
  17 H :    0.141254
  18 H :    0.133344
Sum of atomic charges:   -0.0000000

LOEWDIN ATOMIC CHARGES
----------------------
   0 C :   -0.085750
   1 C :   -0.105007
   2 C :   -0.029319
   3 C :   -0.103321
   4 C :   -0.095104
   5 C :   -0.065578
   6 C :    0.083269
   7 O :   -0.172504
   8 C :   -0.369774
   9 H :    0.160138
  10 H :    0.143486
  11 H :    0.160047
  12 H :    0.157443
  13 H :    0.161303
  14 N :    0.280121
  15 O :   -0.216342
  16 O :   -0.216060
  17 H :    0.160708
  18 H :    0.152244

  Mayer bond orders larger than 0.100000
B(  0-C ,  1-C ) :   1.3562 B(  0-C ,  5-C ) :   1.3561 B(  0-C , 18-H ) :   0.9567
B(  1-C ,  2-C ) :   1.3518 B(  1-C , 17-H ) :   0.9544 B(  2-C ,  3-C ) :   1.3666
B(  2-C , 14-N ) :   0.8455 B(  3-C ,  4-C ) :   1.3618 B(  3-C , 13-H ) :   0.9517
B(  4-C ,  5-C ) :   1.3588 B(  4-C , 12-H ) :   0.9460 B(  5-C ,  6-C ) :   0.9178
B(  6-C ,  7-O ) :   2.1184 B(  6-C ,  8-C ) :   1.1283 B(  8-C ,  9-H ) :   0.9099
B(  8-C , 10-H ) :   0.9317 B(  8-C , 11-H ) :   0.9100 B( 14-N , 15-O ) :   1.5540
B( 14-N , 16-O ) :   1.5523 B( 15-O , 16-O ) :   0.2661

Dispersion correction           -0.018332769
FINAL SINGLE POINT ENERGY      -588.327119292156

DIPOLE MOMENT
-------------

Method             : SCF
Type of density    : Electron Density
Multiplicity       :   1
Irrep              :   0
Energy             :  -588.3087865233840148 Eh
Relativity type    :
Basis              : AO
                                X                 Y                 Z
Electronic contribution:     -9.536238408      -3.079302459       0.005958981
Nuclear contribution   :     10.876519556       4.302294031      -0.008012644
                        -----------------------------------------
Total Dipole Moment    :      1.340281148       1.222991572      -0.002053664
                        -----------------------------------------
Magnitude (a.u.)       :      1.814405181
Magnitude (Debye)      :      4.611851459

VIBRATIONAL FREQUENCIES
-----------------------

Scaling factor for frequencies =  1.000000000  (already applied!)

     0:       0.00 cm**-1
     1:       0.00 cm**-1
     2:       0.00 cm**-1
     3:       0.00 cm**-1
     4:       0.00 cm**-1
     5:       0.00 cm**-1
     6:       9.21 cm**-1
     7:      50.26 cm**-1
     8:      76.03 cm**-1
     9:     160.29 cm**-1
    10:     162.58 cm**-1
    11:     240.18 cm**-1
    12:     279.11 cm**-1
    13:     299.59 cm**-1
    14:     420.42 cm**-1
    15:     441.15 cm**-1
    16:     457.11 cm**-1
    17:     523.98 cm**-1
    18:     556.25 cm**-1
    19:     598.95 cm**-1
    20:     635.08 cm**-1
    21:     637.01 cm**-1
    22:     726.82 cm**-1
    23:     777.03 cm**-1
    24:     786.19 cm**-1
    25:     853.26 cm**-1
    26:     885.64 cm**-1
    27:     903.36 cm**-1
    28:     978.54 cm**-1
    29:    1006.80 cm**-1
    30:    1021.51 cm**-1
    31:    1023.61 cm**-1
    32:    1048.59 cm**-1
    33:    1102.37 cm**-1
    34:    1111.32 cm**-1
    35:    1139.75 cm**-1
    36:    1187.46 cm**-1
    37:    1293.60 cm**-1
    38:    1302.15 cm**-1
    39:    1375.05 cm**-1
    40:    1424.41 cm**-1
    41:    1426.86 cm**-1
    42:    1433.34 cm**-1
    43:    1455.25 cm**-1
    44:    1475.01 cm**-1
    45:    1535.46 cm**-1
    46:    1671.99 cm**-1
    47:    1688.88 cm**-1
    48:    1742.10 cm**-1
    49:    1825.65 cm**-1
    50:    3046.62 cm**-1
    51:    3136.49 cm**-1
    52:    3175.99 cm**-1
    53:    3233.78 cm**-1
    54:    3236.16 cm**-1
    55:    3254.50 cm**-1
    56:    3256.34 cm**-1

IR SPECTRUM
-----------

 Mode   freq       eps      Int      T**2         TX        TY        TZ
       cm**-1   L/(mol*cm) km/mol    a.u.
----------------------------------------------------------------------------
  6:      9.21   0.000335    1.70  0.011366  (-0.000115  0.000677  0.106607)
  7:     50.26   0.000325    1.64  0.002021  ( 0.000619  0.000322 -0.044947)
  8:     76.03   0.001258    6.36  0.005164  ( 0.000287  0.000043  0.071859)
  9:    160.29   0.000153    0.77  0.000298  ( 0.003457  0.002750  0.016701)
 10:    162.58   0.001586    8.01  0.003043  (-0.039969 -0.038005  0.001231)
 11:    240.18   0.000220    1.11  0.000286  ( 0.000324 -0.000081  0.016917)
 12:    279.11   0.001051    5.31  0.001175  ( 0.029054 -0.018200 -0.000177)
 13:    299.59   0.000024    0.12  0.000025  ( 0.001507  0.004790  0.000043)
 14:    420.42   0.000011    0.05  0.000008  (-0.000253  0.000718 -0.002714)
 15:    441.15   0.000716    3.62  0.000506  ( 0.014740  0.017003 -0.000078)
 16:    457.11   0.000405    2.05  0.000276  ( 0.000367 -0.000288 -0.016621)
 17:    523.98   0.004786   24.19  0.002850  ( 0.052897  0.007234 -0.000179)
 18:    556.25   0.000680    3.44  0.000382  ( 0.016405  0.010603 -0.000068)
 19:    598.95   0.002818   14.24  0.001468  (-0.000247  0.000066  0.038319)
 20:    635.08   0.002930   14.81  0.001440  (-0.035150 -0.014284  0.000128)
 21:    637.01   0.001132    5.72  0.000554  ( 0.019625  0.013006 -0.000027)
 22:    726.82   0.007560   38.20  0.003246  (-0.000213 -0.000171 -0.056971)
 23:    777.03   0.005453   27.56  0.002190  ( 0.046735  0.002374  0.000353)
 24:    786.19   0.007356   37.17  0.002920  ( 0.000425 -0.000016 -0.054034)
 25:    853.26   0.000268    1.36  0.000098  (-0.000077 -0.000470 -0.009892)
 26:    885.64   0.007608   38.45  0.002681  ( 0.000175 -0.000122 -0.051777)
 27:    903.36   0.014737   74.47  0.005091  ( 0.071346  0.000782 -0.000126)
 28:    978.54   0.005684   28.73  0.001813  (-0.037282 -0.020564  0.000016)
 29:   1006.80   0.000093    0.47  0.000029  (-0.000350  0.000335 -0.005357)
 30:   1021.51   0.000174    0.88  0.000053  ( 0.000292  0.000977  0.007219)
 31:   1023.61   0.002696   13.63  0.000822  ( 0.028162  0.005369 -0.000243)
 32:   1048.59   0.001005    5.08  0.000299  ( 0.000033 -0.000043  0.017297)
 33:   1102.37   0.001001    5.06  0.000283  (-0.008439  0.014564  0.000025)
 34:   1111.32   0.005387   27.22  0.001513  (-0.006192 -0.038398 -0.000035)
 35:   1139.75   0.008359   42.24  0.002289  (-0.047651 -0.004243  0.000000)
 36:   1187.46   0.012676   64.06  0.003331  ( 0.057547  0.004439 -0.000087)
 37:   1293.60   0.050080  253.08  0.012081  ( 0.109817  0.004601 -0.000038)
 38:   1302.15   0.000317    1.60  0.000076  (-0.008673  0.000852 -0.000053)
 39:   1375.05   0.036736  185.65  0.008337  ( 0.072677  0.055273 -0.000090)
 40:   1424.41   0.005489   27.74  0.001202  (-0.000432 -0.034673 -0.000318)
 41:   1426.86   0.013898   70.23  0.003040  ( 0.028809 -0.047003  0.000499)
 42:   1433.34   0.003974   20.08  0.000865  (-0.000587  0.000491  0.029405)
 43:   1455.25   0.011993   60.61  0.002572  ( 0.046489  0.020260 -0.000070)
 44:   1475.01   0.091623  463.02  0.019384  (-0.139178  0.003732  0.000116)
 45:   1535.46   0.000512    2.59  0.000104  (-0.008467 -0.005691  0.000011)
 46:   1671.99   0.013940   70.45  0.002602  ( 0.015115  0.048717  0.000011)
 47:   1688.88   0.000541    2.73  0.000100  ( 0.009205 -0.003894  0.000009)
 48:   1742.10   0.075359  380.83  0.013499  (-0.004867  0.116083  0.000014)
 49:   1825.65   0.059735  301.87  0.010211  (-0.056534  0.083753 -0.000010)
 50:   3046.62   0.000045    0.23  0.000005  ( 0.001479  0.001558  0.000036)
 51:   3136.49   0.000049    0.25  0.000005  ( 0.000035  0.000054 -0.002204)
 52:   3175.99   0.001681    8.49  0.000165  ( 0.012740  0.001691  0.000043)
 53:   3233.78   0.000531    2.68  0.000051  ( 0.006919  0.001822 -0.000055)
 54:   3236.16   0.000203    1.03  0.000020  ( 0.001622  0.004116 -0.000014)
 55:   3254.50   0.000612    3.09  0.000059  ( 0.002152  0.007353 -0.000032)
 56:   3256.34   0.000665    3.36  0.000064  (-0.006096  0.005151  0.000092)

--------------------------
THERMOCHEMISTRY AT 298.15K
--------------------------

Temperature         ...   298.15 K
Pressure            ...     1.00 atm
Total Mass          ...   165.15 AMU
Quasi RRHO          ...     True
Cut-Off Frequency   ...     1.00 cm^-1

Throughout the following assumptions are being made:
  (1) The electronic state is orbitally nondegenerate
  (2) There are no thermally accessible electronically excited states
  (3) Hindered rotations indicated by low frequency modes are not
      treated as such but are treated as vibrations and this may
      cause some error
  (4) All equations used are the standard statistical mechanics
      equations for an ideal gas
  (5) All vibrations are strictly harmonic

freq.       9.21  E(vib)   ...       0.58
freq.      50.26  E(vib)   ...       0.52
freq.      76.03  E(vib)   ...       0.49
freq.     160.29  E(vib)   ...       0.39
freq.     162.58  E(vib)   ...       0.39
freq.     240.18  E(vib)   ...       0.31
freq.     279.11  E(vib)   ...       0.28
freq.     299.59  E(vib)   ...       0.26
freq.     420.42  E(vib)   ...       0.18
freq.     441.15  E(vib)   ...       0.17
freq.     457.11  E(vib)   ...       0.16
freq.     523.98  E(vib)   ...       0.13
freq.     556.25  E(vib)   ...       0.12
freq.     598.95  E(vib)   ...       0.10
freq.     635.08  E(vib)   ...       0.09
freq.     637.01  E(vib)   ...       0.09
freq.     726.82  E(vib)   ...       0.06
freq.     777.03  E(vib)   ...       0.05
freq.     786.19  E(vib)   ...       0.05
freq.     853.26  E(vib)   ...       0.04
freq.     885.64  E(vib)   ...       0.04
freq.     903.36  E(vib)   ...       0.03
freq.     978.54  E(vib)   ...       0.03
freq.    1006.80  E(vib)   ...       0.02
freq.    1021.51  E(vib)   ...       0.02
freq.    1023.61  E(vib)   ...       0.02
freq.    1048.59  E(vib)   ...       0.02
freq.    1102.37  E(vib)   ...       0.02
freq.    1111.32  E(vib)   ...       0.01
freq.    1139.75  E(vib)   ...       0.01
freq.    1187.46  E(vib)   ...       0.01
freq.    1293.60  E(vib)   ...       0.01
freq.    1302.15  E(vib)   ...       0.01
freq.    1375.05  E(vib)   ...       0.01
freq.    1424.41  E(vib)   ...       0.00
freq.    1426.86  E(vib)   ...       0.00
freq.    1433.34  E(vib)   ...       0.00
freq.    1455.25  E(vib)   ...       0.00
freq.    1475.01  E(vib)   ...       0.00
freq.    1535.46  E(vib)   ...       0.00
freq.    1671.99  E(vib)   ...       0.00
freq.    1688.88  E(vib)   ...       0.00
freq.    1742.10  E(vib)   ...       0.00
freq.    1825.65  E(vib)   ...       0.00
freq.    3046.62  E(vib)   ...       0.00
freq.    3136.49  E(vib)   ...       0.00
freq.    3175.99  E(vib)   ...       0.00
freq.    3233.78  E(vib)   ...       0.00
freq.    3236.16  E(vib)   ...       0.00
freq.    3254.50  E(vib)   ...       0.00
freq.    3256.34  E(vib)   ...       0.00

------------
INNER ENERGY
------------

The inner energy is: U= E(el) + E(ZPE) + E(vib) + E(rot) + E(trans)
    E(el)   - is the total energy from the electronic structure calculation
              = E(kin-el) + E(nuc-el) + E(el-el) + E(nuc-nuc)
    E(ZPE)  - the the zero temperature vibrational energy from the frequency calculation
    E(vib)  - the the finite temperature correction to E(ZPE) due to population
              of excited vibrational states
    E(rot)  - is the rotational thermal energy
    E(trans)- is the translational thermal energy

Summary of contributions to the inner energy U:
Electronic energy                ...   -588.32711929 Eh
Zero point energy                ...      0.14144945 Eh      88.76 kcal/mol
Thermal vibrational correction   ...      0.00758991 Eh       4.76 kcal/mol
Thermal rotational correction    ...      0.00141627 Eh       0.89 kcal/mol
Thermal translational correction ...      0.00141627 Eh       0.89 kcal/mol
-----------------------------------------------------------------------
Total thermal energy                   -588.17524739 Eh

Summary of corrections to the electronic energy:
(perhaps to be used in another calculation)
Total thermal correction                  0.01042245 Eh       6.54 kcal/mol
Non-thermal (ZPE) correction              0.14144945 Eh      88.76 kcal/mol
-----------------------------------------------------------------------
Total correction                          0.15187191 Eh      95.30 kcal/mol

--------
ENTHALPY
--------

The enthalpy is H = U + kB*T
                kB is Boltzmann's constant
Total thermal energy              ...   -588.17524739 Eh
Thermal Enthalpy correction       ...      0.00094421 Eh       0.59 kcal/mol
-----------------------------------------------------------------------
Total Enthalpy                    ...   -588.17430318 Eh

Note: Only C1 symmetry has been detected, increase convergence thresholds
      if your molecule has a higher symmetry. Symmetry factor of 1.0 is
      used for the rotational entropy correction.

Note: Rotational entropy computed according to Herzberg
Infrared and Raman Spectra, Chapter V,1, Van Nostrand Reinhold, 1945
Point Group:  C1, Symmetry Number:   1
Rotational constants in cm-1:     0.096430     0.015921     0.013700

Vibrational entropy computed according to the QRRHO of S. Grimme
Chem.Eur.J. 2012 18 9955 using a reference frequency of 100.0 cm-1

-------
ENTROPY
-------

The entropy contributions are T*S = T*(S(el)+S(vib)+S(rot)+S(trans))
     S(el)   - electronic entropy
     S(vib)  - vibrational entropy
     S(rot)  - rotational entropy
     S(trans)- translational entropy
The entropies will be listed as multiplied by the temperature to get
units of energy

Electronic entropy                ...      0.00000000 Eh      0.00 kcal/mol
Vibrational entropy               ...      0.01371102 Eh      8.60 kcal/mol
Rotational entropy                ...      0.01459495 Eh      9.16 kcal/mol
Translational entropy             ...      0.01958175 Eh     12.29 kcal/mol
-----------------------------------------------------------------------
Final entropy term                ...      0.04788771 Eh     30.05 kcal/mol

In case the symmetry of your molecule has not been determined correctly
or in case you have a reason to use a different symmetry number we print
out the resulting rotational entropy values for sn=1,12:

 non-linear molecules -----------------------------------
|  sn= 1 | S(rot)=       0.01459495 Eh      9.16 kcal/mol|
|  sn= 2 | S(rot)=       0.01394049 Eh      8.75 kcal/mol|
|  sn= 3 | S(rot)=       0.01355766 Eh      8.51 kcal/mol|
|  sn= 4 | S(rot)=       0.01328604 Eh      8.34 kcal/mol|
|  sn= 5 | S(rot)=       0.01307535 Eh      8.20 kcal/mol|
|  sn= 6 | S(rot)=       0.01290320 Eh      8.10 kcal/mol|
|  sn= 7 | S(rot)=       0.01275766 Eh      8.01 kcal/mol|
|  sn= 8 | S(rot)=       0.01263158 Eh      7.93 kcal/mol|
|  sn= 9 | S(rot)=       0.01252037 Eh      7.86 kcal/mol|

                             ****ORCA TERMINATED NORMALLY****
TOTAL RUN TIME: 0 days 0 hours 6 minutes 38 seconds 464 msec
