                         Program Version 6.0.0  -   RELEASE  -
|  1> !PBE0 aug-cc-pVTZ d3 TightSCF SlowConv RIJCOSX defgrid2
|  2>
|  3> %pal
|  4> nprocs 4
|  5> end
|  6>
|  7> %scf
|  8> MaxIter 1500
|  9> end
| 10>
| 11> %maxcore 3000
| 12>
| 13> !CPCM
| 14> %cpcm smd true
| 15> SMDsolvent "MeCN"
| 16> surfacetype gepol_ses
| 17> rsolv 2.19
| 18> end
| 19>
| 20> * xyz 1 2
| 21>   C           0.32102019331516     -1.19542386061728     -0.14148513269053
| 22>   N           1.10243703742587      0.00016587284657     -0.03493498389965
| 23>   H           2.12790837562502      0.00032492444948     -0.06391998039902
| 24>   C           0.32776853288643      1.19559735299303      0.11419545489126
| 25>   C          -1.10184122089178      0.73960306514008     -0.17705770971163
| 26>   C          -1.09090160245375     -0.73957390726683      0.22597738884058
| 27>   H          -1.24513402062308     -0.85614376606510      1.31228662008834
| 28>   H          -1.86247558532270     -1.33277654839199     -0.28577641973945
| 29>   H          -1.84489899623950      1.33262955312356      0.37546884555940
| 30>   H          -1.31417979146215      0.85631071138639     -1.25352523011859
| 31>   H           0.74060448118867      2.00031005458115     -0.52340635871813
| 32>   H           0.46483350827758      1.54453868347447      1.16584085187759
| 33>   H           0.40187216908273     -1.54535148914433     -1.19859107684141
| 34>   H           0.76758011919150     -1.99962684650920      0.47372433086124
| 35> *
| 36>
| 37>                          ****END OF INPUT****

CARTESIAN COORDINATES (ANGSTROEM)
---------------------------------
  C      0.321020   -1.195424   -0.141485
  N      1.102437    0.000166   -0.034935
  H      2.127908    0.000325   -0.063920
  C      0.327769    1.195597    0.114195
  C     -1.101841    0.739603   -0.177058
  C     -1.090902   -0.739574    0.225977
  H     -1.245134   -0.856144    1.312287
  H     -1.862476   -1.332777   -0.285776
  H     -1.844899    1.332630    0.375469
  H     -1.314180    0.856311   -1.253525
  H      0.740604    2.000310   -0.523406
  H      0.464834    1.544539    1.165841
  H      0.401872   -1.545351   -1.198591
  H      0.767580   -1.999627    0.473724

 Total Charge           Charge          ....    1
 Multiplicity           Mult            ....    2
 Number of Electrons    NEL             ....   39
 Basis Dimension        Dim             ....  437

ORBITAL ENERGIES
----------------
                 SPIN UP ORBITALS
  NO   OCC          E(Eh)            E(eV)
   0   1.0000     -14.522154      -395.1679
   1   1.0000     -10.291079      -280.0345
   2   1.0000     -10.290976      -280.0317
   3   1.0000     -10.242354      -278.7086
   4   1.0000     -10.242106      -278.7019
   5   1.0000      -1.049648       -28.5624
   6   1.0000      -0.827457       -22.5163
   7   1.0000      -0.799021       -21.7425
   8   1.0000      -0.658621       -17.9220
   9   1.0000      -0.636598       -17.3227
  10   1.0000      -0.594224       -16.1697
  11   1.0000      -0.556361       -15.1394
  12   1.0000      -0.481758       -13.1093
  13   1.0000      -0.466114       -12.6836
  14   1.0000      -0.446409       -12.1474
  15   1.0000      -0.440930       -11.9983
  16   1.0000      -0.389124       -10.5886
  17   1.0000      -0.382959       -10.4208
  18   1.0000      -0.354127        -9.6363
  19   1.0000      -0.326124        -8.8743
  20   0.0000      -0.003889        -0.1058
  21   0.0000       0.015480         0.4212
  22   0.0000       0.016294         0.4434
  23   0.0000       0.018351         0.4994
  24   0.0000       0.037202         1.0123

                 SPIN DOWN ORBITALS
  NO   OCC          E(Eh)            E(eV)
   0   1.0000     -14.502825      -394.6419
   1   1.0000     -10.291452      -280.0446
   2   1.0000     -10.291347      -280.0418
   3   1.0000     -10.242253      -278.7059
   4   1.0000     -10.242005      -278.6991
   5   1.0000      -1.015153       -27.6237
   6   1.0000      -0.817382       -22.2421
   7   1.0000      -0.794066       -21.6076
   8   1.0000      -0.648170       -17.6376
   9   1.0000      -0.633200       -17.2303
  10   1.0000      -0.583477       -15.8772
  11   1.0000      -0.528761       -14.3883
  12   1.0000      -0.464353       -12.6357
  13   1.0000      -0.452951       -12.3254
  14   1.0000      -0.437477       -11.9044
  15   1.0000      -0.423958       -11.5365
  16   1.0000      -0.388170       -10.5626
  17   1.0000      -0.381516       -10.3816
  18   1.0000      -0.349906        -9.5214
  19   0.0000      -0.158704        -4.3186
  20   0.0000      -0.002404        -0.0654
  21   0.0000       0.016672         0.4537
  22   0.0000       0.017181         0.4675
  23   0.0000       0.019420         0.5285

MULLIKEN ATOMIC CHARGES AND SPIN POPULATIONS
--------------------------------------------
   0 C :   -0.236299   -0.036330
   1 N :    0.018046    0.824794
   2 H :    0.152845   -0.018190
   3 C :   -0.238330   -0.036557
   4 C :   -0.305087    0.009617
   5 C :   -0.306377    0.009418
   6 H :    0.184577    0.001019
   7 H :    0.251623   -0.001994
   8 H :    0.251424   -0.001991
   9 H :    0.184907    0.001013
  10 H :    0.300671    0.038399
  11 H :    0.220940    0.086117
  12 H :    0.220866    0.086046
  13 H :    0.300195    0.038638
Sum of atomic charges         :    1.0000000

LOEWDIN ATOMIC CHARGES AND SPIN POPULATIONS
-------------------------------------------
   0 C :    0.289932    0.124178
   1 N :    0.716651    0.535460
   2 H :   -0.136683    0.068970
   3 C :    0.289731    0.124061
   4 C :    0.324525    0.006296
   5 C :    0.324603    0.006246
   6 H :   -0.119424    0.001267
   7 H :   -0.117836   -0.000241
   8 H :   -0.117998   -0.000234
   9 H :   -0.119202    0.001275
  10 H :   -0.088140    0.023512
  11 H :   -0.079106    0.042777
  12 H :   -0.078904    0.042798
  13 H :   -0.088150    0.023634

  Mayer bond orders larger than 0.100000
B(  0-C ,  1-N ) :   0.9264 B(  0-C ,  5-C ) :   0.9348 B(  0-C , 12-H ) :   0.9064
B(  0-C , 13-H ) :   0.8614 B(  1-N ,  2-H ) :   1.0173 B(  1-N ,  3-C ) :   0.9248
B(  3-C ,  4-C ) :   0.9352 B(  3-C , 10-H ) :   0.8626 B(  3-C , 11-H ) :   0.9067
B(  4-C ,  5-C ) :   0.9671 B(  4-C ,  8-H ) :   0.9243 B(  4-C ,  9-H ) :   0.9726
B(  5-C ,  6-H ) :   0.9724 B(  5-C ,  7-H ) :   0.9248

Dispersion correction           -0.008846781
FINAL SINGLE POINT ENERGY      -212.230297208170

DIPOLE MOMENT
-------------

Method             : SCF
Type of density    : Electron Density
Multiplicity       :   2
Irrep              :   0
Energy             :  -212.2214504270735631 Eh
Relativity type    :
Basis              : AO
                                X                 Y                 Z
Electronic contribution:      2.523898696      -0.001073707      -0.071825296
Nuclear contribution   :     -1.068975804      -0.000388057       0.028795519
                        -----------------------------------------
Total Dipole Moment    :      1.454922892      -0.001461763      -0.043029777
                        -----------------------------------------
Magnitude (a.u.)       :      1.455559796
Magnitude (Debye)      :      3.699738979

Rotational constants in cm-1:             0.231930             0.228924             0.129807
Rotational constants in MHz :          6953.078056          6862.972212          3891.510295

                             ****ORCA TERMINATED NORMALLY****
TOTAL RUN TIME: 0 days 0 hours 2 minutes 7 seconds 363 msec
