                         Program Version 6.0.0  -   RELEASE  -
|  1> !TPSSh aug-cc-pVTZ d3 TightSCF SlowConv RIJCOSX defgrid2
|  2>
|  3> %pal
|  4> nprocs 4
|  5> end
|  6>
|  7> %scf
|  8> MaxIter 1500
|  9> end
| 10>
| 11> %maxcore 3000
| 12>
| 13> !CPCM
| 14> %cpcm smd true
| 15> SMDsolvent "MeCN"
| 16> surfacetype gepol_ses
| 17> rsolv 2.19
| 18> end
| 19>
| 20> * xyz 0 1
| 21> C           0.89625463995169     -1.41558669005642      0.00000212581931
| 22> C           2.11505403593339     -0.74430991173074     -0.00000149555587
| 23> C           2.17542044953981      0.66118914619392      0.00000118790347
| 24> C           1.02073349490689      1.43411488081899      0.00000740816991
| 25> C          -0.21978579987357      0.78024255664200      0.00000882693723
| 26> C          -0.24734548849214     -0.62587635066739      0.00000530658827
| 27> O          -1.52601546021974     -1.07032389872869      0.00001342203642
| 28> C          -2.31826979056253      0.02952741578344      0.00002075604744
| 29> C          -1.60215379632981      1.18293934552638      0.00000260268759
| 30> H          -2.00251324968155      2.19537072670951     -0.00000431996804
| 31> H          -3.38877681335679     -0.16931307117016      0.00002936397660
| 32> H           1.07767380530056      2.52621447644394      0.00000712336235
| 33> H           3.15304280126425      1.15182904763925     -0.00000361572869
| 34> H           3.04441141911605     -1.32116718166862     -0.00000606251848
| 35> H           0.83131985250349     -2.50587419173540      0.00000217024247
| 36> *
| 37>
| 38>                          ****END OF INPUT****

CARTESIAN COORDINATES (ANGSTROEM)
---------------------------------
  C      0.896255   -1.415587    0.000002
  C      2.115054   -0.744310   -0.000001
  C      2.175420    0.661189    0.000001
  C      1.020733    1.434115    0.000007
  C     -0.219786    0.780243    0.000009
  C     -0.247345   -0.625876    0.000005
  O     -1.526015   -1.070324    0.000013
  C     -2.318270    0.029527    0.000021
  C     -1.602154    1.182939    0.000003
  H     -2.002513    2.195371   -0.000004
  H     -3.388777   -0.169313    0.000029
  H      1.077674    2.526214    0.000007
  H      3.153043    1.151829   -0.000004
  H      3.044411   -1.321167   -0.000006
  H      0.831320   -2.505874    0.000002

 Total Charge           Charge          ....    0
 Multiplicity           Mult            ....    1
 Number of Electrons    NEL             ....   62
 Basis Dimension        Dim             ....  552

ORBITAL ENERGIES
----------------

  NO   OCC          E(Eh)            E(eV)
   0   2.0000     -19.122938      -520.3616
   1   2.0000     -10.170411      -276.7510
   2   2.0000     -10.169703      -276.7317
   3   2.0000     -10.124563      -275.5034
   4   2.0000     -10.122498      -275.4472
   5   2.0000     -10.120503      -275.3929
   6   2.0000     -10.118687      -275.3435
   7   2.0000     -10.116664      -275.2884
   8   2.0000     -10.115378      -275.2534
   9   2.0000      -1.097654       -29.8687
  10   2.0000      -0.837869       -22.7996
  11   2.0000      -0.780087       -21.2273
  12   2.0000      -0.731178       -19.8964
  13   2.0000      -0.710018       -19.3206
  14   2.0000      -0.615508       -16.7488
  15   2.0000      -0.581930       -15.8351
  16   2.0000      -0.565149       -15.3785
  17   2.0000      -0.502116       -13.6633
  18   2.0000      -0.476371       -12.9627
  19   2.0000      -0.459780       -12.5113
  20   2.0000      -0.448287       -12.1985
  21   2.0000      -0.420422       -11.4403
  22   2.0000      -0.403703       -10.9853
  23   2.0000      -0.388139       -10.5618
  24   2.0000      -0.369354       -10.0506
  25   2.0000      -0.346859        -9.4385
  26   2.0000      -0.344299        -9.3689
  27   2.0000      -0.321085        -8.7372
  28   2.0000      -0.287291        -7.8176
  29   2.0000      -0.235027        -6.3954
  30   2.0000      -0.216873        -5.9014
  31   0.0000      -0.040011        -1.0888
  32   0.0000      -0.010938        -0.2977
  33   0.0000      -0.001598        -0.0435
  34   0.0000       0.009843         0.2678
  35   0.0000       0.013743         0.3740

MULLIKEN ATOMIC CHARGES
-----------------------
   0 C :   -0.838774
   1 C :   -0.102687
   2 C :   -0.401270
   3 C :   -0.488633
   4 C :    0.918489
   5 C :    0.313162
   6 O :   -0.586237
   7 C :   -0.231204
   8 C :   -0.517427
   9 H :    0.269001
  10 H :    0.415613
  11 H :   -0.078067
  12 H :    0.559771
  13 H :    0.307394
  14 H :    0.460870
Sum of atomic charges:    0.0000000

LOEWDIN ATOMIC CHARGES
----------------------
   0 C :    0.220450
   1 C :    0.174373
   2 C :    0.175692
   3 C :    0.213841
   4 C :   -0.168281
   5 C :   -0.406573
   6 O :    0.617325
   7 C :   -0.020789
   8 C :    0.223359
   9 H :   -0.169586
  10 H :   -0.171894
  11 H :   -0.166463
  12 H :   -0.178441
  13 H :   -0.176580
  14 H :   -0.166434

  Mayer bond orders larger than 0.100000
B(  0-C ,  1-C ) :   1.4936 B(  0-C ,  2-C ) :   0.2991 B(  0-C ,  4-C ) :   0.1271
B(  0-C ,  5-C ) :   1.3126 B(  0-C ,  6-O ) :   0.1259 B(  0-C , 14-H ) :   0.2836
B(  1-C ,  2-C ) :   1.2418 B(  1-C ,  3-C ) :  -0.3209 B(  1-C ,  5-C ) :  -0.4719
B(  1-C ,  8-C ) :   0.1385 B(  1-C , 12-H ) :   0.1907 B(  1-C , 13-H ) :   0.7040
B(  1-C , 14-H ) :   0.1702 B(  2-C ,  3-C ) :   1.3292 B(  2-C ,  5-C ) :   0.2215
B(  2-C ,  8-C ) :   0.1772 B(  2-C , 12-H ) :   0.3244 B(  3-C ,  4-C ) :   0.8407
B(  3-C ,  5-C ) :  -0.6025 B(  3-C , 11-H ) :   1.4468 B(  4-C ,  5-C ) :   1.1791
B(  4-C ,  6-O ) :  -0.1099 B(  4-C ,  7-C ) :  -0.2814 B(  4-C ,  8-C ) :   0.6486
B(  4-C , 13-H ) :  -0.1131 B(  4-C , 14-H ) :   0.1778 B(  5-C ,  6-O ) :   0.3693
B(  5-C ,  8-C ) :   0.2752 B(  5-C , 11-H ) :   0.1339 B(  5-C , 13-H ) :   0.1520
B(  6-O ,  7-C ) :   1.1981 B(  7-C ,  8-C ) :   1.3393 B(  7-C , 10-H ) :   0.7713
B(  8-C ,  9-H ) :   0.9058

Dispersion correction           -0.018328424
FINAL SINGLE POINT ENERGY      -383.862820207325

DIPOLE MOMENT
-------------

Method             : SCF
Type of density    : Electron Density
Multiplicity       :   1
Irrep              :   0
Energy             :  -383.8444917833457453 Eh
Relativity type    :
Basis              : AO
                                X                 Y                 Z
Electronic contribution:     -2.723052908      -1.418387590       0.000408466
Nuclear contribution   :      2.516077808       1.725635815      -0.000014921
                        -----------------------------------------
Total Dipole Moment    :     -0.206975100       0.307248225       0.000393545
                        -----------------------------------------
Magnitude (a.u.)       :      0.370459605
Magnitude (Debye)      :      0.941633482

Rotational constants in cm-1:             0.131103             0.055537             0.039011
Rotational constants in MHz :          3930.375234          1664.953413          1169.527667

                             ****ORCA TERMINATED NORMALLY****
TOTAL RUN TIME: 0 days 0 hours 4 minutes 12 seconds 366 msec
