                         Program Version 6.0.0  -   RELEASE  -
|  1> !TPSSh aug-cc-pVTZ d3 TightSCF SlowConv RIJCOSX defgrid2
|  2>
|  3> %pal
|  4> nprocs 4
|  5> end
|  6>
|  7> %scf
|  8> MaxIter 1500
|  9> end
| 10>
| 11> %maxcore 3000
| 12>
| 13> !CPCM
| 14> %cpcm smd true
| 15> SMDsolvent "MeCN"
| 16> surfacetype gepol_ses
| 17> rsolv 2.19
| 18> end
| 19>
| 20> * xyz 0 1
| 21> C           0.48360567195606     -1.21229390689687     -0.00037134428610
| 22> C           1.87690194124081     -1.23618350779417     -0.00001608088298
| 23> C           2.59422075073626     -0.04047481851856      0.00022611932314
| 24> C           1.91690889899697      1.18098236414826      0.00010944657389
| 25> C           0.52720301634613      1.20350626322595     -0.00024479123569
| 26> C          -0.20304994422496      0.00795284786184     -0.00051856197987
| 27> C          -1.69823329325947      0.10073243557531     -0.00093855711764
| 28> O          -2.24783450756777      1.18012430228825      0.00047343643148
| 29> C          -2.49873773674618     -1.18055979411728      0.00001226054872
| 30> H          -3.56874245805795     -0.92684719916367      0.00028072085676
| 31> H          -2.26765286226878     -1.79214055957540      0.88960271021885
| 32> H          -2.26826604600788     -1.79314451916799     -0.88902976580653
| 33> H          -0.03046089965679      2.14367830490160     -0.00034789708130
| 34> H           2.47945545467799      2.11929230948718      0.00030005734770
| 35> H           3.68826884274775     -0.06009102388695      0.00051141148870
| 36> H           2.40583590173159     -2.19363249350041      0.00008658903805
| 37> H          -0.06689973064377     -2.15667190486707     -0.00053355343717
| 38> *
| 39>
| 40>                          ****END OF INPUT****

CARTESIAN COORDINATES (ANGSTROEM)
---------------------------------
  C      0.483606   -1.212294   -0.000371
  C      1.876902   -1.236184   -0.000016
  C      2.594221   -0.040475    0.000226
  C      1.916909    1.180982    0.000109
  C      0.527203    1.203506   -0.000245
  C     -0.203050    0.007953   -0.000519
  C     -1.698233    0.100732   -0.000939
  O     -2.247835    1.180124    0.000473
  C     -2.498738   -1.180560    0.000012
  H     -3.568742   -0.926847    0.000281
  H     -2.267653   -1.792141    0.889603
  H     -2.268266   -1.793145   -0.889030
  H     -0.030461    2.143678   -0.000348
  H      2.479455    2.119292    0.000300
  H      3.688269   -0.060091    0.000511
  H      2.405836   -2.193632    0.000087
  H     -0.066900   -2.156672   -0.000534

 Total Charge           Charge          ....    0
 Multiplicity           Mult            ....    1
 Number of Electrons    NEL             ....   64
 Basis Dimension        Dim             ....  598

ORBITAL ENERGIES
----------------

  NO   OCC          E(Eh)            E(eV)
   0   2.0000     -19.042590      -518.1752
   1   2.0000     -10.199890      -277.5531
   2   2.0000     -10.126868      -275.5661
   3   2.0000     -10.126380      -275.5528
   4   2.0000     -10.125273      -275.5227
   5   2.0000     -10.122773      -275.4547
   6   2.0000     -10.121874      -275.4302
   7   2.0000     -10.121567      -275.4218
   8   2.0000     -10.109539      -275.0945
   9   2.0000      -1.022861       -27.8335
  10   2.0000      -0.842495       -22.9254
  11   2.0000      -0.751908       -20.4605
  12   2.0000      -0.732358       -19.9285
  13   2.0000      -0.705985       -19.2108
  14   2.0000      -0.608521       -16.5587
  15   2.0000      -0.588056       -16.0018
  16   2.0000      -0.531808       -14.4712
  17   2.0000      -0.491175       -13.3656
  18   2.0000      -0.446066       -12.1381
  19   2.0000      -0.440313       -11.9815
  20   2.0000      -0.424926       -11.5628
  21   2.0000      -0.423604       -11.5269
  22   2.0000      -0.405617       -11.0374
  23   2.0000      -0.398750       -10.8506
  24   2.0000      -0.367102        -9.9894
  25   2.0000      -0.364852        -9.9281
  26   2.0000      -0.342035        -9.3072
  27   2.0000      -0.338498        -9.2110
  28   2.0000      -0.326063        -8.8726
  29   2.0000      -0.254045        -6.9129
  30   2.0000      -0.251649        -6.8477
  31   2.0000      -0.237542        -6.4639
  32   0.0000      -0.073843        -2.0094
  33   0.0000      -0.029090        -0.7916
  34   0.0000      -0.004377        -0.1191
  35   0.0000       0.009197         0.2503
  36   0.0000       0.014119         0.3842

MULLIKEN ATOMIC CHARGES
-----------------------
   0 C :   -0.515019
   1 C :   -0.608790
   2 C :   -0.160466
   3 C :   -0.364297
   4 C :   -0.844228
   5 C :    1.125143
   6 C :    0.979827
   7 O :   -0.987583
   8 C :   -0.223574
   9 H :   -0.034572
  10 H :    0.191517
  11 H :    0.192009
  12 H :   -0.058360
  13 H :    0.461496
  14 H :    0.387911
  15 H :    0.381297
  16 H :    0.077689
Sum of atomic charges:    0.0000000

LOEWDIN ATOMIC CHARGES
----------------------
   0 C :    0.201827
   1 C :    0.205606
   2 C :    0.197011
   3 C :    0.201993
   4 C :    0.187564
   5 C :   -0.137834
   6 C :   -0.549844
   7 O :    0.489394
   8 C :    0.565982
   9 H :   -0.177789
  10 H :   -0.158283
  11 H :   -0.158395
  12 H :   -0.188961
  13 H :   -0.168776
  14 H :   -0.165945
  15 H :   -0.167357
  16 H :   -0.176192

  Mayer bond orders larger than 0.100000
B(  0-C ,  1-C ) :   1.2081 B(  0-C ,  4-C ) :  -0.1506 B(  0-C ,  5-C ) :   0.6893
B(  0-C , 12-H ) :   0.1179 B(  0-C , 16-H ) :   1.1886 B(  1-C ,  2-C ) :   1.3575
B(  1-C ,  4-C ) :   0.1022 B(  1-C , 15-H ) :   0.6206 B(  2-C ,  3-C ) :   1.3699
B(  2-C , 13-H ) :   0.1008 B(  2-C , 14-H ) :   0.5867 B(  3-C ,  4-C ) :   1.4038
B(  3-C ,  5-C ) :  -0.1322 B(  3-C ,  6-C ) :   0.1247 B(  3-C , 13-H ) :   0.5648
B(  4-C ,  5-C ) :   0.5817 B(  4-C , 12-H ) :   1.1850 B(  4-C , 13-H ) :  -0.1084
B(  5-C ,  6-C ) :   0.5838 B(  5-C ,  7-O ) :   0.2398 B(  6-C ,  7-O ) :   0.3985
B(  6-C ,  8-C ) :   1.0478 B(  6-C , 12-H ) :  -0.1579 B(  6-C , 13-H ) :   0.1058
B(  7-O , 12-H ) :   0.2059 B(  8-C ,  9-H ) :   1.0333 B(  8-C , 10-H ) :   0.9383
B(  8-C , 11-H ) :   0.9386 B( 12-H , 16-H ) :   0.1002

Dispersion correction           -0.020215777
FINAL SINGLE POINT ENERGY      -385.086937576958

DIPOLE MOMENT
-------------

Method             : SCF
Type of density    : Electron Density
Multiplicity       :   1
Irrep              :   0
Energy             :  -385.0667218000004937 Eh
Relativity type    :
Basis              : AO
                                X                 Y                 Z
Electronic contribution:      0.737971943       3.037569605      -0.001918306
Nuclear contribution   :      0.288396890      -4.357474412       0.001603683
                        -----------------------------------------
Total Dipole Moment    :      1.026368833      -1.319904807      -0.000314624
                        -----------------------------------------
Magnitude (a.u.)       :      1.671999336
Magnitude (Debye)      :      4.249884569

Rotational constants in cm-1:             0.123087             0.040626             0.030722
Rotational constants in MHz :          3690.044009          1217.936985           921.022210

                             ****ORCA TERMINATED NORMALLY****
TOTAL RUN TIME: 0 days 0 hours 5 minutes 29 seconds 873 msec
