                         Program Version 6.0.0  -   RELEASE  -
|  1> !TPSSh freq aug-cc-pVTZ d3 TightSCF SlowConv RIJCOSX defgrid2
|  2>
|  3> %pal
|  4> nprocs 12
|  5> end
|  6>
|  7> %scf
|  8> MaxIter 1500
|  9> end
| 10>
| 11> %maxcore 5000
| 12>
| 13> !CPCM
| 14> %cpcm smd true
| 15> SMDsolvent "MeCN"
| 16> surfacetype gepol_ses
| 17> rsolv 2.19
| 18> end
| 19>
| 20> * xyz 1 2
| 21> C           0.87141623312748     -1.42632044772765     -0.00074682594542
| 22> C           2.10176836447943     -0.72366849636737      0.00059117631430
| 23> C           2.17319422315158      0.67930567611879     -0.00016805929906
| 24> C           1.02842818347841      1.44744051233157     -0.00111357966153
| 25> C          -0.22184131897406      0.77089183092617     -0.00142942615290
| 26> C          -0.24024577016044     -0.64443378671215     -0.00222379284976
| 27> O          -1.55773122042062     -1.08985096152129     -0.00240223056935
| 28> C          -2.31505468955440      0.00345854195263     -0.00009622649736
| 29> C          -1.55473869890691      1.18116295777076      0.00028738203108
| 30> H          -1.95652246928937      2.18142845015743      0.00287239695575
| 31> H          -3.38328068961558     -0.14867796897542      0.00228770561261
| 32> H           1.06636421068089      2.52803068503088     -0.00166734865188
| 33> H           3.14426476720384      1.15436282869744      0.00058804324416
| 34> H           3.01883947417399     -1.29796565120207      0.00309292885949
| 35> H           0.83420090062579     -2.50620357047971      0.00019845660989
| 36> *
| 37>
| 38>                          ****END OF INPUT****

CARTESIAN COORDINATES (ANGSTROEM)
---------------------------------
  C      0.871416   -1.426320   -0.000747
  C      2.101768   -0.723668    0.000591
  C      2.173194    0.679306   -0.000168
  C      1.028428    1.447441   -0.001114
  C     -0.221841    0.770892   -0.001429
  C     -0.240246   -0.644434   -0.002224
  O     -1.557731   -1.089851   -0.002402
  C     -2.315055    0.003459   -0.000096
  C     -1.554739    1.181163    0.000287
  H     -1.956522    2.181428    0.002872
  H     -3.383281   -0.148678    0.002288
  H      1.066364    2.528031   -0.001667
  H      3.144265    1.154363    0.000588
  H      3.018839   -1.297966    0.003093
  H      0.834201   -2.506204    0.000198

 Total Charge           Charge          ....    1
 Multiplicity           Mult            ....    2
 Number of Electrons    NEL             ....   61
 Basis Dimension        Dim             ....  552

ORBITAL ENERGIES
----------------
                 SPIN UP ORBITALS
  NO   OCC          E(Eh)            E(eV)
   0   1.0000     -19.177839      -521.8555
   1   1.0000     -10.248598      -278.8785
   2   1.0000     -10.221139      -278.1313
   3   1.0000     -10.181701      -277.0582
   4   1.0000     -10.177582      -276.9461
   5   1.0000     -10.176886      -276.9271
   6   1.0000     -10.171433      -276.7788
   7   1.0000     -10.167259      -276.6652
   8   1.0000     -10.148019      -276.1416
   9   1.0000      -1.149559       -31.2811
  10   1.0000      -0.888871       -24.1874
  11   1.0000      -0.834993       -22.7213
  12   1.0000      -0.781156       -21.2563
  13   1.0000      -0.757554       -20.6141
  14   1.0000      -0.663299       -18.0493
  15   1.0000      -0.628195       -17.0940
  16   1.0000      -0.614399       -16.7186
  17   1.0000      -0.546636       -14.8747
  18   1.0000      -0.524145       -14.2627
  19   1.0000      -0.501562       -13.6482
  20   1.0000      -0.500512       -13.6196
  21   1.0000      -0.463952       -12.6248
  22   1.0000      -0.448911       -12.2155
  23   1.0000      -0.437640       -11.9088
  24   1.0000      -0.411526       -11.1982
  25   1.0000      -0.392508       -10.6807
  26   1.0000      -0.385415       -10.4877
  27   1.0000      -0.367032        -9.9874
  28   1.0000      -0.340156        -9.2561
  29   1.0000      -0.283934        -7.7262
  30   1.0000      -0.266718        -7.2578
  31   0.0000      -0.097041        -2.6406
  32   0.0000      -0.049568        -1.3488
  33   0.0000      -0.022747        -0.6190
  34   0.0000      -0.005468        -0.1488
  35   0.0000       0.005957         0.1621

                 SPIN DOWN ORBITALS
  NO   OCC          E(Eh)            E(eV)
   0   1.0000     -19.177046      -521.8340
   1   1.0000     -10.243157      -278.7305
   2   1.0000     -10.219782      -278.0944
   3   1.0000     -10.179063      -276.9864
   4   1.0000     -10.177167      -276.9348
   5   1.0000     -10.172182      -276.7991
   6   1.0000     -10.167961      -276.6843
   7   1.0000     -10.167273      -276.6656
   8   1.0000     -10.149703      -276.1875
   9   1.0000      -1.146418       -31.1956
  10   1.0000      -0.884180       -24.0598
  11   1.0000      -0.827249       -22.5106
  12   1.0000      -0.778508       -21.1843
  13   1.0000      -0.745761       -20.2932
  14   1.0000      -0.659073       -17.9343
  15   1.0000      -0.623358       -16.9624
  16   1.0000      -0.610013       -16.5993
  17   1.0000      -0.544245       -14.8096
  18   1.0000      -0.520257       -14.1569
  19   1.0000      -0.499645       -13.5960
  20   1.0000      -0.485977       -13.2241
  21   1.0000      -0.462677       -12.5901
  22   1.0000      -0.446417       -12.1476
  23   1.0000      -0.436044       -11.8653
  24   1.0000      -0.409324       -11.1383
  25   1.0000      -0.383896       -10.4463
  26   1.0000      -0.377279       -10.2663
  27   1.0000      -0.365854        -9.9554
  28   1.0000      -0.316725        -8.6185
  29   1.0000      -0.277603        -7.5540
  30   0.0000      -0.211194        -5.7469
  31   0.0000      -0.068380        -1.8607
  32   0.0000      -0.038639        -1.0514
  33   0.0000      -0.004417        -0.1202
  34   0.0000      -0.000983        -0.0267

MULLIKEN ATOMIC CHARGES AND SPIN POPULATIONS
--------------------------------------------
   0 C :   -0.649714    0.025050
   1 C :   -0.018699    0.285496
   2 C :   -0.439033   -0.111349
   3 C :   -0.392563    0.211537
   4 C :    0.924736    0.026676
   5 C :    0.321284    0.056520
   6 O :   -0.545436    0.008055
   7 C :   -0.129440    0.296375
   8 C :   -0.383692    0.216425
   9 H :    0.332644   -0.012342
  10 H :    0.478012    0.000697
  11 H :    0.041291   -0.001307
  12 H :    0.626417   -0.007933
  13 H :    0.319466    0.004065
  14 H :    0.514729    0.002033
Sum of atomic charges         :    1.0000000

LOEWDIN ATOMIC CHARGES AND SPIN POPULATIONS
-------------------------------------------
   0 C :    0.306580    0.057033
   1 C :    0.283526    0.149087
   2 C :    0.261122    0.026473
   3 C :    0.303906    0.108339
   4 C :   -0.103761    0.079365
   5 C :   -0.319653    0.053382
   6 O :    0.671408    0.058586
   7 C :    0.106069    0.211879
   8 C :    0.344011    0.149618
   9 H :   -0.130956    0.020665
  10 H :   -0.130591    0.035889
  11 H :   -0.140828    0.021890
  12 H :   -0.162062   -0.008435
  13 H :   -0.146034    0.033612
  14 H :   -0.142736    0.002617

  Mayer bond orders larger than 0.100000
B(  0-C ,  1-C ) :   1.3181 B(  0-C ,  2-C ) :   0.2365 B(  0-C ,  4-C ) :   0.1452
B(  0-C ,  5-C ) :   1.3811 B(  0-C ,  6-O ) :   0.1025 B(  0-C , 13-H ) :   0.1520
B(  0-C , 14-H ) :   0.2704 B(  1-C ,  2-C ) :   1.2933 B(  1-C ,  3-C ) :  -0.2116
B(  1-C ,  4-C ) :  -0.1035 B(  1-C ,  5-C ) :  -0.4319 B(  1-C ,  8-C ) :   0.1515
B(  1-C , 12-H ) :   0.1897 B(  1-C , 13-H ) :   0.7002 B(  1-C , 14-H ) :   0.1392
B(  2-C ,  3-C ) :   1.4883 B(  2-C ,  5-C ) :   0.1941 B(  2-C ,  8-C ) :   0.1612
B(  2-C , 12-H ) :   0.2287 B(  3-C ,  4-C ) :   0.8124 B(  3-C ,  5-C ) :  -0.5295
B(  3-C , 11-H ) :   1.3022 B(  4-C ,  5-C ) :   1.1010 B(  4-C ,  7-C ) :  -0.2813
B(  4-C ,  8-C ) :   0.8287 B(  4-C , 13-H ) :  -0.1142 B(  4-C , 14-H ) :   0.1522
B(  5-C ,  6-O ) :   0.3568 B(  5-C ,  8-C ) :   0.3040 B(  5-C , 13-H ) :   0.1342
B(  6-O ,  7-C ) :   1.3371 B(  7-C ,  8-C ) :   1.1331 B(  7-C , 10-H ) :   0.7236
B(  8-C ,  9-H ) :   0.8147 B(  8-C , 11-H ) :  -0.1036

Dispersion correction           -0.018371035
FINAL SINGLE POINT ENERGY      -383.648955236153

DIPOLE MOMENT
-------------

Method             : SCF
Type of density    : Electron Density
Multiplicity       :   2
Irrep              :   0
Energy             :  -383.6305842008073341 Eh
Relativity type    :
Basis              : AO
                                X                 Y                 Z
Electronic contribution:     -2.955703769      -1.147831093      -0.007465880
Nuclear contribution   :      2.534392529       1.778722507       0.011173341
                        -----------------------------------------
Total Dipole Moment    :     -0.421311241       0.630891414       0.003707461
                        -----------------------------------------
Magnitude (a.u.)       :      0.758644109
Magnitude (Debye)      :      1.928320078

VIBRATIONAL FREQUENCIES
-----------------------

Scaling factor for frequencies =  1.000000000  (already applied!)

     0:       0.00 cm**-1
     1:       0.00 cm**-1
     2:       0.00 cm**-1
     3:       0.00 cm**-1
     4:       0.00 cm**-1
     5:       0.00 cm**-1
     6:     178.66 cm**-1
     7:     226.37 cm**-1
     8:     381.63 cm**-1
     9:     397.68 cm**-1
    10:     481.65 cm**-1
    11:     510.74 cm**-1
    12:     534.56 cm**-1
    13:     605.53 cm**-1
    14:     713.75 cm**-1
    15:     760.75 cm**-1
    16:     767.02 cm**-1
    17:     810.71 cm**-1
    18:     851.23 cm**-1
    19:     875.91 cm**-1
    20:     882.27 cm**-1
    21:     913.95 cm**-1
    22:     968.61 cm**-1
    23:    1002.11 cm**-1
    24:    1003.99 cm**-1
    25:    1045.28 cm**-1
    26:    1098.43 cm**-1
    27:    1128.26 cm**-1
    28:    1148.29 cm**-1
    29:    1183.65 cm**-1
    30:    1258.25 cm**-1
    31:    1280.34 cm**-1
    32:    1366.27 cm**-1
    33:    1390.57 cm**-1
    34:    1445.34 cm**-1
    35:    1453.02 cm**-1
    36:    1499.22 cm**-1
    37:    1587.27 cm**-1
    38:    1653.22 cm**-1
    39:    3197.63 cm**-1
    40:    3206.62 cm**-1
    41:    3216.67 cm**-1
    42:    3222.75 cm**-1
    43:    3253.43 cm**-1
    44:    3265.80 cm**-1

IR SPECTRUM
-----------

 Mode   freq       eps      Int      T**2         TX        TY        TZ
       cm**-1   L/(mol*cm) km/mol    a.u.
----------------------------------------------------------------------------
  6:    178.66   0.003556   17.97  0.006212  (-0.000068 -0.000025  0.078815)
  7:    226.37   0.000015    0.08  0.000021  ( 0.000608  0.000244 -0.004527)
  8:    381.63   0.002988   15.10  0.002443  ( 0.000622 -0.000106 -0.049424)
  9:    397.68   0.003608   18.23  0.002831  ( 0.044331  0.029429  0.000094)
 10:    481.65   0.001478    7.47  0.000957  (-0.000394  0.000435 -0.030937)
 11:    510.74   0.000768    3.88  0.000469  ( 0.013450  0.016980  0.000167)
 12:    534.56   0.000086    0.43  0.000050  (-0.000548 -0.000006 -0.007050)
 13:    605.53   0.001008    5.10  0.000520  ( 0.022647 -0.002598 -0.000217)
 14:    713.75   0.007249   36.63  0.003169  ( 0.000023 -0.000111  0.056297)
 15:    760.75   0.000527    2.66  0.000216  (-0.005877  0.013446  0.000981)
 16:    767.02   0.003011   15.21  0.001225  ( 0.000391 -0.000613  0.034990)
 17:    810.71   0.019964  100.89  0.007685  (-0.000324  0.000374  0.087662)
 18:    851.23   0.004802   24.27  0.001760  ( 0.012230  0.040133 -0.000494)
 19:    875.91   0.000414    2.09  0.000147  ( 0.000137  0.000101 -0.012143)
 20:    882.27   0.004927   24.90  0.001743  ( 0.041594  0.003551  0.000218)
 21:    913.95   0.000168    0.85  0.000057  ( 0.000137  0.000251  0.007576)
 22:    968.61   0.001426    7.21  0.000460  (-0.000189  0.000119  0.021436)
 23:   1002.11   0.000179    0.91  0.000056  ( 0.000170  0.000214  0.007468)
 24:   1003.99   0.002327   11.76  0.000723  ( 0.021920 -0.015580 -0.000347)
 25:   1045.28   0.000589    2.98  0.000176  ( 0.006190  0.011725  0.000063)
 26:   1098.43   0.003338   16.87  0.000948  (-0.024800  0.018259 -0.000096)
 27:   1128.26   0.010784   54.50  0.002983  (-0.054069  0.007705  0.000010)
 28:   1148.29   0.006098   30.82  0.001657  (-0.030332 -0.027152  0.000040)
 29:   1183.65   0.015243   77.03  0.004019  ( 0.036882  0.051561  0.000014)
 30:   1258.25   0.027417  138.56  0.006800  ( 0.081954 -0.009132 -0.000081)
 31:   1280.34   0.000039    0.20  0.000010  ( 0.002578  0.001714  0.000058)
 32:   1366.27   0.015899   80.35  0.003631  ( 0.024184 -0.055196 -0.000055)
 33:   1390.57   0.018732   94.66  0.004204  (-0.050629 -0.040502 -0.000006)
 34:   1445.34   0.062801  317.37  0.013559  ( 0.116246  0.006786  0.000052)
 35:   1453.02   0.003006   15.19  0.000646  ( 0.021693 -0.013227  0.000122)
 36:   1499.22   0.020476  103.48  0.004262  (-0.048073  0.044171 -0.000014)
 37:   1587.27   0.002015   10.18  0.000396  ( 0.018379 -0.007637  0.000016)
 38:   1653.22   0.025921  130.99  0.004893  (-0.061889  0.032599 -0.000076)
 39:   3197.63   0.000329    1.66  0.000032  ( 0.000842 -0.005602 -0.000055)
 40:   3206.62   0.000597    3.02  0.000058  (-0.006694  0.003641  0.000067)
 41:   3216.67   0.000474    2.39  0.000046  ( 0.006776 -0.000210 -0.000016)
 42:   3222.75   0.000404    2.04  0.000039  (-0.003681 -0.005056  0.000060)
 43:   3253.43   0.003337   16.86  0.000320  ( 0.011159  0.013983  0.000022)
 44:   3265.80   0.001280    6.47  0.000122  (-0.009884  0.004962  0.000171)

--------------------------
THERMOCHEMISTRY AT 298.15K
--------------------------

Temperature         ...   298.15 K
Pressure            ...     1.00 atm
Total Mass          ...   118.13 AMU
Quasi RRHO          ...     True
Cut-Off Frequency   ...     1.00 cm^-1

Throughout the following assumptions are being made:
  (1) The electronic state is orbitally nondegenerate
      but the spin degeneracy is treated
  (2) There are no thermally accessible electronically excited states
  (3) Hindered rotations indicated by low frequency modes are not
      treated as such but are treated as vibrations and this may
      cause some error
  (4) All equations used are the standard statistical mechanics
      equations for an ideal gas
  (5) All vibrations are strictly harmonic

freq.     178.66  E(vib)   ...       0.37
freq.     226.37  E(vib)   ...       0.33
freq.     381.63  E(vib)   ...       0.21
freq.     397.68  E(vib)   ...       0.20
freq.     481.65  E(vib)   ...       0.15
freq.     510.74  E(vib)   ...       0.14
freq.     534.56  E(vib)   ...       0.13
freq.     605.53  E(vib)   ...       0.10
freq.     713.75  E(vib)   ...       0.07
freq.     760.75  E(vib)   ...       0.06
freq.     767.02  E(vib)   ...       0.06
freq.     810.71  E(vib)   ...       0.05
freq.     851.23  E(vib)   ...       0.04
freq.     875.91  E(vib)   ...       0.04
freq.     882.27  E(vib)   ...       0.04
freq.     913.95  E(vib)   ...       0.03
freq.     968.61  E(vib)   ...       0.03
freq.    1002.11  E(vib)   ...       0.02
freq.    1003.99  E(vib)   ...       0.02
freq.    1045.28  E(vib)   ...       0.02
freq.    1098.43  E(vib)   ...       0.02
freq.    1128.26  E(vib)   ...       0.01
freq.    1148.29  E(vib)   ...       0.01
freq.    1183.65  E(vib)   ...       0.01
freq.    1258.25  E(vib)   ...       0.01
freq.    1280.34  E(vib)   ...       0.01
freq.    1366.27  E(vib)   ...       0.01
freq.    1390.57  E(vib)   ...       0.00
freq.    1445.34  E(vib)   ...       0.00
freq.    1453.02  E(vib)   ...       0.00
freq.    1499.22  E(vib)   ...       0.00
freq.    1587.27  E(vib)   ...       0.00
freq.    1653.22  E(vib)   ...       0.00
freq.    3197.63  E(vib)   ...       0.00
freq.    3206.62  E(vib)   ...       0.00
freq.    3216.67  E(vib)   ...       0.00
freq.    3222.75  E(vib)   ...       0.00
freq.    3253.43  E(vib)   ...       0.00
freq.    3265.80  E(vib)   ...       0.00

------------
INNER ENERGY
------------

The inner energy is: U= E(el) + E(ZPE) + E(vib) + E(rot) + E(trans)
    E(el)   - is the total energy from the electronic structure calculation
              = E(kin-el) + E(nuc-el) + E(el-el) + E(nuc-nuc)
    E(ZPE)  - the the zero temperature vibrational energy from the frequency calculation
    E(vib)  - the the finite temperature correction to E(ZPE) due to population
              of excited vibrational states
    E(rot)  - is the rotational thermal energy
    E(trans)- is the translational thermal energy

Summary of contributions to the inner energy U:
Electronic energy                ...   -383.64895524 Eh
Zero point energy                ...      0.11565669 Eh      72.58 kcal/mol
Thermal vibrational correction   ...      0.00345647 Eh       2.17 kcal/mol
Thermal rotational correction    ...      0.00141627 Eh       0.89 kcal/mol
Thermal translational correction ...      0.00141627 Eh       0.89 kcal/mol
-----------------------------------------------------------------------
Total thermal energy                   -383.52700953 Eh

Summary of corrections to the electronic energy:
(perhaps to be used in another calculation)
Total thermal correction                  0.00628902 Eh       3.95 kcal/mol
Non-thermal (ZPE) correction              0.11565669 Eh      72.58 kcal/mol
-----------------------------------------------------------------------
Total correction                          0.12194570 Eh      76.52 kcal/mol

--------
ENTHALPY
--------

The enthalpy is H = U + kB*T
                kB is Boltzmann's constant
Total thermal energy              ...   -383.52700953 Eh
Thermal Enthalpy correction       ...      0.00094421 Eh       0.59 kcal/mol
-----------------------------------------------------------------------
Total Enthalpy                    ...   -383.52606532 Eh

Note: Only C1 symmetry has been detected, increase convergence thresholds
      if your molecule has a higher symmetry. Symmetry factor of 1.0 is
      used for the rotational entropy correction.

Note: Rotational entropy computed according to Herzberg
Infrared and Raman Spectra, Chapter V,1, Van Nostrand Reinhold, 1945
Point Group:  C1, Symmetry Number:   1
Rotational constants in cm-1:     0.129804     0.055894     0.039070

Vibrational entropy computed according to the QRRHO of S. Grimme
Chem.Eur.J. 2012 18 9955 using a reference frequency of 100.0 cm-1

-------
ENTROPY
-------

The entropy contributions are T*S = T*(S(el)+S(vib)+S(rot)+S(trans))
     S(el)   - electronic entropy
     S(vib)  - vibrational entropy
     S(rot)  - rotational entropy
     S(trans)- translational entropy
The entropies will be listed as multiplied by the temperature to get
units of energy

Electronic entropy                ...      0.00065446 Eh      0.41 kcal/mol
Vibrational entropy               ...      0.00519235 Eh      3.26 kcal/mol
Rotational entropy                ...      0.01336704 Eh      8.39 kcal/mol
Translational entropy             ...      0.01910727 Eh     11.99 kcal/mol
-----------------------------------------------------------------------
Final entropy term                ...      0.03832112 Eh     24.05 kcal/mol

In case the symmetry of your molecule has not been determined correctly
or in case you have a reason to use a different symmetry number we print
out the resulting rotational entropy values for sn=1,12:

 non-linear molecules -----------------------------------
|  sn= 1 | S(rot)=       0.01336704 Eh      8.39 kcal/mol|
|  sn= 2 | S(rot)=       0.01271258 Eh      7.98 kcal/mol|
|  sn= 3 | S(rot)=       0.01232975 Eh      7.74 kcal/mol|
|  sn= 4 | S(rot)=       0.01205813 Eh      7.57 kcal/mol|
|  sn= 5 | S(rot)=       0.01184744 Eh      7.43 kcal/mol|
|  sn= 6 | S(rot)=       0.01167529 Eh      7.33 kcal/mol|
|  sn= 7 | S(rot)=       0.01152975 Eh      7.24 kcal/mol|
|  sn= 8 | S(rot)=       0.01140367 Eh      7.16 kcal/mol|
|  sn= 9 | S(rot)=       0.01129246 Eh      7.09 kcal/mol|
|  sn=10 | S(rot)=       0.01119298 Eh      7.02 kcal/mol|
|  sn=11 | S(rot)=       0.01110299 Eh      6.97 kcal/mol|
|  sn=12 | S(rot)=       0.01102084 Eh      6.92 kcal/mol|
 linear molecules ---------------------------------------
|  Dinfh | S(rot)=       0.00838721 Eh      5.26 kcal/mol|
|  Cinfv | S(rot)=       0.00904166 Eh      5.67 kcal/mol|
 --------------------------------------------------------

-------------------
GIBBS FREE ENERGY

                             ****ORCA TERMINATED NORMALLY****
TOTAL RUN TIME: 0 days 0 hours 46 minutes 50 seconds 365 msec
