                         Program Version 6.0.0  -   RELEASE  -
|  1> !r2SCANh aug-cc-pVTZ d3 TightSCF SlowConv RIJCOSX defgrid2
|  2>
|  3> %pal
|  4> nprocs 4
|  5> end
|  6>
|  7> %scf
|  8> MaxIter 1500
|  9> end
| 10>
| 11> %maxcore 3000
| 12>
| 13> !CPCM
| 14> %cpcm smd true
| 15> SMDsolvent "MeCN"
| 16> surfacetype gepol_ses
| 17> rsolv 2.19
| 18> end
| 19>
| 20> * xyz -1 2
| 21> C           0.68315502285048     -1.23058998559791     -0.00197785400563
| 22> C          -0.69097039389614     -1.22820808682412     -0.00110778792906
| 23> C          -1.39878915837568      0.00192561974512      0.00006123035750
| 24> C          -0.67088260295619      1.21697689217912      0.00034729291936
| 25> C           0.70599002665524      1.19710781410292     -0.00056169847882
| 26> C           1.43890972865005     -0.02356673016238     -0.00174160392592
| 27> C           2.88835051512998     -0.09555430971111     -0.00265662366589
| 28> O           3.51113560358604     -1.16132419888811     -0.00429988492646
| 29> C           3.67215429347512      1.21312233920081     -0.00319382492201
| 30> H           3.44490427270519      1.82862721041062      0.88658626511100
| 31> H           4.74564035342603      0.96713680695522     -0.00513239151038
| 32> H           3.44193148262032      1.82994436135706     -0.89128425723845
| 33> H           1.24130264942652      2.15210104681416     -0.00032125400509
| 34> H          -1.23634900308120      2.15002194871812      0.00128004669295
| 35> N          -2.79949677516438      0.01738261553575      0.00104508920787
| 36> O          -3.38660343043673      1.11542368371417      0.00320409549424
| 37> O          -3.41030224545591     -1.06695584054066      0.00182719273433
| 38> H          -1.27295707729704     -2.15125183977829     -0.00128101747157
| 39> H           1.24384223813830     -2.16976914723049     -0.00287851443797
| 40> *
| 41>
| 42>                          ****END OF INPUT****

CARTESIAN COORDINATES (ANGSTROEM)
---------------------------------
  C      0.683155   -1.230590   -0.001978
  C     -0.690970   -1.228208   -0.001108
  C     -1.398789    0.001926    0.000061
  C     -0.670883    1.216977    0.000347
  C      0.705990    1.197108   -0.000562
  C      1.438910   -0.023567   -0.001742
  C      2.888351   -0.095554   -0.002657
  O      3.511136   -1.161324   -0.004300
  C      3.672154    1.213122   -0.003194
  H      3.444904    1.828627    0.886586
  H      4.745640    0.967137   -0.005132
  H      3.441931    1.829944   -0.891284
  H      1.241303    2.152101   -0.000321
  H     -1.236349    2.150022    0.001280
  N     -2.799497    0.017383    0.001045
  O     -3.386603    1.115424    0.003204
  O     -3.410302   -1.066956    0.001827
  H     -1.272957   -2.151252   -0.001281
  H      1.243842   -2.169769   -0.002879

 Total Charge           Charge          ....   -1
 Multiplicity           Mult            ....    2
 Number of Electrons    NEL             ....   87
 Basis Dimension        Dim             ....  713

ORBITAL ENERGIES
----------------
                 SPIN UP ORBITALS
  NO   OCC          E(Eh)            E(eV)
   0   1.0000     -19.088192      -519.4161
   1   1.0000     -19.088102      -519.4137
   2   1.0000     -19.078999      -519.1660
   3   1.0000     -14.468690      -393.7131
   4   1.0000     -10.219855      -278.0964
   5   1.0000     -10.184646      -277.1383
   6   1.0000     -10.157650      -276.4037
   7   1.0000     -10.153801      -276.2990
   8   1.0000     -10.153259      -276.2842
   9   1.0000     -10.153179      -276.2820
  10   1.0000     -10.152161      -276.2544
  11   1.0000     -10.138748      -275.8894
  12   1.0000      -1.170261       -31.8444
  13   1.0000      -1.016348       -27.6562
  14   1.0000      -0.992248       -27.0004
  15   1.0000      -0.857592       -23.3363
  16   1.0000      -0.786793       -21.4097
  17   1.0000      -0.743153       -20.2222
  18   1.0000      -0.722647       -19.6642
  19   1.0000      -0.675956       -18.3937
  20   1.0000      -0.590243       -16.0613
  21   1.0000      -0.578515       -15.7422
  22   1.0000      -0.531259       -14.4563
  23   1.0000      -0.507062       -13.7979
  24   1.0000      -0.487388       -13.2625
  25   1.0000      -0.468378       -12.7452
  26   1.0000      -0.453246       -12.3335
  27   1.0000      -0.432282       -11.7630
  28   1.0000      -0.422627       -11.5003
  29   1.0000      -0.417637       -11.3645
  30   1.0000      -0.402674       -10.9573
  31   1.0000      -0.385327       -10.4853
  32   1.0000      -0.380555       -10.3554
  33   1.0000      -0.359958        -9.7950
  34   1.0000      -0.350065        -9.5257
  35   1.0000      -0.333104        -9.0642
  36   1.0000      -0.312661        -8.5079
  37   1.0000      -0.274876        -7.4798
  38   1.0000      -0.261820        -7.1245
  39   1.0000      -0.254675        -6.9301
  40   1.0000      -0.251900        -6.8546
  41   1.0000      -0.234362        -6.3773
  42   1.0000      -0.225790        -6.1440
  43   1.0000      -0.128981        -3.5097
  44   0.0000      -0.045294        -1.2325
  45   0.0000      -0.016820        -0.4577
  46   0.0000       0.008522         0.2319
  47   0.0000       0.022268         0.6059
  48   0.0000       0.025740         0.7004

                 SPIN DOWN ORBITALS
  NO   OCC          E(Eh)            E(eV)
   0   1.0000     -19.083077      -519.2769
   1   1.0000     -19.083071      -519.2768
   2   1.0000     -19.075541      -519.0719
   3   1.0000     -14.463175      -393.5630
   4   1.0000     -10.218965      -278.0722
   5   1.0000     -10.183249      -277.1003
   6   1.0000     -10.158136      -276.4169
   7   1.0000     -10.153904      -276.3018
   8   1.0000     -10.152110      -276.2530
   9   1.0000     -10.151740      -276.2429
  10   1.0000     -10.149193      -276.1736
  11   1.0000     -10.138838      -275.8918
  12   1.0000      -1.161649       -31.6101
  13   1.0000      -1.010814       -27.5056
  14   1.0000      -0.984393       -26.7867
  15   1.0000      -0.853683       -23.2299
  16   1.0000      -0.779124       -21.2010
  17   1.0000      -0.740346       -20.1458
  18   1.0000      -0.718539       -19.5524
  19   1.0000      -0.668884       -18.2013
  20   1.0000      -0.589691       -16.0463
  21   1.0000      -0.573179       -15.5970
  22   1.0000      -0.528967       -14.3939
  23   1.0000      -0.501431       -13.6446
  24   1.0000      -0.464215       -12.6319
  25   1.0000      -0.459547       -12.5049
  26   1.0000      -0.450964       -12.2713
  27   1.0000      -0.429610       -11.6903
  28   1.0000      -0.421165       -11.4605
  29   1.0000      -0.410565       -11.1720
  30   1.0000      -0.402049       -10.9403
  31   1.0000      -0.383743       -10.4422
  32   1.0000      -0.379492       -10.3265
  33   1.0000      -0.352354        -9.5880
  34   1.0000      -0.348918        -9.4946
  35   1.0000      -0.321593        -8.7510
  36   1.0000      -0.312050        -8.4913
  37   1.0000      -0.257164        -6.9978
  38   1.0000      -0.251637        -6.8474
  39   1.0000      -0.240217        -6.5366
  40   1.0000      -0.235165        -6.3992
  41   1.0000      -0.229877        -6.2553
  42   1.0000      -0.222841        -6.0638
  43   0.0000      -0.080625        -2.1939
  44   0.0000      -0.018194        -0.4951
  45   0.0000      -0.014053        -0.3824
  46   0.0000       0.009829         0.2675
  47   0.0000       0.023317         0.6345

MULLIKEN ATOMIC CHARGES AND SPIN POPULATIONS
--------------------------------------------
   0 C :   -0.928273   -0.039299
   1 C :   -0.356223    0.115988
   2 C :    0.517612   -0.002186
   3 C :   -0.601866    0.124163
   4 C :   -0.423045   -0.041562
   5 C :    1.382059    0.224837
   6 C :    0.658373    0.043418
   7 O :   -1.023081    0.111159
   8 C :   -0.616423   -0.018811
   9 H :    0.245455    0.006867
  10 H :    0.162459   -0.002039
  11 H :    0.244793    0.006880
  12 H :   -0.089428   -0.007737
  13 H :    0.439191    0.001324
  14 N :    0.570357    0.147621
  15 O :   -0.814025    0.169661
  16 O :   -0.813920    0.172625
  17 H :    0.484554   -0.001470
  18 H :   -0.038568   -0.011440
Sum of atomic charges         :   -1.0000000

LOEWDIN ATOMIC CHARGES AND SPIN POPULATIONS
-------------------------------------------
   0 C :    0.170244    0.024902
   1 C :    0.176447    0.050619
   2 C :   -0.301464    0.075702
   3 C :    0.178681    0.055007
   4 C :    0.181729    0.026981
   5 C :   -0.165986    0.094006
   6 C :   -0.601662    0.070467
   7 O :    0.426385    0.092408
   8 C :    0.545490    0.009183
   9 H :   -0.166203    0.002207
  10 H :   -0.189076   -0.000235
  11 H :   -0.166223    0.002205
  12 H :   -0.186721   -0.000407
  13 H :   -0.211268    0.010697
  14 N :   -0.851734    0.172351
  15 O :    0.283982    0.151334
  16 O :    0.283990    0.153613
  17 H :   -0.211635    0.009684
  18 H :   -0.194975   -0.000725

  Mayer bond orders larger than 0.100000
B(  0-C ,  1-C ) :   1.4173 B(  0-C ,  2-C ) :  -0.3618 B(  0-C ,  3-C ) :  -0.1122
B(  0-C ,  4-C ) :  -0.4861 B(  0-C ,  6-C ) :   0.3385 B(  0-C , 12-H ) :   0.1025
B(  0-C , 16-O ) :  -0.1315 B(  0-C , 18-H ) :   1.3581 B(  1-C ,  2-C ) :   0.7688
B(  1-C ,  3-C ) :   0.1492 B(  1-C ,  4-C ) :  -0.2379 B(  1-C ,  5-C ) :   0.2940
B(  1-C , 14-N ) :  -0.1789 B(  1-C , 17-H ) :   0.3855 B(  1-C , 18-H ) :  -0.1000
B(  2-C ,  3-C ) :   0.6215 B(  2-C ,  4-C ) :  -0.3021 B(  2-C , 14-N ) :   1.3739
B(  2-C , 15-O ) :   0.4012 B(  2-C , 16-O ) :   0.4105 B(  3-C ,  4-C ) :   0.9778
B(  3-C ,  5-C ) :   0.3332 B(  3-C , 13-H ) :   0.4430 B(  3-C , 14-N ) :  -0.2553
B(  4-C ,  5-C ) :   0.2876 B(  4-C ,  6-C ) :   0.2334 B(  4-C , 12-H ) :   1.5755
B(  4-C , 15-O ) :  -0.1198 B(  5-C ,  6-C ) :   0.3065 B(  5-C ,  7-O ) :   0.2639
B(  5-C , 12-H ) :  -0.2866 B(  5-C , 18-H ) :  -0.2029 B(  6-C ,  7-O ) :   0.7165
B(  6-C ,  8-C ) :   0.9344 B(  7-O , 18-H ) :   0.1549 B(  8-C ,  9-H ) :   0.9627
B(  8-C , 10-H ) :   0.9609 B(  8-C , 11-H ) :   0.9628 B( 14-N , 15-O ) :   0.8470
B( 14-N , 16-O ) :   0.8435

Dispersion correction           -0.006582556
FINAL SINGLE POINT ENERGY      -589.424340383185

DIPOLE MOMENT
-------------

Method             : SCF
Type of density    : Electron Density
Multiplicity       :   2
Irrep              :   0
Energy             :  -589.4177578268592015 Eh
Relativity type    :
Basis              : AO
                                X                 Y                 Z
Electronic contribution:     -8.136858964      -2.991705539       0.005507468
Nuclear contribution   :     10.845568770       4.317310741      -0.007525614
                        -----------------------------------------
Total Dipole Moment    :      2.708709806       1.325605202      -0.002018147
                        -----------------------------------------
Magnitude (a.u.)       :      3.015682682
Magnitude (Debye)      :      7.665256210

Rotational constants in cm-1:             0.095337             0.015839             0.013617
Rotational constants in MHz :          2858.135441           474.832890           408.233574

                             ****ORCA TERMINATED NORMALLY****
TOTAL RUN TIME: 0 days 0 hours 9 minutes 32 seconds 521 msec
