                         Program Version 6.0.0  -   RELEASE  -
|  1> !TPSSh freq aug-cc-pVTZ d3 TightSCF SlowConv RIJCOSX defgrid2
|  2>
|  3> %pal
|  4> nprocs 12
|  5> end
|  6>
|  7> %scf
|  8> MaxIter 1500
|  9> end
| 10>
| 11> %maxcore 5000
| 12>
| 13> !CPCM
| 14> %cpcm smd true
| 15> SMDsolvent "MeCN"
| 16> surfacetype gepol_ses
| 17> rsolv 2.19
| 18> end
| 19>
| 20> * xyz 1 2
| 21> C          -0.70994040898070     -1.06416257760760     -0.00265035451494
| 22> C          -1.29205852118771      0.23225838633280     -0.00053004430186
| 23> C          -0.48116813333198      1.40490164792468     -0.00100282865652
| 24> C           0.87466157221936      1.28483036921806     -0.00122965432984
| 25> C           1.47236929299488     -0.00910849305216     -0.00136143982248
| 26> C           0.64929322587200     -1.17515524817193     -0.00284058414304
| 27> H           1.11957979135697     -2.14838194130335     -0.00364014089303
| 28> C           2.85973824987772     -0.14092903569354      0.00067849788463
| 29> C           4.06803901661786     -0.25837344366504      0.00261189474658
| 30> H           5.13160808688096     -0.35852305822693      0.00390699298022
| 31> H           1.50874898919476      2.15984529170656     -0.00142739758628
| 32> H          -0.96882085050496      2.37008443158973     -0.00015683424010
| 33> O          -2.58482418641173      0.44924168011193      0.00215167346227
| 34> C          -3.51699878601443     -0.66918348652232      0.00206814916743
| 35> H          -4.49810287303142     -0.20700471542445     -0.00027140713665
| 36> H          -3.36541475756194     -1.26446564635628     -0.89656269374364
| 37> H          -3.36867446339728     -1.26218876836824      0.90290290135767
| 38> H          -1.33229064459235     -1.94620329249193     -0.00244473023042
| 39> *
| 40>
| 41>                          ****END OF INPUT****

CARTESIAN COORDINATES (ANGSTROEM)
---------------------------------
  C     -0.709940   -1.064163   -0.002650
  C     -1.292059    0.232258   -0.000530
  C     -0.481168    1.404902   -0.001003
  C      0.874662    1.284830   -0.001230
  C      1.472369   -0.009108   -0.001361
  C      0.649293   -1.175155   -0.002841
  H      1.119580   -2.148382   -0.003640
  C      2.859738   -0.140929    0.000678
  C      4.068039   -0.258373    0.002612
  H      5.131608   -0.358523    0.003907
  H      1.508749    2.159845   -0.001427
  H     -0.968821    2.370084   -0.000157
  O     -2.584824    0.449242    0.002152
  C     -3.516999   -0.669183    0.002068
  H     -4.498103   -0.207005   -0.000271
  H     -3.365415   -1.264466   -0.896563
  H     -3.368674   -1.262189    0.902903
  H     -1.332291   -1.946203   -0.002445

 Total Charge           Charge          ....    1
 Multiplicity           Mult            ....    2
 Number of Electrons    NEL             ....   69
 Basis Dimension        Dim             ....  644

ORBITAL ENERGIES
----------------
                 SPIN UP ORBITALS
  NO   OCC          E(Eh)            E(eV)
   0   1.0000     -19.159061      -521.3446
   1   1.0000     -10.246174      -278.8126
   2   1.0000     -10.202734      -277.6305
   3   1.0000     -10.183062      -277.0952
   4   1.0000     -10.169398      -276.7234
   5   1.0000     -10.165792      -276.6253
   6   1.0000     -10.164694      -276.5954
   7   1.0000     -10.163465      -276.5619
   8   1.0000     -10.163340      -276.5585
   9   1.0000     -10.158711      -276.4326
  10   1.0000      -1.115555       -30.3558
  11   1.0000      -0.891785       -24.2667
  12   1.0000      -0.814063       -22.1518
  13   1.0000      -0.784590       -21.3498
  14   1.0000      -0.761410       -20.7190
  15   1.0000      -0.720112       -19.5953
  16   1.0000      -0.645282       -17.5590
  17   1.0000      -0.629228       -17.1222
  18   1.0000      -0.571564       -15.5530
  19   1.0000      -0.549177       -14.9439
  20   1.0000      -0.517947       -14.0940
  21   1.0000      -0.515352       -14.0235
  22   1.0000      -0.498056       -13.5528
  23   1.0000      -0.464303       -12.6343
  24   1.0000      -0.451096       -12.2749
  25   1.0000      -0.433483       -11.7957
  26   1.0000      -0.419781       -11.4228
  27   1.0000      -0.416728       -11.3398
  28   1.0000      -0.388238       -10.5645
  29   1.0000      -0.382706       -10.4140
  30   1.0000      -0.351373        -9.5614
  31   1.0000      -0.327151        -8.9022
  32   1.0000      -0.306529        -8.3411
  33   1.0000      -0.296885        -8.0787
  34   1.0000      -0.258506        -7.0343
  35   0.0000      -0.092795        -2.5251
  36   0.0000      -0.062471        -1.6999
  37   0.0000      -0.009886        -0.2690
  38   0.0000      -0.007709        -0.2098
  39   0.0000       0.003763         0.1024

                 SPIN DOWN ORBITALS
  NO   OCC          E(Eh)            E(eV)
   0   1.0000     -19.153599      -521.1959
   1   1.0000     -10.243849      -278.7493
   2   1.0000     -10.197778      -277.4957
   3   1.0000     -10.183225      -277.0996
   4   1.0000     -10.169589      -276.7286
   5   1.0000     -10.165440      -276.6157
   6   1.0000     -10.162156      -276.5263
   7   1.0000     -10.161599      -276.5112
   8   1.0000     -10.161331      -276.5039
   9   1.0000     -10.159215      -276.4463
  10   1.0000      -1.106467       -30.1085
  11   1.0000      -0.885630       -24.0992
  12   1.0000      -0.806944       -21.9581
  13   1.0000      -0.782699       -21.2983
  14   1.0000      -0.754471       -20.5302
  15   1.0000      -0.713837       -19.4245
  16   1.0000      -0.641356       -17.4522
  17   1.0000      -0.625705       -17.0263
  18   1.0000      -0.568951       -15.4820
  19   1.0000      -0.546129       -14.8609
  20   1.0000      -0.515401       -14.0248
  21   1.0000      -0.513309       -13.9678
  22   1.0000      -0.481713       -13.1081
  23   1.0000      -0.461967       -12.5708
  24   1.0000      -0.450348       -12.2546
  25   1.0000      -0.432000       -11.7553
  26   1.0000      -0.415735       -11.3127
  27   1.0000      -0.405774       -11.0417
  28   1.0000      -0.386849       -10.5267
  29   1.0000      -0.365356        -9.9418
  30   1.0000      -0.348806        -9.4915
  31   1.0000      -0.305095        -8.3021
  32   1.0000      -0.303136        -8.2487
  33   1.0000      -0.291405        -7.9295
  34   0.0000      -0.205957        -5.6044
  35   0.0000      -0.070371        -1.9149
  36   0.0000      -0.052320        -1.4237
  37   0.0000      -0.007774        -0.2115
  38   0.0000      -0.007005        -0.1906

MULLIKEN ATOMIC CHARGES AND SPIN POPULATIONS
--------------------------------------------
   0 C :   -0.081241    0.071718
   1 C :    1.140555    0.162651
   2 C :   -0.505960    0.084343
   3 C :   -0.823323   -0.069053
   4 C :    1.245092    0.362758
   5 C :   -0.900478   -0.022755
   6 H :   -0.244102   -0.000323
   7 C :    1.269522   -0.110810
   8 C :   -0.554793    0.339906
   9 H :    0.103177   -0.005741
  10 H :   -0.219950   -0.000070
  11 H :    0.475240    0.000952
  12 O :   -0.657945    0.175604
  13 C :   -0.237022   -0.013884
  14 H :    0.060715    0.001507
  15 H :    0.235493    0.008151
  16 H :    0.234216    0.008254
  17 H :    0.460803    0.006790
Sum of atomic charges         :    1.0000000

LOEWDIN ATOMIC CHARGES AND SPIN POPULATIONS
-------------------------------------------
   0 C :    0.286811    0.070307
   1 C :   -0.328988    0.128650
   2 C :    0.281318    0.074939
   3 C :    0.261469    0.032784
   4 C :   -0.149757    0.141964
   5 C :    0.271483    0.048021
   6 H :   -0.143017    0.000233
   7 C :    0.056752    0.072971
   8 C :    0.510735    0.188713
   9 H :   -0.242168    0.043638
  10 H :   -0.146070   -0.003545
  11 H :   -0.149563    0.010759
  12 O :    0.666580    0.155620
  13 C :    0.463218    0.016888
  14 H :   -0.162427   -0.000324
  15 H :   -0.154625    0.004367
  16 H :   -0.153985    0.004393
  17 H :   -0.167768    0.009621

  Mayer bond orders larger than 0.100000
B(  0-C ,  1-C ) :   0.9664 B(  0-C ,  2-C ) :   0.1041 B(  0-C ,  4-C ) :   0.4400
B(  0-C ,  5-C ) :   1.5001 B(  0-C ,  7-C ) :  -0.1081 B(  0-C ,  8-C ) :  -0.1277
B(  0-C , 17-H ) :   0.4139 B(  1-C ,  2-C ) :   0.8566 B(  1-C ,  3-C ) :  -0.3515
B(  1-C ,  4-C ) :  -0.1846 B(  1-C ,  5-C ) :  -0.3226 B(  1-C ,  7-C ) :   0.2786
B(  1-C , 11-H ) :   0.1863 B(  1-C , 12-O ) :   0.2758 B(  1-C , 13-C ) :   0.1068
B(  1-C , 17-H ) :   0.1609 B(  2-C ,  3-C ) :   1.7146 B(  2-C ,  4-C ) :   0.3583
B(  2-C , 11-H ) :   0.3652 B(  2-C , 12-O ) :   0.3563 B(  3-C ,  4-C ) :   0.5180
B(  3-C ,  5-C ) :  -0.4002 B(  3-C ,  6-H ) :   0.1320 B(  3-C ,  7-C ) :   0.2687
B(  3-C , 10-H ) :   1.6096 B(  4-C ,  5-C ) :   0.5026 B(  4-C ,  7-C ) :   0.1273
B(  4-C ,  8-C ) :   0.5727 B(  4-C , 10-H ) :   0.2051 B(  4-C , 12-O ) :   0.1235
B(  5-C ,  6-H ) :   1.7436 B(  5-C ,  7-C ) :   0.2142 B(  5-C , 10-H ) :   0.1206
B(  5-C , 17-H ) :  -0.1035 B(  6-H ,  7-C ) :  -0.2330 B(  6-H ,  8-C ) :  -0.2427
B(  6-H , 10-H ) :   0.3772 B(  7-C ,  8-C ) :   1.5150 B(  7-C ,  9-H ) :  -0.4116
B(  7-C , 10-H ) :  -0.3070 B(  8-C ,  9-H ) :   1.4516 B(  8-C , 10-H ) :  -0.2290
B(  8-C , 11-H ) :   0.1044 B(  8-C , 17-H ) :   0.1906 B( 12-O , 13-C ) :   0.9076
B( 13-C , 14-H ) :   1.0734 B( 13-C , 15-H ) :   0.8997 B( 13-C , 16-H ) :   0.9003

Dispersion correction           -0.021389196
FINAL SINGLE POINT ENERGY      -422.919661215315

DIPOLE MOMENT
-------------

Method             : SCF
Type of density    : Electron Density
Multiplicity       :   2
Irrep              :   0
Energy             :  -422.8982720195856473 Eh
Relativity type    :
Basis              : AO
                                X                 Y                 Z
Electronic contribution:      5.139664133       1.786074510      -0.002783186
Nuclear contribution   :     -5.452173866      -2.472618942       0.003013772
                        -----------------------------------------
Total Dipole Moment    :     -0.312509733      -0.686544432       0.000230586
                        -----------------------------------------
Magnitude (a.u.)       :      0.754324627
Magnitude (Debye)      :      1.917340829

VIBRATIONAL FREQUENCIES
-----------------------

Scaling factor for frequencies =  1.000000000  (already applied!)

     0:       0.00 cm**-1
     1:       0.00 cm**-1
     2:       0.00 cm**-1
     3:       0.00 cm**-1
     4:       0.00 cm**-1
     5:       0.00 cm**-1
     6:      42.11 cm**-1
     7:     113.34 cm**-1
     8:     122.49 cm**-1
     9:     130.73 cm**-1
    10:     232.27 cm**-1
    11:     235.72 cm**-1
    12:     373.14 cm**-1
    13:     377.61 cm**-1
    14:     393.32 cm**-1
    15:     489.06 cm**-1
    16:     521.38 cm**-1
    17:     525.91 cm**-1
    18:     611.71 cm**-1
    19:     650.18 cm**-1
    20:     669.68 cm**-1
    21:     696.83 cm**-1
    22:     750.00 cm**-1
    23:     777.68 cm**-1
    24:     811.87 cm**-1
    25:     858.46 cm**-1
    26:     971.86 cm**-1
    27:     988.80 cm**-1
    28:     991.01 cm**-1
    29:     995.50 cm**-1
    30:    1124.21 cm**-1
    31:    1154.09 cm**-1
    32:    1174.82 cm**-1
    33:    1196.86 cm**-1
    34:    1249.45 cm**-1
    35:    1298.97 cm**-1
    36:    1341.69 cm**-1
    37:    1357.45 cm**-1
    38:    1453.07 cm**-1
    39:    1473.23 cm**-1
    40:    1477.17 cm**-1
    41:    1479.90 cm**-1
    42:    1508.04 cm**-1
    43:    1514.76 cm**-1
    44:    1645.75 cm**-1
    45:    2097.85 cm**-1
    46:    3059.97 cm**-1
    47:    3149.73 cm**-1
    48:    3186.44 cm**-1
    49:    3205.53 cm**-1
    50:    3209.53 cm**-1
    51:    3219.05 cm**-1
    52:    3228.44 cm**-1
    53:    3410.36 cm**-1

IR SPECTRUM
-----------

 Mode   freq       eps      Int      T**2         TX        TY        TZ
       cm**-1   L/(mol*cm) km/mol    a.u.
----------------------------------------------------------------------------
  6:     42.11   0.000235    1.19  0.001738  (-0.000635 -0.001724  0.041654)
  7:    113.34   0.000286    1.45  0.000787  ( 0.005254 -0.006783 -0.026717)
  8:    122.49   0.000656    3.31  0.001671  (-0.011552  0.038913 -0.004799)
  9:    130.73   0.000094    0.47  0.000223  (-0.001112  0.000710 -0.014882)
 10:    232.27   0.003370   17.03  0.004527  (-0.000381 -0.000238 -0.067284)
 11:    235.72   0.001725    8.72  0.002284  (-0.047590 -0.004280 -0.000680)
 12:    373.14   0.000568    2.87  0.000475  ( 0.000855 -0.000335 -0.021773)
 13:    377.61   0.000010    0.05  0.000008  ( 0.002584  0.001255 -0.000369)
 14:    393.32   0.001081    5.46  0.000857  (-0.000232 -0.000249  0.029278)
 15:    489.06   0.003998   20.20  0.002551  (-0.040852  0.029696  0.000477)
 16:    521.38   0.001341    6.78  0.000803  ( 0.019956  0.020064 -0.001375)
 17:    525.91   0.002760   13.95  0.001638  (-0.000538 -0.000981 -0.040456)
 18:    611.71   0.001496    7.56  0.000763  (-0.013029 -0.024357  0.000526)
 19:    650.18   0.013762   69.55  0.006605  (-0.007231 -0.080453  0.008952)
 20:    669.68   0.008872   44.83  0.004134  (-0.000241 -0.011194 -0.063315)
 21:    696.83   0.008838   44.67  0.003958  (-0.060412  0.017566  0.000260)
 22:    750.00   0.000105    0.53  0.000044  ( 0.000087  0.000115  0.006605)
 23:    777.68   0.000093    0.47  0.000037  (-0.000399  0.000360 -0.006076)
 24:    811.87   0.002741   13.85  0.001054  ( 0.029842  0.012768  0.000141)
 25:    858.46   0.024709  124.87  0.008982  (-0.000551  0.000224  0.094772)
 26:    971.86   0.019739   99.75  0.006338  (-0.066463 -0.043826  0.000013)
 27:    988.80   0.014508   73.32  0.004579  ( 0.067561  0.003758 -0.000297)
 28:    991.01   0.000216    1.09  0.000068  ( 0.006993  0.000491  0.004348)
 29:    995.50   0.000029    0.15  0.000009  ( 0.000634  0.000582 -0.002898)
 30:   1124.21   0.004665   23.57  0.001295  ( 0.005947  0.035489  0.000156)
 31:   1154.09   0.000181    0.91  0.000049  ( 0.000889 -0.000465  0.006919)
 32:   1174.82   0.003142   15.88  0.000835  ( 0.027504  0.008837 -0.000181)
 33:   1196.86   0.001001    5.06  0.000261  (-0.016149  0.000462 -0.000079)
 34:   1249.45   0.023831  120.43  0.005952  (-0.077141  0.001127 -0.000047)
 35:   1298.97   0.000302    1.53  0.000073  (-0.006309  0.005720  0.000003)
 36:   1341.69   0.044433  224.55  0.010335  ( 0.097740  0.027957  0.000012)
 37:   1357.45   0.075069  379.37  0.017258  (-0.129890  0.019652  0.000058)
 38:   1453.07   0.050254  253.96  0.010793  (-0.100641  0.025768  0.000048)
 39:   1473.23   0.001025    5.18  0.000217  ( 0.010711 -0.010029  0.001307)
 40:   1477.17   0.016304   82.39  0.003444  ( 0.056884  0.011313  0.008976)
 41:   1479.90   0.005851   29.57  0.001234  ( 0.020688  0.003442 -0.028176)
 42:   1508.04   0.005284   26.70  0.001093  (-0.000907 -0.033053 -0.000190)
 43:   1514.76   0.115715  584.78  0.023839  (-0.154028  0.010702 -0.000079)
 44:   1645.75   0.002958   14.95  0.000561  ( 0.023478  0.003121 -0.000062)
 45:   2097.85   0.205069  1036.33  0.030505  ( 0.174245 -0.011977  0.000092)
 46:   3059.97   0.003396   17.16  0.000346  (-0.016169 -0.009211 -0.000233)
 47:   3149.73   0.001389    7.02  0.000138  ( 0.000697  0.000488  0.011698)
 48:   3186.44   0.003619   18.29  0.000354  (-0.018573  0.003071  0.000055)
 49:   3205.53   0.000221    1.12  0.000022  (-0.002611 -0.003834 -0.000141)
 50:   3209.53   0.000020    0.10  0.000002  (-0.000516  0.001288 -0.000053)
 51:   3219.05   0.000276    1.39  0.000027  (-0.003791 -0.003517 -0.000065)
 52:   3228.44   0.000699    3.53  0.000068  (-0.002322  0.007883  0.000058)
 53:   3410.36   0.015832   80.01  0.001449  ( 0.037883 -0.003691  0.000005)

--------------------------
THERMOCHEMISTRY AT 298.15K
--------------------------

Temperature         ...   298.15 K
Pressure            ...     1.00 atm
Total Mass          ...   132.16 AMU
Quasi RRHO          ...     True
Cut-Off Frequency   ...     1.00 cm^-1

Throughout the following assumptions are being made:
  (1) The electronic state is orbitally nondegenerate
      but the spin degeneracy is treated
  (2) There are no thermally accessible electronically excited states
  (3) Hindered rotations indicated by low frequency modes are not
      treated as such but are treated as vibrations and this may
      cause some error
  (4) All equations used are the standard statistical mechanics
      equations for an ideal gas
  (5) All vibrations are strictly harmonic

freq.      42.11  E(vib)   ...       0.53
freq.     113.34  E(vib)   ...       0.45
freq.     122.49  E(vib)   ...       0.43
freq.     130.73  E(vib)   ...       0.43
freq.     232.27  E(vib)   ...       0.32
freq.     235.72  E(vib)   ...       0.32
freq.     373.14  E(vib)   ...       0.21
freq.     377.61  E(vib)   ...       0.21
freq.     393.32  E(vib)   ...       0.20
freq.     489.06  E(vib)   ...       0.15
freq.     521.38  E(vib)   ...       0.13
freq.     525.91  E(vib)   ...       0.13
freq.     611.71  E(vib)   ...       0.10
freq.     650.18  E(vib)   ...       0.08
freq.     669.68  E(vib)   ...       0.08
freq.     696.83  E(vib)   ...       0.07
freq.     750.00  E(vib)   ...       0.06
freq.     777.68  E(vib)   ...       0.05
freq.     811.87  E(vib)   ...       0.05
freq.     858.46  E(vib)   ...       0.04
freq.     971.86  E(vib)   ...       0.03
freq.     988.80  E(vib)   ...       0.02
freq.     991.01  E(vib)   ...       0.02
freq.     995.50  E(vib)   ...       0.02
freq.    1124.21  E(vib)   ...       0.01
freq.    1154.09  E(vib)   ...       0.01
freq.    1174.82  E(vib)   ...       0.01
freq.    1196.86  E(vib)   ...       0.01
freq.    1249.45  E(vib)   ...       0.01
freq.    1298.97  E(vib)   ...       0.01
freq.    1341.69  E(vib)   ...       0.01
freq.    1357.45  E(vib)   ...       0.01
freq.    1453.07  E(vib)   ...       0.00
freq.    1473.23  E(vib)   ...       0.00
freq.    1477.17  E(vib)   ...       0.00
freq.    1479.90  E(vib)   ...       0.00
freq.    1508.04  E(vib)   ...       0.00
freq.    1514.76  E(vib)   ...       0.00
freq.    1645.75  E(vib)   ...       0.00
freq.    2097.85  E(vib)   ...       0.00
freq.    3059.97  E(vib)   ...       0.00
freq.    3149.73  E(vib)   ...       0.00
freq.    3186.44  E(vib)   ...       0.00
freq.    3205.53  E(vib)   ...       0.00
freq.    3209.53  E(vib)   ...       0.00
freq.    3219.05  E(vib)   ...       0.00
freq.    3228.44  E(vib)   ...       0.00
freq.    3410.36  E(vib)   ...       0.00

------------
INNER ENERGY
------------

The inner energy is: U= E(el) + E(ZPE) + E(vib) + E(rot) + E(trans)
    E(el)   - is the total energy from the electronic structure calculation
              = E(kin-el) + E(nuc-el) + E(el-el) + E(nuc-nuc)
    E(ZPE)  - the the zero temperature vibrational energy from the frequency calculation
    E(vib)  - the the finite temperature correction to E(ZPE) due to population
              of excited vibrational states
    E(rot)  - is the rotational thermal energy
    E(trans)- is the translational thermal energy

Summary of contributions to the inner energy U:
Electronic energy                ...   -422.91966122 Eh
Zero point energy                ...      0.14021445 Eh      87.99 kcal/mol
Thermal vibrational correction   ...      0.00673690 Eh       4.23 kcal/mol
Thermal rotational correction    ...      0.00141627 Eh       0.89 kcal/mol
Thermal translational correction ...      0.00141627 Eh       0.89 kcal/mol
-----------------------------------------------------------------------
Total thermal energy                   -422.76987733 Eh

Summary of corrections to the electronic energy:
(perhaps to be used in another calculation)
Total thermal correction                  0.00956944 Eh       6.00 kcal/mol
Non-thermal (ZPE) correction              0.14021445 Eh      87.99 kcal/mol
-----------------------------------------------------------------------
Total correction                          0.14978389 Eh      93.99 kcal/mol

--------
ENTHALPY
--------

The enthalpy is H = U + kB*T
                kB is Boltzmann's constant
Total thermal energy              ...   -422.76987733 Eh
Thermal Enthalpy correction       ...      0.00094421 Eh       0.59 kcal/mol
-----------------------------------------------------------------------
Total Enthalpy                    ...   -422.76893312 Eh

Note: Only C1 symmetry has been detected, increase convergence thresholds
      if your molecule has a higher symmetry. Symmetry factor of 1.0 is
      used for the rotational entropy correction.

Note: Rotational entropy computed according to Herzberg
Infrared and Raman Spectra, Chapter V,1, Van Nostrand Reinhold, 1945
Point Group:  C1, Symmetry Number:   1
Rotational constants in cm-1:     0.156283     0.024104     0.020968

Vibrational entropy computed according to the QRRHO of S. Grimme
Chem.Eur.J. 2012 18 9955 using a reference frequency of 100.0 cm-1

-------
ENTROPY
-------

The entropy contributions are T*S = T*(S(el)+S(vib)+S(rot)+S(trans))
     S(el)   - electronic entropy
     S(vib)  - vibrational entropy
     S(rot)  - rotational entropy
     S(trans)- translational entropy
The entropies will be listed as multiplied by the temperature to get
units of energy

Electronic entropy                ...      0.00065446 Eh      0.41 kcal/mol
Vibrational entropy               ...      0.01157167 Eh      7.26 kcal/mol
Rotational entropy                ...      0.01397028 Eh      8.77 kcal/mol
Translational entropy             ...      0.01926618 Eh     12.09 kcal/mol
-----------------------------------------------------------------------
Final entropy term                ...      0.04546258 Eh     28.53 kcal/mol

In case the symmetry of your molecule has not been determined correctly
or in case you have a reason to use a different symmetry number we print
out the resulting rotational entropy values for sn=1,12:

 non-linear molecules -----------------------------------
|  sn= 1 | S(rot)=       0.01397028 Eh      8.77 kcal/mol|
|  sn= 2 | S(rot)=       0.01331582 Eh      8.36 kcal/mol|
|  sn= 3 | S(rot)=       0.01293299 Eh      8.12 kcal/mol|
|  sn= 4 | S(rot)=       0.01266136 Eh      7.95 kcal/mol|
|  sn= 5 | S(rot)=       0.01245068 Eh      7.81 kcal/mol|
|  sn= 6 | S(rot)=       0.01227853 Eh      7.70 kcal/mol|
|  sn= 7 | S(rot)=       0.01213299 Eh      7.61 kcal/mol|
|  sn= 8 | S(rot)=       0.01200691 Eh      7.53 kcal/mol|
|  sn= 9 | S(rot)=       0.01189570 Eh      7.46 kcal/mol|
|  sn=10 | S(rot)=       0.01179622 Eh      7.40 kcal/mol|
|  sn=11 | S(rot)=       0.01170623 Eh      7.35 kcal/mol|

                             ****ORCA TERMINATED NORMALLY****
TOTAL RUN TIME: 0 days 1 hours 6 minutes 54 seconds 499 msec
