                         Program Version 6.0.0  -   RELEASE  -
|  1> !PBE0 def2-SV(p) Opt Freq d3 TightSCF SlowConv RIJCOSX defgrid2
|  2>
|  3> %pal
|  4> nprocs 4
|  5> end
|  6>
|  7> %scf
|  8> MaxIter 1500
|  9> end
| 10>
| 11> %maxcore 3000
| 12>
| 13>
| 14>
| 15> * xyz -1 2
| 16> C    -0.4710916    1.1996739    0.0001109
| 17> C     0.8974791    1.2130267    0.0001267
| 18> C     1.6050832    0.0102480    0.0000175
| 19> C     0.9305119   -1.2151580   -0.0000684
| 20> C    -0.4346700   -1.2253316   -0.0000562
| 21> C    -1.2081106   -0.0239414    0.0000032
| 22> C    -2.6237463   -0.0916642   -0.0000662
| 23> O    -3.2746019   -1.1873930   -0.0000276
| 24> C    -3.4077582    1.2210095   -0.0002486
| 25> H    -3.1712209    1.8101937    0.8854817
| 26> H    -3.1709074    1.8101071   -0.8859534
| 27> H    -4.4722015    0.9947012   -0.0004234
| 28> H    -0.9756606   -2.1623837   -0.0001248
| 29> H     1.4946893   -2.1385419   -0.0001501
| 30> Cl    3.3478548    0.0342340   -0.0000062
| 31> H     1.4402881    2.1491817    0.0002225
| 32> H    -0.9988580    2.1414506    0.0002072
| 33> *
| 34>
| 35>                          ****END OF INPUT****
 Total Charge           Charge          ....   -1
 Multiplicity           Mult            ....    2
 Number of Electrons    NEL             ....   81
Dispersion correction           -0.017119958
FINAL SINGLE POINT ENERGY      -843.483565955538
Dispersion correction             ... done (  0.0 sec)
Dispersion correction           -0.017013863
FINAL SINGLE POINT ENERGY      -843.486212038095
Dispersion correction             ... done (  0.1 sec)
Dispersion correction           -0.016991591
FINAL SINGLE POINT ENERGY      -843.486409552402
Dispersion correction             ... done (  0.1 sec)
Dispersion correction           -0.016989356
FINAL SINGLE POINT ENERGY      -843.486439941785
Dispersion correction             ... done (  0.1 sec)
Dispersion correction           -0.016991091
FINAL SINGLE POINT ENERGY      -843.486443618988
Dispersion correction             ... done (  0.1 sec)
                    ***********************HURRAY********************

CARTESIAN COORDINATES (ANGSTROEM)
---------------------------------
  C     -0.460591    1.204940    0.000012
  C      0.922713    1.215377    0.000072
  C      1.638851    0.005848    0.000053
  C      0.940169   -1.220824   -0.000017
  C     -0.437455   -1.228718   -0.000084
  C     -1.210823   -0.019282   -0.000079
  C     -2.641764   -0.099331   -0.000149
  O     -3.276808   -1.181932   -0.000223
  C     -3.427956    1.210495   -0.000172
  H     -3.214040    1.838311    0.888479
  H     -3.213895    1.838382   -0.888737
  H     -4.500698    0.956007   -0.000267
  H     -0.995500   -2.169415   -0.000141
  H      1.505629   -2.158841   -0.000023
  Cl     3.395417    0.020687    0.000144
  H      1.471382    2.163125    0.000140
  H     -0.987552    2.164585    0.000037

 Multiplicity           Mult            ....    2
 Number of Electrons    NEL             ....   81
 Basis Dimension        Dim             ....  158

ORBITAL ENERGIES
----------------
                 SPIN UP ORBITALS
  NO   OCC          E(Eh)            E(eV)
   0   1.0000    -101.534230     -2762.8869
   1   1.0000     -18.980159      -516.4764
   2   1.0000     -10.118630      -275.3419
   3   1.0000     -10.103696      -274.9355
   4   1.0000     -10.083868      -274.3960
   5   1.0000     -10.080740      -274.3109
   6   1.0000     -10.074462      -274.1400
   7   1.0000     -10.072030      -274.0739
   8   1.0000     -10.066325      -273.9186
   9   1.0000     -10.056691      -273.6565
  10   1.0000      -9.385217      -255.3847
  11   1.0000      -7.125996      -193.9082
  12   1.0000      -7.117406      -193.6745
  13   1.0000      -7.117272      -193.6708
  14   1.0000      -0.832187       -22.6450
  15   1.0000      -0.749041       -20.3824
  16   1.0000      -0.688859       -18.7448
  17   1.0000      -0.609830       -16.5943
  18   1.0000      -0.601379       -16.3644
  19   1.0000      -0.565965       -15.4007
  20   1.0000      -0.471933       -12.8420
  21   1.0000      -0.458771       -12.4838
  22   1.0000      -0.400784       -10.9059
  23   1.0000      -0.350291        -9.5319
  24   1.0000      -0.320187        -8.7127
  25   1.0000      -0.304131        -8.2758
  26   1.0000      -0.295719        -8.0469
  27   1.0000      -0.288079        -7.8390
  28   1.0000      -0.280152        -7.6233
  29   1.0000      -0.253053        -6.8859
  30   1.0000      -0.247472        -6.7340
  31   1.0000      -0.239734        -6.5235
  32   1.0000      -0.214330        -5.8322
  33   1.0000      -0.207090        -5.6352
  34   1.0000      -0.193673        -5.2701
  35   1.0000      -0.176707        -4.8084
  36   1.0000      -0.174284        -4.7425
  37   1.0000      -0.118137        -3.2147
  38   1.0000      -0.097224        -2.6456
  39   1.0000      -0.070412        -1.9160
  40   1.0000       0.045405         1.2355
  41   0.0000       0.155703         4.2369
  42   0.0000       0.190747         5.1905
  43   0.0000       0.197890         5.3849
  44   0.0000       0.218540         5.9468
  45   0.0000       0.249421         6.7871

                 SPIN DOWN ORBITALS
  NO   OCC          E(Eh)            E(eV)
   0   1.0000    -101.534123     -2762.8840
   1   1.0000     -18.972965      -516.2806
   2   1.0000     -10.113132      -275.1923
   3   1.0000     -10.100748      -274.8553
   4   1.0000     -10.085255      -274.4337
   5   1.0000     -10.081890      -274.3422
   6   1.0000     -10.072374      -274.0832
   7   1.0000     -10.072014      -274.0734
   8   1.0000     -10.064074      -273.8574
   9   1.0000     -10.054818      -273.6055
  10   1.0000      -9.385115      -255.3820
  11   1.0000      -7.126171      -193.9130
  12   1.0000      -7.117211      -193.6691
  13   1.0000      -7.116815      -193.6584
  14   1.0000      -0.819417       -22.2975
  15   1.0000      -0.744926       -20.2705
  16   1.0000      -0.685324       -18.6486
  17   1.0000      -0.605366       -16.4729
  18   1.0000      -0.596389       -16.2286
  19   1.0000      -0.563388       -15.3306
  20   1.0000      -0.462324       -12.5805
  21   1.0000      -0.456374       -12.4186
  22   1.0000      -0.397450       -10.8152
  23   1.0000      -0.345906        -9.4126
  24   1.0000      -0.317706        -8.6452
  25   1.0000      -0.300556        -8.1785
  26   1.0000      -0.294517        -8.0142
  27   1.0000      -0.280668        -7.6374
  28   1.0000      -0.279546        -7.6068
  29   1.0000      -0.246075        -6.6960
  30   1.0000      -0.241405        -6.5690
  31   1.0000      -0.235133        -6.3983
  32   1.0000      -0.210808        -5.7364
  33   1.0000      -0.192087        -5.2270
  34   1.0000      -0.191642        -5.2148
  35   1.0000      -0.173550        -4.7225
  36   1.0000      -0.153014        -4.1637
  37   1.0000      -0.107872        -2.9353
  38   1.0000      -0.070821        -1.9271
  39   1.0000      -0.063958        -1.7404
  40   0.0000       0.133037         3.6201
  41   0.0000       0.160544         4.3686
  42   0.0000       0.194048         5.2803
  43   0.0000       0.220266         5.9937
  44   0.0000       0.226696         6.1687

MULLIKEN ATOMIC CHARGES AND SPIN POPULATIONS
--------------------------------------------
   0 C :   -0.187097    0.175011
   1 C :   -0.103641   -0.103880
   2 C :    0.028182    0.331694
   3 C :   -0.105274   -0.088316
   4 C :   -0.164896    0.164692
   5 C :    0.019434    0.119378
   6 C :   -0.001553    0.171798
   7 O :   -0.382170    0.243215
   8 C :   -0.328849   -0.024635
   9 H :    0.094073    0.010348
  10 H :    0.094075    0.010348
  11 H :    0.086640   -0.000659
  12 H :    0.058906   -0.010783
  13 H :    0.036180    0.003037
  14 Cl:   -0.215815    0.005668
  15 H :    0.033037    0.003989
  16 H :    0.038769   -0.010907
Sum of atomic charges         :   -1.0000000

LOEWDIN ATOMIC CHARGES AND SPIN POPULATIONS
-------------------------------------------
   0 C :   -0.170852    0.138794
   1 C :   -0.176927   -0.052146
   2 C :   -0.218088    0.265147
   3 C :   -0.177521   -0.040343
   4 C :   -0.140794    0.133348
   5 C :   -0.138213    0.123362
   6 C :   -0.047035    0.171024
   7 O :   -0.328090    0.240317
   8 C :   -0.371103   -0.007807
   9 H :    0.106829    0.008824
  10 H :    0.106829    0.008823
  11 H :    0.108741   -0.000269
  12 H :    0.117638   -0.005065
  13 H :    0.105840    0.001388
  14 Cl:    0.011980    0.017785
  15 H :    0.105259    0.001789
  16 H :    0.105509   -0.004972

  Mayer bond orders larger than 0.100000
B(  0-C ,  1-C ) :   1.4797 B(  0-C ,  5-C ) :   1.2099 B(  0-C , 16-H ) :   0.9420
B(  1-C ,  2-C ) :   1.3238 B(  1-C , 15-H ) :   0.9588 B(  2-C ,  3-C ) :   1.2850
B(  2-C , 14-Cl) :   0.8771 B(  3-C ,  4-C ) :   1.4769 B(  3-C , 13-H ) :   0.9644
B(  4-C ,  5-C ) :   1.2265 B(  4-C , 12-H ) :   0.9514 B(  5-C ,  6-C ) :   1.2235
B(  6-C ,  7-O ) :   1.9038 B(  6-C ,  8-C ) :   1.0622 B(  8-C ,  9-H ) :   0.9338
B(  8-C , 10-H ) :   0.9338 B(  8-C , 11-H ) :   0.9495

Dispersion correction           -0.016991767
FINAL SINGLE POINT ENERGY      -843.486443920973

DIPOLE MOMENT
-------------

Method             : SCF
Type of density    : Electron Density
Multiplicity       :   2
Irrep              :   0
Energy             :  -843.4694521544537338 Eh
Relativity type    :
Basis              : AO
                                X                 Y                 Z
Electronic contribution:     15.560425554      -3.440908033       0.000677024
Nuclear contribution   :    -13.986086072       4.323351945      -0.000564645
                        -----------------------------------------
Total Dipole Moment    :      1.574339482       0.882443912       0.000112379
                        -----------------------------------------
Magnitude (a.u.)       :      1.804785881
Magnitude (Debye)      :      4.587401142

VIBRATIONAL FREQUENCIES
-----------------------

Scaling factor for frequencies =  1.000000000  (already applied!)

     0:       0.00 cm**-1
     1:       0.00 cm**-1
     2:       0.00 cm**-1
     3:       0.00 cm**-1
     4:       0.00 cm**-1
     5:       0.00 cm**-1
     6:      75.83 cm**-1
     7:     113.56 cm**-1
     8:     145.31 cm**-1
     9:     167.27 cm**-1
    10:     204.29 cm**-1
    11:     295.96 cm**-1
    12:     304.89 cm**-1
    13:     361.22 cm**-1
    14:     441.53 cm**-1
    15:     449.93 cm**-1
    16:     527.27 cm**-1
    17:     554.24 cm**-1
    18:     617.67 cm**-1
    19:     637.38 cm**-1
    20:     681.95 cm**-1
    21:     756.21 cm**-1
    22:     761.80 cm**-1
    23:     791.87 cm**-1
    24:     925.90 cm**-1
    25:     952.11 cm**-1
    26:     963.07 cm**-1
    27:     992.73 cm**-1
    28:    1005.64 cm**-1
    29:    1067.90 cm**-1
    30:    1094.24 cm**-1
    31:    1105.08 cm**-1
    32:    1171.20 cm**-1
    33:    1273.75 cm**-1
    34:    1341.04 cm**-1
    35:    1348.31 cm**-1
    36:    1370.54 cm**-1
    37:    1453.32 cm**-1
    38:    1455.97 cm**-1
    39:    1460.87 cm**-1
    40:    1501.94 cm**-1
    41:    1520.79 cm**-1
    42:    1630.39 cm**-1
    43:    1697.61 cm**-1
    44:    2981.79 cm**-1
    45:    3049.50 cm**-1
    46:    3128.52 cm**-1
    47:    3171.72 cm**-1
    48:    3176.66 cm**-1
    49:    3193.73 cm**-1
    50:    3210.22 cm**-1

IR SPECTRUM
-----------

 Mode   freq       eps      Int      T**2         TX        TY        TZ
       cm**-1   L/(mol*cm) km/mol    a.u.
----------------------------------------------------------------------------
  6:     75.83   0.000004    0.02  0.000017  ( 0.000006 -0.000004 -0.004065)
  7:    113.56   0.000334    1.69  0.000917  ( 0.000001  0.000011 -0.030274)
  8:    145.31   0.000224    1.13  0.000482  ( 0.000009  0.000005 -0.021951)
  9:    167.27   0.000511    2.58  0.000953  (-0.030036  0.007142 -0.000003)
 10:    204.29   0.000252    1.27  0.000385  ( 0.000010  0.000014 -0.019620)
 11:    295.96   0.000255    1.29  0.000269  ( 0.014221  0.008173  0.000000)
 12:    304.89   0.000209    1.06  0.000214  ( 0.014577  0.001231 -0.000001)
 13:    361.22   0.001635    8.26  0.001412  (-0.000010 -0.000007  0.037582)
 14:    441.53   0.000285    1.44  0.000201  (-0.009828  0.010232  0.000002)
 15:    449.93   0.000018    0.09  0.000013  (-0.000005 -0.000002 -0.003536)
 16:    527.27   0.006372   32.20  0.003771  (-0.060755  0.008963 -0.000003)
 17:    554.24   0.001786    9.03  0.001006  (-0.000006 -0.000000 -0.031711)
 18:    617.67   0.002733   13.81  0.001381  (-0.034758 -0.013135  0.000000)
 19:    637.38   0.000143    0.73  0.000070  (-0.002030 -0.008132 -0.000001)
 20:    681.95   0.001383    6.99  0.000633  ( 0.000002 -0.000002  0.025159)
 21:    756.21   0.004086   20.65  0.001686  ( 0.041033 -0.001511 -0.000003)
 22:    761.80   0.003006   15.19  0.001232  (-0.000003 -0.000001 -0.035093)
 23:    791.87   0.002634   13.31  0.001038  (-0.000001  0.000006 -0.032218)
 24:    925.90   0.000027    0.13  0.000009  ( 0.000004  0.000003 -0.002999)
 25:    952.11   0.016480   83.29  0.005402  (-0.072776  0.010259 -0.000002)
 26:    963.07   0.000020    0.10  0.000006  ( 0.000018 -0.000008  0.002532)
 27:    992.73   0.006564   33.17  0.002064  (-0.044974  0.006397 -0.000002)
 28:   1005.64   0.000353    1.78  0.000109  ( 0.000005  0.000000  0.010461)
 29:   1067.90   0.000658    3.32  0.000192  (-0.011251  0.008101 -0.000000)
 30:   1094.24   0.000187    0.95  0.000053  ( 0.004318  0.005894  0.000001)
 31:   1105.08   0.004261   21.53  0.001203  (-0.019552 -0.028651 -0.000002)
 32:   1171.20   0.002205   11.14  0.000587  (-0.024236 -0.000179 -0.000001)
 33:   1273.75   0.001426    7.21  0.000349  (-0.015449 -0.010526 -0.000001)
 34:   1341.04   0.000666    3.37  0.000155  (-0.003502  0.011945 -0.000000)
 35:   1348.31   0.002107   10.65  0.000488  ( 0.020483  0.008250  0.000001)
 36:   1370.54   0.010098   51.03  0.002299  ( 0.023731 -0.041667  0.000000)
 37:   1453.32   0.002844   14.37  0.000611  (-0.024438  0.003682  0.000000)
 38:   1455.97   0.011214   56.67  0.002403  ( 0.044860  0.019774 -0.000000)
 39:   1460.87   0.000678    3.43  0.000145  ( 0.000016  0.000004  0.012036)
 40:   1501.94   0.001585    8.01  0.000329  (-0.001427 -0.018090 -0.000000)
 41:   1520.79   0.001452    7.34  0.000298  (-0.017225  0.001075 -0.000001)
 42:   1630.39   0.075552  381.81  0.014461  ( 0.114524  0.036676  0.000006)
 43:   1697.61   0.020681  104.52  0.003802  ( 0.049261  0.037082  0.000003)
 44:   2981.79   0.021064  106.45  0.002204  (-0.036586  0.029427  0.000001)
 45:   3049.50   0.008815   44.55  0.000902  ( 0.000000  0.000003 -0.030035)
 46:   3128.52   0.003723   18.81  0.000371  ( 0.017612  0.007819  0.000001)
 47:   3171.72   0.002038   10.30  0.000200  (-0.013695 -0.003594 -0.000001)
 48:   3176.66   0.004365   22.06  0.000429  (-0.012059  0.016834  0.000000)
 49:   3193.73   0.007255   36.66  0.000709  (-0.001223 -0.026596 -0.000001)
 50:   3210.22   0.002306   11.66  0.000224  ( 0.004968 -0.014125 -0.000000)

--------------------------
THERMOCHEMISTRY AT 298.15K
--------------------------

Temperature         ...   298.15 K
Pressure            ...     1.00 atm
Total Mass          ...   154.60 AMU
Quasi RRHO          ...     True
Cut-Off Frequency   ...     1.00 cm^-1

Throughout the following assumptions are being made:
  (1) The electronic state is orbitally nondegenerate
      but the spin degeneracy is treated
  (2) There are no thermally accessible electronically excited states
  (3) Hindered rotations indicated by low frequency modes are not
      treated as such but are treated as vibrations and this may
      cause some error
  (4) All equations used are the standard statistical mechanics
      equations for an ideal gas
  (5) All vibrations are strictly harmonic

freq.      75.83  E(vib)   ...       0.49
freq.     113.56  E(vib)   ...       0.44
freq.     145.31  E(vib)   ...       0.41
freq.     167.27  E(vib)   ...       0.39
freq.     204.29  E(vib)   ...       0.35
freq.     295.96  E(vib)   ...       0.27
freq.     304.89  E(vib)   ...       0.26
freq.     361.22  E(vib)   ...       0.22
freq.     441.53  E(vib)   ...       0.17
freq.     449.93  E(vib)   ...       0.17
freq.     527.27  E(vib)   ...       0.13
freq.     554.24  E(vib)   ...       0.12
freq.     617.67  E(vib)   ...       0.09
freq.     637.38  E(vib)   ...       0.09
freq.     681.95  E(vib)   ...       0.08
freq.     756.21  E(vib)   ...       0.06
freq.     761.80  E(vib)   ...       0.06
freq.     791.87  E(vib)   ...       0.05
freq.     925.90  E(vib)   ...       0.03
freq.     952.11  E(vib)   ...       0.03
freq.     963.07  E(vib)   ...       0.03
freq.     992.73  E(vib)   ...       0.02
freq.    1005.64  E(vib)   ...       0.02
freq.    1067.90  E(vib)   ...       0.02
freq.    1094.24  E(vib)   ...       0.02
freq.    1105.08  E(vib)   ...       0.02
freq.    1171.20  E(vib)   ...       0.01
freq.    1273.75  E(vib)   ...       0.01
freq.    1341.04  E(vib)   ...       0.01
freq.    1348.31  E(vib)   ...       0.01
freq.    1370.54  E(vib)   ...       0.01
freq.    1453.32  E(vib)   ...       0.00
freq.    1455.97  E(vib)   ...       0.00
freq.    1460.87  E(vib)   ...       0.00
freq.    1501.94  E(vib)   ...       0.00
freq.    1520.79  E(vib)   ...       0.00
freq.    1630.39  E(vib)   ...       0.00
freq.    1697.61  E(vib)   ...       0.00
freq.    2981.79  E(vib)   ...       0.00
freq.    3049.50  E(vib)   ...       0.00
freq.    3128.52  E(vib)   ...       0.00
freq.    3171.72  E(vib)   ...       0.00
freq.    3176.66  E(vib)   ...       0.00
freq.    3193.73  E(vib)   ...       0.00
freq.    3210.22  E(vib)   ...       0.00

------------
INNER ENERGY
------------

The inner energy is: U= E(el) + E(ZPE) + E(vib) + E(rot) + E(trans)
    E(el)   - is the total energy from the electronic structure calculation
              = E(kin-el) + E(nuc-el) + E(el-el) + E(nuc-nuc)
    E(ZPE)  - the the zero temperature vibrational energy from the frequency calculation
    E(vib)  - the the finite temperature correction to E(ZPE) due to population
              of excited vibrational states
    E(rot)  - is the rotational thermal energy
    E(trans)- is the translational thermal energy

Summary of contributions to the inner energy U:
Electronic energy                ...   -843.48644392 Eh
Zero point energy                ...      0.12560164 Eh      78.82 kcal/mol
Thermal vibrational correction   ...      0.00647799 Eh       4.06 kcal/mol
Thermal rotational correction    ...      0.00141627 Eh       0.89 kcal/mol
Thermal translational correction ...      0.00141627 Eh       0.89 kcal/mol
-----------------------------------------------------------------------
Total thermal energy                   -843.35153175 Eh

Summary of corrections to the electronic energy:
(perhaps to be used in another calculation)
Total thermal correction                  0.00931053 Eh       5.84 kcal/mol
Non-thermal (ZPE) correction              0.12560164 Eh      78.82 kcal/mol
-----------------------------------------------------------------------
Total correction                          0.13491217 Eh      84.66 kcal/mol

--------
ENTHALPY
--------

The enthalpy is H = U + kB*T
                kB is Boltzmann's constant
Total thermal energy              ...   -843.35153175 Eh
Thermal Enthalpy correction       ...      0.00094421 Eh       0.59 kcal/mol
-----------------------------------------------------------------------
Total Enthalpy                    ...   -843.35058754 Eh

Note: Rotational entropy computed according to Herzberg
Infrared and Raman Spectra, Chapter V,1, Van Nostrand Reinhold, 1945
Point Group:  Cs, Symmetry Number:   1
Rotational constants in cm-1:     0.120838     0.018120     0.015805

Vibrational entropy computed according to the QRRHO of S. Grimme
Chem.Eur.J. 2012 18 9955 using a reference frequency of 100.0 cm-1

-------
ENTROPY
-------

The entropy contributions are T*S = T*(S(el)+S(vib)+S(rot)+S(trans))
     S(el)   - electronic entropy
     S(vib)  - vibrational entropy
     S(rot)  - rotational entropy
     S(trans)- translational entropy
The entropies will be listed as multiplied by the temperature to get
units of energy

Electronic entropy                ...      0.00065446 Eh      0.41 kcal/mol
Vibrational entropy               ...      0.01098007 Eh      6.89 kcal/mol
Rotational entropy                ...      0.01435987 Eh      9.01 kcal/mol
Translational entropy             ...      0.01948823 Eh     12.23 kcal/mol
-----------------------------------------------------------------------
Final entropy term                ...      0.04548263 Eh     28.54 kcal/mol

In case the symmetry of your molecule has not been determined correctly
or in case you have a reason to use a different symmetry number we print
out the resulting rotational entropy values for sn=1,12:

 non-linear molecules -----------------------------------
|  sn= 1 | S(rot)=       0.01435987 Eh      9.01 kcal/mol|
|  sn= 2 | S(rot)=       0.01370542 Eh      8.60 kcal/mol|
|  sn= 3 | S(rot)=       0.01332259 Eh      8.36 kcal/mol|
|  sn= 4 | S(rot)=       0.01305096 Eh      8.19 kcal/mol|
|  sn= 5 | S(rot)=       0.01284027 Eh      8.06 kcal/mol|
|  sn= 6 | S(rot)=       0.01266813 Eh      7.95 kcal/mol|
|  sn= 7 | S(rot)=       0.01252258 Eh      7.86 kcal/mol|
|  sn= 8 | S(rot)=       0.01239651 Eh      7.78 kcal/mol|
|  sn= 9 | S(rot)=       0.01228530 Eh      7.71 kcal/mol|
|  sn=10 | S(rot)=       0.01218582 Eh      7.65 kcal/mol|
|  sn=11 | S(rot)=       0.01209583 Eh      7.59 kcal/mol|
|  sn=12 | S(rot)=       0.01201367 Eh      7.54 kcal/mol|
 linear molecules ---------------------------------------
|  Dinfh | S(rot)=       0.00924176 Eh      5.80 kcal/mol|
|  Cinfv | S(rot)=       0.00989621 Eh      6.21 kcal/mol|
 --------------------------------------------------------

-------------------

                             ****ORCA TERMINATED NORMALLY****
TOTAL RUN TIME: 0 days 0 hours 10 minutes 15 seconds 771 msec
