                         Program Version 6.0.0  -   RELEASE  -
|  1> !r2SCANh aug-cc-pVTZ d3 TightSCF SlowConv RIJCOSX defgrid2
|  2>
|  3> %pal
|  4> nprocs 4
|  5> end
|  6>
|  7> %scf
|  8> MaxIter 1500
|  9> end
| 10>
| 11> %maxcore 3000
| 12>
| 13> !CPCM
| 14> %cpcm smd true
| 15> SMDsolvent "MeCN"
| 16> surfacetype gepol_ses
| 17> rsolv 2.19
| 18> end
| 19>
| 20> * xyz 1 2
| 21> C           2.42348472290459     -0.91745853608407      0.59245240880380
| 22> C           1.25995896348321     -0.39202749196625     -0.02333100512405
| 23> C           1.34845533499414      0.85031226217091     -0.70354304574749
| 24> C           2.54901795106357      1.53889253592779     -0.75588972072195
| 25> C           3.68078809059867      1.01347219167219     -0.12249703890860
| 26> C           3.61293527426724     -0.21317645517309      0.55511971135216
| 27> H           4.49963825852970     -0.61051765955941      1.05572901180402
| 28> H           4.62917087127076      1.55697433746367     -0.16496199627931
| 29> H           2.61592640542583      2.48137948500377     -1.30532606762871
| 30> H           0.47393529747941      1.23580556067586     -1.23411925330570
| 31> C          -0.00001731418985     -1.11439032518152     -0.00002747562644
| 32> C          -0.00002568960524     -2.50679262514812     -0.00005487800504
| 33> H          -0.93480054732863     -3.07584961343870     -0.00342574946663
| 34> H           0.93474533226452     -3.07585703929259      0.00329162420143
| 35> C          -1.25998231282226     -0.39200541574857      0.02329276572865
| 36> C          -2.42352655120021     -0.91741544935804     -0.59247757528391
| 37> C          -3.61296415978219     -0.21311035984979     -0.55512705740855
| 38> C          -3.68079177573927      1.01353038434026      0.12250956134291
| 39> C          -2.54900448879428      1.53892565378929      0.75589582496725
| 40> C          -1.34845157706727      0.85032505299238      0.70352498564033
| 41> H          -0.47391984231340      1.23578710201298      1.23410367351677
| 42> H          -2.61589448475022      2.48140107327864      1.30534730547376
| 43> H          -4.62916722704471      1.55704319189423      0.16499523284128
| 44> H          -4.49967994828211     -0.61043350047146     -1.05572841225155
| 45> H          -2.37320187697182     -1.85878167189054     -1.14547741375033
| 46> H           2.37313869360983     -1.85882668805983      1.14544868383589
| 47> *
| 48>
| 49>                          ****END OF INPUT****

CARTESIAN COORDINATES (ANGSTROEM)
---------------------------------
  C      2.423485   -0.917459    0.592452
  C      1.259959   -0.392027   -0.023331
  C      1.348455    0.850312   -0.703543
  C      2.549018    1.538893   -0.755890
  C      3.680788    1.013472   -0.122497
  C      3.612935   -0.213176    0.555120
  H      4.499638   -0.610518    1.055729
  H      4.629171    1.556974   -0.164962
  H      2.615926    2.481379   -1.305326
  H      0.473935    1.235806   -1.234119
  C     -0.000017   -1.114390   -0.000027
  C     -0.000026   -2.506793   -0.000055
  H     -0.934801   -3.075850   -0.003426
  H      0.934745   -3.075857    0.003292
  C     -1.259982   -0.392005    0.023293
  C     -2.423527   -0.917415   -0.592478
  C     -3.612964   -0.213110   -0.555127
  C     -3.680792    1.013530    0.122510
  C     -2.549004    1.538926    0.755896
  C     -1.348452    0.850325    0.703525
  H     -0.473920    1.235787    1.234104
  H     -2.615894    2.481401    1.305347
  H     -4.629167    1.557043    0.164995
  H     -4.499680   -0.610434   -1.055728
  H     -2.373202   -1.858782   -1.145477
  H      2.373139   -1.858827    1.145449

 Total Charge           Charge          ....    1
 Multiplicity           Mult            ....    2
 Number of Electrons    NEL             ....   95
 Basis Dimension        Dim             ....  920

ORBITAL ENERGIES
----------------
                 SPIN UP ORBITALS
  NO   OCC          E(Eh)            E(eV)
   0   1.0000     -10.239320      -278.6261
   1   1.0000     -10.225973      -278.2629
   2   1.0000     -10.214060      -277.9387
   3   1.0000     -10.214049      -277.9384
   4   1.0000     -10.195577      -277.4357
   5   1.0000     -10.195546      -277.4349
   6   1.0000     -10.195546      -277.4349
   7   1.0000     -10.195520      -277.4342
   8   1.0000     -10.193778      -277.3868
   9   1.0000     -10.193774      -277.3867
  10   1.0000     -10.183792      -277.1151
  11   1.0000     -10.183788      -277.1150
  12   1.0000     -10.183032      -277.0944
  13   1.0000     -10.183015      -277.0939
  14   1.0000      -0.910258       -24.7694
  15   1.0000      -0.883999       -24.0548
  16   1.0000      -0.845142       -22.9975
  17   1.0000      -0.778307       -21.1788
  18   1.0000      -0.777192       -21.1485
  19   1.0000      -0.769475       -20.9385
  20   1.0000      -0.754489       -20.5307
  21   1.0000      -0.668567       -18.1926
  22   1.0000      -0.633945       -17.2505
  23   1.0000      -0.623124       -16.9561
  24   1.0000      -0.617283       -16.7971
  25   1.0000      -0.573997       -15.6193
  26   1.0000      -0.541850       -14.7445
  27   1.0000      -0.520046       -14.1512
  28   1.0000      -0.485596       -13.2137
  29   1.0000      -0.485092       -13.2000
  30   1.0000      -0.466815       -12.7027
  31   1.0000      -0.455995       -12.4083
  32   1.0000      -0.455303       -12.3894
  33   1.0000      -0.434770       -11.8307
  34   1.0000      -0.434382       -11.8201
  35   1.0000      -0.432953       -11.7812
  36   1.0000      -0.404288       -11.0012
  37   1.0000      -0.399600       -10.8737
  38   1.0000      -0.393965       -10.7203
  39   1.0000      -0.369080       -10.0432
  40   1.0000      -0.358451        -9.7540
  41   1.0000      -0.354873        -9.6566
  42   1.0000      -0.348521        -9.4837
  43   1.0000      -0.340968        -9.2782
  44   1.0000      -0.285336        -7.7644
  45   1.0000      -0.281855        -7.6697
  46   1.0000      -0.276074        -7.5123
  47   1.0000      -0.266694        -7.2571
  48   0.0000      -0.113534        -3.0894
  49   0.0000      -0.063818        -1.7366
  50   0.0000      -0.052803        -1.4368
  51   0.0000      -0.038847        -1.0571
  52   0.0000       0.001906         0.0519

                 SPIN DOWN ORBITALS
  NO   OCC          E(Eh)            E(eV)
   0   1.0000     -10.240184      -278.6496
   1   1.0000     -10.215754      -277.9848
   2   1.0000     -10.212867      -277.9062
   3   1.0000     -10.212856      -277.9059
   4   1.0000     -10.194329      -277.4018
   5   1.0000     -10.194279      -277.4004
   6   1.0000     -10.193194      -277.3709
   7   1.0000     -10.193188      -277.3708
   8   1.0000     -10.192781      -277.3597
   9   1.0000     -10.192778      -277.3596
  10   1.0000     -10.184414      -277.1320
  11   1.0000     -10.184409      -277.1319
  12   1.0000     -10.183822      -277.1159
  13   1.0000     -10.183805      -277.1154
  14   1.0000      -0.906123       -24.6569
  15   1.0000      -0.880827       -23.9685
  16   1.0000      -0.838797       -22.8248
  17   1.0000      -0.775798       -21.1105
  18   1.0000      -0.774224       -21.0677
  19   1.0000      -0.766451       -20.8562
  20   1.0000      -0.738837       -20.1048
  21   1.0000      -0.660429       -17.9712
  22   1.0000      -0.631715       -17.1898
  23   1.0000      -0.619420       -16.8553
  24   1.0000      -0.615590       -16.7510
  25   1.0000      -0.570918       -15.5355
  26   1.0000      -0.541357       -14.7311
  27   1.0000      -0.517689       -14.0870
  28   1.0000      -0.484113       -13.1734
  29   1.0000      -0.483144       -13.1470
  30   1.0000      -0.465092       -12.6558
  31   1.0000      -0.453532       -12.3412
  32   1.0000      -0.453095       -12.3293
  33   1.0000      -0.433903       -11.8071
  34   1.0000      -0.432766       -11.7762
  35   1.0000      -0.431592       -11.7442
  36   1.0000      -0.401350       -10.9213
  37   1.0000      -0.391693       -10.6585
  38   1.0000      -0.385832       -10.4990
  39   1.0000      -0.368671       -10.0320
  40   1.0000      -0.358105        -9.7445
  41   1.0000      -0.350186        -9.5290
  42   1.0000      -0.347414        -9.4536
  43   1.0000      -0.322629        -8.7792
  44   1.0000      -0.280455        -7.6316
  45   1.0000      -0.274083        -7.4582
  46   1.0000      -0.268034        -7.2936
  47   0.0000      -0.203459        -5.5364
  48   0.0000      -0.076975        -2.0946
  49   0.0000      -0.054317        -1.4780
  50   0.0000      -0.048194        -1.3114
  51   0.0000      -0.033519        -0.9121

MULLIKEN ATOMIC CHARGES AND SPIN POPULATIONS
--------------------------------------------
   0 C :   -1.112658    0.044819
   1 C :    2.505490    0.128318
   2 C :   -0.637257    0.071481
   3 C :   -1.001879   -0.059649
   4 C :   -0.088625    0.147851
   5 C :   -0.787389   -0.048400
   6 H :    0.513858   -0.000740
   7 H :    0.547744    0.004916
   8 H :    0.473370   -0.000768
   9 H :    0.090178    0.000700
  10 C :    0.714580   -0.118595
  11 C :   -1.064432    0.480543
  12 H :    0.265787    0.029638
  13 H :    0.266323    0.029743
  14 C :    2.503666    0.128352
  15 C :   -1.100155    0.044946
  16 C :   -0.780849   -0.048453
  17 C :   -0.084348    0.147909
  18 C :   -1.000511   -0.059786
  19 C :   -0.636844    0.071556
  20 H :    0.090717    0.000652
  21 H :    0.474682   -0.000787
  22 H :    0.544964    0.005101
  23 H :    0.487202   -0.000779
  24 H :   -0.089624    0.000659
  25 H :   -0.093990    0.000771
Sum of atomic charges         :    1.0000000

LOEWDIN ATOMIC CHARGES AND SPIN POPULATIONS
-------------------------------------------
   0 C :    0.247916    0.034815
   1 C :   -0.099424    0.052739
   2 C :    0.238254    0.041062
   3 C :    0.243339    0.008929
   4 C :    0.241134    0.063279
   5 C :    0.240988    0.011644
   6 H :   -0.154652   -0.002856
   7 H :   -0.149617    0.015431
   8 H :   -0.154192   -0.003673
   9 H :   -0.151158    0.007174
  10 C :   -0.064743    0.095263
  11 C :    0.685195    0.307295
  12 H :   -0.155758    0.063723
  13 H :   -0.155771    0.063725
  14 C :   -0.099390    0.052733
  15 C :    0.247955    0.034826
  16 C :    0.241004    0.011637
  17 C :    0.241151    0.063285
  18 C :    0.243365    0.008931
  19 C :    0.238198    0.041065
  20 H :   -0.151265    0.007176
  21 H :   -0.154185   -0.003673
  22 H :   -0.149615    0.015433
  23 H :   -0.154654   -0.002859
  24 H :   -0.157037    0.006448
  25 H :   -0.157042    0.006445

  Mayer bond orders larger than 0.100000
B(  0-C ,  1-C ) :  -0.2436 B(  0-C ,  2-C ) :  -0.7783 B(  0-C ,  3-C ) :   0.1043
B(  0-C ,  4-C ) :  -0.1563 B(  0-C ,  5-C ) :   1.3822 B(  0-C ,  6-H ) :  -0.1285
B(  0-C , 10-C ) :   0.4075 B(  0-C , 25-H ) :   1.8281 B(  1-C ,  2-C ) :   0.3373
B(  1-C ,  4-C ) :  -0.2202 B(  1-C , 10-C ) :  -0.1568 B(  1-C , 11-C ) :  -0.3329
B(  1-C , 14-C ) :  -0.2548 B(  1-C , 25-H ) :  -0.1504 B(  2-C ,  3-C ) :   1.3360
B(  2-C ,  9-H ) :   1.4499 B(  2-C , 10-C ) :   0.3408 B(  2-C , 11-C ) :   0.1120
B(  2-C , 19-C ) :   0.1578 B(  3-C ,  4-C ) :   1.2061 B(  3-C ,  5-C ) :   0.3092
B(  3-C ,  8-H ) :   0.4782 B(  3-C , 25-H ) :  -0.1003 B(  4-C ,  5-C ) :   1.0583
B(  4-C ,  7-H ) :   0.4987 B(  4-C , 10-C ) :   0.2100 B(  5-C ,  6-H ) :   0.4683
B(  5-C ,  9-H ) :  -0.1336 B(  9-H , 25-H ) :   0.1592 B( 10-C , 11-C ) :   0.6166
B( 10-C , 14-C ) :  -0.1583 B( 10-C , 15-C ) :   0.4095 B( 10-C , 17-C ) :   0.2096
B( 10-C , 19-C ) :   0.3410 B( 10-C , 24-H ) :  -0.2053 B( 10-C , 25-H ) :  -0.2055
B( 11-C , 12-H ) :   0.9461 B( 11-C , 13-H ) :   0.9448 B( 11-C , 14-C ) :  -0.3343
B( 11-C , 19-C ) :   0.1108 B( 14-C , 15-C ) :  -0.2406 B( 14-C , 17-C ) :  -0.2184
B( 14-C , 19-C ) :   0.3361 B( 14-C , 24-H ) :  -0.1484 B( 15-C , 16-C ) :   1.3643
B( 15-C , 17-C ) :  -0.1587 B( 15-C , 18-C ) :   0.1015 B( 15-C , 19-C ) :  -0.7800
B( 15-C , 23-H ) :  -0.1298 B( 15-C , 24-H ) :   1.8156 B( 16-C , 17-C ) :   1.0501
B( 16-C , 18-C ) :   0.3074 B( 16-C , 20-H ) :  -0.1299 B( 16-C , 23-H ) :   0.5111
B( 17-C , 18-C ) :   1.2046 B( 17-C , 22-H ) :   0.5095 B( 18-C , 19-C ) :   1.3358
B( 18-C , 21-H ) :   0.4777 B( 19-C , 20-H ) :   1.4502 B( 20-H , 24-H ) :   0.1566

Dispersion correction           -0.010859001
FINAL SINGLE POINT ENERGY      -540.356055276612

DIPOLE MOMENT
-------------

Method             : SCF
Type of density    : Electron Density
Multiplicity       :   2
Irrep              :   0
Energy             :  -540.3451962757261526 Eh
Relativity type    :
Basis              : AO
                                X                 Y                 Z
Electronic contribution:     -0.000902315      -0.301747420      -0.000821925
Nuclear contribution   :     -0.000002786      -0.578596445       0.000006465
                        -----------------------------------------
Total Dipole Moment    :     -0.000905101      -0.880343864      -0.000815460
                        -----------------------------------------
Magnitude (a.u.)       :      0.880344707
Magnitude (Debye)      :      2.237658417

Rotational constants in cm-1:             0.053565             0.014254             0.012120
Rotational constants in MHz :          1605.831188           427.320428           363.336984

                             ****ORCA TERMINATED NORMALLY****
TOTAL RUN TIME: 0 days 0 hours 23 minutes 2 seconds 375 msec
