                         Program Version 6.0.0  -   RELEASE  -
|  1> !PBE0 aug-cc-pVTZ d3 TightSCF SlowConv RIJCOSX defgrid2
|  2>
|  3> %pal
|  4> nprocs 4
|  5> end
|  6>
|  7> %scf
|  8> MaxIter 1500
|  9> end
| 10>
| 11> %maxcore 3000
| 12>
| 13> !CPCM
| 14> %cpcm smd true
| 15> SMDsolvent "MeCN"
| 16> surfacetype gepol_ses
| 17> rsolv 2.19
| 18> end
| 19>
| 20> * xyz 0 1
| 21> C           0.94968287453071     -1.27993729727395      0.00000683726847
| 22> C           2.32072584922403     -1.03066468402730     -0.00000570192654
| 23> C           2.79045486785265      0.28126328538775     -0.00000619644263
| 24> C           1.88129493900205      1.34320110702256      0.00000552102250
| 25> C           0.51414900986878      1.09690334373603      0.00001977591165
| 26> C           0.03124775758730     -0.22186358373352      0.00001975571628
| 27> C          -1.40109719375212     -0.51811607942485      0.00002773818787
| 28> N          -2.27722630544222      0.40983670208196      0.00003187543002
| 29> O          -3.54943597920683     -0.07892856387383      0.00003589961153
| 30> H          -4.10699565150034      0.71269395667835      0.00004041054052
| 31> H          -1.72077053189788     -1.57247842719527      0.00002621709873
| 32> H          -0.20517984986564      1.91961492482438      0.00002936627338
| 33> H           2.24665800678188      2.37456842670514      0.00000344087776
| 34> H           3.86637191838654      0.47947397298735     -0.00001641660649
| 35> H           3.02594458116043     -1.86704493909579     -0.00001599324974
| 36> H           0.58187010727067     -2.31112044479903      0.00000487028669
| 37> *
| 38>
| 39>                          ****END OF INPUT****

CARTESIAN COORDINATES (ANGSTROEM)
---------------------------------
  C      0.949683   -1.279937    0.000007
  C      2.320726   -1.030665   -0.000006
  C      2.790455    0.281263   -0.000006
  C      1.881295    1.343201    0.000006
  C      0.514149    1.096903    0.000020
  C      0.031248   -0.221864    0.000020
  C     -1.401097   -0.518116    0.000028
  N     -2.277226    0.409837    0.000032
  O     -3.549436   -0.078929    0.000036
  H     -4.106996    0.712694    0.000040
  H     -1.720771   -1.572478    0.000026
  H     -0.205180    1.919615    0.000029
  H      2.246658    2.374568    0.000003
  H      3.866372    0.479474   -0.000016
  H      3.025945   -1.867045   -0.000016
  H      0.581870   -2.311120    0.000005

 Total Charge           Charge          ....    0
 Multiplicity           Mult            ....    1
 Number of Electrons    NEL             ....   64
 Basis Dimension        Dim             ....  575

ORBITAL ENERGIES
----------------

  NO   OCC          E(Eh)            E(eV)
   0   2.0000     -19.260398      -524.1021
   1   2.0000     -14.443295      -393.0220
   2   2.0000     -10.264777      -279.3188
   3   2.0000     -10.249533      -278.9040
   4   2.0000     -10.237186      -278.5680
   5   2.0000     -10.235259      -278.5156
   6   2.0000     -10.234966      -278.5076
   7   2.0000     -10.234313      -278.4898
   8   2.0000     -10.234052      -278.4827
   9   2.0000      -1.136358       -30.9219
  10   2.0000      -0.910577       -24.7780
  11   2.0000      -0.876290       -23.8451
  12   2.0000      -0.781275       -21.2596
  13   2.0000      -0.773201       -21.0399
  14   2.0000      -0.661779       -18.0079
  15   2.0000      -0.630244       -17.1498
  16   2.0000      -0.589238       -16.0340
  17   2.0000      -0.553185       -15.0529
  18   2.0000      -0.531389       -14.4598
  19   2.0000      -0.491077       -13.3629
  20   2.0000      -0.470072       -12.7913
  21   2.0000      -0.452452       -12.3118
  22   2.0000      -0.449688       -12.2366
  23   2.0000      -0.433942       -11.8082
  24   2.0000      -0.426391       -11.6027
  25   2.0000      -0.396103       -10.7785
  26   2.0000      -0.363430        -9.8894
  27   2.0000      -0.354706        -9.6520
  28   2.0000      -0.315853        -8.5948
  29   2.0000      -0.300757        -8.1840
  30   2.0000      -0.274115        -7.4591
  31   2.0000      -0.245905        -6.6914
  32   0.0000      -0.050515        -1.3746
  33   0.0000      -0.014340        -0.3902
  34   0.0000       0.002546         0.0693
  35   0.0000       0.009871         0.2686
  36   0.0000       0.017243         0.4692

MULLIKEN ATOMIC CHARGES
-----------------------
   0 C :   -1.015193
   1 C :   -0.644245
   2 C :   -0.324961
   3 C :   -0.777396
   4 C :   -0.732837
   5 C :    1.503113
   6 C :   -0.007464
   7 N :   -0.449674
   8 O :   -0.314934
   9 H :    0.179118
  10 H :    0.468673
  11 H :    0.171628
  12 H :    0.643847
  13 H :    0.516713
  14 H :    0.659936
  15 H :    0.123675
Sum of atomic charges:    0.0000000

LOEWDIN ATOMIC CHARGES
----------------------
   0 C :    0.191967
   1 C :    0.188997
   2 C :    0.185339
   3 C :    0.188462
   4 C :    0.185411
   5 C :   -0.182890
   6 C :   -0.023646
   7 N :    0.114536
   8 O :    0.668784
   9 H :   -0.501742
  10 H :   -0.170157
  11 H :   -0.183001
  12 H :   -0.166604
  13 H :   -0.167027
  14 H :   -0.166147
  15 H :   -0.162282

  Mayer bond orders larger than 0.100000
B(  0-C ,  1-C ) :   1.3128 B(  0-C ,  2-C ) :  -0.1323 B(  0-C ,  4-C ) :  -0.3831
B(  0-C ,  5-C ) :   0.3542 B(  0-C , 11-H ) :   0.1069 B(  0-C , 14-H ) :  -0.1576
B(  0-C , 15-H ) :   1.4680 B(  1-C ,  2-C ) :   1.3660 B(  1-C ,  3-C ) :   0.1416
B(  1-C , 14-H ) :   0.3183 B(  2-C ,  3-C ) :   1.3105 B(  2-C ,  4-C ) :  -0.1631
B(  2-C ,  5-C ) :  -0.1075 B(  2-C ,  6-C ) :   0.1218 B(  2-C , 12-H ) :   0.1077
B(  2-C , 13-H ) :   0.5768 B(  3-C ,  4-C ) :   1.2710 B(  3-C , 12-H ) :   0.3209
B(  4-C ,  5-C ) :   0.6567 B(  4-C ,  6-C ) :   0.2003 B(  4-C , 11-H ) :   1.1332
B(  4-C , 15-H ) :   0.1022 B(  5-C ,  6-C ) :   0.2679 B(  5-C ,  7-N ) :  -0.1498
B(  5-C , 14-H ) :   0.1150 B(  6-C ,  7-N ) :   1.1413 B(  6-C , 10-H ) :   0.5880
B(  6-C , 15-H ) :  -0.1418 B(  7-N ,  8-O ) :   0.6445 B(  8-O ,  9-H ) :   1.0008
B( 11-H , 15-H ) :   0.1532

Dispersion correction           -0.013823529
FINAL SINGLE POINT ENERGY      -400.580523354054

DIPOLE MOMENT
-------------

Method             : SCF
Type of density    : Electron Density
Multiplicity       :   1
Irrep              :   0
Energy             :  -400.5666998250737834 Eh
Relativity type    :
Basis              : AO
                                X                 Y                 Z
Electronic contribution:     -3.083569530       0.153202182       0.000029104
Nuclear contribution   :      3.386800554      -0.260850522      -0.000035535
                        -----------------------------------------
Total Dipole Moment    :      0.303231024      -0.107648340      -0.000006431
                        -----------------------------------------
Magnitude (a.u.)       :      0.321771999
Magnitude (Debye)      :      0.817879423

Rotational constants in cm-1:             0.173273             0.029980             0.025558
Rotational constants in MHz :          5194.584681           898.778188           766.207349

                             ****ORCA TERMINATED NORMALLY****
TOTAL RUN TIME: 0 days 0 hours 2 minutes 49 seconds 883 msec
