                         Program Version 6.0.0  -   RELEASE  -
|  1> !r2SCAN aug-cc-pVTZ d3 TightSCF SlowConv RIJCOSX defgrid2
|  2>
|  3> %pal
|  4> nprocs 4
|  5> end
|  6>
|  7> %scf
|  8> MaxIter 1500
|  9> end
| 10>
| 11> %maxcore 3000
| 12>
| 13> !CPCM
| 14> %cpcm smd true
| 15> SMDsolvent "MeCN"
| 16> surfacetype gepol_ses
| 17> rsolv 2.19
| 18> end
| 19>
| 20> * xyz 0 1
| 21> C           0.48360567195606     -1.21229390689687     -0.00037134428610
| 22> C           1.87690194124081     -1.23618350779417     -0.00001608088298
| 23> C           2.59422075073626     -0.04047481851856      0.00022611932314
| 24> C           1.91690889899697      1.18098236414826      0.00010944657389
| 25> C           0.52720301634613      1.20350626322595     -0.00024479123569
| 26> C          -0.20304994422496      0.00795284786184     -0.00051856197987
| 27> C          -1.69823329325947      0.10073243557531     -0.00093855711764
| 28> O          -2.24783450756777      1.18012430228825      0.00047343643148
| 29> C          -2.49873773674618     -1.18055979411728      0.00001226054872
| 30> H          -3.56874245805795     -0.92684719916367      0.00028072085676
| 31> H          -2.26765286226878     -1.79214055957540      0.88960271021885
| 32> H          -2.26826604600788     -1.79314451916799     -0.88902976580653
| 33> H          -0.03046089965679      2.14367830490160     -0.00034789708130
| 34> H           2.47945545467799      2.11929230948718      0.00030005734770
| 35> H           3.68826884274775     -0.06009102388695      0.00051141148870
| 36> H           2.40583590173159     -2.19363249350041      0.00008658903805
| 37> H          -0.06689973064377     -2.15667190486707     -0.00053355343717
| 38> *
| 39>
| 40>                          ****END OF INPUT****

CARTESIAN COORDINATES (ANGSTROEM)
---------------------------------
  C      0.483606   -1.212294   -0.000371
  C      1.876902   -1.236184   -0.000016
  C      2.594221   -0.040475    0.000226
  C      1.916909    1.180982    0.000109
  C      0.527203    1.203506   -0.000245
  C     -0.203050    0.007953   -0.000519
  C     -1.698233    0.100732   -0.000939
  O     -2.247835    1.180124    0.000473
  C     -2.498738   -1.180560    0.000012
  H     -3.568742   -0.926847    0.000281
  H     -2.267653   -1.792141    0.889603
  H     -2.268266   -1.793145   -0.889030
  H     -0.030461    2.143678   -0.000348
  H      2.479455    2.119292    0.000300
  H      3.688269   -0.060091    0.000511
  H      2.405836   -2.193632    0.000087
  H     -0.066900   -2.156672   -0.000534

 Total Charge           Charge          ....    0
 Multiplicity           Mult            ....    1
 Number of Electrons    NEL             ....   64
 Basis Dimension        Dim             ....  598

ORBITAL ENERGIES
----------------

  NO   OCC          E(Eh)            E(eV)
   0   2.0000     -18.943741      -515.4854
   1   2.0000     -10.125172      -275.5199
   2   2.0000     -10.051665      -273.5197
   3   2.0000     -10.050260      -273.4815
   4   2.0000     -10.049211      -273.4529
   5   2.0000     -10.046473      -273.3784
   6   2.0000     -10.045924      -273.3635
   7   2.0000     -10.045644      -273.3559
   8   2.0000     -10.029825      -272.9254
   9   2.0000      -1.010623       -27.5005
  10   2.0000      -0.830327       -22.5943
  11   2.0000      -0.739345       -20.1186
  12   2.0000      -0.720032       -19.5931
  13   2.0000      -0.692272       -18.8377
  14   2.0000      -0.595658       -16.2087
  15   2.0000      -0.574924       -15.6445
  16   2.0000      -0.518169       -14.1001
  17   2.0000      -0.476540       -12.9673
  18   2.0000      -0.433505       -11.7963
  19   2.0000      -0.426013       -11.5924
  20   2.0000      -0.411189       -11.1890
  21   2.0000      -0.409995       -11.1565
  22   2.0000      -0.391123       -10.6430
  23   2.0000      -0.385698       -10.4954
  24   2.0000      -0.354037        -9.6338
  25   2.0000      -0.351853        -9.5744
  26   2.0000      -0.330453        -8.9921
  27   2.0000      -0.323892        -8.8136
  28   2.0000      -0.311064        -8.4645
  29   2.0000      -0.247621        -6.7381
  30   2.0000      -0.245088        -6.6692
  31   2.0000      -0.222344        -6.0503
  32   0.0000      -0.087069        -2.3693
  33   0.0000      -0.042290        -1.1508
  34   0.0000       0.005837         0.1588
  35   0.0000       0.006093         0.1658
  36   0.0000       0.021879         0.5953

MULLIKEN ATOMIC CHARGES
-----------------------
   0 C :   -0.536733
   1 C :   -0.776155
   2 C :   -0.218821
   3 C :   -0.554704
   4 C :   -1.026281
   5 C :    1.604118
   6 C :    0.917882
   7 O :   -0.936561
   8 C :   -0.524725
   9 H :    0.142524
  10 H :    0.236056
  11 H :    0.236556
  12 H :    0.006669
  13 H :    0.506508
  14 H :    0.448294
  15 H :    0.489261
  16 H :   -0.013888
Sum of atomic charges:    0.0000000

LOEWDIN ATOMIC CHARGES
----------------------
   0 C :    0.202004
   1 C :    0.205871
   2 C :    0.197450
   3 C :    0.202388
   4 C :    0.187740
   5 C :   -0.139469
   6 C :   -0.550322
   7 O :    0.485497
   8 C :    0.570569
   9 H :   -0.178179
  10 H :   -0.158225
  11 H :   -0.158341
  12 H :   -0.188958
  13 H :   -0.168574
  14 H :   -0.165812
  15 H :   -0.167194
  16 H :   -0.176443

  Mayer bond orders larger than 0.100000
B(  0-C ,  1-C ) :   0.7842 B(  0-C ,  2-C ) :  -0.1269 B(  0-C ,  4-C ) :  -0.3381
B(  0-C ,  5-C ) :   0.3976 B(  0-C , 12-H ) :   0.1369 B(  0-C , 16-H ) :   1.5075
B(  1-C ,  2-C ) :   1.1429 B(  1-C ,  3-C ) :   0.1199 B(  1-C , 15-H ) :   0.5444
B(  1-C , 16-H ) :  -0.1385 B(  2-C ,  3-C ) :   1.1057 B(  2-C ,  5-C ) :  -0.1242
B(  2-C ,  6-C ) :   0.1179 B(  2-C , 14-H ) :   0.6416 B(  3-C ,  4-C ) :   1.1778
B(  3-C , 13-H ) :   0.5426 B(  4-C ,  5-C ) :   0.1299 B(  4-C ,  6-C ) :   0.1507
B(  4-C , 12-H ) :   1.2638 B(  4-C , 13-H ) :  -0.1369 B(  4-C , 14-H ) :   0.1043
B(  4-C , 16-H ) :   0.1141 B(  5-C ,  6-C ) :   0.4090 B(  5-C ,  7-O ) :   0.1698
B(  5-C ,  8-C ) :   0.1308 B(  5-C , 12-H ) :  -0.1721 B(  5-C , 16-H ) :  -0.2154
B(  6-C ,  7-O ) :   0.7330 B(  6-C ,  8-C ) :   0.8924 B(  6-C , 12-H ) :  -0.1143
B(  7-O , 12-H ) :   0.1760 B(  8-C ,  9-H ) :   0.9643 B(  8-C , 10-H ) :   0.9634
B(  8-C , 11-H ) :   0.9636 B( 12-H , 16-H ) :   0.1141

Dispersion correction           -0.005145773
FINAL SINGLE POINT ENERGY      -384.832810664176

DIPOLE MOMENT
-------------

Method             : SCF
Type of density    : Electron Density
Multiplicity       :   1
Irrep              :   0
Energy             :  -384.8276648912674318 Eh
Relativity type    :
Basis              : AO
                                X                 Y                 Z
Electronic contribution:      0.744962317       3.021474833      -0.001880468
Nuclear contribution   :      0.288396890      -4.357474412       0.001603683
                        -----------------------------------------
Total Dipole Moment    :      1.033359207      -1.335999579      -0.000276785
                        -----------------------------------------
Magnitude (a.u.)       :      1.689001539
Magnitude (Debye)      :      4.293100735

Rotational constants in cm-1:             0.123087             0.040626             0.030722
Rotational constants in MHz :          3690.044009          1217.936985           921.022210

                             ****ORCA TERMINATED NORMALLY****
TOTAL RUN TIME: 0 days 0 hours 3 minutes 29 seconds 561 msec
