                         Program Version 6.0.0  -   RELEASE  -
|  1> !B3LYP aug-cc-pVTZ d3 TightSCF SlowConv RIJCOSX defgrid2
|  2>
|  3> %pal
|  4> nprocs 4
|  5> end
|  6>
|  7> %scf
|  8> MaxIter 1500
|  9> end
| 10>
| 11> %maxcore 3000
| 12>
| 13> !CPCM
| 14> %cpcm smd true
| 15> SMDsolvent "MeCN"
| 16> surfacetype gepol_ses
| 17> rsolv 2.19
| 18> end
| 19>
| 20> * xyz 1 2
| 21> C           0.96002552011709     -1.32253975774944      0.00002107203161
| 22> C           2.30946577689281     -1.05292578484351     -0.00001183018851
| 23> C           2.75162476164071      0.28756052755572     -0.00002650301661
| 24> C           1.83902538005307      1.36187223575537     -0.00000118304244
| 25> C           0.48711647576379      1.10797066538425      0.00002893131122
| 26> C           0.02041417697925     -0.24724272024865      0.00003631726405
| 27> C          -1.36049677571781     -0.55035510408661      0.00004151636512
| 28> N          -2.24435922885682      0.43165315940707      0.00003462017491
| 29> O          -3.46568256477989     -0.02410885729296      0.00002059528734
| 30> H          -4.06414072403569      0.75247060999126      0.00003013023410
| 31> H          -1.71241527206750     -1.59215357045924      0.00004127844656
| 32> H          -0.24324441524782      1.92013568517355      0.00004228420146
| 33> H           2.20910910746605      2.39016696582870     -0.00001172730682
| 34> H           3.82614866589464      0.49606739820897     -0.00005739041351
| 35> H           3.03863533465800     -1.86708723654366     -0.00002808352063
| 36> H           0.59646668124012     -2.35410821608081      0.00003057217215
| 37> *
| 38>
| 39>                          ****END OF INPUT****

CARTESIAN COORDINATES (ANGSTROEM)
---------------------------------
  C      0.960026   -1.322540    0.000021
  C      2.309466   -1.052926   -0.000012
  C      2.751625    0.287561   -0.000027
  C      1.839025    1.361872   -0.000001
  C      0.487116    1.107971    0.000029
  C      0.020414   -0.247243    0.000036
  C     -1.360497   -0.550355    0.000042
  N     -2.244359    0.431653    0.000035
  O     -3.465683   -0.024109    0.000021
  H     -4.064141    0.752471    0.000030
  H     -1.712415   -1.592154    0.000041
  H     -0.243244    1.920136    0.000042
  H      2.209109    2.390167   -0.000012
  H      3.826149    0.496067   -0.000057
  H      3.038635   -1.867087   -0.000028
  H      0.596467   -2.354108    0.000031

 Total Charge           Charge          ....    1
 Multiplicity           Mult            ....    2
 Number of Electrons    NEL             ....   63
 Basis Dimension        Dim             ....  575

ORBITAL ENERGIES
----------------
                 SPIN UP ORBITALS
  NO   OCC          E(Eh)            E(eV)
   0   1.0000     -19.260012      -524.0916
   1   1.0000     -14.447703      -393.1420
   2   1.0000     -10.269956      -279.4597
   3   1.0000     -10.252390      -278.9817
   4   1.0000     -10.237571      -278.5785
   5   1.0000     -10.227881      -278.3148
   6   1.0000     -10.226715      -278.2831
   7   1.0000     -10.214484      -277.9502
   8   1.0000     -10.212305      -277.8909
   9   1.0000      -1.201220       -32.6869
  10   1.0000      -0.934906       -25.4401
  11   1.0000      -0.891474       -24.2582
  12   1.0000      -0.801817       -21.8186
  13   1.0000      -0.788840       -21.4654
  14   1.0000      -0.695608       -18.9285
  15   1.0000      -0.648843       -17.6559
  16   1.0000      -0.619937       -16.8693
  17   1.0000      -0.587540       -15.9878
  18   1.0000      -0.558864       -15.2075
  19   1.0000      -0.524068       -14.2606
  20   1.0000      -0.517579       -14.0841
  21   1.0000      -0.495459       -13.4821
  22   1.0000      -0.475472       -12.9383
  23   1.0000      -0.457336       -12.4447
  24   1.0000      -0.452033       -12.3005
  25   1.0000      -0.424011       -11.5379
  26   1.0000      -0.390560       -10.6277
  27   1.0000      -0.378505       -10.2996
  28   1.0000      -0.353599        -9.6219
  29   1.0000      -0.339727        -9.2444
  30   1.0000      -0.298350        -8.1185
  31   1.0000      -0.283549        -7.7157
  32   0.0000      -0.112986        -3.0745
  33   0.0000      -0.046280        -1.2593
  34   0.0000      -0.012752        -0.3470
  35   0.0000      -0.010166        -0.2766
  36   0.0000      -0.002393        -0.0651

                 SPIN DOWN ORBITALS
  NO   OCC          E(Eh)            E(eV)
   0   1.0000     -19.253740      -523.9209
   1   1.0000     -14.440765      -392.9532
   2   1.0000     -10.270341      -279.4702
   3   1.0000     -10.249777      -278.9106
   4   1.0000     -10.233779      -278.4753
   5   1.0000     -10.226278      -278.2712
   6   1.0000     -10.225739      -278.2565
   7   1.0000     -10.214805      -277.9590
   8   1.0000     -10.213046      -277.9111
   9   1.0000      -1.188255       -32.3341
  10   1.0000      -0.924588       -25.1593
  11   1.0000      -0.883119       -24.0309
  12   1.0000      -0.793375       -21.5888
  13   1.0000      -0.786265       -21.3954
  14   1.0000      -0.690768       -18.7967
  15   1.0000      -0.645795       -17.5730
  16   1.0000      -0.615411       -16.7462
  17   1.0000      -0.581943       -15.8355
  18   1.0000      -0.556172       -15.1342
  19   1.0000      -0.520718       -14.1695
  20   1.0000      -0.493215       -13.4211
  21   1.0000      -0.480694       -13.0803
  22   1.0000      -0.472969       -12.8701
  23   1.0000      -0.456667       -12.4266
  24   1.0000      -0.449883       -12.2420
  25   1.0000      -0.406012       -11.0482
  26   1.0000      -0.389571       -10.6008
  27   1.0000      -0.376449       -10.2437
  28   1.0000      -0.332400        -9.0451
  29   1.0000      -0.326010        -8.8712
  30   1.0000      -0.294412        -8.0114
  31   0.0000      -0.206448        -5.6177
  32   0.0000      -0.085577        -2.3287
  33   0.0000      -0.038137        -1.0378
  34   0.0000      -0.009447        -0.2571
  35   0.0000      -0.002001        -0.0545

MULLIKEN ATOMIC CHARGES AND SPIN POPULATIONS
--------------------------------------------
   0 C :   -0.781140    0.048160
   1 C :   -0.519469   -0.018214
   2 C :   -0.097259    0.257775
   3 C :   -0.714357   -0.057248
   4 C :   -0.573002    0.096297
   5 C :    1.732245    0.207517
   6 C :    0.101824   -0.025146
   7 N :   -0.338611    0.307844
   8 O :   -0.211765    0.205139
   9 H :    0.227973   -0.008430
  10 H :    0.476905    0.002511
  11 H :    0.085327   -0.010525
  12 H :    0.579501    0.003158
  13 H :    0.417335   -0.003211
  14 H :    0.592919    0.002511
  15 H :    0.021576   -0.008140
Sum of atomic charges         :    1.0000000

LOEWDIN ATOMIC CHARGES AND SPIN POPULATIONS
-------------------------------------------
   0 C :    0.264673    0.057753
   1 C :    0.264185    0.042078
   2 C :    0.279640    0.131524
   3 C :    0.260952    0.033333
   4 C :    0.256796    0.071915
   5 C :   -0.104489    0.113243
   6 C :    0.091540    0.059621
   7 N :    0.196251    0.239197
   8 O :    0.748674    0.200171
   9 H :   -0.401049    0.013098
  10 H :   -0.137105   -0.004156
  11 H :   -0.162392    0.009254
  12 H :   -0.145886   -0.003196
  13 H :   -0.131742    0.029107
  14 H :   -0.144006   -0.000110
  15 H :   -0.136042    0.007169

  Mayer bond orders larger than 0.100000
B(  0-C ,  1-C ) :   1.3142 B(  0-C ,  2-C ) :  -0.1470 B(  0-C ,  4-C ) :  -0.4321
B(  0-C ,  5-C ) :   0.1154 B(  0-C , 11-H ) :   0.1218 B(  0-C , 14-H ) :  -0.1857
B(  0-C , 15-H ) :   1.6555 B(  1-C ,  2-C ) :   1.1609 B(  1-C ,  3-C ) :   0.1614
B(  1-C , 14-H ) :   0.4236 B(  1-C , 15-H ) :  -0.1071 B(  2-C ,  3-C ) :   1.1122
B(  2-C ,  4-C ) :  -0.1667 B(  2-C ,  5-C ) :  -0.1837 B(  2-C ,  6-C ) :   0.1761
B(  2-C , 13-H ) :   0.7212 B(  3-C ,  4-C ) :   1.3086 B(  3-C ,  5-C ) :   0.1291
B(  3-C , 12-H ) :   0.4256 B(  4-C ,  5-C ) :   0.3713 B(  4-C ,  6-C ) :   0.2299
B(  4-C , 11-H ) :   1.3027 B(  4-C , 15-H ) :   0.1342 B(  5-C ,  6-C ) :   0.3239
B(  5-C ,  7-N ) :  -0.1007 B(  5-C ,  8-O ) :   0.1125 B(  5-C , 11-H ) :  -0.1391
B(  5-C , 14-H ) :   0.1250 B(  5-C , 15-H ) :  -0.1823 B(  6-C ,  7-N ) :   0.8226
B(  6-C , 10-H ) :   0.5558 B(  6-C , 15-H ) :  -0.1421 B(  7-N ,  8-O ) :   0.7960
B(  7-N , 10-H ) :  -0.1043 B(  8-O ,  9-H ) :   0.9625 B( 11-H , 15-H ) :   0.1613

Dispersion correction           -0.027440981
FINAL SINGLE POINT ENERGY      -400.608988031932

DIPOLE MOMENT
-------------

Method             : SCF
Type of density    : Electron Density
Multiplicity       :   2
Irrep              :   0
Energy             :  -400.5815470509924126 Eh
Relativity type    :
Basis              : AO
                                X                 Y                 Z
Electronic contribution:     -3.389427638       0.164975878       0.000443621
Nuclear contribution   :      3.309117951      -0.259125904      -0.000059906
                        -----------------------------------------
Total Dipole Moment    :     -0.080309687      -0.094150027       0.000383714
                        -----------------------------------------
Magnitude (a.u.)       :      0.123749831
Magnitude (Debye)      :      0.314547072

Rotational constants in cm-1:             0.166470             0.031016             0.026145
Rotational constants in MHz :          4990.645062           929.841763           783.805511

                             ****ORCA TERMINATED NORMALLY****
TOTAL RUN TIME: 0 days 0 hours 5 minutes 16 seconds 954 msec
