                         Program Version 6.0.0  -   RELEASE  -
|  1> !B3LYP aug-cc-pVTZ d3 TightSCF SlowConv RIJCOSX defgrid2
|  2>
|  3> %pal
|  4> nprocs 15
|  5> end
|  6>
|  7> %scf
|  8> MaxIter 1500
|  9> end
| 10>
| 11> %maxcore 3500
| 12>
| 13> !CPCM
| 14> %cpcm smd true
| 15> SMDsolvent "WATER"
| 16> surfacetype gepol_ses
| 17> rsolv 1.40
| 18> end
| 19>
| 20> * xyz 1 1
| 21> O           1.78804094605451      3.57407180225234      1.26949194793146
| 22> N           2.67789422851893      2.80320165261973      1.24235605674492
| 23> C           3.71778316034813      2.91642565718559      0.16690169044367
| 24> C           4.00336272113038      1.49623261444906     -0.34502278805979
| 25> C           4.25766982671167      0.52191894036115      0.75815899662553
| 26> C           3.72478741138320      0.67902204568292      1.96909401147761
| 27> C           2.74959286644548      1.76027704323926      2.33487529589660
| 28> C           4.95479041346433      3.52595927403589      0.85716379705375
| 29> C           3.19004706306109      3.83072822434414     -0.92224433141749
| 30> C           3.15485574167612      2.51408579594002      3.61549894601635
| 31> C           1.33516544733407      1.17999753290778      2.47825951823241
| 32> H           4.87996183732221      1.57668875415100     -1.00999500614608
| 33> H           3.17021668262368      1.15296792938084     -0.98863220317568
| 34> H           4.90337590828949     -0.33836578770133      0.55566284253488
| 35> H           3.92357861346000     -0.03968109815672      2.77061581286109
| 36> H           4.70844618705422      4.48811332405391      1.33490279509444
| 37> H           5.40761709603610      2.84446172249759      1.59225247734595
| 38> H           5.69483505273624      3.71884274386665      0.06263108376658
| 39> H           3.04024511163629      4.86095117972371     -0.56406719285224
| 40> H           2.23933329941609      3.45894408996336     -1.33920228019874
| 41> H           3.93412607430717      3.85508376979621     -1.73438810478811
| 42> H           2.42690041381949      3.30933728300165      3.84390224235101
| 43> H           4.16701870887203      2.94082178104930      3.54605561909481
| 44> H           3.14478541414984      1.78516218068988      4.44194641182067
| 45> H           0.61276609896706      1.95074174596123      2.78900733696933
| 46> H           1.00104681299372      0.70960454278176      1.53898778688725
| 47> H           1.37065586218837      0.39927625592302      3.25432923748977
| 48> *
| 49>
| 50>                          ****END OF INPUT****

CARTESIAN COORDINATES (ANGSTROEM)
---------------------------------
  O      1.788041    3.574072    1.269492
  N      2.677894    2.803202    1.242356
  C      3.717783    2.916426    0.166902
  C      4.003363    1.496233   -0.345023
  C      4.257670    0.521919    0.758159
  C      3.724787    0.679022    1.969094
  C      2.749593    1.760277    2.334875
  C      4.954790    3.525959    0.857164
  C      3.190047    3.830728   -0.922244
  C      3.154856    2.514086    3.615499
  C      1.335165    1.179998    2.478260
  H      4.879962    1.576689   -1.009995
  H      3.170217    1.152968   -0.988632
  H      4.903376   -0.338366    0.555663
  H      3.923579   -0.039681    2.770616
  H      4.708446    4.488113    1.334903
  H      5.407617    2.844462    1.592252
  H      5.694835    3.718843    0.062631
  H      3.040245    4.860951   -0.564067
  H      2.239333    3.458944   -1.339202
  H      3.934126    3.855084   -1.734388
  H      2.426900    3.309337    3.843902
  H      4.167019    2.940822    3.546056
  H      3.144785    1.785162    4.441946
  H      0.612766    1.950742    2.789007
  H      1.001047    0.709605    1.538988
  H      1.370656    0.399276    3.254329

 Total Charge           Charge          ....    1
 Multiplicity           Mult            ....    1
 Number of Electrons    NEL             ....   84
 Basis Dimension        Dim             ....  874

ORBITAL ENERGIES
----------------

  NO   OCC          E(Eh)            E(eV)
   0   2.0000     -19.266628      -524.2716
   1   2.0000     -14.558131      -396.1469
   2   2.0000     -10.270640      -279.4783
   3   2.0000     -10.267866      -279.4028
   4   2.0000     -10.199254      -277.5358
   5   2.0000     -10.192142      -277.3423
   6   2.0000     -10.191039      -277.3123
   7   2.0000     -10.189445      -277.2689
   8   2.0000     -10.188944      -277.2553
   9   2.0000     -10.184770      -277.1417
  10   2.0000     -10.179313      -276.9932
  11   2.0000      -1.274686       -34.6860
  12   2.0000      -0.933497       -25.4017
  13   2.0000      -0.862549       -23.4711
  14   2.0000      -0.800619       -21.7860
  15   2.0000      -0.755438       -20.5565
  16   2.0000      -0.717641       -19.5280
  17   2.0000      -0.706127       -19.2147
  18   2.0000      -0.705660       -19.2020
  19   2.0000      -0.657884       -17.9019
  20   2.0000      -0.620345       -16.8804
  21   2.0000      -0.584553       -15.9065
  22   2.0000      -0.561635       -15.2829
  23   2.0000      -0.534101       -14.5336
  24   2.0000      -0.499664       -13.5965
  25   2.0000      -0.484104       -13.1731
  26   2.0000      -0.464995       -12.6532
  27   2.0000      -0.460547       -12.5321
  28   2.0000      -0.435366       -11.8469
  29   2.0000      -0.431404       -11.7391
  30   2.0000      -0.422341       -11.4925
  31   2.0000      -0.419131       -11.4051
  32   2.0000      -0.398374       -10.8403
  33   2.0000      -0.396634       -10.7930
  34   2.0000      -0.394128       -10.7248
  35   2.0000      -0.388532       -10.5725
  36   2.0000      -0.375437       -10.2162
  37   2.0000      -0.372990       -10.1496
  38   2.0000      -0.366880        -9.9833
  39   2.0000      -0.347058        -9.4439
  40   2.0000      -0.334883        -9.1126
  41   2.0000      -0.271240        -7.3808
  42   0.0000      -0.165313        -4.4984
  43   0.0000      -0.013110        -0.3567
  44   0.0000      -0.005471        -0.1489
  45   0.0000       0.007166         0.1950
  46   0.0000       0.007984         0.2173

MULLIKEN ATOMIC CHARGES
-----------------------
   0 O :   -0.924792
   1 N :    0.876603
   2 C :    2.118060
   3 C :   -0.419952
   4 C :   -0.629625
   5 C :   -0.713016
   6 C :    1.746176
   7 C :   -1.033844
   8 C :   -1.367445
   9 C :   -1.141998
  10 C :   -1.214959
  11 H :    0.151269
  12 H :    0.224143
  13 H :    0.748493
  14 H :    0.300032
  15 H :    0.212159
  16 H :    0.344985
  17 H :    0.105753
  18 H :    0.196738
  19 H :    0.171603
  20 H :    0.135774
  21 H :    0.128567
  22 H :    0.244978
  23 H :    0.172922
  24 H :    0.157097
  25 H :    0.215871
  26 H :    0.194408
Sum of atomic charges:    1.0000000

LOEWDIN ATOMIC CHARGES
----------------------
   0 O :    0.659085
   1 N :   -0.007498
   2 C :   -0.383204
   3 C :    0.305023
   4 C :    0.259691
   5 C :    0.237878
   6 C :   -0.402133
   7 C :    0.624696
   8 C :    0.588106
   9 C :    0.618035
  10 C :    0.602410
  11 H :   -0.109293
  12 H :   -0.103995
  13 H :   -0.139800
  14 H :   -0.133729
  15 H :   -0.122374
  16 H :   -0.152055
  17 H :   -0.118390
  18 H :   -0.143767
  19 H :   -0.134669
  20 H :   -0.128053
  21 H :   -0.136293
  22 H :   -0.145703
  23 H :   -0.125706
  24 H :   -0.149780
  25 H :   -0.128370
  26 H :   -0.130114

  Mayer bond orders larger than 0.100000
B(  0-O ,  1-N ) :   0.6597 B(  0-O ,  6-C ) :  -0.1880 B(  0-O ,  8-C ) :   0.1340
B(  0-O , 10-C ) :   0.1188 B(  1-N ,  2-C ) :   0.8856 B(  1-N ,  3-C ) :   0.2236
B(  1-N ,  6-C ) :   0.8036 B(  1-N ,  7-C ) :   0.1049 B(  1-N ,  8-C ) :  -0.2643
B(  2-C ,  3-C ) :   0.3900 B(  2-C ,  4-C ) :   0.1607 B(  2-C ,  7-C ) :   0.3113
B(  2-C , 17-H ) :  -0.1052 B(  3-C ,  4-C ) :   0.7225 B(  3-C ,  7-C ) :   0.1224
B(  3-C , 11-H ) :   0.9790 B(  3-C , 12-H ) :   0.9824 B(  3-C , 13-H ) :   0.1412
B(  4-C ,  5-C ) :   1.6115 B(  5-C ,  6-C ) :   0.6870 B(  5-C ,  9-C ) :  -0.1389
B(  5-C , 14-H ) :   0.9703 B(  6-C ,  9-C ) :   0.4096 B(  6-C , 10-C ) :   0.2778
B(  7-C ,  8-C ) :   0.1421 B(  7-C , 15-H ) :   0.9758 B(  7-C , 16-H ) :   0.8686
B(  7-C , 17-H ) :   1.1445 B(  8-C , 18-H ) :   1.0436 B(  8-C , 19-H ) :   1.1110
B(  8-C , 20-H ) :   1.1624 B(  9-C , 10-C ) :   0.2010 B(  9-C , 21-H ) :   1.1151
B(  9-C , 22-H ) :   0.9611 B(  9-C , 23-H ) :   1.0907 B( 10-C , 24-H ) :   1.0995
B( 10-C , 25-H ) :   1.0155 B( 10-C , 26-H ) :   1.0700

Dispersion correction           -0.050978920
FINAL SINGLE POINT ENERGY      -482.227243447481

DIPOLE MOMENT
-------------

Method             : SCF
Type of density    : Electron Density
Multiplicity       :   1
Irrep              :   0
Energy             :  -482.1762645270049461 Eh
Relativity type    :
Basis              : AO
                                X                 Y                 Z
Electronic contribution:     -2.694457253       0.029159998      -0.534578474
Nuclear contribution   :      3.088927410      -0.095134284       0.454097178
                        -----------------------------------------
Total Dipole Moment    :      0.394470156      -0.065974286      -0.080481296
                        -----------------------------------------
Magnitude (a.u.)       :      0.407966358
Magnitude (Debye)      :      1.036968074

Rotational constants in cm-1:             0.051995             0.036397             0.030146
Rotational constants in MHz :          1558.765882          1091.144705           903.756196

                             ****ORCA TERMINATED NORMALLY****
TOTAL RUN TIME: 0 days 0 hours 5 minutes 38 seconds 31 msec
