                         Program Version 6.0.0  -   RELEASE  -
|  1> !B3LYP aug-cc-pVTZ d3 TightSCF SlowConv RIJCOSX defgrid2
|  2>
|  3> %pal
|  4> nprocs 4
|  5> end
|  6>
|  7> %scf
|  8> MaxIter 1500
|  9> end
| 10>
| 11> %maxcore 3000
| 12>
| 13> !CPCM
| 14> %cpcm smd true
| 15> SMDsolvent "MeCN"
| 16> surfacetype gepol_ses
| 17> rsolv 2.19
| 18> end
| 19>
| 20> * xyz -1 2
| 21> C          -1.65840506329252      1.23315632851947      0.02601526537403
| 22> C          -2.42578649114951      0.03281585518203      0.08528804223097
| 23> C          -1.67500855485910     -1.17845195322716      0.12036686377485
| 24> C          -0.29808583706699     -1.18487448797938      0.09449761529292
| 25> C           0.47768362470154      0.01218058376897      0.03640458659712
| 26> C          -0.28519866523432      1.22292049595471      0.00549364199425
| 27> H           0.23475594749759      2.18352828017466     -0.06045863687846
| 28> C           1.92437178707837      0.00115458002986      0.01100117558003
| 29> C           2.67883904782948     -1.19675573826742     -0.15101120804037
| 30> C           4.06549110019082     -1.20386096938929     -0.17390692614329
| 31> C           4.80148582635897     -0.01911609182057     -0.03832527138067
| 32> C           4.08714619159076      1.17581153913523      0.12162078849715
| 33> C           2.70053896682853      1.18836482105812      0.14598455531242
| 34> H           2.19415808930578      2.14532112879358      0.29368951522032
| 35> H           4.62811245028724      2.12283575750504      0.23701258282278
| 36> H           5.89571186828997     -0.02674525345583     -0.05713878250098
| 37> H           4.58896204524971     -2.15823787143737     -0.30821999533445
| 38> H           2.15467602469528     -2.14659846493838     -0.28283079681457
| 39> H           0.20917374243606     -2.15301705967323      0.14488479784911
| 40> H          -2.19771917366060     -2.13934491080503      0.17750905700078
| 41> C          -3.86642076140458      0.10366572155671      0.10496388365322
| 42> O          -4.50000624052699      1.17092445235144      0.07778084872509
| 43> C          -4.64653285281065     -1.20806217086235      0.16034754144994
| 44> H          -5.72082859909169     -0.96357086012156      0.16151446988558
| 45> H          -4.42797764815507     -1.85931891363364     -0.70698861916337
| 46> H          -4.41233005196803     -1.79426891356283      1.06923738121782
| 47> H          -2.21281117312006      2.17574341514422     -0.01014627622221
| 48> *
| 49>
| 50>                          ****END OF INPUT****

CARTESIAN COORDINATES (ANGSTROEM)
---------------------------------
  C     -1.658405    1.233156    0.026015
  C     -2.425786    0.032816    0.085288
  C     -1.675009   -1.178452    0.120367
  C     -0.298086   -1.184874    0.094498
  C      0.477684    0.012181    0.036405
  C     -0.285199    1.222920    0.005494
  H      0.234756    2.183528   -0.060459
  C      1.924372    0.001155    0.011001
  C      2.678839   -1.196756   -0.151011
  C      4.065491   -1.203861   -0.173907
  C      4.801486   -0.019116   -0.038325
  C      4.087146    1.175812    0.121621
  C      2.700539    1.188365    0.145985
  H      2.194158    2.145321    0.293690
  H      4.628112    2.122836    0.237013
  H      5.895712   -0.026745   -0.057139
  H      4.588962   -2.158238   -0.308220
  H      2.154676   -2.146598   -0.282831
  H      0.209174   -2.153017    0.144885
  H     -2.197719   -2.139345    0.177509
  C     -3.866421    0.103666    0.104964
  O     -4.500006    1.170924    0.077781
  C     -4.646533   -1.208062    0.160348
  H     -5.720829   -0.963571    0.161514
  H     -4.427978   -1.859319   -0.706989
  H     -4.412330   -1.794269    1.069237
  H     -2.212811    2.175743   -0.010146

 Total Charge           Charge          ....   -1
 Multiplicity           Mult            ....    2
 Number of Electrons    NEL             ....  105
 Basis Dimension        Dim             ....  966

ORBITAL ENERGIES
----------------
                 SPIN UP ORBITALS
  NO   OCC          E(Eh)            E(eV)
   0   1.0000     -19.064272      -518.7652
   1   1.0000     -10.206784      -277.7407
   2   1.0000     -10.171947      -276.7928
   3   1.0000     -10.163666      -276.5674
   4   1.0000     -10.163578      -276.5650
   5   1.0000     -10.158877      -276.4371
   6   1.0000     -10.158834      -276.4359
   7   1.0000     -10.157952      -276.4119
   8   1.0000     -10.157680      -276.4045
   9   1.0000     -10.154944      -276.3301
  10   1.0000     -10.153646      -276.2947
  11   1.0000     -10.153236      -276.2836
  12   1.0000     -10.150159      -276.1999
  13   1.0000     -10.146534      -276.1012
  14   1.0000     -10.143757      -276.0257
  15   1.0000      -0.987206       -26.8632
  16   1.0000      -0.848026       -23.0760
  17   1.0000      -0.825394       -22.4601
  18   1.0000      -0.763620       -20.7792
  19   1.0000      -0.733586       -19.9619
  20   1.0000      -0.725285       -19.7360
  21   1.0000      -0.717458       -19.5230
  22   1.0000      -0.687979       -18.7209
  23   1.0000      -0.622885       -16.9496
  24   1.0000      -0.597064       -16.2469
  25   1.0000      -0.569568       -15.4987
  26   1.0000      -0.560768       -15.2593
  27   1.0000      -0.525272       -14.2934
  28   1.0000      -0.506802       -13.7908
  29   1.0000      -0.466808       -12.7025
  30   1.0000      -0.450686       -12.2638
  31   1.0000      -0.443988       -12.0815
  32   1.0000      -0.416229       -11.3262
  33   1.0000      -0.413263       -11.2455
  34   1.0000      -0.412452       -11.2234
  35   1.0000      -0.411888       -11.2080
  36   1.0000      -0.406351       -11.0574
  37   1.0000      -0.390996       -10.6395
  38   1.0000      -0.377723       -10.2784
  39   1.0000      -0.374029       -10.1779
  40   1.0000      -0.368616       -10.0305
  41   1.0000      -0.349299        -9.5049
  42   1.0000      -0.346119        -9.4184
  43   1.0000      -0.331848        -9.0300
  44   1.0000      -0.328634        -8.9426
  45   1.0000      -0.326880        -8.8949
  46   1.0000      -0.297730        -8.1016
  47   1.0000      -0.273892        -7.4530
  48   1.0000      -0.250802        -6.8247
  49   1.0000      -0.244137        -6.6433
  50   1.0000      -0.219587        -5.9753
  51   1.0000      -0.211328        -5.7505
  52   1.0000      -0.100472        -2.7340
  53   0.0000      -0.010263        -0.2793
  54   0.0000      -0.008654        -0.2355
  55   0.0000      -0.002148        -0.0585
  56   0.0000       0.005381         0.1464
  57   0.0000       0.013387         0.3643

                 SPIN DOWN ORBITALS
  NO   OCC          E(Eh)            E(eV)
   0   1.0000     -19.060094      -518.6515
   1   1.0000     -10.204549      -277.6799
   2   1.0000     -10.172127      -276.7977
   3   1.0000     -10.164288      -276.5843
   4   1.0000     -10.164195      -276.5818
   5   1.0000     -10.157543      -276.4008
   6   1.0000     -10.157512      -276.3999
   7   1.0000     -10.155745      -276.3519
   8   1.0000     -10.154576      -276.3201
   9   1.0000     -10.154052      -276.3058
  10   1.0000     -10.153839      -276.3000
  11   1.0000     -10.153266      -276.2844
  12   1.0000     -10.149061      -276.1700
  13   1.0000     -10.146724      -276.1064
  14   1.0000     -10.141951      -275.9765
  15   1.0000      -0.979509       -26.6538
  16   1.0000      -0.845258       -23.0006
  17   1.0000      -0.822604       -22.3842
  18   1.0000      -0.758787       -20.6476
  19   1.0000      -0.731662       -19.9095
  20   1.0000      -0.722714       -19.6660
  21   1.0000      -0.713915       -19.4266
  22   1.0000      -0.685811       -18.6619
  23   1.0000      -0.616574       -16.7778
  24   1.0000      -0.596349       -16.2275
  25   1.0000      -0.566320       -15.4103
  26   1.0000      -0.559922       -15.2362
  27   1.0000      -0.522512       -14.2183
  28   1.0000      -0.505021       -13.7423
  29   1.0000      -0.464363       -12.6360
  30   1.0000      -0.449230       -12.2242
  31   1.0000      -0.441700       -12.0193
  32   1.0000      -0.415183       -11.2977
  33   1.0000      -0.411941       -11.2095
  34   1.0000      -0.410688       -11.1754
  35   1.0000      -0.405696       -11.0396
  36   1.0000      -0.403999       -10.9934
  37   1.0000      -0.390333       -10.6215
  38   1.0000      -0.374378       -10.1873
  39   1.0000      -0.368628       -10.0309
  40   1.0000      -0.366583        -9.9752
  41   1.0000      -0.344637        -9.3781
  42   1.0000      -0.341891        -9.3033
  43   1.0000      -0.330113        -8.9828
  44   1.0000      -0.327828        -8.9207
  45   1.0000      -0.311218        -8.4687
  46   1.0000      -0.296932        -8.0799
  47   1.0000      -0.260927        -7.1002
  48   1.0000      -0.245315        -6.6754
  49   1.0000      -0.237001        -6.4491
  50   1.0000      -0.215756        -5.8710
  51   1.0000      -0.197141        -5.3645
  52   0.0000      -0.046654        -1.2695
  53   0.0000      -0.008247        -0.2244
  54   0.0000      -0.002254        -0.0613
  55   0.0000       0.005277         0.1436
  56   0.0000       0.008500         0.2313

MULLIKEN ATOMIC CHARGES AND SPIN POPULATIONS
--------------------------------------------
   0 C :   -1.291679    0.095135
   1 C :    1.841155    0.135096
   2 C :   -0.846727    0.094674
   3 C :   -1.010374    0.000014
   4 C :    1.892094    0.243995
   5 C :   -0.947676   -0.000918
   6 H :    0.138345   -0.008975
   7 C :    2.283965   -0.033334
   8 C :   -0.804635    0.109280
   9 C :   -0.998720   -0.046179
  10 C :   -0.345238    0.139122
  11 C :   -0.960001   -0.046086
  12 C :   -0.790025    0.105998
  13 H :    0.139237   -0.008137
  14 H :    0.378107   -0.000137
  15 H :    0.479145   -0.007631
  16 H :    0.357239    0.000403
  17 H :    0.106519   -0.008683
  18 H :    0.194822   -0.005746
  19 H :   -0.274735   -0.016425
  20 C :    0.693117    0.110586
  21 O :   -1.081020    0.160290
  22 C :   -0.693042   -0.012547
  23 H :    0.177412   -0.000889
  24 H :    0.228208    0.007699
  25 H :    0.233695    0.007110
  26 H :   -0.099189   -0.013717
Sum of atomic charges         :   -1.0000000

LOEWDIN ATOMIC CHARGES AND SPIN POPULATIONS
-------------------------------------------
   0 C :    0.153666    0.059053
   1 C :   -0.192771    0.106347
   2 C :    0.165344    0.059908
   3 C :    0.179387    0.040053
   4 C :   -0.136076    0.115774
   5 C :    0.177183    0.037112
   6 H :   -0.204966    0.001864
   7 C :   -0.135266    0.050359
   8 C :    0.184044    0.044212
   9 C :    0.155447    0.013397
  10 C :    0.157362    0.061418
  11 C :    0.155571    0.013498
  12 C :    0.184024    0.043948
  13 H :   -0.204162    0.009785
  14 H :   -0.176069   -0.002696
  15 H :   -0.186844    0.016298
  16 H :   -0.176029   -0.002745
  17 H :   -0.203854    0.009929
  18 H :   -0.203851    0.002758
  19 H :   -0.192326    0.010249
  20 C :   -0.646716    0.123878
  21 O :    0.379471    0.143472
  22 C :    0.509727    0.021438
  23 H :   -0.195786   -0.000433
  24 H :   -0.172317    0.005281
  25 H :   -0.172036    0.005331
  26 H :   -0.202159    0.010513

  Mayer bond orders larger than 0.100000
B(  0-C ,  1-C ) :   0.1100 B(  0-C ,  2-C ) :  -0.4616 B(  0-C ,  4-C ) :  -0.3073
B(  0-C ,  5-C ) :   1.5413 B(  0-C , 13-H ) :  -0.1073 B(  0-C , 15-H ) :   0.1066
B(  0-C , 18-H ) :  -0.1971 B(  0-C , 20-C ) :   0.1791 B(  0-C , 26-H ) :   1.5351
B(  1-C ,  3-C ) :   0.2227 B(  1-C ,  4-C ) :  -0.2064 B(  1-C ,  5-C ) :   0.2888
B(  1-C ,  7-C ) :   0.1388 B(  1-C , 19-H ) :  -0.5194 B(  1-C , 20-C ) :   0.3337
B(  1-C , 21-O ) :   0.3742 B(  1-C , 22-C ) :  -0.1062 B(  1-C , 26-H ) :  -0.3260
B(  2-C ,  3-C ) :   1.1016 B(  2-C ,  4-C ) :  -0.2569 B(  2-C ,  5-C ) :  -0.1271
B(  2-C ,  6-H ) :  -0.1329 B(  2-C ,  7-C ) :   0.1300 B(  2-C , 17-H ) :  -0.1149
B(  2-C , 19-H ) :   2.0313 B(  2-C , 20-C ) :   0.2430 B(  2-C , 26-H ) :   0.1424
B(  3-C ,  4-C ) :  -0.3962 B(  3-C ,  5-C ) :  -0.5810 B(  3-C ,  6-H ) :  -0.1047
B(  3-C ,  7-C ) :   0.2812 B(  3-C ,  8-C ) :  -0.1100 B(  3-C ,  9-C ) :  -0.1048
B(  3-C , 17-H ) :   0.1577 B(  3-C , 18-H ) :   1.0706 B(  4-C ,  5-C ) :  -0.2728
B(  4-C ,  6-H ) :  -0.1721 B(  4-C ,  7-C ) :   0.1229 B(  4-C ,  8-C ) :   0.6027
B(  4-C ,  9-C ) :   0.1613 B(  4-C , 10-C ) :   0.1962 B(  4-C , 11-C ) :   0.2018
B(  4-C , 12-C ) :   0.4331 B(  4-C , 13-H ) :  -0.1333 B(  4-C , 17-H ) :  -0.1232
B(  4-C , 20-C ) :   0.3383 B(  5-C ,  6-H ) :   1.3180 B(  5-C ,  7-C ) :   0.2291
B(  5-C , 19-H ) :  -0.1645 B(  5-C , 20-C ) :  -0.1084 B(  6-H ,  7-C ) :  -0.2163
B(  6-H , 11-C ) :  -0.1034 B(  6-H , 12-C ) :   0.1610 B(  6-H , 13-H ) :   0.1500
B(  7-C ,  8-C ) :  -0.3575 B(  7-C ,  9-C ) :  -0.1945 B(  7-C , 10-C ) :  -0.2252
B(  7-C , 11-C ) :  -0.1773 B(  7-C , 12-C ) :  -0.2547 B(  7-C , 16-H ) :   0.1279
B(  7-C , 18-H ) :  -0.1609 B(  8-C ,  9-C ) :   1.1252 B(  8-C , 10-C ) :  -0.1026
B(  8-C , 12-C ) :  -0.6617 B(  8-C , 17-H ) :   1.3580 B(  8-C , 18-H ) :   0.1053
B(  9-C , 10-C ) :   1.1847 B(  9-C , 11-C ) :   0.2977 B(  9-C , 16-H ) :   0.6883
B(  9-C , 17-H ) :  -0.1842 B( 10-C , 11-C ) :   1.1802 B( 10-C , 12-C ) :  -0.1073
B( 10-C , 15-H ) :   0.6749 B( 11-C , 12-C ) :   1.1453 B( 11-C , 13-H ) :  -0.1728
B( 11-C , 14-H ) :   0.6689 B( 12-C , 13-H ) :   1.2810 B( 12-C , 20-C ) :   0.1201
B( 13-H , 19-H ) :  -0.1843 B( 13-H , 20-C ) :   0.1359 B( 13-H , 26-H ) :  -0.1540
B( 16-H , 18-H ) :  -0.1132 B( 16-H , 19-H ) :   0.1112 B( 17-H , 18-H ) :   0.1433
B( 17-H , 19-H ) :  -0.2027 B( 19-H , 26-H ) :   0.1911 B( 20-C , 21-O ) :   0.4711
B( 20-C , 22-C ) :   0.9314 B( 21-O , 26-H ) :   0.1605 B( 22-C , 23-H ) :   0.9563
B( 22-C , 24-H ) :   0.9899 B( 22-C , 25-H ) :   0.9829

Dispersion correction           -0.056011334
FINAL SINGLE POINT ENERGY      -615.950685106091

DIPOLE MOMENT
-------------

Method             : SCF
Type of density    : Electron Density
Multiplicity       :   2
Irrep              :   0
Energy             :  -615.8946737722114904 Eh
Relativity type    :
Basis              : AO
                                X                 Y                 Z
Electronic contribution:      2.084324593       3.009308405      -0.131126287
Nuclear contribution   :      0.834188955      -4.415620198       0.130351873
                        -----------------------------------------
Total Dipole Moment    :      2.918513548      -1.406311793      -0.000774414
                        -----------------------------------------
Magnitude (a.u.)       :      3.239665845
Magnitude (Debye)      :      8.234576167

Rotational constants in cm-1:             0.074676             0.008546             0.007689
Rotational constants in MHz :          2238.715412           256.196904           230.518012

                             ****ORCA TERMINATED NORMALLY****
TOTAL RUN TIME: 0 days 0 hours 16 minutes 12 seconds 984 msec
