                         Program Version 6.0.0  -   RELEASE  -
|  1> !B3LYP aug-cc-pVTZ d3 TightSCF SlowConv RIJCOSX defgrid2
|  2>
|  3> %pal
|  4> nprocs 4
|  5> end
|  6>
|  7> %scf
|  8> MaxIter 1500
|  9> end
| 10>
| 11> %maxcore 3000
| 12>
| 13> !CPCM
| 14> %cpcm smd true
| 15> SMDsolvent "MeCN"
| 16> surfacetype gepol_ses
| 17> rsolv 2.19
| 18> end
| 19>
| 20> * xyz 0 1
| 21> C          -0.49592270970750      1.20689036506876     -0.03130110264914
| 22> C          -1.88685532532519      1.19699753212455     -0.02314506175738
| 23> C          -2.60125975900159      0.00006218322477     -0.01917601586061
| 24> C          -1.88691051129410     -1.19690511286666     -0.02342725949643
| 25> C          -0.49597917173478     -1.20686134487156     -0.03159202517744
| 26> C           0.23868603456831     -0.00000172653772     -0.03609509009819
| 27> N           1.61626182022358     -0.00003106078646     -0.04469127469160
| 28> C           2.33183955992311      1.24597481666428     -0.04486665705751
| 29> H           3.41338665254704      1.04576364513015     -0.05323272367948
| 30> H           2.09753310431419      1.86285731996164     -0.93541110907656
| 31> H           2.10988003494310      1.85696995864317      0.85303702382408
| 32> C           2.33179343347907     -1.24606302804888     -0.04453387362300
| 33> H           3.41335300622739     -1.04589190456372     -0.05217912937846
| 34> H           2.10924230348017     -1.85707031820411      0.85320726726296
| 35> H           2.09802467704190     -1.86292175713273     -0.93524555395099
| 36> H           0.02088202703341     -2.16757371924062     -0.03449261449586
| 37> H          -2.42069136544180     -2.15271053199358     -0.02020648268014
| 38> H          -3.69441433931262      0.00008648240457     -0.01268972961591
| 39> H          -2.42058983097200      2.15282777025830     -0.01968144249458
| 40> H           0.02098115900830      2.16758023076587     -0.03391284530377
| 41> *
| 42>
| 43>                          ****END OF INPUT****

CARTESIAN COORDINATES (ANGSTROEM)
---------------------------------
  C     -0.495923    1.206890   -0.031301
  C     -1.886855    1.196998   -0.023145
  C     -2.601260    0.000062   -0.019176
  C     -1.886911   -1.196905   -0.023427
  C     -0.495979   -1.206861   -0.031592
  C      0.238686   -0.000002   -0.036095
  N      1.616262   -0.000031   -0.044691
  C      2.331840    1.245975   -0.044867
  H      3.413387    1.045764   -0.053233
  H      2.097533    1.862857   -0.935411
  H      2.109880    1.856970    0.853037
  C      2.331793   -1.246063   -0.044534
  H      3.413353   -1.045892   -0.052179
  H      2.109242   -1.857070    0.853207
  H      2.098025   -1.862922   -0.935246
  H      0.020882   -2.167574   -0.034493
  H     -2.420691   -2.152711   -0.020206
  H     -3.694414    0.000086   -0.012690
  H     -2.420590    2.152828   -0.019681
  H      0.020981    2.167580   -0.033913

 Total Charge           Charge          ....    0
 Multiplicity           Mult            ....    1
 Number of Electrons    NEL             ....   66
 Basis Dimension        Dim             ....  667

ORBITAL ENERGIES
----------------

  NO   OCC          E(Eh)            E(eV)
   0   2.0000     -14.330256      -389.9461
   1   2.0000     -10.211260      -277.8625
   2   2.0000     -10.190715      -277.3034
   3   2.0000     -10.190697      -277.3030
   4   2.0000     -10.170477      -276.7528
   5   2.0000     -10.170453      -276.7521
   6   2.0000     -10.163865      -276.5728
   7   2.0000     -10.163851      -276.5724
   8   2.0000     -10.159588      -276.4564
   9   2.0000      -0.947727       -25.7890
  10   2.0000      -0.839589       -22.8464
  11   2.0000      -0.743170       -20.2227
  12   2.0000      -0.740409       -20.1476
  13   2.0000      -0.710543       -19.3349
  14   2.0000      -0.650669       -17.7056
  15   2.0000      -0.593490       -16.1497
  16   2.0000      -0.567657       -15.4467
  17   2.0000      -0.522706       -14.2236
  18   2.0000      -0.474443       -12.9103
  19   2.0000      -0.467534       -12.7222
  20   2.0000      -0.456865       -12.4319
  21   2.0000      -0.437913       -11.9162
  22   2.0000      -0.415224       -11.2988
  23   2.0000      -0.412731       -11.2310
  24   2.0000      -0.392708       -10.6861
  25   2.0000      -0.384178       -10.4540
  26   2.0000      -0.365893        -9.9565
  27   2.0000      -0.365884        -9.9562
  28   2.0000      -0.351030        -9.5520
  29   2.0000      -0.328287        -8.9331
  30   2.0000      -0.284782        -7.7493
  31   2.0000      -0.252140        -6.8611
  32   2.0000      -0.191049        -5.1987
  33   0.0000      -0.009179        -0.2498
  34   0.0000      -0.005257        -0.1430
  35   0.0000       0.007764         0.2113
  36   0.0000       0.008800         0.2395
  37   0.0000       0.012015         0.3269

MULLIKEN ATOMIC CHARGES
-----------------------
   0 C :   -0.619326
   1 C :   -0.590273
   2 C :   -0.576811
   3 C :   -0.589352
   4 C :   -0.619848
   5 C :    1.429101
   6 N :   -0.128030
   7 C :   -0.897461
   8 H :    0.298514
   9 H :    0.234249
  10 H :    0.235471
  11 C :   -0.897857
  12 H :    0.299677
  13 H :    0.235242
  14 H :    0.234382
  15 H :    0.313024
  16 H :    0.438845
  17 H :    0.447763
  18 H :    0.437320
  19 H :    0.315372
Sum of atomic charges:    0.0000000

LOEWDIN ATOMIC CHARGES
----------------------
   0 C :    0.200923
   1 C :    0.162684
   2 C :    0.157356
   3 C :    0.162684
   4 C :    0.200921
   5 C :   -0.229131
   6 N :    0.230773
   7 C :    0.461882
   8 H :   -0.160758
   9 H :   -0.142228
  10 H :   -0.141726
  11 C :    0.461890
  12 H :   -0.160738
  13 H :   -0.141760
  14 H :   -0.142207
  15 H :   -0.196637
  16 H :   -0.171750
  17 H :   -0.183791
  18 H :   -0.171751
  19 H :   -0.196636

  Mayer bond orders larger than 0.100000
B(  0-C ,  1-C ) :   0.9969 B(  0-C ,  2-C ) :   0.2725 B(  0-C ,  4-C ) :   0.2677
B(  0-C ,  5-C ) :   0.5586 B(  0-C ,  6-N ) :  -0.3116 B(  0-C ,  7-C ) :  -0.1205
B(  0-C , 19-H ) :   0.7544 B(  1-C ,  2-C ) :   1.1002 B(  1-C ,  5-C ) :  -0.2732
B(  1-C , 18-H ) :   0.6893 B(  2-C ,  3-C ) :   1.0984 B(  2-C ,  4-C ) :   0.2724
B(  2-C ,  5-C ) :  -0.1840 B(  2-C , 17-H ) :   0.6141 B(  3-C ,  4-C ) :   0.9990
B(  3-C ,  5-C ) :  -0.2759 B(  3-C , 16-H ) :   0.6876 B(  4-C ,  5-C ) :   0.5579
B(  4-C ,  6-N ) :  -0.3129 B(  4-C , 11-C ) :  -0.1238 B(  4-C , 15-H ) :   0.7547
B(  5-C ,  6-N ) :   0.5541 B(  5-C ,  7-C ) :  -0.1442 B(  5-C , 11-C ) :  -0.1436
B(  6-N ,  7-C ) :   1.1043 B(  6-N , 11-C ) :   1.1040 B(  7-C ,  8-H ) :   0.8917
B(  7-C ,  9-H ) :   0.9983 B(  7-C , 10-H ) :   0.9966 B( 11-C , 12-H ) :   0.8909
B( 11-C , 13-H ) :   0.9967 B( 11-C , 14-H ) :   0.9981

Dispersion correction           -0.034343523
FINAL SINGLE POINT ENERGY      -366.153721198123

DIPOLE MOMENT
-------------

Method             : SCF
Type of density    : Electron Density
Multiplicity       :   1
Irrep              :   0
Energy             :  -366.1193776746515596 Eh
Relativity type    :
Basis              : AO
                                X                 Y                 Z
Electronic contribution:     -5.126769639       0.000175853       0.015449161
Nuclear contribution   :      6.353119330      -0.000129568      -0.019904796
                        -----------------------------------------
Total Dipole Moment    :      1.226349690       0.000046285      -0.004455635
                        -----------------------------------------
Magnitude (a.u.)       :      1.226357785
Magnitude (Debye)      :      3.117153766

Rotational constants in cm-1:             0.116345             0.041042             0.030696
Rotational constants in MHz :          3487.926774          1230.417082           920.238252

                             ****ORCA TERMINATED NORMALLY****
TOTAL RUN TIME: 0 days 0 hours 5 minutes 0 seconds 354 msec
