                         Program Version 6.0.0  -   RELEASE  -
|  1> !r2SCAN aug-cc-pVTZ d3 TightSCF SlowConv RIJCOSX defgrid2
|  2>
|  3> %pal
|  4> nprocs 4
|  5> end
|  6>
|  7> %scf
|  8> MaxIter 1500
|  9> end
| 10>
| 11> %maxcore 3000
| 12>
| 13> !CPCM
| 14> %cpcm smd true
| 15> SMDsolvent "MeCN"
| 16> surfacetype gepol_ses
| 17> rsolv 2.19
| 18> end
| 19>
| 20> * xyz 1 2
| 21> C           1.23906097821424     -1.40551070901350     -0.00000531617187
| 22> C           2.45015803140750     -0.67322429285633     -0.00000921567554
| 23> C           2.42811091171597      0.71268482354482     -0.00001568112958
| 24> C           1.19571143634270      1.39424054969992     -0.00001075953318
| 25> C          -0.03981045812169      0.67829020396443      0.00000284784769
| 26> N          -1.17332230996389      1.38563715697618      0.00000321346217
| 27> C          -2.32918806881659      0.72347909408816      0.00002389103772
| 28> C          -2.42077579021744     -0.67559967987832      0.00002275899277
| 29> C          -1.24727430719380     -1.42666779167592      0.00001979178345
| 30> C          -0.01202551197153     -0.74717299874334      0.00001126438315
| 31> H          -1.27875276164831     -2.52070410881391      0.00003141451029
| 32> H          -3.39973883027065     -1.16186770315986      0.00002731924985
| 33> H          -3.23745148992936      1.33696404502357      0.00004224395057
| 34> H           1.14599213399064      2.48703198107260     -0.00001815853916
| 35> H           3.36241847162623      1.28070852836563     -0.00003089393792
| 36> H           3.40229793543149     -1.21093180244413     -0.00001262742469
| 37> H           1.27044702940448     -2.50010749615001     -0.00001669280572
| 38> *
| 39>
| 40>                          ****END OF INPUT****

CARTESIAN COORDINATES (ANGSTROEM)
---------------------------------
  C      1.239061   -1.405511   -0.000005
  C      2.450158   -0.673224   -0.000009
  C      2.428111    0.712685   -0.000016
  C      1.195711    1.394241   -0.000011
  C     -0.039810    0.678290    0.000003
  N     -1.173322    1.385637    0.000003
  C     -2.329188    0.723479    0.000024
  C     -2.420776   -0.675600    0.000023
  C     -1.247274   -1.426668    0.000020
  C     -0.012026   -0.747173    0.000011
  H     -1.278753   -2.520704    0.000031
  H     -3.399739   -1.161868    0.000027
  H     -3.237451    1.336964    0.000042
  H      1.145992    2.487032   -0.000018
  H      3.362418    1.280709   -0.000031
  H      3.402298   -1.210932   -0.000013
  H      1.270447   -2.500107   -0.000017

 Total Charge           Charge          ....    1
 Multiplicity           Mult            ....    2
 Number of Electrons    NEL             ....   67
 Basis Dimension        Dim             ....  621

ORBITAL ENERGIES
----------------
                 SPIN UP ORBITALS
  NO   OCC          E(Eh)            E(eV)
   0   1.0000     -14.208763      -386.6401
   1   1.0000     -10.120527      -275.3935
   2   1.0000     -10.119553      -275.3670
   3   1.0000     -10.115485      -275.2563
   4   1.0000     -10.110567      -275.1225
   5   1.0000     -10.102915      -274.9143
   6   1.0000     -10.098191      -274.7857
   7   1.0000     -10.096443      -274.7382
   8   1.0000     -10.094440      -274.6837
   9   1.0000     -10.086056      -274.4555
  10   1.0000      -0.958770       -26.0895
  11   1.0000      -0.866457       -23.5775
  12   1.0000      -0.817412       -22.2429
  13   1.0000      -0.763661       -20.7803
  14   1.0000      -0.756447       -20.5840
  15   1.0000      -0.655511       -17.8374
  16   1.0000      -0.637263       -17.3408
  17   1.0000      -0.612887       -16.6775
  18   1.0000      -0.534520       -14.5450
  19   1.0000      -0.519742       -14.1429
  20   1.0000      -0.510716       -13.8973
  21   1.0000      -0.459324       -12.4988
  22   1.0000      -0.446674       -12.1546
  23   1.0000      -0.435777       -11.8581
  24   1.0000      -0.435704       -11.8561
  25   1.0000      -0.407606       -11.0915
  26   1.0000      -0.402065       -10.9408
  27   1.0000      -0.371660       -10.1134
  28   1.0000      -0.368737       -10.0338
  29   1.0000      -0.354143        -9.6367
  30   1.0000      -0.337847        -9.1933
  31   1.0000      -0.279146        -7.5960
  32   1.0000      -0.275544        -7.4979
  33   1.0000      -0.268982        -7.3194
  34   0.0000      -0.139704        -3.8015
  35   0.0000      -0.080553        -2.1920
  36   0.0000      -0.067798        -1.8449
  37   0.0000       0.004812         0.1310
  38   0.0000       0.008050         0.2190

                 SPIN DOWN ORBITALS
  NO   OCC          E(Eh)            E(eV)
   0   1.0000     -14.205332      -386.5467
   1   1.0000     -10.120437      -275.3911
   2   1.0000     -10.114330      -275.2249
   3   1.0000     -10.110859      -275.1304
   4   1.0000     -10.108743      -275.0729
   5   1.0000     -10.100651      -274.8527
   6   1.0000     -10.097427      -274.7650
   7   1.0000     -10.096850      -274.7493
   8   1.0000     -10.094492      -274.6851
   9   1.0000     -10.085022      -274.4274
  10   1.0000      -0.953847       -25.9555
  11   1.0000      -0.857363       -23.3300
  12   1.0000      -0.810540       -22.0559
  13   1.0000      -0.762647       -20.7527
  14   1.0000      -0.740469       -20.1492
  15   1.0000      -0.650495       -17.7009
  16   1.0000      -0.634191       -17.2572
  17   1.0000      -0.606536       -16.5047
  18   1.0000      -0.530425       -14.4336
  19   1.0000      -0.517334       -14.0774
  20   1.0000      -0.508975       -13.8499
  21   1.0000      -0.459247       -12.4967
  22   1.0000      -0.444082       -12.0841
  23   1.0000      -0.433493       -11.7960
  24   1.0000      -0.423738       -11.5305
  25   1.0000      -0.405370       -11.0307
  26   1.0000      -0.401204       -10.9173
  27   1.0000      -0.367487        -9.9998
  28   1.0000      -0.352213        -9.5842
  29   1.0000      -0.351264        -9.5584
  30   1.0000      -0.315434        -8.5834
  31   1.0000      -0.278394        -7.5755
  32   1.0000      -0.266317        -7.2468
  33   0.0000      -0.233238        -6.3467
  34   0.0000      -0.112077        -3.0498
  35   0.0000      -0.075639        -2.0583
  36   0.0000      -0.042960        -1.1690
  37   0.0000       0.006064         0.1650

MULLIKEN ATOMIC CHARGES AND SPIN POPULATIONS
--------------------------------------------
   0 C :   -0.822034    0.311603
   1 C :   -0.397064    0.058812
   2 C :   -0.164806   -0.021371
   3 C :   -0.828062    0.348039
   4 C :    0.689038   -0.012210
   5 N :   -0.667426    0.144407
   6 C :   -0.458850   -0.036334
   7 C :   -0.227097    0.051069
   8 C :   -0.809441    0.133704
   9 C :    1.831521   -0.069502
  10 H :    0.413069    0.009989
  11 H :    0.248842    0.005272
  12 H :    0.537902    0.003466
  13 H :    0.485432    0.037801
  14 H :    0.460051   -0.007296
  15 H :    0.603460    0.001053
  16 H :    0.105465    0.041497
Sum of atomic charges         :    1.0000000

LOEWDIN ATOMIC CHARGES AND SPIN POPULATIONS
-------------------------------------------
   0 C :    0.326704    0.192643
   1 C :    0.298274    0.101491
   2 C :    0.290977    0.075611
   3 C :    0.314239    0.198138
   4 C :   -0.279839    0.044420
   5 N :    0.420473    0.090164
   6 C :    0.084325    0.023359
   7 C :    0.283365    0.053295
   8 C :    0.294767    0.074059
   9 C :   -0.079587    0.036837
  10 H :   -0.125288    0.012598
  11 H :   -0.144130    0.007818
  12 H :   -0.158844   -0.000951
  13 H :   -0.131405    0.039443
  14 H :   -0.138651    0.002635
  15 H :   -0.136468    0.011250
  16 H :   -0.118911    0.037189

  Mayer bond orders larger than 0.100000
B(  0-C ,  1-C ) :   1.0437 B(  0-C ,  2-C ) :  -0.1599 B(  0-C ,  4-C ) :  -0.6875
B(  0-C ,  7-C ) :   0.1091 B(  0-C ,  8-C ) :   0.2892 B(  0-C ,  9-C ) :   0.2602
B(  0-C , 15-H ) :  -0.1074 B(  0-C , 16-H ) :   1.3408 B(  1-C ,  2-C ) :   1.0255
B(  1-C ,  3-C ) :   0.1482 B(  1-C ,  4-C ) :  -0.1396 B(  1-C ,  9-C ) :   0.1577
B(  1-C , 15-H ) :   0.3660 B(  2-C ,  3-C ) :   1.0969 B(  2-C ,  4-C ) :  -0.1446
B(  2-C ,  7-C ) :   0.1108 B(  2-C ,  8-C ) :   0.1506 B(  2-C ,  9-C ) :  -0.1996
B(  2-C , 13-H ) :   0.1232 B(  2-C , 14-H ) :   0.6104 B(  3-C ,  4-C ) :   0.6952
B(  3-C ,  5-N ) :   0.2185 B(  3-C ,  9-C ) :   0.2835 B(  3-C , 13-H ) :   0.3081
B(  4-C ,  6-C ) :   0.3055 B(  4-C ,  8-C ) :   0.6424 B(  4-C ,  9-C ) :   0.6522
B(  4-C , 12-H ) :   0.1008 B(  4-C , 16-H ) :   0.1263 B(  5-N ,  6-C ) :   1.5574
B(  5-N , 13-H ) :   0.1364 B(  6-C ,  7-C ) :   0.7995 B(  6-C ,  8-C ) :   0.3512
B(  6-C ,  9-C ) :  -0.4984 B(  6-C , 12-H ) :   0.4511 B(  7-C ,  8-C ) :   1.0177
B(  7-C ,  9-C ) :  -0.3407 B(  7-C , 11-H ) :   0.9987 B(  8-C ,  9-C ) :  -0.2160
B(  8-C , 10-H ) :   0.6611 B(  8-C , 16-H ) :  -0.1047 B(  9-C , 10-H ) :   0.1154
B(  9-C , 12-H ) :   0.1213

Dispersion correction           -0.005883819
FINAL SINGLE POINT ENERGY      -401.628974349337

DIPOLE MOMENT
-------------

Method             : SCF
Type of density    : Electron Density
Multiplicity       :   2
Irrep              :   0
Energy             :  -401.6230905299449887 Eh
Relativity type    :
Basis              : AO
                                X                 Y                 Z
Electronic contribution:     -0.266658500       0.739745555      -0.000166027
Nuclear contribution   :      1.179405862      -2.142414994      -0.000006417
                        -----------------------------------------
Total Dipole Moment    :      0.912747363      -1.402669439      -0.000172445
                        -----------------------------------------
Magnitude (a.u.)       :      1.673496140
Magnitude (Debye)      :      4.253689143

Rotational constants in cm-1:             0.105894             0.041940             0.030042
Rotational constants in MHz :          3174.630600          1257.322564           900.626549

                             ****ORCA TERMINATED NORMALLY****
TOTAL RUN TIME: 0 days 0 hours 5 minutes 30 seconds 18 msec
