                         Program Version 6.0.0  -   RELEASE  -
|  1> !r2SCANh aug-cc-pVTZ d3 TightSCF SlowConv RIJCOSX defgrid2
|  2>
|  3> %pal
|  4> nprocs 4
|  5> end
|  6>
|  7> %scf
|  8> MaxIter 1500
|  9> end
| 10>
| 11> %maxcore 3000
| 12>
| 13> !CPCM
| 14> %cpcm smd true
| 15> SMDsolvent "MeCN"
| 16> surfacetype gepol_ses
| 17> rsolv 2.19
| 18> end
| 19>
| 20> * xyz 0 1
| 21> C          -0.32048925823531     -1.08595168044653      0.00000936001316
| 22> C           0.99134202132746     -0.71584755612509      0.00000868106802
| 23> C           0.99130010917711      0.71590356660469     -0.00000127622817
| 24> C          -0.32055285170877      1.08593010296315      0.00001410652456
| 25> O          -1.11730139846665     -0.00003401203653      0.00002911176710
| 26> H          -0.82672168713073      2.04926041846335      0.00001957189355
| 27> H           1.85496968086204      1.37963412608217     -0.00001317553983
| 28> H           1.85505107384009     -1.37952667121287      0.00000466755780
| 29> H          -0.82660178966524     -2.04931169429235      0.00001155294381
| 30> *
| 31>
| 32>                          ****END OF INPUT****

CARTESIAN COORDINATES (ANGSTROEM)
---------------------------------
  C     -0.320489   -1.085952    0.000009
  C      0.991342   -0.715848    0.000009
  C      0.991300    0.715904   -0.000001
  C     -0.320553    1.085930    0.000014
  O     -1.117301   -0.000034    0.000029
  H     -0.826722    2.049260    0.000020
  H      1.854970    1.379634   -0.000013
  H      1.855051   -1.379527    0.000005
  H     -0.826602   -2.049312    0.000012

 Total Charge           Charge          ....    0
 Multiplicity           Mult            ....    1
 Number of Electrons    NEL             ....   36
 Basis Dimension        Dim             ....  322

ORBITAL ENERGIES
----------------

  NO   OCC          E(Eh)            E(eV)
   0   2.0000     -19.190938      -522.2120
   1   2.0000     -10.202756      -277.6311
   2   2.0000     -10.202739      -277.6306
   3   2.0000     -10.155624      -276.3486
   4   2.0000     -10.155227      -276.3378
   5   2.0000      -1.126676       -30.6584
   6   2.0000      -0.799070       -21.7438
   7   2.0000      -0.743954       -20.2440
   8   2.0000      -0.592872       -16.1329
   9   2.0000      -0.557233       -15.1631
  10   2.0000      -0.531613       -14.4659
  11   2.0000      -0.452239       -12.3061
  12   2.0000      -0.430391       -11.7115
  13   2.0000      -0.391956       -10.6657
  14   2.0000      -0.385606       -10.4929
  15   2.0000      -0.361235        -9.8297
  16   2.0000      -0.279092        -7.5945
  17   2.0000      -0.226271        -6.1572
  18   0.0000      -0.007773        -0.2115
  19   0.0000       0.015152         0.4123
  20   0.0000       0.030969         0.8427
  21   0.0000       0.033127         0.9014
  22   0.0000       0.046727         1.2715

MULLIKEN ATOMIC CHARGES
-----------------------
   0 C :   -0.478897
   1 C :   -0.408203
   2 C :   -0.407493
   3 C :   -0.478911
   4 O :   -0.182507
   5 H :    0.605535
   6 H :    0.372458
   7 H :    0.372395
   8 H :    0.605624
Sum of atomic charges:   -0.0000000

LOEWDIN ATOMIC CHARGES
----------------------
   0 C :   -0.061600
   1 C :    0.147895
   2 C :    0.147921
   3 C :   -0.061562
   4 O :    0.560809
   5 H :   -0.183532
   6 H :   -0.183193
   7 H :   -0.183198
   8 H :   -0.183539

  Mayer bond orders larger than 0.100000
B(  0-C ,  1-C ) :   1.1364 B(  0-C ,  4-O ) :   0.9663 B(  0-C ,  8-H ) :   0.5293
B(  1-C ,  2-C ) :   1.0652 B(  1-C ,  7-H ) :   0.9480 B(  2-C ,  3-C ) :   1.1362
B(  2-C ,  6-H ) :   0.9480 B(  3-C ,  4-O ) :   0.9663 B(  3-C ,  5-H ) :   0.5295

Dispersion correction           -0.001725568
FINAL SINGLE POINT ENERGY      -229.975530431759

DIPOLE MOMENT
-------------

Method             : SCF
Type of density    : Electron Density
Multiplicity       :   1
Irrep              :   0
Energy             :  -229.9738048638006376 Eh
Relativity type    :
Basis              : AO
                                X                 Y                 Z
Electronic contribution:     -1.630883887       0.000108304       0.001293862
Nuclear contribution   :      1.895786675       0.000056296      -0.000025910
                        -----------------------------------------
Total Dipole Moment    :      0.264902788       0.000164600       0.001267951
                        -----------------------------------------
Magnitude (a.u.)       :      0.264905874
Magnitude (Debye)      :      0.673337220

Rotational constants in cm-1:             0.318415             0.310107             0.157103
Rotational constants in MHz :          9545.838950          9296.781610          4709.832145

                             ****ORCA TERMINATED NORMALLY****
TOTAL RUN TIME: 0 days 0 hours 1 minutes 23 seconds 518 msec
