                         Program Version 6.0.0  -   RELEASE  -
|  1> !B3LYP aug-cc-pVTZ d3 TightSCF SlowConv RIJCOSX defgrid2
|  2>
|  3> %pal
|  4> nprocs 15
|  5> end
|  6>
|  7> %scf
|  8> MaxIter 1500
|  9> end
| 10>
| 11> %maxcore 3500
| 12>
| 13> !CPCM
| 14> %cpcm smd true
| 15> SMDsolvent "WATER"
| 16> surfacetype gepol_ses
| 17> rsolv 1.40
| 18> end
| 19>
| 20> * xyz 0 1
| 21> C          -0.04022979995253      0.10934243063256     -0.04781414840262
| 22> C          -1.20598933737927     -0.38579508968121      0.72535064655671
| 23> C           1.16762735129884      0.48320931067021      0.71660533841080
| 24> H          -2.08977721092752     -0.65804131143695      0.14047110955844
| 25> H           2.00933821779047      0.84338404791193      0.11644510533465
| 26> C          -1.15729609336593     -0.48547962221092      2.06219653568719
| 27> C           1.23994061348118      0.39162604465106      2.05974182181754
| 28> H          -1.99856910405152     -0.84630774685815      2.66159543961282
| 29> C           0.05550809013202     -0.10787998980524      2.82546584658989
| 30> O           0.08824138271929     -0.20066312730217      4.03611457894647
| 31> O          -0.08237810438593      0.20201294968745     -1.25889477385297
| 32> C           2.43938990003151      0.75910371183851      2.86443148480113
| 33> H           2.18564348705276      1.54409943819251      3.59804132816950
| 34> H           2.78911766568061     -0.10695868663051      3.45298570242047
| 35> H           3.25938092587604      1.11528426934092      2.22204567334997
| 36> *
| 37>
| 38>                          ****END OF INPUT****

CARTESIAN COORDINATES (ANGSTROEM)
---------------------------------
  C     -0.040230    0.109342   -0.047814
  C     -1.205989   -0.385795    0.725351
  C      1.167627    0.483209    0.716605
  H     -2.089777   -0.658041    0.140471
  H      2.009338    0.843384    0.116445
  C     -1.157296   -0.485480    2.062197
  C      1.239941    0.391626    2.059742
  H     -1.998569   -0.846308    2.661595
  C      0.055508   -0.107880    2.825466
  O      0.088241   -0.200663    4.036115
  O     -0.082378    0.202013   -1.258895
  C      2.439390    0.759104    2.864431
  H      2.185643    1.544099    3.598041
  H      2.789118   -0.106959    3.452986
  H      3.259381    1.115284    2.222046

 Total Charge           Charge          ....    0
 Multiplicity           Mult            ....    1
 Number of Electrons    NEL             ....   64
 Basis Dimension        Dim             ....  552

ORBITAL ENERGIES
----------------

  NO   OCC          E(Eh)            E(eV)
   0   2.0000     -19.145973      -520.9884
   1   2.0000     -19.143489      -520.9208
   2   2.0000     -10.283418      -279.8260
   3   2.0000     -10.281992      -279.7872
   4   2.0000     -10.215130      -277.9678
   5   2.0000     -10.206057      -277.7209
   6   2.0000     -10.205158      -277.6965
   7   2.0000     -10.197267      -277.4817
   8   2.0000     -10.172042      -276.7953
   9   2.0000      -1.072404       -29.1816
  10   2.0000      -1.069148       -29.0930
  11   2.0000      -0.856099       -23.2956
  12   2.0000      -0.796647       -21.6779
  13   2.0000      -0.720787       -19.6136
  14   2.0000      -0.684746       -18.6329
  15   2.0000      -0.619505       -16.8576
  16   2.0000      -0.584358       -15.9012
  17   2.0000      -0.519929       -14.1480
  18   2.0000      -0.503472       -13.7002
  19   2.0000      -0.480127       -13.0649
  20   2.0000      -0.453385       -12.3372
  21   2.0000      -0.444174       -12.0866
  22   2.0000      -0.435118       -11.8402
  23   2.0000      -0.423165       -11.5149
  24   2.0000      -0.420921       -11.4538
  25   2.0000      -0.400182       -10.8895
  26   2.0000      -0.395939       -10.7740
  27   2.0000      -0.380140       -10.3441
  28   2.0000      -0.306975        -8.3532
  29   2.0000      -0.290239        -7.8978
  30   2.0000      -0.281813        -7.6685
  31   2.0000      -0.276295        -7.5184
  32   0.0000      -0.129160        -3.5146
  33   0.0000      -0.020831        -0.5668
  34   0.0000      -0.000371        -0.0101
  35   0.0000       0.003332         0.0907
  36   0.0000       0.011300         0.3075

MULLIKEN ATOMIC CHARGES
-----------------------
   0 C :    1.114704
   1 C :   -0.518001
   2 C :   -0.764581
   3 H :    0.450314
   4 H :    0.272861
   5 C :   -0.551499
   6 C :    0.852134
   7 H :    0.488193
   8 C :    0.725911
   9 O :   -0.993787
  10 O :   -0.974446
  11 C :   -0.747842
  12 H :    0.224656
  13 H :    0.224465
  14 H :    0.196917
Sum of atomic charges:    0.0000000

LOEWDIN ATOMIC CHARGES
----------------------
   0 C :   -0.580733
   1 C :    0.224727
   2 C :    0.235773
   3 H :   -0.163123
   4 H :   -0.162111
   5 C :    0.228525
   6 C :   -0.112769
   7 H :   -0.163634
   8 C :   -0.548325
   9 O :    0.486791
  10 O :    0.453657
  11 C :    0.562198
  12 H :   -0.152374
  13 H :   -0.152323
  14 H :   -0.156279

  Mayer bond orders larger than 0.100000
B(  0-C ,  1-C ) :   0.8490 B(  0-C ,  2-C ) :   0.8179 B(  0-C ,  5-C ) :  -0.1073
B(  0-C , 10-O ) :   0.6702 B(  1-C ,  2-C ) :   0.2589 B(  1-C ,  3-H ) :   0.5396
B(  1-C ,  5-C ) :   1.7348 B(  1-C , 10-O ) :   0.1394 B(  2-C ,  4-H ) :   0.7709
B(  2-C ,  5-C ) :  -0.1420 B(  2-C ,  6-C ) :   1.2146 B(  5-C ,  6-C ) :   0.2038
B(  5-C ,  7-H ) :   0.4587 B(  5-C ,  8-C ) :   0.9412 B(  5-C ,  9-O ) :   0.1478
B(  6-C ,  8-C ) :   0.8885 B(  6-C , 10-O ) :   0.1225 B(  6-C , 11-C ) :   0.4623
B(  8-C ,  9-O ) :   0.7115 B(  8-C , 11-C ) :   0.1765 B( 11-C , 12-H ) :   0.9663
B( 11-C , 13-H ) :   0.9664 B( 11-C , 14-H ) :   1.0069

Dispersion correction           -0.026421531
FINAL SINGLE POINT ENERGY      -420.732151770005

DIPOLE MOMENT
-------------

Method             : SCF
Type of density    : Electron Density
Multiplicity       :   1
Irrep              :   0
Energy             :  -420.7057302385950948 Eh
Relativity type    :
Basis              : AO
                                X                 Y                 Z
Electronic contribution:     -3.861252818      -1.210533296      -2.260542540
Nuclear contribution   :      4.092101562       1.259935150       2.614157328
                        -----------------------------------------
Total Dipole Moment    :      0.230848744       0.049401854       0.353614787
                        -----------------------------------------
Magnitude (a.u.)       :      0.425176556
Magnitude (Debye)      :      1.080712920

Rotational constants in cm-1:             0.099449             0.047883             0.032517
Rotational constants in MHz :          2981.414348          1435.498503           974.822832

                             ****ORCA TERMINATED NORMALLY****
TOTAL RUN TIME: 0 days 0 hours 2 minutes 37 seconds 427 msec
