                         Program Version 6.0.0  -   RELEASE  -
|  1> !PBE0 aug-cc-pVTZ d3 TightSCF SlowConv RIJCOSX defgrid2
|  2>
|  3> %pal
|  4> nprocs 4
|  5> end
|  6>
|  7> %scf
|  8> MaxIter 1500
|  9> end
| 10>
| 11> %maxcore 3000
| 12>
| 13> !CPCM
| 14> %cpcm smd true
| 15> SMDsolvent "MeCN"
| 16> surfacetype gepol_ses
| 17> rsolv 2.19
| 18> end
| 19>
| 20> * xyz 1 2
| 21>   C          -0.51166320460813      1.22812669775511      0.04221064338961
| 22>   C          -1.88952625296000      1.21539539176763      0.05617367919047
| 23>   C          -2.59180844712688      0.00013116204188     -0.01880666295911
| 24>   C          -1.89049624956733     -1.21520671526456     -0.10134329816321
| 25>   C          -0.51256019966680     -1.22809524037907     -0.10227638476799
| 26>   C           0.21731408963535     -0.00001586789402     -0.03400404554273
| 27>   N           1.56995492990017     -0.00005133599829     -0.04140778831312
| 28>   C           2.34433477639579      1.21948603186316     -0.20492690765417
| 29>   H           3.31457999055289      0.96026373998418     -0.65302403936483
| 30>   H           1.83135324244622      1.92816869292227     -0.86818407839005
| 31>   H           2.52747752953805      1.69293789980228      0.77768636738438
| 32>   C           2.34605804905977     -1.21960114143284      0.11365277395931
| 33>   H           3.32105951761834     -0.96038019427341      0.55132163130194
| 34>   H           1.84024142677529     -1.92835608634421      0.78230594720200
| 35>   H           2.51862728476156     -1.69296466175821     -0.87090867989595
| 36>   H           0.01065172080766     -2.18040178328804     -0.19486548078037
| 37>   H          -2.43851884091908     -2.15821605280130     -0.17289394083341
| 38>   H          -3.68523926435270      0.00018625586019     -0.01289591193808
| 39>   H          -2.43664007610670      2.15846249523866      0.13367176321164
| 40>   H           0.01262657781651      2.18036711219859      0.12915381296366
| 41> *
| 42>
| 43>                          ****END OF INPUT****

CARTESIAN COORDINATES (ANGSTROEM)
---------------------------------
  C     -0.511663    1.228127    0.042211
  C     -1.889526    1.215395    0.056174
  C     -2.591808    0.000131   -0.018807
  C     -1.890496   -1.215207   -0.101343
  C     -0.512560   -1.228095   -0.102276
  C      0.217314   -0.000016   -0.034004
  N      1.569955   -0.000051   -0.041408
  C      2.344335    1.219486   -0.204927
  H      3.314580    0.960264   -0.653024
  H      1.831353    1.928169   -0.868184
  H      2.527478    1.692938    0.777686
  C      2.346058   -1.219601    0.113653
  H      3.321060   -0.960380    0.551322
  H      1.840241   -1.928356    0.782306
  H      2.518627   -1.692965   -0.870909
  H      0.010652   -2.180402   -0.194865
  H     -2.438519   -2.158216   -0.172894
  H     -3.685239    0.000186   -0.012896
  H     -2.436640    2.158462    0.133672
  H      0.012627    2.180367    0.129154

 Total Charge           Charge          ....    1
 Multiplicity           Mult            ....    2
 Number of Electrons    NEL             ....   65
 Basis Dimension        Dim             ....  667

ORBITAL ENERGIES
----------------
                 SPIN UP ORBITALS
  NO   OCC          E(Eh)            E(eV)
   0   1.0000     -14.511960      -394.8905
   1   1.0000     -10.319457      -280.8067
   2   1.0000     -10.274795      -279.5914
   3   1.0000     -10.274754      -279.5903
   4   1.0000     -10.269634      -279.4509
   5   1.0000     -10.269616      -279.4505
   6   1.0000     -10.269344      -279.4431
   7   1.0000     -10.256722      -279.0996
   8   1.0000     -10.256716      -279.0994
   9   1.0000      -1.053516       -28.6676
  10   1.0000      -0.909546       -24.7500
  11   1.0000      -0.810843       -22.0642
  12   1.0000      -0.810064       -22.0430
  13   1.0000      -0.771543       -20.9948
  14   1.0000      -0.722610       -19.6632
  15   1.0000      -0.650334       -17.6965
  16   1.0000      -0.624536       -16.9945
  17   1.0000      -0.580102       -15.7854
  18   1.0000      -0.535111       -14.5611
  19   1.0000      -0.533302       -14.5119
  20   1.0000      -0.524062       -14.2605
  21   1.0000      -0.481644       -13.1062
  22   1.0000      -0.470317       -12.7980
  23   1.0000      -0.464084       -12.6284
  24   1.0000      -0.437750       -11.9118
  25   1.0000      -0.433271       -11.7899
  26   1.0000      -0.423592       -11.5265
  27   1.0000      -0.409053       -11.1309
  28   1.0000      -0.399002       -10.8574
  29   1.0000      -0.374582       -10.1929
  30   1.0000      -0.353932        -9.6310
  31   1.0000      -0.304294        -8.2803
  32   1.0000      -0.265892        -7.2353
  33   0.0000      -0.036761        -1.0003
  34   0.0000      -0.032820        -0.8931
  35   0.0000      -0.003599        -0.0979
  36   0.0000       0.010740         0.2922
  37   0.0000       0.014195         0.3863

                 SPIN DOWN ORBITALS
  NO   OCC          E(Eh)            E(eV)
   0   1.0000     -14.499741      -394.5580
   1   1.0000     -10.320866      -280.8450
   2   1.0000     -10.275257      -279.6040
   3   1.0000     -10.275216      -279.6028
   4   1.0000     -10.266180      -279.3570
   5   1.0000     -10.266163      -279.3565
   6   1.0000     -10.264424      -279.3092
   7   1.0000     -10.258600      -279.1507
   8   1.0000     -10.258580      -279.1501
   9   1.0000      -1.033651       -28.1271
  10   1.0000      -0.902957       -24.5707
  11   1.0000      -0.806376       -21.9426
  12   1.0000      -0.805161       -21.9095
  13   1.0000      -0.769748       -20.9459
  14   1.0000      -0.713426       -19.4133
  15   1.0000      -0.647126       -17.6092
  16   1.0000      -0.619379       -16.8542
  17   1.0000      -0.575919       -15.6716
  18   1.0000      -0.529444       -14.4069
  19   1.0000      -0.519362       -14.1326
  20   1.0000      -0.504929       -13.7398
  21   1.0000      -0.480708       -13.0807
  22   1.0000      -0.466335       -12.6896
  23   1.0000      -0.463128       -12.6024
  24   1.0000      -0.432380       -11.7656
  25   1.0000      -0.430890       -11.7251
  26   1.0000      -0.411633       -11.2011
  27   1.0000      -0.405756       -11.0412
  28   1.0000      -0.396787       -10.7971
  29   1.0000      -0.372787       -10.1440
  30   1.0000      -0.323163        -8.7937
  31   1.0000      -0.295368        -8.0374
  32   0.0000      -0.162019        -4.4088
  33   0.0000      -0.025987        -0.7072
  34   0.0000      -0.011130        -0.3029
  35   0.0000      -0.002440        -0.0664
  36   0.0000       0.011491         0.3127

MULLIKEN ATOMIC CHARGES AND SPIN POPULATIONS
--------------------------------------------
   0 C :   -0.522322    0.199871
   1 C :   -0.730257   -0.095198
   2 C :   -0.588762    0.289774
   3 C :   -0.728933   -0.095243
   4 C :   -0.522757    0.199955
   5 C :    1.145975    0.001968
   6 N :   -0.103629    0.469976
   7 C :   -0.800904   -0.034479
   8 H :    0.290527    0.011606
   9 H :    0.314975    0.005343
  10 H :    0.299517    0.035041
  11 C :   -0.801816   -0.034529
  12 H :    0.289817    0.011627
  13 H :    0.315196    0.005318
  14 H :    0.299839    0.035088
  15 H :    0.565413   -0.006232
  16 H :    0.548706   -0.000246
  17 H :    0.611851    0.006829
  18 H :    0.551409   -0.000245
  19 H :    0.566154   -0.006223
Sum of atomic charges         :    1.0000000

LOEWDIN ATOMIC CHARGES AND SPIN POPULATIONS
-------------------------------------------
   0 C :    0.265881    0.096970
   1 C :    0.236867    0.022041
   2 C :    0.244893    0.140508
   3 C :    0.236864    0.022048
   4 C :    0.265855    0.096974
   5 C :   -0.156153    0.081562
   6 N :    0.307019    0.316525
   7 C :    0.562436    0.053426
   8 H :   -0.130099    0.005355
   9 H :   -0.145116    0.006427
  10 H :   -0.101973    0.016993
  11 C :    0.562426    0.053429
  12 H :   -0.130076    0.005359
  13 H :   -0.145157    0.006423
  14 H :   -0.101986    0.016991
  15 H :   -0.162906    0.021323
  16 H :   -0.149705   -0.009352
  17 H :   -0.146502    0.035032
  18 H :   -0.149708   -0.009354
  19 H :   -0.162861    0.021321

  Mayer bond orders larger than 0.100000
B(  0-C ,  1-C ) :   1.3892 B(  0-C ,  2-C ) :   0.2210 B(  0-C ,  4-C ) :   0.1867
B(  0-C ,  5-C ) :   0.5862 B(  0-C ,  6-N ) :  -0.1487 B(  0-C , 19-H ) :   0.3060
B(  1-C ,  2-C ) :   1.2857 B(  1-C ,  5-C ) :  -0.3361 B(  1-C , 18-H ) :   0.5105
B(  2-C ,  3-C ) :   1.2837 B(  2-C ,  4-C ) :   0.2189 B(  2-C ,  5-C ) :  -0.1466
B(  2-C , 17-H ) :   0.3543 B(  3-C ,  4-C ) :   1.3884 B(  3-C ,  5-C ) :  -0.3413
B(  3-C , 16-H ) :   0.5148 B(  4-C ,  5-C ) :   0.5809 B(  4-C ,  6-N ) :  -0.1520
B(  4-C , 15-H ) :   0.3098 B(  5-C ,  6-N ) :   0.8066 B(  5-C ,  7-C ) :  -0.1308
B(  5-C , 11-C ) :  -0.1313 B(  6-N ,  7-C ) :   1.1608 B(  6-N , 11-C ) :   1.1621
B(  7-C ,  8-H ) :   0.8871 B(  7-C ,  9-H ) :   0.8911 B(  7-C , 10-H ) :   0.8788
B( 11-C , 12-H ) :   0.8878 B( 11-C , 13-H ) :   0.8912 B( 11-C , 14-H ) :   0.8789

Dispersion correction           -0.017604489
FINAL SINGLE POINT ENERGY      -365.745103388608

DIPOLE MOMENT
-------------

Method             : SCF
Type of density    : Electron Density
Multiplicity       :   2
Irrep              :   0
Energy             :  -365.7274988999114385 Eh
Relativity type    :
Basis              : AO
                                X                 Y                 Z
Electronic contribution:     -5.014825629       0.000490245       0.027491727
Nuclear contribution   :      6.490918904      -0.000107030      -0.035404468
                        -----------------------------------------
Total Dipole Moment    :      1.476093274       0.000383216      -0.007912741
                        -----------------------------------------
Magnitude (a.u.)       :      1.476114532
Magnitude (Debye)      :      3.751984966

Rotational constants in cm-1:             0.115459             0.040921             0.030704
Rotational constants in MHz :          3461.380126          1226.789981           920.471270

                             ****ORCA TERMINATED NORMALLY****
TOTAL RUN TIME: 0 days 0 hours 7 minutes 57 seconds 977 msec
