                         Program Version 6.0.0  -   RELEASE  -
|  1> !TPSSh freq aug-cc-pVTZ d3 TightSCF SlowConv RIJCOSX defgrid2
|  2>
|  3> %pal
|  4> nprocs 12
|  5> end
|  6>
|  7> %scf
|  8> MaxIter 1500
|  9> end
| 10>
| 11> %maxcore 5000
| 12>
| 13> !CPCM
| 14> %cpcm smd true
| 15> SMDsolvent "MeCN"
| 16> surfacetype gepol_ses
| 17> rsolv 2.19
| 18> end
| 19>
| 20> * xyz 1 2
| 21> C           1.33748389704865      0.00024893256085     -0.00153630838237
| 22> C           0.74955672587484      1.29054880692980     -0.00403262329032
| 23> C          -0.60847295605904      1.40847657841072     -0.00297894501130
| 24> C          -1.42137969814682      0.24207027670081     -0.00102611240308
| 25> C          -0.83797327741021     -1.04920175434962     -0.00337160466138
| 26> C           0.52402899305871     -1.16294903133781     -0.00291899685441
| 27> H           0.98513219615761     -2.14211963064451     -0.00314240831973
| 28> H          -1.45580383552649     -1.93443498040271     -0.00350846503130
| 29> O          -2.72021365198201      0.46067333547554      0.00298392404695
| 30> C          -3.64108913148696     -0.66276033492027      0.00279209803435
| 31> H          -4.62734503536763     -0.21086853585158      0.00582653448607
| 32> H          -3.49136318062952     -1.25587541540879     -0.89810150929578
| 33> H          -3.48783160445992     -1.26006076022373      0.90043529403783
| 34> H          -1.08979494927176      2.37701624141904     -0.00281822872799
| 35> H           1.37809863368857      2.17077931935486     -0.00692712931926
| 36> S           3.03978055226772     -0.23172080929893      0.00596580443048
| 37> H           3.39228182224429      1.07275816158633      0.01244537626125
| 38> *
| 39>
| 40>                          ****END OF INPUT****

CARTESIAN COORDINATES (ANGSTROEM)
---------------------------------
  C      1.337484    0.000249   -0.001536
  C      0.749557    1.290549   -0.004033
  C     -0.608473    1.408477   -0.002979
  C     -1.421380    0.242070   -0.001026
  C     -0.837973   -1.049202   -0.003372
  C      0.524029   -1.162949   -0.002919
  H      0.985132   -2.142120   -0.003142
  H     -1.455804   -1.934435   -0.003508
  O     -2.720214    0.460673    0.002984
  C     -3.641089   -0.662760    0.002792
  H     -4.627345   -0.210869    0.005827
  H     -3.491363   -1.255875   -0.898102
  H     -3.487832   -1.260061    0.900435
  H     -1.089795    2.377016   -0.002818
  H      1.378099    2.170779   -0.006927
  S      3.039781   -0.231721    0.005966
  H      3.392282    1.072758    0.012445

 Total Charge           Charge          ....    1
 Multiplicity           Mult            ....    2
 Number of Electrons    NEL             ....   73
 Basis Dimension        Dim             ....  602

ORBITAL ENERGIES
----------------
                 SPIN UP ORBITALS
  NO   OCC          E(Eh)            E(eV)
   0   1.0000     -88.814857     -2416.7751
   1   1.0000     -19.148919      -521.0686
   2   1.0000     -10.237687      -278.5816
   3   1.0000     -10.213019      -277.9104
   4   1.0000     -10.179560      -276.9999
   5   1.0000     -10.168869      -276.7090
   6   1.0000     -10.164965      -276.6028
   7   1.0000     -10.160446      -276.4798
   8   1.0000     -10.160442      -276.4797
   9   1.0000      -7.939918      -216.0562
  10   1.0000      -5.890004      -160.2752
  11   1.0000      -5.886689      -160.1850
  12   1.0000      -5.885655      -160.1568
  13   1.0000      -1.105935       -30.0940
  14   1.0000      -0.895494       -24.3676
  15   1.0000      -0.822881       -22.3917
  16   1.0000      -0.783383       -21.3169
  17   1.0000      -0.748590       -20.3702
  18   1.0000      -0.697226       -18.9725
  19   1.0000      -0.640315       -17.4238
  20   1.0000      -0.608248       -16.5513
  21   1.0000      -0.553082       -15.0501
  22   1.0000      -0.521518       -14.1912
  23   1.0000      -0.497729       -13.5439
  24   1.0000      -0.491572       -13.3763
  25   1.0000      -0.463998       -12.6260
  26   1.0000      -0.451300       -12.2805
  27   1.0000      -0.437805       -11.9133
  28   1.0000      -0.420158       -11.4331
  29   1.0000      -0.414921       -11.2906
  30   1.0000      -0.385270       -10.4837
  31   1.0000      -0.379429       -10.3248
  32   1.0000      -0.374438       -10.1890
  33   1.0000      -0.347711        -9.4617
  34   1.0000      -0.318765        -8.6740
  35   1.0000      -0.295853        -8.0506
  36   1.0000      -0.244598        -6.6559
  37   0.0000      -0.070310        -1.9132
  38   0.0000      -0.063635        -1.7316
  39   0.0000      -0.030748        -0.8367
  40   0.0000      -0.005205        -0.1416
  41   0.0000      -0.001707        -0.0464

                 SPIN DOWN ORBITALS
  NO   OCC          E(Eh)            E(eV)
   0   1.0000     -88.813172     -2416.7293
   1   1.0000     -19.143876      -520.9313
   2   1.0000     -10.234900      -278.5058
   3   1.0000     -10.209081      -277.8032
   4   1.0000     -10.179720      -277.0043
   5   1.0000     -10.168164      -276.6898
   6   1.0000     -10.164916      -276.6014
   7   1.0000     -10.159703      -276.4596
   8   1.0000     -10.159305      -276.4488
   9   1.0000      -7.938334      -216.0131
  10   1.0000      -5.889102      -160.2506
  11   1.0000      -5.884830      -160.1344
  12   1.0000      -5.881307      -160.0385
  13   1.0000      -1.097484       -29.8641
  14   1.0000      -0.889004       -24.1910
  15   1.0000      -0.815398       -22.1881
  16   1.0000      -0.781405       -21.2631
  17   1.0000      -0.744340       -20.2545
  18   1.0000      -0.690197       -18.7812
  19   1.0000      -0.636756       -17.3270
  20   1.0000      -0.603822       -16.4308
  21   1.0000      -0.550660       -14.9842
  22   1.0000      -0.519819       -14.1450
  23   1.0000      -0.494884       -13.4665
  24   1.0000      -0.476597       -12.9689
  25   1.0000      -0.461560       -12.5597
  26   1.0000      -0.450529       -12.2595
  27   1.0000      -0.435774       -11.8580
  28   1.0000      -0.413482       -11.2514
  29   1.0000      -0.405068       -11.0225
  30   1.0000      -0.383739       -10.4421
  31   1.0000      -0.370413       -10.0794
  32   1.0000      -0.361408        -9.8344
  33   1.0000      -0.345260        -9.3950
  34   1.0000      -0.294935        -8.0256
  35   1.0000      -0.289505        -7.8778
  36   0.0000      -0.195281        -5.3139
  37   0.0000      -0.054462        -1.4820
  38   0.0000      -0.045587        -1.2405
  39   0.0000      -0.027986        -0.7616
  40   0.0000      -0.003758        -0.1023

MULLIKEN ATOMIC CHARGES AND SPIN POPULATIONS
--------------------------------------------
   0 C :    0.503696    0.194198
   1 C :   -0.383376   -0.014936
   2 C :   -0.550255    0.047349
   3 C :    0.990506    0.181211
   4 C :   -0.126661    0.040795
   5 C :   -0.508691    0.050529
   6 H :    0.427968   -0.002237
   7 H :    0.354909    0.008804
   8 O :   -0.639492    0.161566
   9 C :   -0.257978   -0.012879
  10 H :    0.070245    0.001343
  11 H :    0.230296    0.007122
  12 H :    0.230132    0.007147
  13 H :    0.463939    0.001874
  14 H :    0.321016    0.000293
  15 S :   -0.247039    0.355849
  16 H :    0.120785   -0.028028
Sum of atomic charges         :    1.0000000

LOEWDIN ATOMIC CHARGES AND SPIN POPULATIONS
-------------------------------------------
   0 C :   -0.531694    0.165170
   1 C :    0.181948    0.044732
   2 C :    0.264927    0.064721
   3 C :   -0.341746    0.131085
   4 C :    0.266166    0.063104
   5 C :    0.168874    0.060777
   6 H :   -0.167003    0.003548
   7 H :   -0.170420    0.006360
   8 O :    0.655993    0.146710
   9 C :    0.448953    0.015268
  10 H :   -0.164533   -0.000337
  11 H :   -0.156723    0.003902
  12 H :   -0.156561    0.003894
  13 H :   -0.151176    0.007019
  14 H :   -0.170329    0.000149
  15 S :    1.499360    0.246975
  16 H :   -0.476037    0.036922

  Mayer bond orders larger than 0.100000
B(  0-C ,  1-C ) :   0.9770 B(  0-C ,  5-C ) :   1.1700 B(  0-C , 15-S ) :   0.6733
B(  1-C ,  2-C ) :   1.7147 B(  1-C ,  3-C ) :  -0.2162 B(  1-C , 13-H ) :   0.1347
B(  1-C , 14-H ) :   0.6602 B(  2-C ,  3-C ) :   0.8402 B(  2-C ,  8-O ) :   0.3331
B(  2-C , 13-H ) :   0.4064 B(  2-C , 14-H ) :   0.1043 B(  3-C ,  4-C ) :   0.9954
B(  3-C ,  5-C ) :  -0.1759 B(  3-C ,  8-O ) :   0.3498 B(  3-C ,  9-C ) :   0.1174
B(  4-C ,  5-C ) :   1.3927 B(  4-C ,  7-H ) :   0.5547 B(  4-C ,  8-O ) :  -0.1586
B(  5-C ,  6-H ) :   0.6281 B(  6-H , 15-S ) :  -0.1175 B(  8-O ,  9-C ) :   0.9217
B(  9-C , 10-H ) :   1.0669 B(  9-C , 11-H ) :   0.9055 B(  9-C , 12-H ) :   0.9055
B( 15-S , 16-H ) :   1.0362

Dispersion correction           -0.021491863
FINAL SINGLE POINT ENERGY      -744.980584956526

DIPOLE MOMENT
-------------

Method             : SCF
Type of density    : Electron Density
Multiplicity       :   2
Irrep              :   0
Energy             :  -744.9590930930590957 Eh
Relativity type    :
Basis              : AO
                                X                 Y                 Z
Electronic contribution:      7.608996778       0.907562765       0.000717292
Nuclear contribution   :     -7.933817371      -1.071954592      -0.000787005
                        -----------------------------------------
Total Dipole Moment    :     -0.324820593      -0.164391826      -0.000069713
                        -----------------------------------------
Magnitude (a.u.)       :      0.364050951
Magnitude (Debye)      :      0.925343979

VIBRATIONAL FREQUENCIES
-----------------------

Scaling factor for frequencies =  1.000000000  (already applied!)

     0:       0.00 cm**-1
     1:       0.00 cm**-1
     2:       0.00 cm**-1
     3:       0.00 cm**-1
     4:       0.00 cm**-1
     5:       0.00 cm**-1
     6:      55.57 cm**-1
     7:     126.91 cm**-1
     8:     150.37 cm**-1
     9:     189.12 cm**-1
    10:     285.17 cm**-1
    11:     285.88 cm**-1
    12:     331.19 cm**-1
    13:     355.42 cm**-1
    14:     400.73 cm**-1
    15:     494.07 cm**-1
    16:     495.65 cm**-1
    17:     601.56 cm**-1
    18:     648.32 cm**-1
    19:     720.13 cm**-1
    20:     783.29 cm**-1
    21:     803.27 cm**-1
    22:     844.97 cm**-1
    23:     924.12 cm**-1
    24:     977.85 cm**-1
    25:     981.67 cm**-1
    26:     983.07 cm**-1
    27:     995.73 cm**-1
    28:    1128.34 cm**-1
    29:    1133.20 cm**-1
    30:    1158.07 cm**-1
    31:    1192.99 cm**-1
    32:    1199.18 cm**-1
    33:    1317.89 cm**-1
    34:    1336.72 cm**-1
    35:    1358.72 cm**-1
    36:    1455.66 cm**-1
    37:    1478.49 cm**-1
    38:    1481.53 cm**-1
    39:    1495.22 cm**-1
    40:    1504.52 cm**-1
    41:    1514.30 cm**-1
    42:    1643.37 cm**-1
    43:    2623.32 cm**-1
    44:    3055.95 cm**-1
    45:    3143.17 cm**-1
    46:    3181.03 cm**-1
    47:    3191.32 cm**-1
    48:    3196.78 cm**-1
    49:    3211.02 cm**-1
    50:    3226.72 cm**-1

IR SPECTRUM
-----------

 Mode   freq       eps      Int      T**2         TX        TY        TZ
       cm**-1   L/(mol*cm) km/mol    a.u.
----------------------------------------------------------------------------
  6:     55.57   0.000152    0.77  0.000854  ( 0.000666 -0.000011 -0.029220)
  7:    126.91   0.000899    4.54  0.002210  (-0.003046  0.000012  0.046914)
  8:    150.37   0.000672    3.39  0.001394  (-0.001225  0.000807 -0.037306)
  9:    189.12   0.001608    8.13  0.002654  (-0.051038  0.006982 -0.000245)
 10:    285.17   0.000289    1.46  0.000316  ( 0.014097 -0.009815  0.004572)
 11:    285.88   0.001275    6.44  0.001391  (-0.001061  0.001553  0.037253)
 12:    331.19   0.003972   20.07  0.003742  ( 0.001177  0.000577 -0.061161)
 13:    355.42   0.000307    1.55  0.000270  (-0.014031 -0.008476 -0.001054)
 14:    400.73   0.001990   10.06  0.001550  (-0.000842  0.000412  0.039359)
 15:    494.07   0.001293    6.54  0.000817  (-0.028062  0.005249 -0.001368)
 16:    495.65   0.005232   26.44  0.003294  (-0.001462  0.000026  0.057377)
 17:    601.56   0.000116    0.58  0.000060  (-0.003111  0.007090  0.000083)
 18:    648.32   0.019799  100.05  0.009530  (-0.096200  0.016593  0.000056)
 19:    720.13   0.000114    0.57  0.000049  (-0.000439 -0.000303 -0.007001)
 20:    783.29   0.000029    0.15  0.000012  (-0.000480  0.000348 -0.003360)
 21:    803.27   0.002153   10.88  0.000836  (-0.024480 -0.015388 -0.000580)
 22:    844.97   0.021643  109.37  0.007993  (-0.000989  0.000127  0.089399)
 23:    924.12   0.006422   32.45  0.002169  (-0.038144 -0.026712  0.000376)
 24:    977.85   0.000001    0.01  0.000000  (-0.000108  0.000543  0.000097)
 25:    981.67   0.022861  115.53  0.007267  (-0.072386 -0.045027 -0.000499)
 26:    983.07   0.001451    7.33  0.000461  (-0.018663 -0.010475  0.001610)
 27:    995.73   0.008130   41.09  0.002548  (-0.050478 -0.000249 -0.000036)
 28:   1128.34   0.011731   59.28  0.003244  (-0.055688  0.011965 -0.000292)
 29:   1133.20   0.003350   16.93  0.000922  ( 0.009406  0.028878  0.000021)
 30:   1158.07   0.000205    1.04  0.000055  (-0.000479  0.000596 -0.007395)
 31:   1192.99   0.015203   76.83  0.003977  (-0.062726 -0.006497 -0.000111)
 32:   1199.18   0.003818   19.29  0.000993  (-0.031507  0.000865 -0.000161)
 33:   1317.89   0.002936   14.84  0.000695  (-0.020154 -0.017001  0.000114)
 34:   1336.72   0.067372  340.47  0.015728  ( 0.124886  0.011475 -0.000147)
 35:   1358.72   0.046284  233.90  0.010630  ( 0.102906 -0.006378 -0.000068)
 36:   1455.66   0.051301  259.25  0.010998  (-0.102707  0.021193 -0.000031)
 37:   1478.49   0.007749   39.16  0.001636  (-0.038241 -0.011146 -0.006999)
 38:   1481.53   0.004347   21.97  0.000916  ( 0.011393  0.003175 -0.027853)
 39:   1495.22   0.004871   24.62  0.001017  ( 0.026011  0.018438  0.000314)
 40:   1504.52   0.014735   74.46  0.003056  (-0.051173  0.020918 -0.000017)
 41:   1514.30   0.077279  390.54  0.015926  (-0.126194  0.000747 -0.000104)
 42:   1643.37   0.014608   73.82  0.002774  (-0.052653 -0.001266  0.000177)
 43:   2623.32   0.021545  108.88  0.002563  ( 0.044003  0.025031  0.000334)
 44:   3055.95   0.005456   27.57  0.000557  ( 0.020410  0.011853  0.000258)
 45:   3143.17   0.002153   10.88  0.000214  ( 0.000494  0.000405  0.014607)
 46:   3181.03   0.003403   17.20  0.000334  (-0.017769  0.004251  0.000075)
 47:   3191.32   0.000093    0.47  0.000009  ( 0.001014  0.002843 -0.000044)
 48:   3196.78   0.000034    0.17  0.000003  ( 0.001791 -0.000021  0.000267)
 49:   3211.02   0.000346    1.75  0.000034  ( 0.002638  0.005164  0.000018)
 50:   3226.72   0.000577    2.91  0.000056  (-0.001765  0.007256  0.000043)

--------------------------
THERMOCHEMISTRY AT 298.15K
--------------------------

Temperature         ...   298.15 K
Pressure            ...     1.00 atm
Total Mass          ...   140.20 AMU
Quasi RRHO          ...     True
Cut-Off Frequency   ...     1.00 cm^-1

Throughout the following assumptions are being made:
  (1) The electronic state is orbitally nondegenerate
      but the spin degeneracy is treated
  (2) There are no thermally accessible electronically excited states
  (3) Hindered rotations indicated by low frequency modes are not
      treated as such but are treated as vibrations and this may
      cause some error
  (4) All equations used are the standard statistical mechanics
      equations for an ideal gas
  (5) All vibrations are strictly harmonic

freq.      55.57  E(vib)   ...       0.52
freq.     126.91  E(vib)   ...       0.43
freq.     150.37  E(vib)   ...       0.40
freq.     189.12  E(vib)   ...       0.36
freq.     285.17  E(vib)   ...       0.28
freq.     285.88  E(vib)   ...       0.27
freq.     331.19  E(vib)   ...       0.24
freq.     355.42  E(vib)   ...       0.22
freq.     400.73  E(vib)   ...       0.19
freq.     494.07  E(vib)   ...       0.14
freq.     495.65  E(vib)   ...       0.14
freq.     601.56  E(vib)   ...       0.10
freq.     648.32  E(vib)   ...       0.08
freq.     720.13  E(vib)   ...       0.07
freq.     783.29  E(vib)   ...       0.05
freq.     803.27  E(vib)   ...       0.05
freq.     844.97  E(vib)   ...       0.04
freq.     924.12  E(vib)   ...       0.03
freq.     977.85  E(vib)   ...       0.03
freq.     981.67  E(vib)   ...       0.02
freq.     983.07  E(vib)   ...       0.02
freq.     995.73  E(vib)   ...       0.02
freq.    1128.34  E(vib)   ...       0.01
freq.    1133.20  E(vib)   ...       0.01
freq.    1158.07  E(vib)   ...       0.01
freq.    1192.99  E(vib)   ...       0.01
freq.    1199.18  E(vib)   ...       0.01
freq.    1317.89  E(vib)   ...       0.01
freq.    1336.72  E(vib)   ...       0.01
freq.    1358.72  E(vib)   ...       0.01
freq.    1455.66  E(vib)   ...       0.00
freq.    1478.49  E(vib)   ...       0.00
freq.    1481.53  E(vib)   ...       0.00
freq.    1495.22  E(vib)   ...       0.00
freq.    1504.52  E(vib)   ...       0.00
freq.    1514.30  E(vib)   ...       0.00
freq.    1643.37  E(vib)   ...       0.00
freq.    2623.32  E(vib)   ...       0.00
freq.    3055.95  E(vib)   ...       0.00
freq.    3143.17  E(vib)   ...       0.00
freq.    3181.03  E(vib)   ...       0.00
freq.    3191.32  E(vib)   ...       0.00
freq.    3196.78  E(vib)   ...       0.00
freq.    3211.02  E(vib)   ...       0.00
freq.    3226.72  E(vib)   ...       0.00

------------
INNER ENERGY
------------

The inner energy is: U= E(el) + E(ZPE) + E(vib) + E(rot) + E(trans)
    E(el)   - is the total energy from the electronic structure calculation
              = E(kin-el) + E(nuc-el) + E(el-el) + E(nuc-nuc)
    E(ZPE)  - the the zero temperature vibrational energy from the frequency calculation
    E(vib)  - the the finite temperature correction to E(ZPE) due to population
              of excited vibrational states
    E(rot)  - is the rotational thermal energy
    E(trans)- is the translational thermal energy

Summary of contributions to the inner energy U:
Electronic energy                ...   -744.98058496 Eh
Zero point energy                ...      0.13136266 Eh      82.43 kcal/mol
Thermal vibrational correction   ...      0.00610096 Eh       3.83 kcal/mol
Thermal rotational correction    ...      0.00141627 Eh       0.89 kcal/mol
Thermal translational correction ...      0.00141627 Eh       0.89 kcal/mol
-----------------------------------------------------------------------
Total thermal energy                   -744.84028879 Eh

Summary of corrections to the electronic energy:
(perhaps to be used in another calculation)
Total thermal correction                  0.00893351 Eh       5.61 kcal/mol
Non-thermal (ZPE) correction              0.13136266 Eh      82.43 kcal/mol
-----------------------------------------------------------------------
Total correction                          0.14029617 Eh      88.04 kcal/mol

--------
ENTHALPY
--------

The enthalpy is H = U + kB*T
                kB is Boltzmann's constant
Total thermal energy              ...   -744.84028879 Eh
Thermal Enthalpy correction       ...      0.00094421 Eh       0.59 kcal/mol
-----------------------------------------------------------------------
Total Enthalpy                    ...   -744.83934458 Eh

Note: Only C1 symmetry has been detected, increase convergence thresholds
      if your molecule has a higher symmetry. Symmetry factor of 1.0 is
      used for the rotational entropy correction.

Note: Rotational entropy computed according to Herzberg
Infrared and Raman Spectra, Chapter V,1, Van Nostrand Reinhold, 1945
Point Group:  C1, Symmetry Number:   1
Rotational constants in cm-1:     0.154289     0.023806     0.020707

Vibrational entropy computed according to the QRRHO of S. Grimme
Chem.Eur.J. 2012 18 9955 using a reference frequency of 100.0 cm-1

-------
ENTROPY
-------

The entropy contributions are T*S = T*(S(el)+S(vib)+S(rot)+S(trans))
     S(el)   - electronic entropy
     S(vib)  - vibrational entropy
     S(rot)  - rotational entropy
     S(trans)- translational entropy
The entropies will be listed as multiplied by the temperature to get
units of energy

Electronic entropy                ...      0.00065446 Eh      0.41 kcal/mol
Vibrational entropy               ...      0.01028166 Eh      6.45 kcal/mol
Rotational entropy                ...      0.01398814 Eh      8.78 kcal/mol
Translational entropy             ...      0.01934980 Eh     12.14 kcal/mol
-----------------------------------------------------------------------
Final entropy term                ...      0.04427405 Eh     27.78 kcal/mol

In case the symmetry of your molecule has not been determined correctly
or in case you have a reason to use a different symmetry number we print
out the resulting rotational entropy values for sn=1,12:

 non-linear molecules -----------------------------------
|  sn= 1 | S(rot)=       0.01398814 Eh      8.78 kcal/mol|
|  sn= 2 | S(rot)=       0.01333368 Eh      8.37 kcal/mol|
|  sn= 3 | S(rot)=       0.01295085 Eh      8.13 kcal/mol|
|  sn= 4 | S(rot)=       0.01267923 Eh      7.96 kcal/mol|
|  sn= 5 | S(rot)=       0.01246854 Eh      7.82 kcal/mol|
|  sn= 6 | S(rot)=       0.01229640 Eh      7.72 kcal/mol|
|  sn= 7 | S(rot)=       0.01215085 Eh      7.62 kcal/mol|
|  sn= 8 | S(rot)=       0.01202477 Eh      7.55 kcal/mol|
|  sn= 9 | S(rot)=       0.01191356 Eh      7.48 kcal/mol|
|  sn=10 | S(rot)=       0.01181408 Eh      7.41 kcal/mol|
|  sn=11 | S(rot)=       0.01172409 Eh      7.36 kcal/mol|
|  sn=12 | S(rot)=       0.01164194 Eh      7.31 kcal/mol|
 linear molecules ---------------------------------------
|  Dinfh | S(rot)=       0.00898668 Eh      5.64 kcal/mol|

                             ****ORCA TERMINATED NORMALLY****
TOTAL RUN TIME: 0 days 0 hours 52 minutes 53 seconds 211 msec
