                         Program Version 6.0.0  -   RELEASE  -
|  1> !r2SCANh aug-cc-pVTZ d3 TightSCF SlowConv RIJCOSX defgrid2
|  2>
|  3> %pal
|  4> nprocs 4
|  5> end
|  6>
|  7> %scf
|  8> MaxIter 1500
|  9> end
| 10>
| 11> %maxcore 3000
| 12>
| 13> !CPCM
| 14> %cpcm smd true
| 15> SMDsolvent "MeCN"
| 16> surfacetype gepol_ses
| 17> rsolv 2.19
| 18> end
| 19>
| 20> * xyz 0 1
| 21> C           2.43031351008729     -0.70749139029856      0.00001403239272
| 22> C           2.43032444825569      0.70745716976960      0.00001780057511
| 23> C           1.24225650957686      1.40066986227340      0.00001298600543
| 24> C           0.00000747832604      0.71479447718917      0.00000542687051
| 25> C          -1.24223111805275      1.40068893561610      0.00000324875952
| 26> C          -2.43030983452578      0.70749421287076     -0.00000358520312
| 27> C          -2.43032103578901     -0.70745426001962     -0.00000960120256
| 28> C          -1.24225352108494     -1.40066808823521     -0.00000641420954
| 29> C          -0.00000405709778     -0.71479302978643      0.00000150500237
| 30> C           1.24223524877496     -1.40068686163162      0.00000460886950
| 31> H           1.23824372924118     -2.49527550154318      0.00000243863973
| 32> H          -1.23827753101703     -2.49525698617010     -0.00000852848414
| 33> H          -3.38175156931066     -1.24754932619836     -0.00001429910497
| 34> H          -3.38173131512848      1.24760412689582     -0.00000496639229
| 35> H          -1.23823830440863      2.49527781567030      0.00000665226192
| 36> H           1.23827983240145      2.49525951167016      0.00001366019695
| 37> H           3.38175416757919      1.24755290950869      0.00002330946105
| 38> H           3.38173466217241     -1.24760147758094      0.00001812556182
| 39> *
| 40>
| 41>                          ****END OF INPUT****

CARTESIAN COORDINATES (ANGSTROEM)
---------------------------------
  C      2.430314   -0.707491    0.000014
  C      2.430324    0.707457    0.000018
  C      1.242257    1.400670    0.000013
  C      0.000007    0.714794    0.000005
  C     -1.242231    1.400689    0.000003
  C     -2.430310    0.707494   -0.000004
  C     -2.430321   -0.707454   -0.000010
  C     -1.242254   -1.400668   -0.000006
  C     -0.000004   -0.714793    0.000002
  C      1.242235   -1.400687    0.000005
  H      1.238244   -2.495276    0.000002
  H     -1.238278   -2.495257   -0.000009
  H     -3.381752   -1.247549   -0.000014
  H     -3.381731    1.247604   -0.000005
  H     -1.238238    2.495278    0.000007
  H      1.238280    2.495260    0.000014
  H      3.381754    1.247553    0.000023
  H      3.381735   -1.247601    0.000018

 Total Charge           Charge          ....    0
 Multiplicity           Mult            ....    1
 Number of Electrons    NEL             ....   68
 Basis Dimension        Dim             ....  644

ORBITAL ENERGIES
----------------

  NO   OCC          E(Eh)            E(eV)
   0   2.0000     -10.173908      -276.8461
   1   2.0000     -10.173508      -276.8352
   2   2.0000     -10.163045      -276.5505
   3   2.0000     -10.163038      -276.5503
   4   2.0000     -10.162861      -276.5455
   5   2.0000     -10.162853      -276.5453
   6   2.0000     -10.162409      -276.5332
   7   2.0000     -10.162408      -276.5332
   8   2.0000     -10.162167      -276.5266
   9   2.0000     -10.162161      -276.5265
  10   2.0000      -0.879124       -23.9222
  11   2.0000      -0.823740       -22.4151
  12   2.0000      -0.774939       -21.0872
  13   2.0000      -0.742017       -20.1913
  14   2.0000      -0.718250       -19.5446
  15   2.0000      -0.621716       -16.9178
  16   2.0000      -0.607194       -16.5226
  17   2.0000      -0.590063       -16.0564
  18   2.0000      -0.504737       -13.7346
  19   2.0000      -0.500526       -13.6200
  20   2.0000      -0.484662       -13.1883
  21   2.0000      -0.434436       -11.8216
  22   2.0000      -0.431489       -11.7414
  23   2.0000      -0.406581       -11.0636
  24   2.0000      -0.404003       -10.9935
  25   2.0000      -0.393634       -10.7113
  26   2.0000      -0.386275       -10.5111
  27   2.0000      -0.355016        -9.6605
  28   2.0000      -0.329813        -8.9747
  29   2.0000      -0.325086        -8.8460
  30   2.0000      -0.316413        -8.6100
  31   2.0000      -0.288093        -7.8394
  32   2.0000      -0.248655        -6.7662
  33   2.0000      -0.219455        -5.9717
  34   0.0000      -0.061066        -1.6617
  35   0.0000      -0.032091        -0.8733
  36   0.0000      -0.000144        -0.0039
  37   0.0000       0.010373         0.2823
  38   0.0000       0.023013         0.6262

MULLIKEN ATOMIC CHARGES
-----------------------
   0 C :   -0.408382
   1 C :   -0.410154
   2 C :   -1.208793
   3 C :    1.979288
   4 C :   -1.205836
   5 C :   -0.410411
   6 C :   -0.411969
   7 C :   -1.207666
   8 C :    1.978910
   9 C :   -1.208441
  10 H :   -0.002183
  11 H :    0.003274
  12 H :    0.630151
  13 H :    0.626603
  14 H :   -0.002763
  15 H :    0.002352
  16 H :    0.629570
  17 H :    0.626449
Sum of atomic charges:    0.0000000

LOEWDIN ATOMIC CHARGES
----------------------
   0 C :    0.193255
   1 C :    0.193255
   2 C :    0.210400
   3 C :   -0.136446
   4 C :    0.210403
   5 C :    0.193253
   6 C :    0.193254
   7 C :    0.210401
   8 C :   -0.136444
   9 C :    0.210400
  10 H :   -0.164315
  11 H :   -0.164312
  12 H :   -0.171118
  13 H :   -0.171119
  14 H :   -0.164315
  15 H :   -0.164313
  16 H :   -0.171118
  17 H :   -0.171120

  Mayer bond orders larger than 0.100000
B(  0-C ,  1-C ) :   1.0325 B(  0-C ,  3-C ) :  -0.3162 B(  0-C ,  9-C ) :   1.1294
B(  0-C , 17-H ) :   0.3021 B(  1-C ,  2-C ) :   1.1334 B(  1-C ,  8-C ) :  -0.3167
B(  1-C , 16-H ) :   0.2968 B(  2-C ,  3-C ) :  -0.4110 B(  2-C ,  4-C ) :   0.6248
B(  2-C ,  7-C ) :  -0.1086 B(  2-C ,  8-C ) :  -0.2959 B(  2-C , 15-H ) :   1.4800
B(  2-C , 16-H ) :  -0.1949 B(  3-C ,  4-C ) :  -0.4137 B(  3-C ,  6-C ) :  -0.3168
B(  3-C ,  7-C ) :  -0.2954 B(  3-C ,  8-C ) :   1.3090 B(  3-C ,  9-C ) :  -0.2968
B(  3-C , 14-H ) :  -0.1493 B(  3-C , 15-H ) :  -0.1447 B(  4-C ,  5-C ) :   1.1310
B(  4-C ,  8-C ) :  -0.2970 B(  4-C ,  9-C ) :  -0.1097 B(  4-C , 13-H ) :  -0.1947
B(  4-C , 14-H ) :   1.4882 B(  5-C ,  6-C ) :   1.0322 B(  5-C ,  8-C ) :  -0.3161
B(  5-C , 13-H ) :   0.3015 B(  6-C ,  7-C ) :   1.1347 B(  6-C , 12-H ) :   0.2960
B(  7-C ,  8-C ) :  -0.4096 B(  7-C ,  9-C ) :   0.6282 B(  7-C , 11-H ) :   1.4770
B(  7-C , 12-H ) :  -0.1935 B(  8-C ,  9-C ) :  -0.4142 B(  8-C , 10-H ) :  -0.1485
B(  8-C , 11-H ) :  -0.1442 B(  9-C , 10-H ) :   1.4878 B(  9-C , 17-H ) :  -0.1962

Dispersion correction           -0.006581518
FINAL SINGLE POINT ENERGY      -385.799282165252

DIPOLE MOMENT
-------------

Method             : SCF
Type of density    : Electron Density
Multiplicity       :   1
Irrep              :   0
Energy             :  -385.7927006470934543 Eh
Relativity type    :
Basis              : AO
                                X                 Y                 Z
Electronic contribution:      0.000000989      -0.000002209      -0.000003112
Nuclear contribution   :     -0.000000379       0.000001978       0.000003856
                        -----------------------------------------
Total Dipole Moment    :      0.000000610      -0.000000231       0.000000744
                        -----------------------------------------
Magnitude (a.u.)       :      0.000000989
Magnitude (Debye)      :      0.000002514

Rotational constants in cm-1:             0.104086             0.041096             0.029463
Rotational constants in MHz :          3120.428737          1232.025642           883.282829

                             ****ORCA TERMINATED NORMALLY****
TOTAL RUN TIME: 0 days 0 hours 4 minutes 36 seconds 805 msec
