                         Program Version 6.0.0  -   RELEASE  -
|  1> !TPSSh aug-cc-pVTZ d3 TightSCF SlowConv RIJCOSX defgrid2
|  2>
|  3> %pal
|  4> nprocs 6
|  5> end
|  6>
|  7> %scf
|  8> MaxIter 1500
|  9> end
| 10>
| 11> %maxcore 3000
| 12>
| 13> !CPCM
| 14> %cpcm smd true
| 15> SMDsolvent "MeCN"
| 16> surfacetype gepol_ses
| 17> rsolv 2.19
| 18> end
| 19>
| 20> * xyz -1 2
| 21>   C          -1.16908364743389     -1.25106043112589     -0.00046711885945
| 22>   C          -2.51558895662628     -0.94805778331016     -0.00048970260602
| 23>   C          -2.96951415995677      0.38786935411419     -0.00003437372110
| 24>   C          -1.99949719417351      1.41257476413842      0.00046952009611
| 25>   C          -0.64650719425624      1.13368035065037      0.00050575201273
| 26>   C          -0.16707249946699     -0.21739071251225      0.00002200149285
| 27>   C           1.18771930240505     -0.62830725495849      0.00000084051024
| 28>   O           1.69166054938407     -1.73447405522234     -0.00027921149921
| 29>   Cl          2.41415222066200      0.84117378911090      0.00088007792741
| 30>   H           0.08783721642061      1.94210741862158      0.00088650713536
| 31>   H          -2.32239478311716      2.46171169296406      0.00083360203305
| 32>   H          -4.03893270236722      0.62157662484535     -0.00006413910783
| 33>   H          -3.24555265578784     -1.76825494852385     -0.00088549117391
| 34>   H          -0.82790279568582     -2.29013880879190     -0.00083276424023
| 35> *
| 36>
| 37>                          ****END OF INPUT****

CARTESIAN COORDINATES (ANGSTROEM)
---------------------------------
  C     -1.169084   -1.251060   -0.000467
  C     -2.515589   -0.948058   -0.000490
  C     -2.969514    0.387869   -0.000034
  C     -1.999497    1.412575    0.000470
  C     -0.646507    1.133680    0.000506
  C     -0.167072   -0.217391    0.000022
  C      1.187719   -0.628307    0.000001
  O      1.691661   -1.734474   -0.000279
  Cl     2.414152    0.841174    0.000880
  H      0.087837    1.942107    0.000887
  H     -2.322395    2.461712    0.000834
  H     -4.038933    0.621577   -0.000064
  H     -3.245553   -1.768255   -0.000885
  H     -0.827903   -2.290139   -0.000833

 Total Charge           Charge          ....   -1
 Multiplicity           Mult            ....    2
 Number of Electrons    NEL             ....   73
 Basis Dimension        Dim             ....  533

ORBITAL ENERGIES
----------------
                 SPIN UP ORBITALS
  NO   OCC          E(Eh)            E(eV)
   0   1.0000    -101.358698     -2758.1104
   1   1.0000     -19.018256      -517.5131
   2   1.0000     -10.183611      -277.1102
   3   1.0000     -10.105697      -274.9900
   4   1.0000     -10.100400      -274.8459
   5   1.0000     -10.099766      -274.8286
   6   1.0000     -10.097579      -274.7691
   7   1.0000     -10.097479      -274.7664
   8   1.0000     -10.093129      -274.6480
   9   1.0000      -9.337845      -254.0957
  10   1.0000      -7.084998      -192.7926
  11   1.0000      -7.078886      -192.6263
  12   1.0000      -7.078300      -192.6103
  13   1.0000      -0.996287       -27.1103
  14   1.0000      -0.814596       -22.1663
  15   1.0000      -0.765535       -20.8313
  16   1.0000      -0.715694       -19.4750
  17   1.0000      -0.707898       -19.2629
  18   1.0000      -0.605239       -16.4694
  19   1.0000      -0.561767       -15.2865
  20   1.0000      -0.513701       -13.9785
  21   1.0000      -0.466415       -12.6918
  22   1.0000      -0.426519       -11.6062
  23   1.0000      -0.416771       -11.3409
  24   1.0000      -0.393582       -10.7099
  25   1.0000      -0.387447       -10.5430
  26   1.0000      -0.382798       -10.4165
  27   1.0000      -0.372663       -10.1407
  28   1.0000      -0.333413        -9.0726
  29   1.0000      -0.325281        -8.8514
  30   1.0000      -0.297515        -8.0958
  31   1.0000      -0.273715        -7.4482
  32   1.0000      -0.270840        -7.3699
  33   1.0000      -0.238333        -6.4854
  34   1.0000      -0.236870        -6.4456
  35   1.0000      -0.235870        -6.4183
  36   1.0000      -0.100369        -2.7312
  37   0.0000      -0.009433        -0.2567
  38   0.0000      -0.004929        -0.1341
  39   0.0000       0.010592         0.2882
  40   0.0000       0.014939         0.4065
  41   0.0000       0.022897         0.6231

                 SPIN DOWN ORBITALS
  NO   OCC          E(Eh)            E(eV)
   0   1.0000    -101.358676     -2758.1098
   1   1.0000     -19.012855      -517.3661
   2   1.0000     -10.178494      -276.9709
   3   1.0000     -10.105248      -274.9778
   4   1.0000     -10.101788      -274.8836
   5   1.0000     -10.101050      -274.8636
   6   1.0000     -10.094684      -274.6903
   7   1.0000     -10.094634      -274.6890
   8   1.0000     -10.088530      -274.5229
   9   1.0000      -9.337821      -254.0950
  10   1.0000      -7.085187      -192.7977
  11   1.0000      -7.078596      -192.6184
  12   1.0000      -7.078298      -192.6103
  13   1.0000      -0.987191       -26.8628
  14   1.0000      -0.810652       -22.0590
  15   1.0000      -0.763185       -20.7673
  16   1.0000      -0.710686       -19.3387
  17   1.0000      -0.704704       -19.1760
  18   1.0000      -0.594351       -16.1731
  19   1.0000      -0.560460       -15.2509
  20   1.0000      -0.509815       -13.8728
  21   1.0000      -0.462128       -12.5752
  22   1.0000      -0.423658       -11.5283
  23   1.0000      -0.412815       -11.2333
  24   1.0000      -0.392171       -10.6715
  25   1.0000      -0.382011       -10.3950
  26   1.0000      -0.369894       -10.0653
  27   1.0000      -0.363010        -9.8780
  28   1.0000      -0.323473        -8.8021
  29   1.0000      -0.319195        -8.6857
  30   1.0000      -0.296695        -8.0735
  31   1.0000      -0.270319        -7.3558
  32   1.0000      -0.267210        -7.2712
  33   1.0000      -0.233301        -6.3484
  34   1.0000      -0.228537        -6.2188
  35   1.0000      -0.218108        -5.9350
  36   0.0000      -0.045819        -1.2468
  37   0.0000      -0.003901        -0.1061
  38   0.0000      -0.002506        -0.0682
  39   0.0000       0.012738         0.3466
  40   0.0000       0.016636         0.4527

MULLIKEN ATOMIC CHARGES AND SPIN POPULATIONS
--------------------------------------------
   0 C :   -0.751603    0.233066
   1 C :   -0.244081   -0.099433
   2 C :   -0.328166    0.309140
   3 C :   -0.449684   -0.094406
   4 C :   -0.844551    0.225308
   5 C :    1.214181    0.027450
   6 C :    0.601805    0.241260
   7 O :   -0.881972    0.198013
   8 Cl:   -0.539927    0.006187
   9 H :    0.251431   -0.004027
  10 H :    0.328452   -0.012224
  11 H :    0.332951    0.001846
  12 H :    0.341068   -0.012725
  13 H :   -0.029903   -0.019457
Sum of atomic charges         :   -1.0000000

LOEWDIN ATOMIC CHARGES AND SPIN POPULATIONS
-------------------------------------------
   0 C :    0.132392    0.096454
   1 C :    0.131947    0.030045
   2 C :    0.146156    0.137667
   3 C :    0.129192    0.031303
   4 C :    0.097489    0.093868
   5 C :   -0.331287    0.116766
   6 C :   -1.141320    0.210084
   7 O :    0.296045    0.189164
   8 Cl:    0.596726    0.029051
   9 H :   -0.275470    0.019075
  10 H :   -0.187659   -0.004812
  11 H :   -0.201889    0.035921
  12 H :   -0.186410   -0.005402
  13 H :   -0.205914    0.020815

  Mayer bond orders larger than 0.100000
B(  0-C ,  1-C ) :   1.4046 B(  0-C ,  2-C ) :   0.1173 B(  0-C ,  5-C ) :   0.4871
B(  0-C ,  6-C ) :   0.1837 B(  0-C , 13-H ) :   1.0074 B(  1-C ,  2-C ) :   1.1868
B(  1-C , 12-H ) :   0.7422 B(  2-C ,  3-C ) :   1.1931 B(  2-C ,  5-C ) :  -0.1320
B(  2-C ,  6-C ) :   0.1117 B(  2-C , 11-H ) :   0.7018 B(  3-C ,  4-C ) :   1.4407
B(  3-C , 10-H ) :   0.7389 B(  4-C ,  5-C ) :   0.3533 B(  4-C ,  6-C ) :   0.2762
B(  4-C ,  9-H ) :   1.0991 B(  4-C , 13-H ) :   0.1040 B(  5-C ,  6-C ) :   0.8070
B(  5-C ,  7-O ) :   0.3113 B(  6-C ,  7-O ) :   0.5572 B(  6-C ,  8-Cl) :   0.5923
B(  7-O ,  8-Cl) :   0.1011 B(  7-O , 13-H ) :   0.1820 B(  8-Cl,  9-H ) :  -0.1809

Dispersion correction           -0.018870552
FINAL SINGLE POINT ENERGY      -805.495200418105

DIPOLE MOMENT
-------------

Method             : SCF
Type of density    : Electron Density
Multiplicity       :   2
Irrep              :   0
Energy             :  -805.4763298661296176 Eh
Relativity type    :
Basis              : AO
                                X                 Y                 Z
Electronic contribution:     11.140338070       1.008760468       0.001900474
Nuclear contribution   :    -12.989017313      -0.288558488      -0.001883982
                        -----------------------------------------
Total Dipole Moment    :     -1.848679243       0.720201980       0.000016492
                        -----------------------------------------
Magnitude (a.u.)       :      1.984012560
Magnitude (Debye)      :      5.042959157

Rotational constants in cm-1:             0.100365             0.030413             0.023340
Rotational constants in MHz :          3008.857541           911.756969           699.723685

                             ****ORCA TERMINATED NORMALLY****
TOTAL RUN TIME: 0 days 0 hours 4 minutes 46 seconds 577 msec
