                         Program Version 6.0.0  -   RELEASE  -
|  1> !B3LYP aug-cc-pVTZ d3 TightSCF SlowConv RIJCOSX defgrid2
|  2>
|  3> %pal
|  4> nprocs 10
|  5> end
|  6>
|  7> %scf
|  8> MaxIter 1500
|  9> end
| 10>
| 11> %maxcore 3500
| 12>
| 13> !CPCM
| 14> %cpcm smd true
| 15> SMDsolvent "WATER"
| 16> surfacetype gepol_ses
| 17> rsolv 1.40
| 18> end
| 19>
| 20> * xyz 1 1
| 21>   C          -0.12783464168902      0.03134307060273     -1.09515140317282
| 22>   C          -0.07771588779790     -0.92971218052811     -0.16710947357547
| 23>   C          -0.12919605245006     -0.42683937130453      1.23585814524276
| 24>   N          -0.22178468713299      1.04844033562478      0.98180183190431
| 25>   C          -0.22815278386695      1.40845079820397     -0.48344802154556
| 26>   H          -0.00562746786650     -1.99097881364679     -0.41742121227399
| 27>   O          -0.28283959618216      1.84841054848959      1.83590548918913
| 28>   C          -0.08518619128336     -0.35879109937522     -2.55276447601453
| 29>   O          -0.01182556277165     -1.53029284400420     -2.84168103743639
| 30>   C          -1.55459876437257      2.13631852567497     -0.74219631083336
| 31>   H          -1.61559639608661      2.40210019987432     -1.80874507031995
| 32>   H          -2.41672834703621      1.49039588964646     -0.50990257113543
| 33>   H          -1.60867043617204      3.06315133921376     -0.14807750091220
| 34>   C           0.99197987220583      2.31175839591414     -0.70863005539040
| 35>   H           0.90571734984683      3.23356560719802     -0.11031871750380
| 36>   H           1.92856903642825      1.78807470587538     -0.45768655458116
| 37>   H           1.04150556124239      2.59281936172848     -1.77181047702734
| 38>   C           1.15110865335917     -0.68043554170839      2.04328624127400
| 39>   H           1.23899297088630     -1.76802501138656      2.19811060240581
| 40>   H           2.04596289628099     -0.33699333930403      1.49967780306167
| 41>   H           1.09453254399261     -0.18569022918863      3.02671243361448
| 42>   C          -1.38670020602967     -0.84436366873233      2.01059021085389
| 43>   H          -2.30386467942418     -0.61864219459089      1.44313189602476
| 44>   H          -1.33732117512029     -1.93426317158842      2.16621895625276
| 45>   H          -1.41858650993659     -0.34674593001915      2.99356252765365
| 46>   N          -0.13386543071122      0.63534107507626     -3.47284130418435
| 47>   H          -0.18439275173440      1.61992840290075     -3.25301637873183
| 48>   H          -0.10209108757800      0.36432528735361     -4.45187443683860
| 49> *
| 50>
| 51>                          ****END OF INPUT****

CARTESIAN COORDINATES (ANGSTROEM)
---------------------------------
  C     -0.127835    0.031343   -1.095151
  C     -0.077716   -0.929712   -0.167109
  C     -0.129196   -0.426839    1.235858
  N     -0.221785    1.048440    0.981802
  C     -0.228153    1.408451   -0.483448
  H     -0.005627   -1.990979   -0.417421
  O     -0.282840    1.848411    1.835905
  C     -0.085186   -0.358791   -2.552764
  O     -0.011826   -1.530293   -2.841681
  C     -1.554599    2.136319   -0.742196
  H     -1.615596    2.402100   -1.808745
  H     -2.416728    1.490396   -0.509903
  H     -1.608670    3.063151   -0.148078
  C      0.991980    2.311758   -0.708630
  H      0.905717    3.233566   -0.110319
  H      1.928569    1.788075   -0.457687
  H      1.041506    2.592819   -1.771810
  C      1.151109   -0.680436    2.043286
  H      1.238993   -1.768025    2.198111
  H      2.045963   -0.336993    1.499678
  H      1.094533   -0.185690    3.026712
  C     -1.386700   -0.844364    2.010590
  H     -2.303865   -0.618642    1.443132
  H     -1.337321   -1.934263    2.166219
  H     -1.418587   -0.346746    2.993563
  N     -0.133865    0.635341   -3.472841
  H     -0.184393    1.619928   -3.253016
  H     -0.102091    0.364325   -4.451874

 Total Charge           Charge          ....    1
 Multiplicity           Mult            ....    1
 Number of Electrons    NEL             ....   98
 Basis Dimension        Dim             ....  943

ORBITAL ENERGIES
----------------

  NO   OCC          E(Eh)            E(eV)
   0   2.0000     -19.280868      -524.6591
   1   2.0000     -19.116544      -520.1876
   2   2.0000     -14.566677      -396.3794
   3   2.0000     -14.350938      -390.5089
   4   2.0000     -10.304564      -280.4015
   5   2.0000     -10.282263      -279.7946
   6   2.0000     -10.277632      -279.6686
   7   2.0000     -10.219409      -278.0843
   8   2.0000     -10.214912      -277.9619
   9   2.0000     -10.194985      -277.4196
  10   2.0000     -10.194935      -277.4183
  11   2.0000     -10.193375      -277.3758
  12   2.0000     -10.193336      -277.3748
  13   2.0000      -1.287190       -35.0262
  14   2.0000      -1.070169       -29.1208
  15   2.0000      -0.966729       -26.3060
  16   2.0000      -0.920707       -25.0537
  17   2.0000      -0.862104       -23.4591
  18   2.0000      -0.795841       -21.6559
  19   2.0000      -0.760442       -20.6927
  20   2.0000      -0.725987       -19.7551
  21   2.0000      -0.713499       -19.4153
  22   2.0000      -0.672378       -18.2963
  23   2.0000      -0.662067       -18.0158
  24   2.0000      -0.624522       -16.9941
  25   2.0000      -0.600415       -16.3381
  26   2.0000      -0.571696       -15.5566
  27   2.0000      -0.554731       -15.0950
  28   2.0000      -0.549678       -14.9575
  29   2.0000      -0.508369       -13.8334
  30   2.0000      -0.494500       -13.4560
  31   2.0000      -0.469054       -12.7636
  32   2.0000      -0.461694       -12.5633
  33   2.0000      -0.459793       -12.5116
  34   2.0000      -0.446718       -12.1558
  35   2.0000      -0.439893       -11.9701
  36   2.0000      -0.434141       -11.8136
  37   2.0000      -0.423614       -11.5271
  38   2.0000      -0.420965       -11.4550
  39   2.0000      -0.408369       -11.1123
  40   2.0000      -0.402715       -10.9584
  41   2.0000      -0.384510       -10.4631
  42   2.0000      -0.383502       -10.4356
  43   2.0000      -0.376829       -10.2540
  44   2.0000      -0.373492       -10.1632
  45   2.0000      -0.345952        -9.4138
  46   2.0000      -0.294896        -8.0245
  47   2.0000      -0.293714        -7.9924
  48   2.0000      -0.292154        -7.9499
  49   0.0000      -0.175363        -4.7719
  50   0.0000      -0.063337        -1.7235
  51   0.0000      -0.007709        -0.2098
  52   0.0000       0.004469         0.1216
  53   0.0000       0.009053         0.2463

MULLIKEN ATOMIC CHARGES
-----------------------
   0 C :    1.284358
   1 C :   -1.031135
   2 C :    1.164134
   3 N :    1.213472
   4 C :    1.456540
   5 H :    0.430315
   6 O :   -1.000743
   7 C :    0.379344
   8 O :   -1.022187
   9 C :   -1.051480
  10 H :    0.238365
  11 H :    0.254269
  12 H :    0.130416
  13 C :   -1.051519
  14 H :    0.130648
  15 H :    0.242135
  16 H :    0.245190
  17 C :   -1.122477
  18 H :    0.190266
  19 H :    0.253780
  20 H :    0.162996
  21 C :   -1.116402
  22 H :    0.247749
  23 H :    0.188510
  24 H :    0.169881
  25 N :   -0.234172
  26 H :    0.124890
  27 H :    0.122857
Sum of atomic charges:    1.0000000

LOEWDIN ATOMIC CHARGES
----------------------
   0 C :   -0.061705
   1 C :    0.267274
   2 C :   -0.391142
   3 N :   -0.039449
   4 C :   -0.380149
   5 H :   -0.125617
   6 O :    0.659948
   7 C :   -0.680202
   8 O :    0.442389
   9 C :    0.633566
  10 H :   -0.138610
  11 H :   -0.124872
  12 H :   -0.132493
  13 C :    0.633597
  14 H :   -0.132689
  15 H :   -0.124489
  16 H :   -0.139178
  17 C :    0.633075
  18 H :   -0.122621
  19 H :   -0.129418
  20 H :   -0.134778
  21 C :    0.633332
  22 H :   -0.129558
  23 H :   -0.122584
  24 H :   -0.134873
  25 N :    0.885475
  26 H :   -0.301683
  27 H :   -0.242549

  Mayer bond orders larger than 0.100000
B(  0-C ,  1-C ) :   0.7179 B(  0-C ,  3-N ) :  -0.2662 B(  0-C ,  4-C ) :   0.8683
B(  0-C ,  5-H ) :  -0.1155 B(  0-C ,  7-C ) :  -0.5100 B(  0-C ,  8-O ) :   0.6134
B(  0-C , 25-N ) :  -0.3138 B(  1-C ,  2-C ) :   1.1994 B(  1-C ,  3-N ) :  -0.3539
B(  1-C ,  4-C ) :  -0.1545 B(  1-C ,  5-H ) :   0.8409 B(  1-C ,  7-C ) :   0.5061
B(  2-C ,  3-N ) :   1.0927 B(  2-C ,  4-C ) :  -0.1316 B(  2-C ,  6-O ) :  -0.2659
B(  2-C ,  7-C ) :  -0.1559 B(  2-C , 17-C ) :   0.3632 B(  2-C , 21-C ) :   0.3858
B(  3-N ,  4-C ) :   1.2941 B(  3-N ,  6-O ) :   0.4491 B(  4-C ,  7-C ) :   0.3069
B(  4-C ,  9-C ) :   0.4174 B(  4-C , 13-C ) :   0.4085 B(  4-C , 25-N ) :  -0.1175
B(  5-H ,  8-O ) :   0.1081 B(  6-O ,  9-C ) :   0.1079 B(  6-O , 13-C ) :   0.1102
B(  6-O , 17-C ) :   0.1046 B(  6-O , 21-C ) :   0.1032 B(  7-C ,  8-O ) :   0.4264
B(  7-C , 25-N ) :   1.2241 B(  9-C , 10-H ) :   0.9845 B(  9-C , 11-H ) :   0.9570
B(  9-C , 12-H ) :   1.1205 B(  9-C , 13-C ) :   0.1250 B( 13-C , 14-H ) :   1.1208
B( 13-C , 15-H ) :   0.9742 B( 13-C , 16-H ) :   0.9711 B( 17-C , 18-H ) :   1.0634
B( 17-C , 19-H ) :   0.9662 B( 17-C , 20-H ) :   1.0954 B( 17-C , 21-C ) :   0.2064
B( 21-C , 22-H ) :   0.9750 B( 21-C , 23-H ) :   1.0655 B( 21-C , 24-H ) :   1.0839
B( 25-N , 26-H ) :   1.0393 B( 25-N , 27-H ) :   0.9994

Dispersion correction           -0.053847371
FINAL SINGLE POINT ENERGY      -611.628764389485

DIPOLE MOMENT
-------------

Method             : SCF
Type of density    : Electron Density
Multiplicity       :   1
Irrep              :   0
Energy             :  -611.5749170187888240 Eh
Relativity type    :
Basis              : AO
                                X                 Y                 Z
Electronic contribution:      0.139730331      -1.306424572      -3.192996313
Nuclear contribution   :     -0.277270832       3.421665314       4.666505617
                        -----------------------------------------
Total Dipole Moment    :     -0.137540501       2.115240742       1.473509304
                        -----------------------------------------
Magnitude (a.u.)       :      2.581548073
Magnitude (Debye)      :      6.561773729

Rotational constants in cm-1:             0.040160             0.022299             0.017655
Rotational constants in MHz :          1203.956703           668.492574           529.280087

                             ****ORCA TERMINATED NORMALLY****
TOTAL RUN TIME: 0 days 0 hours 8 minutes 42 seconds 295 msec
