                         Program Version 6.0.0  -   RELEASE  -
|  1> !PBE0 def2-SV(p) Opt Freq d3 TightSCF SlowConv RIJCOSX defgrid2
|  2>
|  3> %pal
|  4> nprocs 8
|  5> end
|  6>
|  7> %scf
|  8> MaxIter 1500
|  9> end
| 10>
| 11> %maxcore 3000
| 12>
| 13>
| 14>
| 15> * xyz -1 2
| 16> C    -1.1660680   -1.2500275   -0.0004320
| 17> C    -2.5043877   -0.9493515   -0.0005147
| 18> C    -2.9461626    0.3827498   -0.0000792
| 19> C    -1.9939517    1.4114445    0.0004819
| 20> C    -0.6469088    1.1390307    0.0005709
| 21> C    -0.1714777   -0.2108137    0.0000973
| 22> C     1.1642084   -0.6103916    0.0000576
| 23> O     1.6781570   -1.7313830   -0.0002973
| 24> Cl    2.3982842    0.8066670    0.0006460
| 25> H     0.0674634    1.9542905    0.0010090
| 26> H    -2.3294960    2.4437588    0.0008428
| 27> H    -4.0041174    0.6116935   -0.0001509
| 28> H    -3.2354671   -1.7516159   -0.0009226
| 29> H    -0.8307533   -2.2830416   -0.0007633
| 30> *
| 31>
| 32>                          ****END OF INPUT****
 Total Charge           Charge          ....   -1
 Multiplicity           Mult            ....    2
 Number of Electrons    NEL             ....   73
Dispersion correction           -0.014158345
FINAL SINGLE POINT ENERGY      -804.267924194644
Dispersion correction             ... done (  0.1 sec)
Dispersion correction           -0.014101526
FINAL SINGLE POINT ENERGY      -804.269473852230
Dispersion correction             ... done (  0.1 sec)
Dispersion correction           -0.014092344
FINAL SINGLE POINT ENERGY      -804.269664613472
Dispersion correction             ... done (  0.1 sec)
FINAL SINGLE POINT ENERGY      -804.269690042699
FINAL SINGLE POINT ENERGY      -804.269699262157
Dispersion correction             ... done (  0.1 sec)
Dispersion correction           -0.014093249
FINAL SINGLE POINT ENERGY      -804.269702869999
Dispersion correction             ... done (  0.1 sec)
Dispersion correction           -0.014092565
FINAL SINGLE POINT ENERGY      -804.269703813327
Dispersion correction             ... done (  0.1 sec)
                    ***********************HURRAY********************

CARTESIAN COORDINATES (ANGSTROEM)
---------------------------------
  C     -1.169084   -1.251060   -0.000467
  C     -2.515589   -0.948058   -0.000490
  C     -2.969514    0.387869   -0.000034
  C     -1.999497    1.412575    0.000470
  C     -0.646507    1.133680    0.000506
  C     -0.167072   -0.217391    0.000022
  C      1.187719   -0.628307    0.000001
  O      1.691661   -1.734474   -0.000279
  Cl     2.414152    0.841174    0.000880
  H      0.087837    1.942107    0.000887
  H     -2.322395    2.461712    0.000834
  H     -4.038933    0.621577   -0.000064
  H     -3.245553   -1.768255   -0.000885
  H     -0.827903   -2.290139   -0.000833

 Multiplicity           Mult            ....    2
 Number of Electrons    NEL             ....   73
 Basis Dimension        Dim             ....  140

ORBITAL ENERGIES
----------------
                 SPIN UP ORBITALS
  NO   OCC          E(Eh)            E(eV)
   0   1.0000    -101.476859     -2761.3257
   1   1.0000     -19.019649      -517.5510
   2   1.0000     -10.155653      -276.3494
   3   1.0000     -10.079766      -274.2844
   4   1.0000     -10.078968      -274.2627
   5   1.0000     -10.073403      -274.1112
   6   1.0000     -10.071810      -274.0679
   7   1.0000     -10.071648      -274.0635
   8   1.0000     -10.070553      -274.0337
   9   1.0000      -9.327615      -253.8173
  10   1.0000      -7.067253      -192.3097
  11   1.0000      -7.060576      -192.1280
  12   1.0000      -7.060095      -192.1149
  13   1.0000      -0.881973       -23.9997
  14   1.0000      -0.708832       -19.2883
  15   1.0000      -0.653499       -17.7826
  16   1.0000      -0.606539       -16.5048
  17   1.0000      -0.600188       -16.3319
  18   1.0000      -0.495422       -13.4811
  19   1.0000      -0.453136       -12.3305
  20   1.0000      -0.404557       -11.0086
  21   1.0000      -0.356425        -9.6988
  22   1.0000      -0.316445        -8.6109
  23   1.0000      -0.303246        -8.2518
  24   1.0000      -0.284669        -7.7462
  25   1.0000      -0.276005        -7.5105
  26   1.0000      -0.267642        -7.2829
  27   1.0000      -0.257087        -6.9957
  28   1.0000      -0.218233        -5.9384
  29   1.0000      -0.216280        -5.8853
  30   1.0000      -0.187210        -5.0942
  31   1.0000      -0.143076        -3.8933
  32   1.0000      -0.140954        -3.8356
  33   1.0000      -0.116283        -3.1642
  34   1.0000      -0.113916        -3.0998
  35   1.0000      -0.108048        -2.9401
  36   1.0000       0.034886         0.9493
  37   0.0000       0.157739         4.2923
  38   0.0000       0.203765         5.5447
  39   0.0000       0.204999         5.5783
  40   0.0000       0.220349         5.9960
  41   0.0000       0.246388         6.7046

                 SPIN DOWN ORBITALS
  NO   OCC          E(Eh)            E(eV)
   0   1.0000    -101.476832     -2761.3250
   1   1.0000     -19.013423      -517.3815
   2   1.0000     -10.151523      -276.2370
   3   1.0000     -10.081409      -274.3291
   4   1.0000     -10.080537      -274.3054
   5   1.0000     -10.072491      -274.0864
   6   1.0000     -10.068579      -273.9800
   7   1.0000     -10.067566      -273.9524
   8   1.0000     -10.066551      -273.9248
   9   1.0000      -9.327590      -253.8166
  10   1.0000      -7.067469      -192.3156
  11   1.0000      -7.060237      -192.1188
  12   1.0000      -7.060091      -192.1148
  13   1.0000      -0.870845       -23.6969
  14   1.0000      -0.703982       -19.1563
  15   1.0000      -0.650586       -17.7033
  16   1.0000      -0.600377       -16.3371
  17   1.0000      -0.596323       -16.2268
  18   1.0000      -0.482968       -13.1422
  19   1.0000      -0.451460       -12.2849
  20   1.0000      -0.401150       -10.9159
  21   1.0000      -0.351006        -9.5514
  22   1.0000      -0.313553        -8.5322
  23   1.0000      -0.298517        -8.1231
  24   1.0000      -0.282045        -7.6748
  25   1.0000      -0.275193        -7.4884
  26   1.0000      -0.253016        -6.8849
  27   1.0000      -0.240870        -6.5544
  28   1.0000      -0.215702        -5.8696
  29   1.0000      -0.198583        -5.4037
  30   1.0000      -0.185896        -5.0585
  31   1.0000      -0.140273        -3.8170
  32   1.0000      -0.134820        -3.6686
  33   1.0000      -0.104906        -2.8546
  34   1.0000      -0.103990        -2.8297
  35   1.0000      -0.087734        -2.3874
  36   0.0000       0.124678         3.3927
  37   0.0000       0.163921         4.4605
  38   0.0000       0.205625         5.5953
  39   0.0000       0.225490         6.1359
  40   0.0000       0.238062         6.4780

MULLIKEN ATOMIC CHARGES AND SPIN POPULATIONS
--------------------------------------------
   0 C :   -0.150608    0.225423
   1 C :   -0.102187   -0.134532
   2 C :   -0.153005    0.382477
   3 C :   -0.100173   -0.127988
   4 C :   -0.134483    0.217024
   5 C :    0.001044    0.048231
   6 C :    0.055588    0.230107
   7 O :   -0.288019    0.200816
   8 Cl:   -0.339155   -0.003130
   9 H :    0.054638   -0.011954
  10 H :    0.035772    0.004699
  11 H :    0.028683   -0.022968
  12 H :    0.037055    0.004995
  13 H :    0.054851   -0.013201
Sum of atomic charges         :   -1.0000000

LOEWDIN ATOMIC CHARGES AND SPIN POPULATIONS
-------------------------------------------
   0 C :   -0.152772    0.175854
   1 C :   -0.160345   -0.066548
   2 C :   -0.234289    0.296658
   3 C :   -0.161541   -0.062555
   4 C :   -0.163977    0.166675
   5 C :   -0.152487    0.077494
   6 C :   -0.078150    0.223020
   7 O :   -0.250907    0.202534
   8 Cl:   -0.161275    0.004625
   9 H :    0.107089   -0.005705
  10 H :    0.099403    0.002145
  11 H :    0.096152   -0.010309
  12 H :    0.099449    0.002289
  13 H :    0.113652   -0.006176

  Mayer bond orders larger than 0.100000
B(  0-C ,  1-C ) :   1.4976 B(  0-C ,  5-C ) :   1.2209 B(  0-C , 13-H ) :   0.9585
B(  1-C ,  2-C ) :   1.2850 B(  1-C , 12-H ) :   0.9617 B(  2-C ,  3-C ) :   1.2891
B(  2-C , 11-H ) :   0.9659 B(  3-C ,  4-C ) :   1.5032 B(  3-C , 10-H ) :   0.9603
B(  4-C ,  5-C ) :   1.2257 B(  4-C ,  9-H ) :   0.9346 B(  5-C ,  6-C ) :   1.2346
B(  6-C ,  7-O ) :   1.9947 B(  6-C ,  8-Cl) :   0.8014 B(  7-O ,  8-Cl) :   0.1017

Dispersion correction           -0.014092198
FINAL SINGLE POINT ENERGY      -804.269704015460

DIPOLE MOMENT
-------------

Method             : SCF
Type of density    : Electron Density
Multiplicity       :   2
Irrep              :   0
Energy             :  -804.2556118178614497 Eh
Relativity type    :
Basis              : AO
                                X                 Y                 Z
Electronic contribution:     12.122169014       0.822501841       0.001951968
Nuclear contribution   :    -12.989017313      -0.288558488      -0.001883982
                        -----------------------------------------
Total Dipole Moment    :     -0.866848299       0.533943354       0.000067986
                        -----------------------------------------
Magnitude (a.u.)       :      1.018096991
Magnitude (Debye)      :      2.587796896

VIBRATIONAL FREQUENCIES
-----------------------

Scaling factor for frequencies =  1.000000000  (already applied!)

     0:       0.00 cm**-1
     1:       0.00 cm**-1
     2:       0.00 cm**-1
     3:       0.00 cm**-1
     4:       0.00 cm**-1
     5:       0.00 cm**-1
     6:      90.45 cm**-1
     7:     143.57 cm**-1
     8:     182.06 cm**-1
     9:     290.32 cm**-1
    10:     362.96 cm**-1
    11:     367.39 cm**-1
    12:     442.81 cm**-1
    13:     487.08 cm**-1
    14:     530.59 cm**-1
    15:     625.20 cm**-1
    16:     643.08 cm**-1
    17:     659.34 cm**-1
    18:     703.93 cm**-1
    19:     800.60 cm**-1
    20:     801.83 cm**-1
    21:     844.09 cm**-1
    22:     961.38 cm**-1
    23:     962.87 cm**-1
    24:     990.79 cm**-1
    25:    1024.19 cm**-1
    26:    1092.96 cm**-1
    27:    1140.51 cm**-1
    28:    1170.71 cm**-1
    29:    1276.87 cm**-1
    30:    1306.27 cm**-1
    31:    1399.40 cm**-1
    32:    1471.03 cm**-1
    33:    1497.81 cm**-1
    34:    1552.01 cm**-1
    35:    1659.13 cm**-1
    36:    1833.81 cm**-1
    37:    3143.66 cm**-1
    38:    3149.35 cm**-1
    39:    3187.53 cm**-1
    40:    3205.96 cm**-1
    41:    3222.87 cm**-1

IR SPECTRUM
-----------

 Mode   freq       eps      Int      T**2         TX        TY        TZ
       cm**-1   L/(mol*cm) km/mol    a.u.
----------------------------------------------------------------------------
  6:     90.45   0.000036    0.18  0.000125  ( 0.000004  0.000016 -0.011200)
  7:    143.57   0.000124    0.62  0.000269  (-0.000013  0.000006  0.016392)
  8:    182.06   0.000330    1.67  0.000565  ( 0.021489  0.010172  0.000006)
  9:    290.32   0.007479   37.80  0.008039  ( 0.071530  0.054062  0.000034)
 10:    362.96   0.002978   15.05  0.002560  ( 0.035239  0.036309 -0.000026)
 11:    367.39   0.000407    2.06  0.000346  (-0.000049 -0.000103 -0.018595)
 12:    442.81   0.000036    0.18  0.000025  (-0.000006  0.000010 -0.005034)
 13:    487.08   0.002695   13.62  0.001726  (-0.040668 -0.008517 -0.000013)
 14:    530.59   0.002936   14.84  0.001727  ( 0.000036 -0.000022  0.041555)
 15:    625.20   0.001377    6.96  0.000687  (-0.021170 -0.015470 -0.000011)
 16:    643.08   0.022337  112.88  0.010839  ( 0.089377  0.053396  0.000038)
 17:    659.34   0.010043   50.75  0.004753  ( 0.000024  0.000030 -0.068944)
 18:    703.93   0.000085    0.43  0.000038  (-0.000018 -0.000017 -0.006124)
 19:    800.60   0.001233    6.23  0.000481  (-0.000019 -0.000003  0.021921)
 20:    801.83   0.001645    8.31  0.000640  (-0.000006  0.000003  0.025303)
 21:    844.09   0.024704  124.84  0.009133  ( 0.072922  0.061770  0.000039)
 22:    961.38   0.000009    0.05  0.000003  ( 0.000000 -0.000013 -0.001728)
 23:    962.87   0.000002    0.01  0.000001  (-0.000001 -0.000005 -0.000879)
 24:    990.79   0.000992    5.01  0.000312  ( 0.014597 -0.009964 -0.000004)
 25:   1024.19   0.009825   49.65  0.002993  (-0.052949  0.013778 -0.000000)
 26:   1092.96   0.001147    5.80  0.000327  ( 0.014992 -0.010133 -0.000001)
 27:   1140.51   0.000770    3.89  0.000211  ( 0.006720 -0.012863 -0.000004)
 28:   1170.71   0.001574    7.96  0.000420  ( 0.007157 -0.019195 -0.000008)
 29:   1276.87   0.015748   79.58  0.003849  (-0.029293 -0.054688 -0.000029)
 30:   1306.27   0.000334    1.69  0.000080  ( 0.005298 -0.007191 -0.000003)
 31:   1399.40   0.004587   23.18  0.001023  (-0.020756 -0.024332 -0.000012)
 32:   1471.03   0.001728    8.73  0.000367  (-0.010147  0.016235  0.000004)
 33:   1497.81   0.002481   12.54  0.000517  ( 0.005000 -0.022180 -0.000009)
 34:   1552.01   0.000837    4.23  0.000168  (-0.009058  0.009283  0.000002)
 35:   1659.13   0.034117  172.41  0.006417  (-0.072315  0.034460  0.000007)
 36:   1833.81   0.098943  500.02  0.016837  (-0.089419  0.094030  0.000027)
 37:   3143.66   0.003283   16.59  0.000326  (-0.017057 -0.005908 -0.000004)
 38:   3149.35   0.012363   62.48  0.001225  ( 0.004097  0.034761  0.000014)
 39:   3187.53   0.009268   46.84  0.000907  (-0.028845  0.008678 -0.000000)
 40:   3205.96   0.004216   21.30  0.000410  ( 0.010060  0.017583  0.000008)
 41:   3222.87   0.001272    6.43  0.000123  (-0.000825  0.011067  0.000004)

--------------------------
THERMOCHEMISTRY AT 298.15K
--------------------------

Temperature         ...   298.15 K
Pressure            ...     1.00 atm
Total Mass          ...   140.57 AMU
Quasi RRHO          ...     True
Cut-Off Frequency   ...     1.00 cm^-1

Throughout the following assumptions are being made:
  (1) The electronic state is orbitally nondegenerate
      but the spin degeneracy is treated
  (2) There are no thermally accessible electronically excited states
  (3) Hindered rotations indicated by low frequency modes are not
      treated as such but are treated as vibrations and this may
      cause some error
  (4) All equations used are the standard statistical mechanics
      equations for an ideal gas
  (5) All vibrations are strictly harmonic

freq.      90.45  E(vib)   ...       0.47
freq.     143.57  E(vib)   ...       0.41
freq.     182.06  E(vib)   ...       0.37
freq.     290.32  E(vib)   ...       0.27
freq.     362.96  E(vib)   ...       0.22
freq.     367.39  E(vib)   ...       0.21
freq.     442.81  E(vib)   ...       0.17
freq.     487.08  E(vib)   ...       0.15
freq.     530.59  E(vib)   ...       0.13
freq.     625.20  E(vib)   ...       0.09
freq.     643.08  E(vib)   ...       0.09
freq.     659.34  E(vib)   ...       0.08
freq.     703.93  E(vib)   ...       0.07
freq.     800.60  E(vib)   ...       0.05
freq.     801.83  E(vib)   ...       0.05
freq.     844.09  E(vib)   ...       0.04
freq.     961.38  E(vib)   ...       0.03
freq.     962.87  E(vib)   ...       0.03
freq.     990.79  E(vib)   ...       0.02
freq.    1024.19  E(vib)   ...       0.02
freq.    1092.96  E(vib)   ...       0.02
freq.    1140.51  E(vib)   ...       0.01
freq.    1170.71  E(vib)   ...       0.01
freq.    1276.87  E(vib)   ...       0.01
freq.    1306.27  E(vib)   ...       0.01
freq.    1399.40  E(vib)   ...       0.00
freq.    1471.03  E(vib)   ...       0.00
freq.    1497.81  E(vib)   ...       0.00
freq.    1552.01  E(vib)   ...       0.00
freq.    1659.13  E(vib)   ...       0.00
freq.    1833.81  E(vib)   ...       0.00
freq.    3143.66  E(vib)   ...       0.00
freq.    3149.35  E(vib)   ...       0.00
freq.    3187.53  E(vib)   ...       0.00
freq.    3205.96  E(vib)   ...       0.00
freq.    3222.87  E(vib)   ...       0.00

------------
INNER ENERGY
------------

The inner energy is: U= E(el) + E(ZPE) + E(vib) + E(rot) + E(trans)
    E(el)   - is the total energy from the electronic structure calculation
              = E(kin-el) + E(nuc-el) + E(el-el) + E(nuc-nuc)
    E(ZPE)  - the the zero temperature vibrational energy from the frequency calculation
    E(vib)  - the the finite temperature correction to E(ZPE) due to population
              of excited vibrational states
    E(rot)  - is the rotational thermal energy
    E(trans)- is the translational thermal energy

Summary of contributions to the inner energy U:
Electronic energy                ...   -804.26970402 Eh
Zero point energy                ...      0.09847247 Eh      61.79 kcal/mol
Thermal vibrational correction   ...      0.00484542 Eh       3.04 kcal/mol
Thermal rotational correction    ...      0.00141627 Eh       0.89 kcal/mol
Thermal translational correction ...      0.00141627 Eh       0.89 kcal/mol
-----------------------------------------------------------------------
Total thermal energy                   -804.16355358 Eh

Summary of corrections to the electronic energy:
(perhaps to be used in another calculation)
Total thermal correction                  0.00767796 Eh       4.82 kcal/mol
Non-thermal (ZPE) correction              0.09847247 Eh      61.79 kcal/mol
-----------------------------------------------------------------------
Total correction                          0.10615044 Eh      66.61 kcal/mol

--------
ENTHALPY
--------

The enthalpy is H = U + kB*T
                kB is Boltzmann's constant
Total thermal energy              ...   -804.16355358 Eh
Thermal Enthalpy correction       ...      0.00094421 Eh       0.59 kcal/mol
-----------------------------------------------------------------------
Total Enthalpy                    ...   -804.16260937 Eh

Note: Only C1 symmetry has been detected, increase convergence thresholds
      if your molecule has a higher symmetry. Symmetry factor of 1.0 is
      used for the rotational entropy correction.

Note: Rotational entropy computed according to Herzberg
Infrared and Raman Spectra, Chapter V,1, Van Nostrand Reinhold, 1945
Point Group:  C1, Symmetry Number:   1
Rotational constants in cm-1:     0.100365     0.030413     0.023340

Vibrational entropy computed according to the QRRHO of S. Grimme
Chem.Eur.J. 2012 18 9955 using a reference frequency of 100.0 cm-1

-------
ENTROPY
-------

The entropy contributions are T*S = T*(S(el)+S(vib)+S(rot)+S(trans))
     S(el)   - electronic entropy
     S(vib)  - vibrational entropy
     S(rot)  - rotational entropy
     S(trans)- translational entropy
The entropies will be listed as multiplied by the temperature to get
units of energy

Electronic entropy                ...      0.00065446 Eh      0.41 kcal/mol
Vibrational entropy               ...      0.00795517 Eh      4.99 kcal/mol
Rotational entropy                ...      0.01401899 Eh      8.80 kcal/mol
Translational entropy             ...      0.01935352 Eh     12.14 kcal/mol
-----------------------------------------------------------------------
Final entropy term                ...      0.04198214 Eh     26.34 kcal/mol

In case the symmetry of your molecule has not been determined correctly
or in case you have a reason to use a different symmetry number we print
out the resulting rotational entropy values for sn=1,12:

 non-linear molecules -----------------------------------
|  sn= 1 | S(rot)=       0.01401899 Eh      8.80 kcal/mol|
|  sn= 2 | S(rot)=       0.01336454 Eh      8.39 kcal/mol|
|  sn= 3 | S(rot)=       0.01298171 Eh      8.15 kcal/mol|
|  sn= 4 | S(rot)=       0.01271008 Eh      7.98 kcal/mol|
|  sn= 5 | S(rot)=       0.01249939 Eh      7.84 kcal/mol|
|  sn= 6 | S(rot)=       0.01232725 Eh      7.74 kcal/mol|
|  sn= 7 | S(rot)=       0.01218170 Eh      7.64 kcal/mol|
|  sn= 8 | S(rot)=       0.01205563 Eh      7.57 kcal/mol|
|  sn= 9 | S(rot)=       0.01194442 Eh      7.50 kcal/mol|
|  sn=10 | S(rot)=       0.01184494 Eh      7.43 kcal/mol|
|  sn=11 | S(rot)=       0.01175495 Eh      7.38 kcal/mol|
|  sn=12 | S(rot)=       0.01167279 Eh      7.32 kcal/mol|
 linear molecules ---------------------------------------
|  Dinfh | S(rot)=       0.00887364 Eh      5.57 kcal/mol|
|  Cinfv | S(rot)=       0.00952809 Eh      5.98 kcal/mol|
 --------------------------------------------------------

-------------------
GIBBS FREE ENERGY
-------------------

The Gibbs free energy is G = H - T*S

                             ****ORCA TERMINATED NORMALLY****
TOTAL RUN TIME: 0 days 0 hours 7 minutes 30 seconds 84 msec
