                         Program Version 6.0.0  -   RELEASE  -
|  1> !PBE0 opt aug-cc-pVTZ d3 TightSCF SlowConv RIJCOSX defgrid2
|  2>
|  3> %pal
|  4> nprocs 8
|  5> end
|  6>
|  7> %scf
|  8> MaxIter 1500
|  9> end
| 10>
| 11> %maxcore 3500
| 12>
| 13> !CPCM
| 14> %cpcm smd true
| 15> SMDsolvent "MeCN"
| 16> surfacetype gepol_ses
| 17> rsolv 2.19
| 18> end
| 19>
| 20> * xyz 1 2
| 21> C           1.36337197862367      0.00925782782262      0.00042331345329
| 22> C           0.74822645901465      1.29296895528656      0.00038316234352
| 23> C          -0.61529602246028      1.39626207073000      0.00023060917101
| 24> C          -1.42835414240665      0.22289484643639      0.00009324782531
| 25> C          -0.81975705014986     -1.06228254929373      0.00009847310954
| 26> C           0.54832834357610     -1.16073135173507      0.00023403456932
| 27> H           1.01965556748509     -2.14817388841103      0.00023835116044
| 28> H          -1.42717703035162     -1.96898347753981      0.00000365697629
| 29> O          -2.71426815111900      0.42982708435483     -0.00003024655139
| 30> C          -3.65743877124361     -0.63904368121668     -0.00016458675956
| 31> H          -4.64491010243250     -0.16049105257969     -0.00025717007063
| 32> H          -3.53752517507174     -1.25276547158578     -0.90821236062697
| 33> H          -3.53771725035146     -1.25281703649443      0.90787613291043
| 34> H          -1.11664261012245      2.36720004312394      0.00019734665612
| 35> H           1.36186872975284      2.19800021241604      0.00046058429736
| 36> S           3.05618464536732     -0.23274264105176      0.00049319565771
| 37> H           3.42654608188951      1.07420050973759     -0.00198104412179
| 38> *
| 39>
| 40>                          ****END OF INPUT****
 Total Charge           Charge          ....    1
 Multiplicity           Mult            ....    2
 Number of Electrons    NEL             ....   73
Dispersion correction           -0.016008096
FINAL SINGLE POINT ENERGY      -744.384236826750
Dispersion correction             ... done (  0.1 sec)
Dispersion correction           -0.016099908
FINAL SINGLE POINT ENERGY      -744.385497111759
Dispersion correction             ... done (  0.1 sec)
Dispersion correction           -0.016119624
FINAL SINGLE POINT ENERGY      -744.385565208096
Dispersion correction             ... done (  0.0 sec)
FINAL SINGLE POINT ENERGY      -744.385549890901
Dispersion correction             ... done (  0.1 sec)
Dispersion correction           -0.016122083
FINAL SINGLE POINT ENERGY      -744.385580778483
Dispersion correction             ... done (  0.1 sec)
Dispersion correction           -0.016121271
FINAL SINGLE POINT ENERGY      -744.385587023708
Dispersion correction             ... done (  0.1 sec)
                    ***********************HURRAY********************

CARTESIAN COORDINATES (ANGSTROEM)
---------------------------------
  C      1.332293    0.000445   -0.001376
  C      0.743430    1.286673   -0.003988
  C     -0.609455    1.402684   -0.002979
  C     -1.421962    0.239547   -0.001073
  C     -0.837202   -1.047535   -0.003475
  C      0.519941   -1.159436   -0.002980
  H      0.981363   -2.139048   -0.003472
  H     -1.453556   -1.934042   -0.003818
  O     -2.710506    0.454381    0.002756
  C     -3.623701   -0.652444    0.002871
  H     -4.613681   -0.207568    0.005745
  H     -3.483507   -1.252417   -0.895724
  H     -3.480022   -1.256025    0.898619
  H     -1.092113    2.370981   -0.002747
  H      1.370248    2.168593   -0.007058
  S      3.023305   -0.233058    0.006455
  H      3.380219    1.070848    0.012331

 Multiplicity           Mult            ....    2
 Number of Electrons    NEL             ....   73
 Basis Dimension        Dim             ....  602

ORBITAL ENERGIES
----------------
                 SPIN UP ORBITALS
  NO   OCC          E(Eh)            E(eV)
   0   1.0000     -89.124460     -2425.1998
   1   1.0000     -19.308059      -525.3990
   2   1.0000     -10.354132      -281.7503
   3   1.0000     -10.329633      -281.0836
   4   1.0000     -10.286645      -279.9138
   5   1.0000     -10.282484      -279.8006
   6   1.0000     -10.278201      -279.6841
   7   1.0000     -10.272802      -279.5372
   8   1.0000     -10.272608      -279.5319
   9   1.0000      -8.082043      -219.9236
  10   1.0000      -6.018034      -163.7590
  11   1.0000      -6.016133      -163.7073
  12   1.0000      -6.014065      -163.6510
  13   1.0000      -1.168813       -31.8050
  14   1.0000      -0.947488       -25.7825
  15   1.0000      -0.871876       -23.7249
  16   1.0000      -0.829239       -22.5647
  17   1.0000      -0.795084       -21.6353
  18   1.0000      -0.738463       -20.0946
  19   1.0000      -0.680433       -18.5155
  20   1.0000      -0.646378       -17.5888
  21   1.0000      -0.591946       -16.1077
  22   1.0000      -0.560686       -15.2571
  23   1.0000      -0.532804       -14.4983
  24   1.0000      -0.532696       -14.4954
  25   1.0000      -0.494600       -13.4587
  26   1.0000      -0.482847       -13.1389
  27   1.0000      -0.471293       -12.8245
  28   1.0000      -0.452735       -12.3196
  29   1.0000      -0.444896       -12.1062
  30   1.0000      -0.414235       -11.2719
  31   1.0000      -0.408128       -11.1057
  32   1.0000      -0.402778       -10.9602
  33   1.0000      -0.377087       -10.2611
  34   1.0000      -0.347027        -9.4431
  35   1.0000      -0.320168        -8.7122
  36   1.0000      -0.266502        -7.2519
  37   0.0000      -0.056147        -1.5278
  38   0.0000      -0.048998        -1.3333
  39   0.0000      -0.017082        -0.4648
  40   0.0000       0.001858         0.0506
  41   0.0000       0.005831         0.1587

                 SPIN DOWN ORBITALS
  NO   OCC          E(Eh)            E(eV)
   0   1.0000     -89.122621     -2425.1498
   1   1.0000     -19.303133      -525.2649
   2   1.0000     -10.351261      -281.6721
   3   1.0000     -10.325656      -280.9754
   4   1.0000     -10.286818      -279.9185
   5   1.0000     -10.281774      -279.7813
   6   1.0000     -10.278176      -279.6834
   7   1.0000     -10.271993      -279.5151
   8   1.0000     -10.271766      -279.5090
   9   1.0000      -8.080143      -219.8719
  10   1.0000      -6.016960      -163.7298
  11   1.0000      -6.013080      -163.6242
  12   1.0000      -6.009578      -163.5289
  13   1.0000      -1.159476       -31.5510
  14   1.0000      -0.939862       -25.5749
  15   1.0000      -0.863172       -23.4881
  16   1.0000      -0.827044       -22.5050
  17   1.0000      -0.790161       -21.5014
  18   1.0000      -0.729601       -19.8535
  19   1.0000      -0.675992       -18.3947
  20   1.0000      -0.641571       -17.4580
  21   1.0000      -0.589173       -16.0322
  22   1.0000      -0.558682       -15.2025
  23   1.0000      -0.529243       -14.4014
  24   1.0000      -0.514581       -14.0025
  25   1.0000      -0.492036       -13.3890
  26   1.0000      -0.481810       -13.1107
  27   1.0000      -0.468881       -12.7589
  28   1.0000      -0.443003       -12.0547
  29   1.0000      -0.434648       -11.8274
  30   1.0000      -0.412439       -11.2230
  31   1.0000      -0.397979       -10.8296
  32   1.0000      -0.388276       -10.5655
  33   1.0000      -0.374168       -10.1816
  34   1.0000      -0.317142        -8.6299
  35   1.0000      -0.313437        -8.5291
  36   0.0000      -0.182846        -4.9755
  37   0.0000      -0.038205        -1.0396
  38   0.0000      -0.028180        -0.7668
  39   0.0000      -0.015231        -0.4145
  40   0.0000       0.003021         0.0822

MULLIKEN ATOMIC CHARGES AND SPIN POPULATIONS
--------------------------------------------
   0 C :    0.578031    0.191468
   1 C :   -0.669040   -0.008245
   2 C :   -0.834293    0.047216
   3 C :    1.039490    0.175070
   4 C :   -0.377836    0.030575
   5 C :   -0.805172    0.049617
   6 H :    0.608462   -0.002821
   7 H :    0.604634    0.012897
   8 O :   -0.560319    0.158429
   9 C :   -0.730201   -0.012683
  10 H :    0.280541    0.001097
  11 H :    0.338457    0.006683
  12 H :    0.338113    0.006702
  13 H :    0.686126    0.004874
  14 H :    0.559950    0.001024
  15 S :   -0.238732    0.365226
  16 H :    0.181789   -0.027129
Sum of atomic charges         :    1.0000000

LOEWDIN ATOMIC CHARGES AND SPIN POPULATIONS
-------------------------------------------
   0 C :   -0.545641    0.166521
   1 C :    0.177187    0.044389
   2 C :    0.262740    0.063600
   3 C :   -0.348318    0.132287
   4 C :    0.263966    0.061744
   5 C :    0.163157    0.061053
   6 H :   -0.161727    0.003658
   7 H :   -0.165875    0.005926
   8 O :    0.658391    0.142465
   9 C :    0.430404    0.013994
  10 H :   -0.161125   -0.000400
  11 H :   -0.153025    0.003528
  12 H :   -0.152828    0.003521
  13 H :   -0.145718    0.006769
  14 H :   -0.164809    0.000047
  15 S :    1.508768    0.253174
  16 H :   -0.465547    0.037725

  Mayer bond orders larger than 0.100000
B(  0-C ,  1-C ) :   0.9755 B(  0-C ,  5-C ) :   1.1617 B(  0-C , 15-S ) :   0.7813
B(  1-C ,  2-C ) :   1.6853 B(  1-C ,  3-C ) :  -0.2688 B(  1-C , 13-H ) :   0.1037
B(  1-C , 14-H ) :   0.4477 B(  2-C ,  3-C ) :   0.7554 B(  2-C ,  4-C ) :   0.1016
B(  2-C ,  8-O ) :   0.2824 B(  2-C , 13-H ) :   0.1561 B(  3-C ,  4-C ) :   0.9871
B(  3-C ,  5-C ) :  -0.2513 B(  3-C ,  8-O ) :   0.6345 B(  4-C ,  5-C ) :   1.2976
B(  4-C ,  7-H ) :   0.2677 B(  4-C ,  8-O ) :  -0.1170 B(  5-C ,  6-H ) :   0.4523
B(  8-O ,  9-C ) :   0.9671 B(  9-C , 10-H ) :   0.9557 B(  9-C , 11-H ) :   0.8563
B(  9-C , 12-H ) :   0.8564 B( 15-S , 16-H ) :   1.0172

Dispersion correction           -0.016120939
FINAL SINGLE POINT ENERGY      -744.385586007505

DIPOLE MOMENT
-------------

Method             : SCF
Type of density    : Electron Density
Multiplicity       :   2
Irrep              :   0
Energy             :  -744.3694650680308769 Eh
Relativity type    :
Basis              : AO
                                X                 Y                 Z
Electronic contribution:      7.676680259       0.921452992       0.001616573
Nuclear contribution   :     -7.909103735      -1.062936611      -0.001788223
                        -----------------------------------------
Total Dipole Moment    :     -0.232423475      -0.141483619      -0.000171649
                        -----------------------------------------
Magnitude (a.u.)       :      0.272099827
Magnitude (Debye)      :      0.691622796

Rotational constants in cm-1:             0.155412             0.024018             0.020886
Rotational constants in MHz :          4659.143970           720.029790           626.161070

                             ****ORCA TERMINATED NORMALLY****
TOTAL RUN TIME: 0 days 0 hours 32 minutes 33 seconds 36 msec
