                         Program Version 6.0.0  -   RELEASE  -
|  1> !TPSSh aug-cc-pVTZ d3 TightSCF SlowConv RIJCOSX defgrid2
|  2>
|  3> %pal
|  4> nprocs 4
|  5> end
|  6>
|  7> %scf
|  8> MaxIter 1500
|  9> end
| 10>
| 11> %maxcore 3000
| 12>
| 13> !CPCM
| 14> %cpcm smd true
| 15> SMDsolvent "MeCN"
| 16> surfacetype gepol_ses
| 17> rsolv 2.19
| 18> end
| 19>
| 20> * xyz 0 1
| 21>   C          -1.20570013774955     -1.10039697930563      0.01543175480109
| 22>   C           0.00111933111067     -1.79372463480323      0.03716937828290
| 23>   C           1.21118544677794     -1.10088196681091      0.03388616244552
| 24>   C           1.22835326598804      0.29682839071349      0.00494538015242
| 25>   C           2.52368903063881      1.05844071578900     -0.03593104667324
| 26>   H           2.48341162103777      1.96024689395608      0.59889265106332
| 27>   H           3.36770598220524      0.43706826741282      0.30599555459239
| 28>   H           2.75516930508487      1.39410942865254     -1.06399807973417
| 29>   C           0.00347119857744      0.97499778484913     -0.01291371518520
| 30>   C          -1.22031342403745      0.30000889914392     -0.00614524998718
| 31>   C          -2.51971268891073      1.05570005797022      0.00936042521607
| 32>   H          -2.39731022829722      2.08016889230358     -0.37956919154311
| 33>   H          -2.91823280700184      1.13851573828558      1.03779552551247
| 34>   H          -3.28893296665078      0.54842098009693     -0.59747808691160
| 35>   H           0.00394355087374      2.07111276662115     -0.03278330541863
| 36>   H           2.15666081819569     -1.65279950277184      0.05208747237142
| 37>   H           0.00027512568056     -2.88802960033678      0.05674445713596
| 38>   H          -2.15204978452320     -1.65147955576605      0.01700562287958
| 39> *
| 40>
| 41>                          ****END OF INPUT****

CARTESIAN COORDINATES (ANGSTROEM)
---------------------------------
  C     -1.205700   -1.100397    0.015432
  C      0.001119   -1.793725    0.037169
  C      1.211185   -1.100882    0.033886
  C      1.228353    0.296828    0.004945
  C      2.523689    1.058441   -0.035931
  H      2.483412    1.960247    0.598893
  H      3.367706    0.437068    0.305996
  H      2.755169    1.394109   -1.063998
  C      0.003471    0.974998   -0.012914
  C     -1.220313    0.300009   -0.006145
  C     -2.519713    1.055700    0.009360
  H     -2.397310    2.080169   -0.379569
  H     -2.918233    1.138516    1.037796
  H     -3.288933    0.548421   -0.597478
  H      0.003944    2.071113   -0.032783
  H      2.156661   -1.652800    0.052087
  H      0.000275   -2.888030    0.056744
  H     -2.152050   -1.651480    0.017006

 Total Charge           Charge          ....    0
 Multiplicity           Mult            ....    1
 Number of Electrons    NEL             ....   58
 Basis Dimension        Dim             ....  598

ORBITAL ENERGIES
----------------

  NO   OCC          E(Eh)            E(eV)
   0   2.0000     -10.121253      -275.4133
   1   2.0000     -10.121122      -275.4097
   2   2.0000     -10.112789      -275.1830
   3   2.0000     -10.108270      -275.0600
   4   2.0000     -10.108206      -275.0583
   5   2.0000     -10.107499      -275.0390
   6   2.0000     -10.105407      -274.9821
   7   2.0000     -10.105389      -274.9816
   8   2.0000      -0.835756       -22.7421
   9   2.0000      -0.757458       -20.6115
  10   2.0000      -0.734967       -19.9995
  11   2.0000      -0.665192       -18.1008
  12   2.0000      -0.654664       -17.8143
  13   2.0000      -0.573536       -15.6067
  14   2.0000      -0.546564       -14.8728
  15   2.0000      -0.479340       -13.0435
  16   2.0000      -0.444979       -12.1085
  17   2.0000      -0.422107       -11.4861
  18   2.0000      -0.402685       -10.9576
  19   2.0000      -0.389067       -10.5871
  20   2.0000      -0.387134       -10.5344
  21   2.0000      -0.380282       -10.3480
  22   2.0000      -0.370390       -10.0788
  23   2.0000      -0.348769        -9.4905
  24   2.0000      -0.330088        -8.9822
  25   2.0000      -0.315102        -8.5744
  26   2.0000      -0.312513        -8.5039
  27   2.0000      -0.237129        -6.4526
  28   2.0000      -0.228884        -6.2283
  29   0.0000      -0.022720        -0.6183
  30   0.0000      -0.019337        -0.5262
  31   0.0000      -0.002889        -0.0786
  32   0.0000       0.009945         0.2706
  33   0.0000       0.012026         0.3272

MULLIKEN ATOMIC CHARGES
-----------------------
   0 C :   -0.649835
   1 C :   -0.382641
   2 C :   -0.574451
   3 C :    0.751452
   4 C :   -0.245483
   5 H :    0.111377
   6 H :    0.112002
   7 H :    0.148181
   8 C :   -0.887555
   9 C :    0.744640
  10 C :   -0.283601
  11 H :    0.102410
  12 H :    0.149194
  13 H :    0.118756
  14 H :    0.042782
  15 H :    0.097209
  16 H :    0.523232
  17 H :    0.122332
Sum of atomic charges:   -0.0000000

LOEWDIN ATOMIC CHARGES
----------------------
   0 C :    0.195983
   1 C :    0.183300
   2 C :    0.197018
   3 C :   -0.144997
   4 C :    0.569380
   5 H :   -0.162478
   6 H :   -0.169007
   7 H :   -0.153037
   8 C :    0.218624
   9 C :   -0.145222
  10 C :    0.569262
  11 H :   -0.168093
  12 H :   -0.152820
  13 H :   -0.163602
  14 H :   -0.161597
  15 H :   -0.171097
  16 H :   -0.173577
  17 H :   -0.168040

  Mayer bond orders larger than 0.100000
B(  0-C ,  1-C ) :   1.3007 B(  0-C ,  9-C ) :   0.7782 B(  0-C , 17-H ) :   0.9753
B(  1-C ,  2-C ) :   1.2963 B(  1-C , 16-H ) :   0.4033 B(  2-C ,  3-C ) :   0.7663
B(  2-C , 15-H ) :   1.0591 B(  3-C ,  4-C ) :   0.7109 B(  3-C ,  8-C ) :   0.7508
B(  3-C ,  9-C ) :   0.2401 B(  4-C ,  5-H ) :   0.9898 B(  4-C ,  6-H ) :   0.9561
B(  4-C ,  7-H ) :   0.9713 B(  8-C ,  9-C ) :   0.7377 B(  8-C , 14-H ) :   1.0697
B(  9-C , 10-C ) :   0.7438 B( 10-C , 11-H ) :   0.9784 B( 10-C , 12-H ) :   0.9654
B( 10-C , 13-H ) :   0.9693

Dispersion correction           -0.020032449
FINAL SINGLE POINT ENERGY      -311.042585925597

DIPOLE MOMENT
-------------

Method             : SCF
Type of density    : Electron Density
Multiplicity       :   1
Irrep              :   0
Energy             :  -311.0225534761726749 Eh
Relativity type    :
Basis              : AO
                                X                 Y                 Z
Electronic contribution:      0.002785814      -3.027022345       0.050902869
Nuclear contribution   :     -0.014413012       3.246643755      -0.053120895
                        -----------------------------------------
Total Dipole Moment    :     -0.011627198       0.219621410      -0.002218026
                        -----------------------------------------
Magnitude (a.u.)       :      0.219940163
Magnitude (Debye)      :      0.559043466

Rotational constants in cm-1:             0.119041             0.058741             0.039927
Rotational constants in MHz :          3568.763708          1760.997706          1196.993882

                             ****ORCA TERMINATED NORMALLY****
TOTAL RUN TIME: 0 days 0 hours 4 minutes 59 seconds 364 msec
