                         Program Version 6.0.0  -   RELEASE  -
|  1> !PBE0 def2-SV(p) Opt Freq d3 TightSCF SlowConv RIJCOSX defgrid2
|  2>
|  3> %pal
|  4> nprocs 15
|  5> end
|  6>
|  7> %scf
|  8> MaxIter 1500
|  9> end
| 10>
| 11> %maxcore 3500
| 12>
| 13>
| 14>
| 15> * xyz 0 2
| 16> O        1.892148000      3.698010000      1.453118000
| 17> N        2.679299000      2.707472000      1.243603000
| 18> C        3.790696000      2.928351000      0.306337000
| 19> C        4.407191000      1.603078000     -0.074600000
| 20> C        4.673841000      0.680853000      1.061864000
| 21> C        3.381122000      0.396215000      1.757075000
| 22> C        2.704898000      1.678223000      2.337211000
| 23> C        4.793300000      3.830082000      0.961074000
| 24> C        3.182734000      3.627420000     -0.941233000
| 25> C        3.472850000      2.208787000      3.551450000
| 26> C        1.288453000      1.395862000      2.733227000
| 27> H        4.976756000      1.817126000     -0.895203000
| 28> H        3.824828000      1.202309000     -0.926948000
| 29> H        5.356465000     -0.280083000      0.998374000
| 30> H        2.468112000     -0.323348000      1.756281000
| 31> H        4.230136000      4.611128000      1.320584000
| 32> H        6.000692000      3.631975000      1.130115000
| 33> H        5.514322000      4.219466000      0.035713000
| 34> H        2.576906000      4.387972000     -0.761082000
| 35> H        2.235594000      2.907857000     -1.086466000
| 36> H        4.112810000      3.727613000     -1.578510000
| 37> H        2.815824000      3.199326000      3.745886000
| 38> H        4.330396000      2.356799000      2.674499000
| 39> H        3.199800000      1.286562000      4.341101000
| 40> H        0.486370000      2.236112000      3.064167000
| 41> H        0.678358000      1.029249000      1.818183000
| 42> H        1.104998000      0.710455000      3.492722000
| 43> *
| 44>
| 45>                          ****END OF INPUT****
 Total Charge           Charge          ....    0
 Multiplicity           Mult            ....    2
 Number of Electrons    NEL             ....   85
Dispersion correction           -0.027050792
FINAL SINGLE POINT ENERGY      -481.207662383081
Dispersion correction             ... done (  0.1 sec)
Dispersion correction           -0.026927252
FINAL SINGLE POINT ENERGY      -481.292311008105
Dispersion correction             ... done (  0.1 sec)
Dispersion correction           -0.026909189
FINAL SINGLE POINT ENERGY      -481.356462515070
Dispersion correction             ... done (  0.1 sec)
FINAL SINGLE POINT ENERGY      -481.424184599833
FINAL SINGLE POINT ENERGY      -481.484743873655
FINAL SINGLE POINT ENERGY      -481.520973090516
FINAL SINGLE POINT ENERGY      -481.543527365614
FINAL SINGLE POINT ENERGY      -481.557424244690
FINAL SINGLE POINT ENERGY      -481.564779867249
FINAL SINGLE POINT ENERGY      -481.567615934930
FINAL SINGLE POINT ENERGY      -481.568771299617
FINAL SINGLE POINT ENERGY      -481.569176385580
FINAL SINGLE POINT ENERGY      -481.569275244975
Dispersion correction             ... done (  0.1 sec)
Dispersion correction           -0.026833453
FINAL SINGLE POINT ENERGY      -481.569297084279
Dispersion correction             ... done (  0.1 sec)
Dispersion correction           -0.026837750
FINAL SINGLE POINT ENERGY      -481.569303719621
Dispersion correction             ... done (  0.1 sec)
                    ***********************HURRAY********************

CARTESIAN COORDINATES (ANGSTROEM)
---------------------------------
  O      1.886909    3.748069    1.427903
  N      2.665709    2.775134    1.233142
  C      3.718078    2.914865    0.200839
  C      4.066793    1.521873   -0.335617
  C      4.262360    0.519914    0.756575
  C      3.674049    0.650328    1.946444
  C      2.733076    1.762489    2.310864
  C      4.951123    3.585519    0.819234
  C      3.160912    3.781937   -0.921320
  C      3.173959    2.443455    3.613698
  C      1.320739    1.187485    2.480928
  H      4.975130    1.600928   -0.958671
  H      3.260449    1.180930   -1.014315
  H      4.902343   -0.347949    0.560074
  H      3.829729   -0.103165    2.727411
  H      4.652583    4.521231    1.320929
  H      5.441127    2.927200    1.555420
  H      5.686933    3.830676    0.033493
  H      2.949418    4.800895   -0.566139
  H      2.221630    3.357600   -1.313675
  H      3.896429    3.832216   -1.742562
  H      2.497109    3.285634    3.829506
  H      4.204287    2.827309    3.536710
  H      3.133223    1.727394    4.452030
  H      0.616677    2.002893    2.711318
  H      0.995017    0.689217    1.552674
  H      1.303106    0.450793    3.301648

 Multiplicity           Mult            ....    2
 Number of Electrons    NEL             ....   85
 Basis Dimension        Dim             ....  186

ORBITAL ENERGIES
----------------
                 SPIN UP ORBITALS
  NO   OCC          E(Eh)            E(eV)
   0   1.0000     -19.200447      -522.4707
   1   1.0000     -14.472199      -393.8086
   2   1.0000     -10.283282      -279.8223
   3   1.0000     -10.282078      -279.7896
   4   1.0000     -10.240214      -278.6504
   5   1.0000     -10.239875      -278.6412
   6   1.0000     -10.238483      -278.6033
   7   1.0000     -10.223153      -278.1861
   8   1.0000     -10.221455      -278.1399
   9   1.0000     -10.219966      -278.0994
  10   1.0000     -10.217395      -278.0294
  11   1.0000      -1.122160       -30.5355
  12   1.0000      -0.896522       -24.3956
  13   1.0000      -0.843352       -22.9488
  14   1.0000      -0.788934       -21.4680
  15   1.0000      -0.734910       -19.9979
  16   1.0000      -0.710812       -19.3422
  17   1.0000      -0.701848       -19.0982
  18   1.0000      -0.699213       -19.0266
  19   1.0000      -0.616691       -16.7810
  20   1.0000      -0.600757       -16.3474
  21   1.0000      -0.520521       -14.1641
  22   1.0000      -0.514284       -13.9944
  23   1.0000      -0.510452       -13.8901
  24   1.0000      -0.483624       -13.1601
  25   1.0000      -0.464024       -12.6267
  26   1.0000      -0.457514       -12.4496
  27   1.0000      -0.453594       -12.3429
  28   1.0000      -0.428826       -11.6689
  29   1.0000      -0.419145       -11.4055
  30   1.0000      -0.414986       -11.2923
  31   1.0000      -0.405669       -11.0388
  32   1.0000      -0.395603       -10.7649
  33   1.0000      -0.388518       -10.5721
  34   1.0000      -0.385604       -10.4928
  35   1.0000      -0.383112       -10.4250
  36   1.0000      -0.361752        -9.8438
  37   1.0000      -0.357938        -9.7400
  38   1.0000      -0.352837        -9.6012
  39   1.0000      -0.333526        -9.0757
  40   1.0000      -0.268879        -7.3166
  41   1.0000      -0.265214        -7.2168
  42   1.0000      -0.198992        -5.4149
  43   0.0000       0.011660         0.3173
  44   0.0000       0.055457         1.5091
  45   0.0000       0.082780         2.2525
  46   0.0000       0.086289         2.3480
  47   0.0000       0.104407         2.8411

                 SPIN DOWN ORBITALS
  NO   OCC          E(Eh)            E(eV)
   0   1.0000     -19.184973      -522.0496
   1   1.0000     -14.460614      -393.4933
   2   1.0000     -10.283838      -279.8375
   3   1.0000     -10.282593      -279.8036
   4   1.0000     -10.240254      -278.6515
   5   1.0000     -10.239694      -278.6362
   6   1.0000     -10.238424      -278.6017
   7   1.0000     -10.222451      -278.1670
   8   1.0000     -10.220935      -278.1258
   9   1.0000     -10.219604      -278.0896
  10   1.0000     -10.217276      -278.0262
  11   1.0000      -1.096494       -29.8371
  12   1.0000      -0.887234       -24.1429
  13   1.0000      -0.842187       -22.9171
  14   1.0000      -0.783889       -21.3307
  15   1.0000      -0.721120       -19.6227
  16   1.0000      -0.708486       -19.2789
  17   1.0000      -0.701161       -19.0796
  18   1.0000      -0.698228       -18.9997
  19   1.0000      -0.613645       -16.6981
  20   1.0000      -0.597361       -16.2550
  21   1.0000      -0.516215       -14.0469
  22   1.0000      -0.509236       -13.8570
  23   1.0000      -0.498599       -13.5676
  24   1.0000      -0.470203       -12.7949
  25   1.0000      -0.455571       -12.3967
  26   1.0000      -0.454260       -12.3610
  27   1.0000      -0.446276       -12.1438
  28   1.0000      -0.427403       -11.6302
  29   1.0000      -0.413138       -11.2421
  30   1.0000      -0.410012       -11.1570
  31   1.0000      -0.402869       -10.9626
  32   1.0000      -0.395144       -10.7524
  33   1.0000      -0.384518       -10.4633
  34   1.0000      -0.382428       -10.4064
  35   1.0000      -0.374078       -10.1792
  36   1.0000      -0.360402        -9.8070
  37   1.0000      -0.353718        -9.6252
  38   1.0000      -0.333220        -9.0674
  39   1.0000      -0.317756        -8.6466
  40   1.0000      -0.267924        -7.2906
  41   1.0000      -0.252643        -6.8748
  42   0.0000      -0.031103        -0.8464
  43   0.0000       0.011931         0.3247
  44   0.0000       0.056164         1.5283
  45   0.0000       0.083657         2.2764
  46   0.0000       0.087450         2.3796

MULLIKEN ATOMIC CHARGES AND SPIN POPULATIONS
--------------------------------------------
   0 O :   -0.301621    0.526972
   1 N :   -0.051680    0.443535
   2 C :   -0.205531   -0.026518
   3 C :   -0.080226    0.008829
   4 C :   -0.171000   -0.004871
   5 C :   -0.092468    0.005347
   6 C :   -0.100613   -0.020135
   7 C :   -0.269947    0.029297
   8 C :   -0.246480    0.001610
   9 C :   -0.276097    0.025772
  10 C :   -0.255559    0.012262
  11 H :    0.118604    0.000762
  12 H :    0.129957    0.000681
  13 H :    0.104904    0.000303
  14 H :    0.097076   -0.001264
  15 H :    0.141067   -0.002651
  16 H :    0.142208   -0.001150
  17 H :    0.123347    0.005432
  18 H :    0.146591   -0.000657
  19 H :    0.128297    0.000300
  20 H :    0.118630   -0.001273
  21 H :    0.149244   -0.001664
  22 H :    0.132594   -0.000545
  23 H :    0.121975    0.000618
  24 H :    0.150383   -0.001936
  25 H :    0.126690    0.001212
  26 H :    0.119656   -0.000267
Sum of atomic charges         :   -0.0000000

LOEWDIN ATOMIC CHARGES AND SPIN POPULATIONS
-------------------------------------------
   0 O :   -0.241173    0.516913
   1 N :    0.094285    0.425996
   2 C :   -0.051040   -0.005922
   3 C :   -0.213593    0.006158
   4 C :   -0.145718   -0.002520
   5 C :   -0.131271    0.003610
   6 C :   -0.050887   -0.006537
   7 C :   -0.329814    0.025129
   8 C :   -0.326060    0.003937
   9 C :   -0.326477    0.021432
  10 C :   -0.320599    0.013036
  11 H :    0.130175    0.000594
  12 H :    0.135058    0.000352
  13 H :    0.128035    0.000192
  14 H :    0.131185   -0.000821
  15 H :    0.129508   -0.001044
  16 H :    0.123631   -0.000544
  17 H :    0.124475    0.003738
  18 H :    0.132576   -0.000520
  19 H :    0.126133   -0.000219
  20 H :    0.122103   -0.000976
  21 H :    0.133206   -0.000662
  22 H :    0.123267   -0.000694
  23 H :    0.123374    0.000436
  24 H :    0.132935   -0.000979
  25 H :    0.124464    0.000260
  26 H :    0.122224   -0.000346

  Mayer bond orders larger than 0.100000
B(  0-O ,  1-N ) :   1.4439 B(  1-N ,  2-C ) :   0.8806 B(  1-N ,  6-C ) :   0.8720
B(  2-C ,  3-C ) :   1.0326 B(  2-C ,  7-C ) :   1.0563 B(  2-C ,  8-C ) :   1.0888
B(  3-C ,  4-C ) :   1.0435 B(  3-C , 11-H ) :   0.9174 B(  3-C , 12-H ) :   0.8902
B(  4-C ,  5-C ) :   1.9490 B(  4-C , 13-H ) :   0.9431 B(  5-C ,  6-C ) :   0.9638
B(  5-C , 14-H ) :   0.9416 B(  6-C ,  9-C ) :   1.0498 B(  6-C , 10-C ) :   1.0576
B(  7-C , 15-H ) :   0.9392 B(  7-C , 16-H ) :   0.9324 B(  7-C , 17-H ) :   0.9422
B(  8-C , 18-H ) :   0.9342 B(  8-C , 19-H ) :   0.9397 B(  8-C , 20-H ) :   0.9415
B(  9-C , 21-H ) :   0.9341 B(  9-C , 22-H ) :   0.9407 B(  9-C , 23-H ) :   0.9447
B( 10-C , 24-H ) :   0.9334 B( 10-C , 25-H ) :   0.9458 B( 10-C , 26-H ) :   0.9462

Dispersion correction           -0.026838162
FINAL SINGLE POINT ENERGY      -481.569305639590

DIPOLE MOMENT
-------------

Method             : SCF
Type of density    : Electron Density
Multiplicity       :   2
Irrep              :   0
Energy             :  -481.5424674776088523 Eh
Relativity type    :
Basis              : AO
                                X                 Y                 Z
Electronic contribution:     -2.182051265      -0.394683354      -0.310285089
Nuclear contribution   :      2.934205534      -0.334114235       0.179164827
                        -----------------------------------------
Total Dipole Moment    :      0.752154269      -0.728797590      -0.131120262
                        -----------------------------------------
Magnitude (a.u.)       :      1.055497274
Magnitude (Debye)      :      2.682860859

VIBRATIONAL FREQUENCIES
-----------------------

Scaling factor for frequencies =  1.000000000  (already applied!)

     0:       0.00 cm**-1
     1:       0.00 cm**-1
     2:       0.00 cm**-1
     3:       0.00 cm**-1
     4:       0.00 cm**-1
     5:       0.00 cm**-1
     6:      79.04 cm**-1
     7:     108.17 cm**-1
     8:     187.20 cm**-1
     9:     226.92 cm**-1
    10:     245.48 cm**-1
    11:     257.00 cm**-1
    12:     266.29 cm**-1
    13:     277.96 cm**-1
    14:     295.43 cm**-1
    15:     316.01 cm**-1
    16:     321.98 cm**-1
    17:     343.69 cm**-1
    18:     380.00 cm**-1
    19:     393.65 cm**-1
    20:     482.98 cm**-1
    21:     485.38 cm**-1
    22:     514.76 cm**-1
    23:     553.60 cm**-1
    24:     566.51 cm**-1
    25:     642.91 cm**-1
    26:     734.25 cm**-1
    27:     782.34 cm**-1
    28:     835.82 cm**-1
    29:     893.58 cm**-1
    30:     920.56 cm**-1
    31:     949.53 cm**-1
    32:     955.61 cm**-1
    33:     958.59 cm**-1
    34:     999.56 cm**-1
    35:    1004.64 cm**-1
    36:    1015.80 cm**-1
    37:    1027.46 cm**-1
    38:    1030.47 cm**-1
    39:    1098.14 cm**-1
    40:    1151.51 cm**-1
    41:    1169.93 cm**-1
    42:    1197.29 cm**-1
    43:    1236.06 cm**-1
    44:    1254.17 cm**-1
    45:    1272.73 cm**-1
    46:    1295.01 cm**-1
    47:    1304.02 cm**-1
    48:    1376.59 cm**-1
    49:    1378.98 cm**-1
    50:    1389.96 cm**-1
    51:    1396.97 cm**-1
    52:    1406.96 cm**-1
    53:    1428.13 cm**-1
    54:    1453.81 cm**-1
    55:    1457.50 cm**-1
    56:    1467.19 cm**-1
    57:    1471.38 cm**-1
    58:    1473.68 cm**-1
    59:    1482.67 cm**-1
    60:    1487.30 cm**-1
    61:    1495.23 cm**-1
    62:    1495.87 cm**-1
    63:    1520.52 cm**-1
    64:    1773.00 cm**-1
    65:    3027.53 cm**-1
    66:    3042.76 cm**-1
    67:    3048.92 cm**-1
    68:    3052.63 cm**-1
    69:    3053.71 cm**-1
    70:    3089.15 cm**-1
    71:    3135.30 cm**-1
    72:    3143.60 cm**-1
    73:    3145.52 cm**-1
    74:    3148.23 cm**-1
    75:    3150.87 cm**-1
    76:    3160.08 cm**-1
    77:    3162.16 cm**-1
    78:    3171.26 cm**-1
    79:    3173.82 cm**-1
    80:    3192.02 cm**-1

IR SPECTRUM
-----------

 Mode   freq       eps      Int      T**2         TX        TY        TZ
       cm**-1   L/(mol*cm) km/mol    a.u.
----------------------------------------------------------------------------
  6:     79.04   0.000581    2.94  0.002294  ( 0.031270  0.027060  0.024167)
  7:    108.17   0.000026    0.13  0.000076  ( 0.006607  0.001875  0.005405)
  8:    187.20   0.000228    1.15  0.000380  ( 0.014305  0.010150  0.008522)
  9:    226.92   0.000017    0.08  0.000023  ( 0.002768  0.003446  0.001809)
 10:    245.48   0.000050    0.25  0.000063  ( 0.005678  0.005076  0.002270)
 11:    257.00   0.000024    0.12  0.000029  ( 0.001622  0.004483  0.002431)
 12:    266.29   0.000146    0.74  0.000172  (-0.003438  0.010920 -0.006360)
 13:    277.96   0.000021    0.10  0.000023  (-0.003967  0.002626  0.000744)
 14:    295.43   0.000011    0.06  0.000012  ( 0.003171 -0.000422  0.001157)
 15:    316.01   0.000034    0.17  0.000034  ( 0.002934  0.002698 -0.004228)
 16:    321.98   0.000111    0.56  0.000108  ( 0.003823  0.004092 -0.008738)
 17:    343.69   0.000233    1.18  0.000211  ( 0.007007 -0.012711  0.000743)
 18:    380.00   0.000868    4.39  0.000713  ( 0.007382  0.010099 -0.023584)
 19:    393.65   0.001512    7.64  0.001199  (-0.014591 -0.013501  0.028347)
 20:    482.98   0.000283    1.43  0.000183  ( 0.006962  0.002176  0.011393)
 21:    485.38   0.000216    1.09  0.000139  (-0.007256  0.009102  0.001769)
 22:    514.76   0.000874    4.42  0.000530  (-0.013565 -0.017083  0.007366)
 23:    553.60   0.000748    3.78  0.000422  ( 0.003102  0.004138 -0.019871)
 24:    566.51   0.000491    2.48  0.000271  ( 0.002940 -0.015874 -0.003177)
 25:    642.91   0.000072    0.37  0.000035  ( 0.005693  0.000909  0.001389)
 26:    734.25   0.006164   31.15  0.002620  (-0.040217 -0.023525 -0.021188)
 27:    782.34   0.001128    5.70  0.000450  (-0.000255 -0.016724 -0.013045)
 28:    835.82   0.000375    1.89  0.000140  ( 0.010665  0.002993 -0.004147)
 29:    893.58   0.000608    3.07  0.000212  ( 0.005950  0.010665  0.007959)
 30:    920.56   0.000381    1.93  0.000129  ( 0.004634 -0.009263 -0.004679)
 31:    949.53   0.000132    0.67  0.000043  (-0.004834 -0.004418  0.000660)
 32:    955.61   0.000357    1.81  0.000117  (-0.003061 -0.001274  0.010279)
 33:    958.59   0.000551    2.78  0.000179  (-0.012449  0.004423  0.002186)
 34:    999.56   0.000404    2.04  0.000126  ( 0.004937 -0.003136 -0.009593)
 35:   1004.64   0.000026    0.13  0.000008  ( 0.002378  0.001202 -0.000967)
 36:   1015.80   0.000188    0.95  0.000058  (-0.004980 -0.003069 -0.004865)
 37:   1027.46   0.000782    3.95  0.000238  ( 0.006027 -0.011298 -0.008575)
 38:   1030.47   0.001004    5.07  0.000304  ( 0.011268 -0.006980 -0.011329)
 39:   1098.14   0.001284    6.49  0.000365  (-0.006230 -0.012513  0.013017)
 40:   1151.51   0.000552    2.79  0.000150  (-0.003771 -0.005425  0.010291)
 41:   1169.93   0.001476    7.46  0.000394  ( 0.000875 -0.007062  0.018519)
 42:   1197.29   0.002468   12.47  0.000643  ( 0.015873  0.016223  0.011317)
 43:   1236.06   0.000186    0.94  0.000047  (-0.001078  0.004564  0.004991)
 44:   1254.17   0.000311    1.57  0.000077  (-0.005760 -0.002041  0.006327)
 45:   1272.73   0.002237   11.30  0.000548  (-0.010206  0.011833  0.017442)
 46:   1295.01   0.003918   19.80  0.000944  (-0.023006 -0.010653  0.017357)
 47:   1304.02   0.002602   13.15  0.000623  ( 0.011272 -0.021430  0.006031)
 48:   1376.59   0.001522    7.69  0.000345  (-0.011099 -0.009612 -0.011377)
 49:   1378.98   0.002396   12.11  0.000542  (-0.014398 -0.017000 -0.006784)
 50:   1389.96   0.002467   12.47  0.000554  ( 0.001023  0.006548  0.022582)
 51:   1396.97   0.002429   12.28  0.000543  ( 0.022521 -0.005790 -0.001380)
 52:   1406.96   0.002268   11.46  0.000503  ( 0.002532  0.017775 -0.013442)
 53:   1428.13   0.001629    8.23  0.000356  ( 0.006002 -0.016322  0.007309)
 54:   1453.81   0.000405    2.05  0.000087  (-0.003597  0.000248  0.008599)
 55:   1457.50   0.000286    1.44  0.000061  (-0.004613 -0.002954 -0.005579)
 56:   1467.19   0.001427    7.21  0.000303  ( 0.003784  0.009039  0.014403)
 57:   1471.38   0.000141    0.71  0.000030  ( 0.001204  0.005041  0.001727)
 58:   1473.68   0.000804    4.06  0.000170  (-0.011260 -0.003621 -0.005511)
 59:   1482.67   0.000951    4.81  0.000200  ( 0.006025  0.003979 -0.012166)
 60:   1487.30   0.000895    4.52  0.000188  ( 0.003477 -0.012486  0.004457)
 61:   1495.23   0.000869    4.39  0.000181  (-0.000814  0.010392 -0.008531)
 62:   1495.87   0.002104   10.63  0.000439  (-0.013940  0.002740  0.015395)
 63:   1520.52   0.001582    8.00  0.000325  ( 0.014381 -0.010834 -0.000721)
 64:   1773.00   0.000172    0.87  0.000030  (-0.002480  0.004194 -0.002555)
 65:   3027.53   0.003336   16.86  0.000344  ( 0.002829  0.005482  0.017488)
 66:   3042.76   0.002106   10.64  0.000216  (-0.013290 -0.005890 -0.002166)
 67:   3048.92   0.003096   15.65  0.000317  (-0.014122 -0.010238 -0.003550)
 68:   3052.63   0.004053   20.48  0.000414  ( 0.000079  0.005425 -0.019617)
 69:   3053.71   0.001462    7.39  0.000149  ( 0.000784  0.003491 -0.011687)
 70:   3089.15   0.002560   12.94  0.000259  ( 0.013703  0.003395 -0.007705)
 71:   3135.30   0.002744   13.87  0.000273  (-0.006152 -0.002633  0.015110)
 72:   3143.60   0.003770   19.05  0.000374  (-0.016189 -0.006912  0.008022)
 73:   3145.52   0.001185    5.99  0.000118  (-0.005403 -0.006367 -0.006915)
 74:   3148.23   0.003956   19.99  0.000392  (-0.000903 -0.011692  0.015958)
 75:   3150.87   0.000707    3.58  0.000070  ( 0.006099 -0.005542  0.001466)
 76:   3160.08   0.000686    3.47  0.000068  (-0.005898 -0.005322 -0.002163)
 77:   3162.16   0.001208    6.10  0.000119  (-0.008338  0.006875  0.001549)
 78:   3171.26   0.000755    3.82  0.000074  (-0.003675  0.001024  0.007732)
 79:   3173.82   0.000958    4.84  0.000094  ( 0.000712  0.008178  0.005173)
 80:   3192.02   0.003823   19.32  0.000374  ( 0.007081 -0.017321  0.004856)

--------------------------
THERMOCHEMISTRY AT 298.15K
--------------------------

Temperature         ...   298.15 K
Pressure            ...     1.00 atm
Total Mass          ...   154.23 AMU
Quasi RRHO          ...     True
Cut-Off Frequency   ...     1.00 cm^-1

Throughout the following assumptions are being made:
  (1) The electronic state is orbitally nondegenerate
      but the spin degeneracy is treated
  (2) There are no thermally accessible electronically excited states
  (3) Hindered rotations indicated by low frequency modes are not
      treated as such but are treated as vibrations and this may
      cause some error
  (4) All equations used are the standard statistical mechanics
      equations for an ideal gas
  (5) All vibrations are strictly harmonic

freq.      79.04  E(vib)   ...       0.49
freq.     108.17  E(vib)   ...       0.45
freq.     187.20  E(vib)   ...       0.36
freq.     226.92  E(vib)   ...       0.33
freq.     245.48  E(vib)   ...       0.31
freq.     257.00  E(vib)   ...       0.30
freq.     266.29  E(vib)   ...       0.29
freq.     277.96  E(vib)   ...       0.28
freq.     295.43  E(vib)   ...       0.27
freq.     316.01  E(vib)   ...       0.25
freq.     321.98  E(vib)   ...       0.25
freq.     343.69  E(vib)   ...       0.23
freq.     380.00  E(vib)   ...       0.21
freq.     393.65  E(vib)   ...       0.20
freq.     482.98  E(vib)   ...       0.15
freq.     485.38  E(vib)   ...       0.15
freq.     514.76  E(vib)   ...       0.13
freq.     553.60  E(vib)   ...       0.12
freq.     566.51  E(vib)   ...       0.11
freq.     642.91  E(vib)   ...       0.09
freq.     734.25  E(vib)   ...       0.06
freq.     782.34  E(vib)   ...       0.05
freq.     835.82  E(vib)   ...       0.04
freq.     893.58  E(vib)   ...       0.03
freq.     920.56  E(vib)   ...       0.03
freq.     949.53  E(vib)   ...       0.03
freq.     955.61  E(vib)   ...       0.03
freq.     958.59  E(vib)   ...       0.03
freq.     999.56  E(vib)   ...       0.02
freq.    1004.64  E(vib)   ...       0.02
freq.    1015.80  E(vib)   ...       0.02
freq.    1027.46  E(vib)   ...       0.02
freq.    1030.47  E(vib)   ...       0.02
freq.    1098.14  E(vib)   ...       0.02
freq.    1151.51  E(vib)   ...       0.01
freq.    1169.93  E(vib)   ...       0.01
freq.    1197.29  E(vib)   ...       0.01
freq.    1236.06  E(vib)   ...       0.01
freq.    1254.17  E(vib)   ...       0.01
freq.    1272.73  E(vib)   ...       0.01
freq.    1295.01  E(vib)   ...       0.01
freq.    1304.02  E(vib)   ...       0.01
freq.    1376.59  E(vib)   ...       0.01
freq.    1378.98  E(vib)   ...       0.01
freq.    1389.96  E(vib)   ...       0.00
freq.    1396.97  E(vib)   ...       0.00
freq.    1406.96  E(vib)   ...       0.00
freq.    1428.13  E(vib)   ...       0.00
freq.    1453.81  E(vib)   ...       0.00
freq.    1457.50  E(vib)   ...       0.00
freq.    1467.19  E(vib)   ...       0.00
freq.    1471.38  E(vib)   ...       0.00
freq.    1473.68  E(vib)   ...       0.00
freq.    1482.67  E(vib)   ...       0.00
freq.    1487.30  E(vib)   ...       0.00
freq.    1495.23  E(vib)   ...       0.00
freq.    1495.87  E(vib)   ...       0.00
freq.    1520.52  E(vib)   ...       0.00
freq.    1773.00  E(vib)   ...       0.00
freq.    3027.53  E(vib)   ...       0.00
freq.    3042.76  E(vib)   ...       0.00
freq.    3048.92  E(vib)   ...       0.00
freq.    3052.63  E(vib)   ...       0.00
freq.    3053.71  E(vib)   ...       0.00
freq.    3089.15  E(vib)   ...       0.00
freq.    3135.30  E(vib)   ...       0.00
freq.    3143.60  E(vib)   ...       0.00
freq.    3145.52  E(vib)   ...       0.00
freq.    3148.23  E(vib)   ...       0.00
freq.    3150.87  E(vib)   ...       0.00
freq.    3160.08  E(vib)   ...       0.00
freq.    3162.16  E(vib)   ...       0.00
freq.    3171.26  E(vib)   ...       0.00
freq.    3173.82  E(vib)   ...       0.00
freq.    3192.02  E(vib)   ...       0.00

------------
INNER ENERGY
------------

The inner energy is: U= E(el) + E(ZPE) + E(vib) + E(rot) + E(trans)
    E(el)   - is the total energy from the electronic structure calculation
              = E(kin-el) + E(nuc-el) + E(el-el) + E(nuc-nuc)
    E(ZPE)  - the the zero temperature vibrational energy from the frequency calculation
    E(vib)  - the the finite temperature correction to E(ZPE) due to population
              of excited vibrational states
    E(rot)  - is the rotational thermal energy
    E(trans)- is the translational thermal energy

Summary of contributions to the inner energy U:
Electronic energy                ...   -481.56930564 Eh
Zero point energy                ...      0.23894638 Eh     149.94 kcal/mol
Thermal vibrational correction   ...      0.00880828 Eh       5.53 kcal/mol
Thermal rotational correction    ...      0.00141627 Eh       0.89 kcal/mol
Thermal translational correction ...      0.00141627 Eh       0.89 kcal/mol
-----------------------------------------------------------------------
Total thermal energy                   -481.31871844 Eh

Summary of corrections to the electronic energy:
(perhaps to be used in another calculation)
Total thermal correction                  0.01164082 Eh       7.30 kcal/mol
Non-thermal (ZPE) correction              0.23894638 Eh     149.94 kcal/mol
-----------------------------------------------------------------------
Total correction                          0.25058720 Eh     157.25 kcal/mol

--------
ENTHALPY
--------

The enthalpy is H = U + kB*T
                kB is Boltzmann's constant
Total thermal energy              ...   -481.31871844 Eh
Thermal Enthalpy correction       ...      0.00094421 Eh       0.59 kcal/mol
-----------------------------------------------------------------------
Total Enthalpy                    ...   -481.31777423 Eh

Note: Only C1 symmetry has been detected, increase convergence thresholds
      if your molecule has a higher symmetry. Symmetry factor of 1.0 is
      used for the rotational entropy correction.

Note: Rotational entropy computed according to Herzberg
Infrared and Raman Spectra, Chapter V,1, Van Nostrand Reinhold, 1945
Point Group:  C1, Symmetry Number:   1
Rotational constants in cm-1:     0.051691     0.036550     0.029790

Vibrational entropy computed according to the QRRHO of S. Grimme
Chem.Eur.J. 2012 18 9955 using a reference frequency of 100.0 cm-1

-------
ENTROPY
-------

The entropy contributions are T*S = T*(S(el)+S(vib)+S(rot)+S(trans))
     S(el)   - electronic entropy
     S(vib)  - vibrational entropy
     S(rot)  - rotational entropy

                             ****ORCA TERMINATED NORMALLY****
TOTAL RUN TIME: 0 days 0 hours 48 minutes 29 seconds 379 msec
