                         Program Version 6.0.0  -   RELEASE  -
|  1> !B3LYP aug-cc-pVTZ d3 TightSCF SlowConv RIJCOSX defgrid2
|  2>
|  3> %pal
|  4> nprocs 4
|  5> end
|  6>
|  7> %scf
|  8> MaxIter 1500
|  9> end
| 10>
| 11> %maxcore 3000
| 12>
| 13> !CPCM
| 14> %cpcm smd true
| 15> SMDsolvent "MeCN"
| 16> surfacetype gepol_ses
| 17> rsolv 2.19
| 18> end
| 19>
| 20> * xyz -1 2
| 21> C           0.68315502285048     -1.23058998559791     -0.00197785400563
| 22> C          -0.69097039389614     -1.22820808682412     -0.00110778792906
| 23> C          -1.39878915837568      0.00192561974512      0.00006123035750
| 24> C          -0.67088260295619      1.21697689217912      0.00034729291936
| 25> C           0.70599002665524      1.19710781410292     -0.00056169847882
| 26> C           1.43890972865005     -0.02356673016238     -0.00174160392592
| 27> C           2.88835051512998     -0.09555430971111     -0.00265662366589
| 28> O           3.51113560358604     -1.16132419888811     -0.00429988492646
| 29> C           3.67215429347512      1.21312233920081     -0.00319382492201
| 30> H           3.44490427270519      1.82862721041062      0.88658626511100
| 31> H           4.74564035342603      0.96713680695522     -0.00513239151038
| 32> H           3.44193148262032      1.82994436135706     -0.89128425723845
| 33> H           1.24130264942652      2.15210104681416     -0.00032125400509
| 34> H          -1.23634900308120      2.15002194871812      0.00128004669295
| 35> N          -2.79949677516438      0.01738261553575      0.00104508920787
| 36> O          -3.38660343043673      1.11542368371417      0.00320409549424
| 37> O          -3.41030224545591     -1.06695584054066      0.00182719273433
| 38> H          -1.27295707729704     -2.15125183977829     -0.00128101747157
| 39> H           1.24384223813830     -2.16976914723049     -0.00287851443797
| 40> *
| 41>
| 42>                          ****END OF INPUT****

CARTESIAN COORDINATES (ANGSTROEM)
---------------------------------
  C      0.683155   -1.230590   -0.001978
  C     -0.690970   -1.228208   -0.001108
  C     -1.398789    0.001926    0.000061
  C     -0.670883    1.216977    0.000347
  C      0.705990    1.197108   -0.000562
  C      1.438910   -0.023567   -0.001742
  C      2.888351   -0.095554   -0.002657
  O      3.511136   -1.161324   -0.004300
  C      3.672154    1.213122   -0.003194
  H      3.444904    1.828627    0.886586
  H      4.745640    0.967137   -0.005132
  H      3.441931    1.829944   -0.891284
  H      1.241303    2.152101   -0.000321
  H     -1.236349    2.150022    0.001280
  N     -2.799497    0.017383    0.001045
  O     -3.386603    1.115424    0.003204
  O     -3.410302   -1.066956    0.001827
  H     -1.272957   -2.151252   -0.001281
  H      1.243842   -2.169769   -0.002879

 Total Charge           Charge          ....   -1
 Multiplicity           Mult            ....    2
 Number of Electrons    NEL             ....   87
 Basis Dimension        Dim             ....  713

ORBITAL ENERGIES
----------------
                 SPIN UP ORBITALS
  NO   OCC          E(Eh)            E(eV)
   0   1.0000     -19.098036      -519.6840
   1   1.0000     -19.097922      -519.6809
   2   1.0000     -19.091314      -519.5011
   3   1.0000     -14.476876      -393.9358
   4   1.0000     -10.236982      -278.5624
   5   1.0000     -10.200084      -277.5584
   6   1.0000     -10.172851      -276.8173
   7   1.0000     -10.168831      -276.7080
   8   1.0000     -10.167786      -276.6795
   9   1.0000     -10.167626      -276.6752
  10   1.0000     -10.166223      -276.6370
  11   1.0000     -10.155854      -276.3548
  12   1.0000      -1.164125       -31.6775
  13   1.0000      -1.014059       -27.5939
  14   1.0000      -0.989471       -26.9249
  15   1.0000      -0.855359       -23.2755
  16   1.0000      -0.786247       -21.3949
  17   1.0000      -0.742529       -20.2052
  18   1.0000      -0.723608       -19.6904
  19   1.0000      -0.677519       -18.4362
  20   1.0000      -0.593879       -16.1603
  21   1.0000      -0.581564       -15.8252
  22   1.0000      -0.536752       -14.6058
  23   1.0000      -0.512956       -13.9582
  24   1.0000      -0.493467       -13.4279
  25   1.0000      -0.475817       -12.9476
  26   1.0000      -0.462077       -12.5738
  27   1.0000      -0.441471       -12.0130
  28   1.0000      -0.430669       -11.7191
  29   1.0000      -0.424648       -11.5553
  30   1.0000      -0.412597       -11.2273
  31   1.0000      -0.396622       -10.7926
  32   1.0000      -0.390735       -10.6325
  33   1.0000      -0.365398        -9.9430
  34   1.0000      -0.361611        -9.8399
  35   1.0000      -0.340708        -9.2711
  36   1.0000      -0.324986        -8.8433
  37   1.0000      -0.283603        -7.7172
  38   1.0000      -0.273674        -7.4471
  39   1.0000      -0.258216        -7.0264
  40   1.0000      -0.255325        -6.9477
  41   1.0000      -0.246186        -6.6991
  42   1.0000      -0.239256        -6.5105
  43   1.0000      -0.132752        -3.6124
  44   0.0000      -0.035560        -0.9676
  45   0.0000      -0.004910        -0.1336
  46   0.0000      -0.001272        -0.0346
  47   0.0000       0.011989         0.3262
  48   0.0000       0.016792         0.4569

                 SPIN DOWN ORBITALS
  NO   OCC          E(Eh)            E(eV)
   0   1.0000     -19.093604      -519.5634
   1   1.0000     -19.093560      -519.5622
   2   1.0000     -19.088664      -519.4290
   3   1.0000     -14.471996      -393.8030
   4   1.0000     -10.236378      -278.5460
   5   1.0000     -10.199040      -277.5300
   6   1.0000     -10.173150      -276.8255
   7   1.0000     -10.169002      -276.7126
   8   1.0000     -10.166776      -276.6520
   9   1.0000     -10.166423      -276.6424
  10   1.0000     -10.163836      -276.5720
  11   1.0000     -10.155913      -276.3564
  12   1.0000      -1.155162       -31.4336
  13   1.0000      -1.009387       -27.4668
  14   1.0000      -0.981159       -26.6987
  15   1.0000      -0.851953       -23.1828
  16   1.0000      -0.779545       -21.2125
  17   1.0000      -0.740012       -20.1368
  18   1.0000      -0.720015       -19.5926
  19   1.0000      -0.671364       -18.2688
  20   1.0000      -0.593051       -16.1377
  21   1.0000      -0.576752       -15.6942
  22   1.0000      -0.534842       -14.5538
  23   1.0000      -0.507137       -13.7999
  24   1.0000      -0.471365       -12.8265
  25   1.0000      -0.467290       -12.7156
  26   1.0000      -0.459759       -12.5107
  27   1.0000      -0.438403       -11.9296
  28   1.0000      -0.429490       -11.6870
  29   1.0000      -0.419148       -11.4056
  30   1.0000      -0.411939       -11.2094
  31   1.0000      -0.395017       -10.7490
  32   1.0000      -0.389644       -10.6027
  33   1.0000      -0.360515        -9.8101
  34   1.0000      -0.358695        -9.7606
  35   1.0000      -0.330411        -8.9910
  36   1.0000      -0.324326        -8.8254
  37   1.0000      -0.269385        -7.3303
  38   1.0000      -0.257131        -6.9969
  39   1.0000      -0.246159        -6.6983
  40   1.0000      -0.241965        -6.5842
  41   1.0000      -0.239817        -6.5258
  42   1.0000      -0.236640        -6.4393
  43   0.0000      -0.070717        -1.9243
  44   0.0000      -0.008799        -0.2394
  45   0.0000      -0.002511        -0.0683
  46   0.0000      -0.001281        -0.0349
  47   0.0000       0.011994         0.3264

MULLIKEN ATOMIC CHARGES AND SPIN POPULATIONS
--------------------------------------------
   0 C :   -0.884088   -0.006969
   1 C :   -0.392974    0.086615
   2 C :    0.437655    0.052177
   3 C :   -0.621770    0.095944
   4 C :   -0.432344   -0.003989
   5 C :    1.449663    0.163163
   6 C :    0.552671    0.030997
   7 O :   -0.986442    0.098939
   8 C :   -0.629308   -0.005135
   9 H :    0.244344    0.002706
  10 H :    0.162409   -0.000813
  11 H :    0.243828    0.002729
  12 H :   -0.019675   -0.000374
  13 H :    0.434995   -0.004105
  14 N :    0.634180    0.140129
  15 O :   -0.846857    0.176705
  16 O :   -0.846513    0.179156
  17 H :    0.464761   -0.005530
  18 H :    0.035466   -0.002344
Sum of atomic charges         :   -1.0000000

LOEWDIN ATOMIC CHARGES AND SPIN POPULATIONS
-------------------------------------------
   0 C :    0.169450    0.027152
   1 C :    0.174545    0.048210
   2 C :   -0.299929    0.070693
   3 C :    0.176853    0.052369
   4 C :    0.181577    0.029296
   5 C :   -0.162280    0.089169
   6 C :   -0.599463    0.064186
   7 O :    0.431248    0.085356
   8 C :    0.536808    0.008518
   9 H :   -0.163281    0.001981
  10 H :   -0.187057   -0.000152
  11 H :   -0.163302    0.001980
  12 H :   -0.183510    0.000506
  13 H :   -0.210070    0.010239
  14 N :   -0.854027    0.179614
  15 O :    0.277715    0.159649
  16 O :    0.277721    0.161768
  17 H :   -0.210419    0.009273
  18 H :   -0.192579    0.000193

  Mayer bond orders larger than 0.100000
B(  0-C ,  1-C ) :   1.4572 B(  0-C ,  2-C ) :  -0.3336 B(  0-C ,  4-C ) :  -0.4579
B(  0-C ,  5-C ) :   0.1402 B(  0-C ,  6-C ) :   0.3353 B(  0-C , 16-O ) :  -0.1451
B(  0-C , 18-H ) :   1.2855 B(  1-C ,  2-C ) :   0.8655 B(  1-C ,  3-C ) :   0.1742
B(  1-C ,  4-C ) :  -0.1725 B(  1-C ,  5-C ) :   0.2836 B(  1-C , 14-N ) :  -0.1508
B(  1-C , 17-H ) :   0.4394 B(  2-C ,  3-C ) :   0.7705 B(  2-C ,  4-C ) :  -0.2820
B(  2-C , 14-N ) :   1.3174 B(  2-C , 15-O ) :   0.4557 B(  2-C , 16-O ) :   0.4673
B(  3-C ,  4-C ) :   1.0964 B(  3-C ,  5-C ) :   0.3178 B(  3-C , 13-H ) :   0.4605
B(  3-C , 14-N ) :  -0.2267 B(  4-C ,  5-C ) :   0.2700 B(  4-C ,  6-C ) :   0.2474
B(  4-C , 12-H ) :   1.4836 B(  4-C , 15-O ) :  -0.1324 B(  5-C ,  6-C ) :   0.2080
B(  5-C ,  7-O ) :   0.2650 B(  5-C , 12-H ) :  -0.2687 B(  5-C , 18-H ) :  -0.1800
B(  6-C ,  7-O ) :   0.7214 B(  6-C ,  8-C ) :   0.9548 B(  7-O , 18-H ) :   0.1493
B(  8-C ,  9-H ) :   0.9618 B(  8-C , 10-H ) :   0.9775 B(  8-C , 11-H ) :   0.9618
B( 14-N , 15-O ) :   0.7269 B( 14-N , 16-O ) :   0.7230 B( 15-O , 16-O ) :   0.1078

Dispersion correction           -0.035884735
FINAL SINGLE POINT ENERGY      -589.474729793690

DIPOLE MOMENT
-------------

Method             : SCF
Type of density    : Electron Density
Multiplicity       :   2
Irrep              :   0
Energy             :  -589.4388450589551667 Eh
Relativity type    :
Basis              : AO
                                X                 Y                 Z
Electronic contribution:     -7.939603765      -2.979949572       0.005319475
Nuclear contribution   :     10.845568770       4.317310741      -0.007525614
                        -----------------------------------------
Total Dipole Moment    :      2.905965005       1.337361170      -0.002206139
                        -----------------------------------------
Magnitude (a.u.)       :      3.198933006
Magnitude (Debye)      :      8.131041516

Rotational constants in cm-1:             0.095337             0.015839             0.013617
Rotational constants in MHz :          2858.135441           474.832890           408.233574

                             ****ORCA TERMINATED NORMALLY****
TOTAL RUN TIME: 0 days 0 hours 7 minutes 37 seconds 101 msec
