                         Program Version 6.0.0  -   RELEASE  -
|  1> !r2SCANh aug-cc-pVTZ d3 TightSCF SlowConv RIJCOSX defgrid2
|  2>
|  3> %pal
|  4> nprocs 4
|  5> end
|  6>
|  7> %scf
|  8> MaxIter 1500
|  9> end
| 10>
| 11> %maxcore 3000
| 12>
| 13> !CPCM
| 14> %cpcm smd true
| 15> SMDsolvent "MeCN"
| 16> surfacetype gepol_ses
| 17> rsolv 2.19
| 18> end
| 19>
| 20> * xyz 1 2
| 21> C           0.00952428511137      1.14381862948455     -0.00004241850549
| 22> C          -1.34405804782715      1.36835429039483     -0.00004501377751
| 23> C          -2.25803675623572      0.27994374569514     -0.00001444991813
| 24> C          -1.79893876317452     -1.05503699905501      0.00001836451112
| 25> C          -0.44966853213070     -1.30717096682290      0.00001901616088
| 26> C           0.47768132323041     -0.20754569072665     -0.00000570718377
| 27> O           1.72715481916077     -0.54575427099223      0.00000126933750
| 28> C           2.80134500679620      0.40109022692015     -0.00002708967268
| 29> H           2.75083060085294      1.02148240859275     -0.90936313619747
| 30> H           2.75076150937771      1.02163468660922      0.90919997962481
| 31> H           3.71874480964519     -0.20034761824646      0.00005825478275
| 32> H          -0.03837787308311     -2.31994207676691      0.00003911986652
| 33> H          -2.51564718597583     -1.88032469418672      0.00003900521605
| 34> H          -3.33291112256179      0.48384956913135     -0.00002166925602
| 35> H          -1.72762364845365      2.39229306604659     -0.00007349223884
| 36> H           0.71284737526787      1.97878939392230     -0.00006603274972
| 37> *
| 38>
| 39>                          ****END OF INPUT****

CARTESIAN COORDINATES (ANGSTROEM)
---------------------------------
  C      0.009524    1.143819   -0.000042
  C     -1.344058    1.368354   -0.000045
  C     -2.258037    0.279944   -0.000014
  C     -1.798939   -1.055037    0.000018
  C     -0.449669   -1.307171    0.000019
  C      0.477681   -0.207546   -0.000006
  O      1.727155   -0.545754    0.000001
  C      2.801345    0.401090   -0.000027
  H      2.750831    1.021482   -0.909363
  H      2.750762    1.021635    0.909200
  H      3.718745   -0.200348    0.000058
  H     -0.038378   -2.319942    0.000039
  H     -2.515647   -1.880325    0.000039
  H     -3.332911    0.483850   -0.000022
  H     -1.727624    2.392293   -0.000073
  H      0.712847    1.978789   -0.000066

 Total Charge           Charge          ....    1
 Multiplicity           Mult            ....    2
 Number of Electrons    NEL             ....   57
 Basis Dimension        Dim             ....  552

ORBITAL ENERGIES
----------------
                 SPIN UP ORBITALS
  NO   OCC          E(Eh)            E(eV)
   0   1.0000     -19.239481      -523.5329
   1   1.0000     -10.300914      -280.3021
   2   1.0000     -10.229950      -278.3711
   3   1.0000     -10.226655      -278.2814
   4   1.0000     -10.216497      -278.0050
   5   1.0000     -10.212628      -277.8997
   6   1.0000     -10.208832      -277.7964
   7   1.0000     -10.202278      -277.6181
   8   1.0000      -1.164428       -31.6857
   9   1.0000      -0.904194       -24.6044
  10   1.0000      -0.809688       -22.0327
  11   1.0000      -0.796659       -21.6782
  12   1.0000      -0.736473       -20.0405
  13   1.0000      -0.651409       -17.7257
  14   1.0000      -0.626075       -17.0364
  15   1.0000      -0.570657       -15.5284
  16   1.0000      -0.523448       -14.2438
  17   1.0000      -0.523361       -14.2414
  18   1.0000      -0.520124       -14.1533
  19   1.0000      -0.466466       -12.6932
  20   1.0000      -0.454455       -12.3663
  21   1.0000      -0.442020       -12.0280
  22   1.0000      -0.420933       -11.4542
  23   1.0000      -0.393712       -10.7135
  24   1.0000      -0.388564       -10.5734
  25   1.0000      -0.375057       -10.2058
  26   1.0000      -0.354433        -9.6446
  27   1.0000      -0.302581        -8.2336
  28   1.0000      -0.282620        -7.6905
  29   0.0000      -0.075385        -2.0513
  30   0.0000      -0.061945        -1.6856
  31   0.0000       0.007819         0.2128
  32   0.0000       0.022283         0.6063
  33   0.0000       0.024119         0.6563

                 SPIN DOWN ORBITALS
  NO   OCC          E(Eh)            E(eV)
   0   1.0000     -19.231132      -523.3057
   1   1.0000     -10.298294      -280.2308
   2   1.0000     -10.230204      -278.3780
   3   1.0000     -10.218833      -278.0686
   4   1.0000     -10.212407      -277.8937
   5   1.0000     -10.210423      -277.8397
   6   1.0000     -10.209766      -277.8218
   7   1.0000     -10.204744      -277.6852
   8   1.0000      -1.151282       -31.3280
   9   1.0000      -0.894393       -24.3377
  10   1.0000      -0.801319       -21.8050
  11   1.0000      -0.791459       -21.5367
  12   1.0000      -0.725882       -19.7523
  13   1.0000      -0.646527       -17.5929
  14   1.0000      -0.619743       -16.8641
  15   1.0000      -0.567921       -15.4539
  16   1.0000      -0.520516       -14.1640
  17   1.0000      -0.515500       -14.0275
  18   1.0000      -0.498091       -13.5537
  19   1.0000      -0.463788       -12.6203
  20   1.0000      -0.453221       -12.3328
  21   1.0000      -0.439551       -11.9608
  22   1.0000      -0.402384       -10.9494
  23   1.0000      -0.391683       -10.6582
  24   1.0000      -0.386250       -10.5104
  25   1.0000      -0.350578        -9.5397
  26   1.0000      -0.349854        -9.5200
  27   1.0000      -0.294564        -8.0155
  28   0.0000      -0.207897        -5.6572
  29   0.0000      -0.049956        -1.3594
  30   0.0000      -0.035065        -0.9542
  31   0.0000       0.009254         0.2518
  32   0.0000       0.023966         0.6522

MULLIKEN ATOMIC CHARGES AND SPIN POPULATIONS
--------------------------------------------
   0 C :   -0.308218    0.152476
   1 C :   -0.395064   -0.085615
   2 C :   -0.477503    0.445708
   3 C :   -0.286039   -0.171470
   4 C :   -0.855736    0.239166
   5 C :    1.227090    0.142386
   6 O :   -0.602379    0.243813
   7 C :   -0.654701   -0.019867
   8 H :    0.294863    0.011848
   9 H :    0.295100    0.011835
  10 H :    0.268002   -0.001387
  11 H :    0.648920    0.009216
  12 H :    0.346451   -0.008207
  13 H :    0.545376    0.017319
  14 H :    0.308745   -0.003635
  15 H :    0.645093    0.016414
Sum of atomic charges         :    1.0000000

LOEWDIN ATOMIC CHARGES AND SPIN POPULATIONS
-------------------------------------------
   0 C :    0.280085    0.101472
   1 C :    0.266555    0.054096
   2 C :    0.285785    0.212879
   3 C :    0.256572    0.032222
   4 C :    0.278801    0.128628
   5 C :   -0.328215    0.164017
   6 O :    0.660631    0.199395
   7 C :    0.451254    0.022162
   8 H :   -0.141563    0.006556
   9 H :   -0.141600    0.006556
  10 H :   -0.152635   -0.000569
  11 H :   -0.140830    0.022734
  12 H :   -0.145156   -0.011474
  13 H :   -0.134280    0.049200
  14 H :   -0.141155   -0.004251
  15 H :   -0.154250    0.016378

  Mayer bond orders larger than 0.100000
B(  0-C ,  1-C ) :   1.1921 B(  0-C ,  2-C ) :   0.2603 B(  0-C ,  3-C ) :  -0.1288
B(  0-C ,  4-C ) :   0.4492 B(  0-C ,  5-C ) :   0.7438 B(  0-C ,  6-O ) :  -0.1277
B(  0-C , 15-H ) :   0.1257 B(  1-C ,  2-C ) :   0.9928 B(  1-C ,  3-C ) :  -0.2253
B(  1-C ,  4-C ) :  -0.1322 B(  1-C ,  5-C ) :  -0.4331 B(  1-C , 11-H ) :   0.1017
B(  1-C , 14-H ) :   0.9042 B(  1-C , 15-H ) :   0.1690 B(  2-C ,  3-C ) :   0.9526
B(  2-C ,  4-C ) :   0.4324 B(  2-C ,  5-C ) :  -0.1402 B(  2-C , 13-H ) :   0.4548
B(  2-C , 15-H ) :  -0.1116 B(  3-C ,  4-C ) :   1.3302 B(  3-C ,  5-C ) :  -0.3428
B(  3-C , 12-H ) :   0.8625 B(  3-C , 15-H ) :   0.1581 B(  4-C ,  5-C ) :   0.5318
B(  4-C ,  6-O ) :   0.2387 B(  4-C , 11-H ) :   0.1166 B(  4-C , 15-H ) :  -0.1105
B(  5-C ,  6-O ) :   0.7154 B(  6-O ,  7-C ) :   1.0002 B(  6-O , 11-H ) :  -0.1007
B(  7-C ,  8-H ) :   0.8929 B(  7-C ,  9-H ) :   0.8926 B(  7-C , 10-H ) :   0.9496
B(  7-C , 15-H ) :  -0.1118

Dispersion correction           -0.004527086
FINAL SINGLE POINT ENERGY      -346.479599917645

DIPOLE MOMENT
-------------

Method             : SCF
Type of density    : Electron Density
Multiplicity       :   2
Irrep              :   0
Energy             :  -346.4750728315647166 Eh
Relativity type    :
Basis              : AO
                                X                 Y                 Z
Electronic contribution:     -2.178078142      -1.602387623       0.000065739
Nuclear contribution   :      2.256738866       2.246354274      -0.000083298
                        -----------------------------------------
Total Dipole Moment    :      0.078660723       0.643966651      -0.000017559
                        -----------------------------------------
Magnitude (a.u.)       :      0.648753079
Magnitude (Debye)      :      1.648999278

Rotational constants in cm-1:             0.163746             0.052523             0.040083
Rotational constants in MHz :          4908.994994          1574.611095          1201.650329

                             ****ORCA TERMINATED NORMALLY****
TOTAL RUN TIME: 0 days 0 hours 6 minutes 10 seconds 635 msec
