                         Program Version 6.0.0  -   RELEASE  -
|  1> !B3LYP opt aug-cc-pVTZ d3 TightSCF SlowConv RIJCOSX defgrid2
|  2>
|  3> %pal
|  4> nprocs 8
|  5> end
|  6>
|  7> %scf
|  8> MaxIter 1500
|  9> end
| 10>
| 11> %maxcore 3500
| 12>
| 13> !CPCM
| 14> %cpcm smd true
| 15> SMDsolvent "MeCN"
| 16> surfacetype gepol_ses
| 17> rsolv 2.19
| 18> end
| 19>
| 20> * xyz 1 2
| 21>   C           2.42230352616407     -0.93967185065321      0.55395676667095
| 22>   C           1.25951593658087     -0.38560971154623     -0.02731266921458
| 23>   C           1.34515879875246      0.87334496095507     -0.66544135860675
| 24>   C           2.54528563840583      1.55610620094528     -0.70562222792677
| 25>   C           3.67856810652336      1.00584233737466     -0.10368066735552
| 26>   C           3.61187185026418     -0.24112438636345      0.52736087430039
| 27>   H           4.49354374784810     -0.65683800598034      0.99712782798028
| 28>   H           4.61885991421619      1.54158673683928     -0.13586227472231
| 29>   H           2.60896111030022      2.50843993754257     -1.21520939393472
| 30>   H           0.47607610672627      1.27576006187750     -1.16799099253149
| 31>   C          -0.00000570549071     -1.10233841529063      0.00019637099190
| 32>   C          -0.00003460802992     -2.48933307036506      0.00018510010177
| 33>   H          -0.92472654811303     -3.04999418999173     -0.01929544407525
| 34>   H           0.92462709128575     -3.05004417162606      0.01968554274561
| 35>   C          -1.25952449905545     -0.38558911777278      0.02757646044082
| 36>   C          -2.42215182971805     -0.93951962168999     -0.55411589561984
| 37>   C          -3.61169501277446     -0.24091618816804     -0.52785170744445
| 38>   C          -3.67854712087020      1.00598657107722      0.10328056731093
| 39>   C          -2.54544555482518      1.55611097274351      0.70570295844559
| 40>   C          -1.34535777294727      0.87326975987189      0.66586309035078
| 41>   H          -0.47652092219768      1.27561931840986      1.16890430148388
| 42>   H          -2.60924094930472      2.50838746005521      1.21537445618179
| 43>   H          -4.61881791219384      1.54178536604920      0.13515340253785
| 44>   H          -4.49322069397192     -0.65653541850228     -0.99797479446139
| 45>   H          -2.36891360407110     -1.89364615065512     -1.06095714187422
| 46>   H           2.36919830649625     -1.89387338513632      1.06067094822473
| 47> *
| 48>
| 49>                          ****END OF INPUT****
 Total Charge           Charge          ....    1
 Multiplicity           Mult            ....    2
 Number of Electrons    NEL             ....   95
Dispersion correction           -0.056503531
FINAL SINGLE POINT ENERGY      -540.400681922873
Dispersion correction             ... done (  0.0 sec)
Dispersion correction           -0.056356028
FINAL SINGLE POINT ENERGY      -540.400745838348
Dispersion correction             ... done (  0.0 sec)
Dispersion correction           -0.056469568
FINAL SINGLE POINT ENERGY      -540.400812964046
Dispersion correction             ... done (  0.0 sec)
Dispersion correction           -0.056468973
FINAL SINGLE POINT ENERGY      -540.400815412313
Dispersion correction             ... done (  0.1 sec)
                    ***********************HURRAY********************

CARTESIAN COORDINATES (ANGSTROEM)
---------------------------------
  C      2.418542   -0.927262    0.568209
  C      1.260241   -0.384132   -0.029477
  C      1.353272    0.862817   -0.686570
  C      2.553480    1.541923   -0.731111
  C      3.681000    1.002134   -0.113499
  C      3.607898   -0.231823    0.537945
  H      4.484345   -0.640264    1.020129
  H      4.620576    1.535715   -0.148461
  H      2.620828    2.484509   -1.254875
  H      0.490378    1.261211   -1.198100
  C      0.000028   -1.100046    0.000173
  C     -0.000170   -2.483169    0.000183
  H     -0.922554   -3.043403   -0.024559
  H      0.921980   -3.043781    0.024896
  C     -1.260115   -0.383963    0.029648
  C     -2.418202   -0.927032   -0.568461
  C     -3.607651   -0.231739   -0.538230
  C     -3.680977    1.002210    0.113174
  C     -2.553684    1.541969    0.731216
  C     -1.353447    0.862878    0.686948
  H     -0.490828    1.261350    1.198914
  H     -2.621218    2.484507    1.255060
  H     -4.620536    1.535870    0.147739
  H     -4.483961   -0.640276   -1.020540
  H     -2.362474   -1.871294   -1.089051
  H      2.363016   -1.871705    1.088423

 Multiplicity           Mult            ....    2
 Number of Electrons    NEL             ....   95
 Basis Dimension        Dim             ....  920

ORBITAL ENERGIES
----------------
                 SPIN UP ORBITALS
  NO   OCC          E(Eh)            E(eV)
   0   1.0000     -10.249340      -278.8987
   1   1.0000     -10.237534      -278.5775
   2   1.0000     -10.224426      -278.2208
   3   1.0000     -10.224423      -278.2207
   4   1.0000     -10.206165      -277.7239
   5   1.0000     -10.206151      -277.7235
   6   1.0000     -10.205491      -277.7055
   7   1.0000     -10.205441      -277.7042
   8   1.0000     -10.204451      -277.6772
   9   1.0000     -10.204442      -277.6770
  10   1.0000     -10.194692      -277.4117
  11   1.0000     -10.194684      -277.4115
  12   1.0000     -10.194126      -277.3963
  13   1.0000     -10.194114      -277.3960
  14   1.0000      -0.909037       -24.7362
  15   1.0000      -0.883115       -24.0308
  16   1.0000      -0.845144       -22.9975
  17   1.0000      -0.778879       -21.1944
  18   1.0000      -0.777418       -21.1546
  19   1.0000      -0.769451       -20.9378
  20   1.0000      -0.754494       -20.5308
  21   1.0000      -0.671401       -18.2698
  22   1.0000      -0.638169       -17.3655
  23   1.0000      -0.627705       -17.0807
  24   1.0000      -0.621802       -16.9201
  25   1.0000      -0.580514       -15.7966
  26   1.0000      -0.551738       -15.0135
  27   1.0000      -0.530158       -14.4263
  28   1.0000      -0.494866       -13.4660
  29   1.0000      -0.494525       -13.4567
  30   1.0000      -0.475384       -12.9358
  31   1.0000      -0.466785       -12.7019
  32   1.0000      -0.464981       -12.6528
  33   1.0000      -0.445272       -12.1165
  34   1.0000      -0.445205       -12.1146
  35   1.0000      -0.444310       -12.0903
  36   1.0000      -0.415725       -11.3124
  37   1.0000      -0.406927       -11.0730
  38   1.0000      -0.398264       -10.8373
  39   1.0000      -0.381320       -10.3762
  40   1.0000      -0.371104       -10.0983
  41   1.0000      -0.364258        -9.9120
  42   1.0000      -0.361029        -9.8241
  43   1.0000      -0.346520        -9.4293
  44   1.0000      -0.286904        -7.8071
  45   1.0000      -0.284376        -7.7383
  46   1.0000      -0.279156        -7.5962
  47   1.0000      -0.264534        -7.1983
  48   0.0000      -0.096184        -2.6173
  49   0.0000      -0.048532        -1.3206
  50   0.0000      -0.039293        -1.0692
  51   0.0000      -0.025110        -0.6833
  52   0.0000      -0.007553        -0.2055

                 SPIN DOWN ORBITALS
  NO   OCC          E(Eh)            E(eV)
   0   1.0000     -10.249485      -278.9027
   1   1.0000     -10.229815      -278.3674
   2   1.0000     -10.223316      -278.1906
   3   1.0000     -10.223313      -278.1905
   4   1.0000     -10.204601      -277.6813
   5   1.0000     -10.204551      -277.6800
   6   1.0000     -10.204397      -277.6757
   7   1.0000     -10.204385      -277.6754
   8   1.0000     -10.203671      -277.6560
   9   1.0000     -10.203662      -277.6558
  10   1.0000     -10.195015      -277.4205
  11   1.0000     -10.195006      -277.4202
  12   1.0000     -10.194524      -277.4071
  13   1.0000     -10.194512      -277.4068
  14   1.0000      -0.905025       -24.6270
  15   1.0000      -0.880342       -23.9553
  16   1.0000      -0.839318       -22.8390
  17   1.0000      -0.776608       -21.1326
  18   1.0000      -0.774732       -21.0815
  19   1.0000      -0.766949       -20.8698
  20   1.0000      -0.743061       -20.2197
  21   1.0000      -0.666016       -18.1232
  22   1.0000      -0.636321       -17.3152
  23   1.0000      -0.624694       -16.9988
  24   1.0000      -0.620093       -16.8736
  25   1.0000      -0.577794       -15.7226
  26   1.0000      -0.550703       -14.9854
  27   1.0000      -0.527682       -14.3590
  28   1.0000      -0.492985       -13.4148
  29   1.0000      -0.492456       -13.4004
  30   1.0000      -0.473737       -12.8910
  31   1.0000      -0.463666       -12.6170
  32   1.0000      -0.463214       -12.6047
  33   1.0000      -0.444293       -12.0898
  34   1.0000      -0.444035       -12.0828
  35   1.0000      -0.442234       -12.0338
  36   1.0000      -0.412965       -11.2374
  37   1.0000      -0.398739       -10.8502
  38   1.0000      -0.391031       -10.6405
  39   1.0000      -0.380628       -10.3574
  40   1.0000      -0.370546       -10.0831
  41   1.0000      -0.361407        -9.8344
  42   1.0000      -0.359746        -9.7892
  43   1.0000      -0.327673        -8.9164
  44   1.0000      -0.283350        -7.7103
  45   1.0000      -0.276865        -7.5339
  46   1.0000      -0.269750        -7.3403
  47   0.0000      -0.195315        -5.3148
  48   0.0000      -0.071094        -1.9346
  49   0.0000      -0.041522        -1.1299
  50   0.0000      -0.035121        -0.9557
  51   0.0000      -0.020021        -0.5448

MULLIKEN ATOMIC CHARGES AND SPIN POPULATIONS
--------------------------------------------
   0 C :   -1.117026    0.032447
   1 C :    2.512415    0.111096
   2 C :   -0.651141    0.053505
   3 C :   -0.989753   -0.026314
   4 C :   -0.176285    0.124382
   5 C :   -0.799811   -0.019987
   6 H :    0.603345   -0.000335
   7 H :    0.479751    0.001319
   8 H :    0.507260    0.001441
   9 H :    0.084961   -0.005032
  10 C :    0.746559    0.009984
  11 C :   -1.058040    0.479618
  12 H :    0.287178   -0.004105
  13 H :    0.287111   -0.004042
  14 C :    2.523373    0.111109
  15 C :   -1.073640    0.032364
  16 C :   -0.770564   -0.020042
  17 C :   -0.158080    0.124261
  18 C :   -0.994241   -0.026222
  19 C :   -0.663058    0.053325
  20 H :    0.085434   -0.004785
  21 H :    0.505570    0.001476
  22 H :    0.499723    0.001120
  23 H :    0.480272   -0.000203
  24 H :   -0.063538   -0.013086
  25 H :   -0.087775   -0.013296
Sum of atomic charges         :    1.0000000

LOEWDIN ATOMIC CHARGES AND SPIN POPULATIONS
-------------------------------------------
   0 C :    0.253365    0.034649
   1 C :   -0.089644    0.057697
   2 C :    0.242841    0.038955
   3 C :    0.248376    0.015572
   4 C :    0.246943    0.059256
   5 C :    0.246395    0.016759
   6 H :   -0.161554   -0.001374
   7 H :   -0.156339    0.014117
   8 H :   -0.160791   -0.001727
   9 H :   -0.159539    0.006214
  10 C :   -0.052510    0.108599
  11 C :    0.692905    0.281598
  12 H :   -0.163770    0.059215
  13 H :   -0.163738    0.059215
  14 C :   -0.089663    0.057665
  15 C :    0.253361    0.034635
  16 C :    0.246390    0.016747
  17 C :    0.246926    0.059222
  18 C :    0.248361    0.015562
  19 C :    0.242790    0.038945
  20 H :   -0.159579    0.006210
  21 H :   -0.160775   -0.001727
  22 H :   -0.156328    0.014108
  23 H :   -0.161604   -0.001374
  24 H :   -0.166388    0.005631
  25 H :   -0.166431    0.005629

  Mayer bond orders larger than 0.100000
B(  0-C ,  1-C ) :  -0.1846 B(  0-C ,  2-C ) :  -0.7446 B(  0-C ,  3-C ) :   0.1423
B(  0-C ,  4-C ) :  -0.1896 B(  0-C ,  5-C ) :   1.4123 B(  0-C ,  6-H ) :  -0.1735
B(  0-C , 10-C ) :   0.4057 B(  0-C , 25-H ) :   1.8433 B(  1-C ,  2-C ) :   0.2765
B(  1-C ,  3-C ) :  -0.1371 B(  1-C ,  4-C ) :  -0.2070 B(  1-C , 11-C ) :  -0.2749
B(  1-C , 14-C ) :  -0.2640 B(  1-C , 25-H ) :  -0.1975 B(  2-C ,  3-C ) :   1.3615
B(  2-C ,  4-C ) :  -0.1007 B(  2-C ,  9-H ) :   1.5147 B(  2-C , 10-C ) :   0.3640
B(  2-C , 19-C ) :   0.1567 B(  3-C ,  4-C ) :   1.2920 B(  3-C ,  5-C ) :   0.3353
B(  3-C ,  8-H ) :   0.4228 B(  4-C ,  5-C ) :   1.1710 B(  4-C ,  6-H ) :   0.1026
B(  4-C ,  7-H ) :   0.6048 B(  4-C , 10-C ) :   0.2212 B(  5-C ,  6-H ) :   0.3496
B(  5-C ,  9-H ) :  -0.1395 B(  9-H , 10-C ) :  -0.1160 B(  9-H , 25-H ) :   0.1927
B( 10-C , 11-C ) :   0.5974 B( 10-C , 15-C ) :   0.4090 B( 10-C , 17-C ) :   0.2072
B( 10-C , 19-C ) :   0.3667 B( 10-C , 20-H ) :  -0.1165 B( 10-C , 24-H ) :  -0.1821
B( 10-C , 25-H ) :  -0.1852 B( 11-C , 12-H ) :   0.9496 B( 11-C , 13-H ) :   0.9467
B( 11-C , 14-C ) :  -0.2802 B( 14-C , 15-C ) :  -0.1753 B( 14-C , 17-C ) :  -0.2191
B( 14-C , 18-C ) :  -0.1359 B( 14-C , 19-C ) :   0.2598 B( 14-C , 24-H ) :  -0.1872
B( 15-C , 16-C ) :   1.3513 B( 15-C , 17-C ) :  -0.1686 B( 15-C , 18-C ) :   0.1286
B( 15-C , 19-C ) :  -0.7551 B( 15-C , 23-H ) :  -0.1900 B( 15-C , 24-H ) :   1.7973
B( 16-C , 17-C ) :   1.1497 B( 16-C , 18-C ) :   0.3168 B( 16-C , 20-H ) :  -0.1294
B( 16-C , 23-H ) :   0.5593 B( 17-C , 18-C ) :   1.2992 B( 17-C , 19-C ) :  -0.1021
B( 17-C , 22-H ) :   0.5842 B( 18-C , 19-C ) :   1.3710 B( 18-C , 21-H ) :   0.4358
B( 18-C , 24-H ) :  -0.1086 B( 19-C , 20-H ) :   1.5212 B( 20-H , 24-H ) :   0.1843

Dispersion correction           -0.056468229
FINAL SINGLE POINT ENERGY      -540.400817930016

DIPOLE MOMENT
-------------

Method             : SCF
Type of density    : Electron Density
Multiplicity       :   2
Irrep              :   0
Energy             :  -540.3443497008709073 Eh
Relativity type    :
Basis              : AO
                                X                 Y                 Z
Electronic contribution:      0.000492025      -0.322454132      -0.000202445
Nuclear contribution   :     -0.000554236      -0.587837288      -0.000483171
                        -----------------------------------------
Total Dipole Moment    :     -0.000062211      -0.910291420      -0.000685616
                        -----------------------------------------
Magnitude (a.u.)       :      0.910291681
Magnitude (Debye)      :      2.313777573

Rotational constants in cm-1:             0.054389             0.014309             0.012141
Rotational constants in MHz :          1630.553913           428.961816           363.966317

                             ****ORCA TERMINATED NORMALLY****
TOTAL RUN TIME: 0 days 1 hours 6 minutes 43 seconds 0 msec
