                         Program Version 6.0.0  -   RELEASE  -
|  1> !r2SCANh aug-cc-pVTZ d3 TightSCF SlowConv RIJCOSX defgrid2
|  2>
|  3> %pal
|  4> nprocs 4
|  5> end
|  6>
|  7> %scf
|  8> MaxIter 1500
|  9> end
| 10>
| 11> %maxcore 3000
| 12>
| 13> !CPCM
| 14> %cpcm smd true
| 15> SMDsolvent "MeCN"
| 16> surfacetype gepol_ses
| 17> rsolv 2.19
| 18> end
| 19>
| 20> * xyz 0 1
| 21> C           0.94968287453071     -1.27993729727395      0.00000683726847
| 22> C           2.32072584922403     -1.03066468402730     -0.00000570192654
| 23> C           2.79045486785265      0.28126328538775     -0.00000619644263
| 24> C           1.88129493900205      1.34320110702256      0.00000552102250
| 25> C           0.51414900986878      1.09690334373603      0.00001977591165
| 26> C           0.03124775758730     -0.22186358373352      0.00001975571628
| 27> C          -1.40109719375212     -0.51811607942485      0.00002773818787
| 28> N          -2.27722630544222      0.40983670208196      0.00003187543002
| 29> O          -3.54943597920683     -0.07892856387383      0.00003589961153
| 30> H          -4.10699565150034      0.71269395667835      0.00004041054052
| 31> H          -1.72077053189788     -1.57247842719527      0.00002621709873
| 32> H          -0.20517984986564      1.91961492482438      0.00002936627338
| 33> H           2.24665800678188      2.37456842670514      0.00000344087776
| 34> H           3.86637191838654      0.47947397298735     -0.00001641660649
| 35> H           3.02594458116043     -1.86704493909579     -0.00001599324974
| 36> H           0.58187010727067     -2.31112044479903      0.00000487028669
| 37> *
| 38>
| 39>                          ****END OF INPUT****

CARTESIAN COORDINATES (ANGSTROEM)
---------------------------------
  C      0.949683   -1.279937    0.000007
  C      2.320726   -1.030665   -0.000006
  C      2.790455    0.281263   -0.000006
  C      1.881295    1.343201    0.000006
  C      0.514149    1.096903    0.000020
  C      0.031248   -0.221864    0.000020
  C     -1.401097   -0.518116    0.000028
  N     -2.277226    0.409837    0.000032
  O     -3.549436   -0.078929    0.000036
  H     -4.106996    0.712694    0.000040
  H     -1.720771   -1.572478    0.000026
  H     -0.205180    1.919615    0.000029
  H      2.246658    2.374568    0.000003
  H      3.866372    0.479474   -0.000016
  H      3.025945   -1.867045   -0.000016
  H      0.581870   -2.311120    0.000005

 Total Charge           Charge          ....    0
 Multiplicity           Mult            ....    1
 Number of Electrons    NEL             ....   64
 Basis Dimension        Dim             ....  575

ORBITAL ENERGIES
----------------

  NO   OCC          E(Eh)            E(eV)
   0   2.0000     -19.168689      -521.6065
   1   2.0000     -14.360740      -390.7756
   2   2.0000     -10.194528      -277.4072
   3   2.0000     -10.179835      -277.0074
   4   2.0000     -10.167010      -276.6584
   5   2.0000     -10.165178      -276.6085
   6   2.0000     -10.164865      -276.6000
   7   2.0000     -10.164519      -276.5906
   8   2.0000     -10.164259      -276.5836
   9   2.0000      -1.110015       -30.2050
  10   2.0000      -0.884916       -24.0798
  11   2.0000      -0.850751       -23.1501
  12   2.0000      -0.756972       -20.5982
  13   2.0000      -0.749141       -20.3852
  14   2.0000      -0.637809       -17.3557
  15   2.0000      -0.606359       -16.4999
  16   2.0000      -0.565365       -15.3844
  17   2.0000      -0.528184       -14.3726
  18   2.0000      -0.506703       -13.7881
  19   2.0000      -0.465929       -12.6786
  20   2.0000      -0.446747       -12.1566
  21   2.0000      -0.428400       -11.6574
  22   2.0000      -0.424982       -11.5644
  23   2.0000      -0.410661       -11.1747
  24   2.0000      -0.402639       -10.9564
  25   2.0000      -0.374868       -10.2007
  26   2.0000      -0.340032        -9.2528
  27   2.0000      -0.331551        -9.0220
  28   2.0000      -0.296106        -8.0575
  29   2.0000      -0.276059        -7.5120
  30   2.0000      -0.258252        -7.0274
  31   2.0000      -0.228685        -6.2228
  32   0.0000      -0.065760        -1.7894
  33   0.0000      -0.028526        -0.7762
  34   0.0000       0.010157         0.2764
  35   0.0000       0.018016         0.4902
  36   0.0000       0.021596         0.5876

MULLIKEN ATOMIC CHARGES
-----------------------
   0 C :   -1.055442
   1 C :   -0.557416
   2 C :   -0.182869
   3 C :   -0.702212
   4 C :   -0.720076
   5 C :    1.988222
   6 C :   -0.024365
   7 N :   -0.483949
   8 O :   -0.310576
   9 H :    0.178956
  10 H :    0.445630
  11 H :   -0.000706
  12 H :    0.526969
  13 H :    0.408667
  14 H :    0.539912
  15 H :   -0.050746
Sum of atomic charges:    0.0000000

LOEWDIN ATOMIC CHARGES
----------------------
   0 C :    0.194280
   1 C :    0.191968
   2 C :    0.188193
   3 C :    0.191397
   4 C :    0.187877
   5 C :   -0.181947
   6 C :   -0.020350
   7 N :    0.113394
   8 O :    0.668333
   9 H :   -0.499073
  10 H :   -0.173720
  11 H :   -0.186090
  12 H :   -0.169535
  13 H :   -0.170138
  14 H :   -0.169058
  15 H :   -0.165532

  Mayer bond orders larger than 0.100000
B(  0-C ,  1-C ) :   1.1162 B(  0-C ,  2-C ) :  -0.1474 B(  0-C ,  4-C ) :  -0.4628
B(  0-C ,  6-C ) :   0.1503 B(  0-C , 11-H ) :   0.1557 B(  0-C , 13-H ) :   0.1195
B(  0-C , 14-H ) :  -0.1900 B(  0-C , 15-H ) :   1.8160 B(  1-C ,  2-C ) :   1.1483
B(  1-C ,  3-C ) :   0.1405 B(  1-C ,  5-C ) :   0.1219 B(  1-C , 11-H ) :  -0.1068
B(  1-C , 14-H ) :   0.5088 B(  1-C , 15-H ) :  -0.1595 B(  2-C ,  3-C ) :   1.0979
B(  2-C ,  4-C ) :  -0.1577 B(  2-C ,  5-C ) :  -0.1374 B(  2-C ,  6-C ) :   0.1404
B(  2-C , 13-H ) :   0.7324 B(  3-C ,  4-C ) :   1.1001 B(  3-C ,  5-C ) :   0.1424
B(  3-C , 12-H ) :   0.5153 B(  3-C , 15-H ) :  -0.1104 B(  4-C ,  5-C ) :   0.3384
B(  4-C ,  6-C ) :   0.2712 B(  4-C , 11-H ) :   1.3918 B(  4-C , 12-H ) :  -0.1044
B(  4-C , 15-H ) :   0.1516 B(  5-C ,  7-N ) :  -0.1460 B(  5-C , 11-H ) :  -0.2216
B(  5-C , 14-H ) :   0.1341 B(  5-C , 15-H ) :  -0.3088 B(  6-C ,  7-N ) :   1.0970
B(  6-C , 10-H ) :   0.5814 B(  6-C , 11-H ) :  -0.1038 B(  6-C , 15-H ) :  -0.1450
B(  7-N ,  8-O ) :   0.6892 B(  7-N , 10-H ) :  -0.1006 B(  7-N , 11-H ) :   0.1038
B(  8-O ,  9-H ) :   1.0028 B( 11-H , 15-H ) :   0.1858

Dispersion correction           -0.004869532
FINAL SINGLE POINT ENERGY      -400.795499696567

DIPOLE MOMENT
-------------

Method             : SCF
Type of density    : Electron Density
Multiplicity       :   1
Irrep              :   0
Energy             :  -400.7906301640778111 Eh
Relativity type    :
Basis              : AO
                                X                 Y                 Z
Electronic contribution:     -3.114224917       0.163007576       0.000026917
Nuclear contribution   :      3.386800554      -0.260850522      -0.000035535
                        -----------------------------------------
Total Dipole Moment    :      0.272575636      -0.097842946      -0.000008618
                        -----------------------------------------
Magnitude (a.u.)       :      0.289604419
Magnitude (Debye)      :      0.736115933

Rotational constants in cm-1:             0.173273             0.029980             0.025558
Rotational constants in MHz :          5194.584681           898.778188           766.207349

                             ****ORCA TERMINATED NORMALLY****
TOTAL RUN TIME: 0 days 0 hours 3 minutes 40 seconds 737 msec
