                         Program Version 6.0.0  -   RELEASE  -
|  1> !B3LYP aug-cc-pVTZ d3 TightSCF SlowConv RIJCOSX defgrid2
|  2>
|  3> %pal
|  4> nprocs 4
|  5> end
|  6>
|  7> %scf
|  8> MaxIter 1500
|  9> end
| 10>
| 11> %maxcore 3000
| 12>
| 13> !CPCM
| 14> %cpcm smd true
| 15> SMDsolvent "MeCN"
| 16> surfacetype gepol_ses
| 17> rsolv 2.19
| 18> end
| 19>
| 20> * xyz 0 1
| 21> C          -0.69471715027891      1.20160424367180      0.00254330764544
| 22> C           0.69612063581105      1.19291899288814      0.00968566042107
| 23> C           1.42778733631965      0.00018404946816      0.01007822944484
| 24> C           2.93063058367763     -0.00027863689039     -0.01829178119376
| 25> H           3.34402418608942      0.90078695962724      0.46603728071123
| 26> H           3.31730142827762     -0.02014085009214     -1.05503454463859
| 27> H           3.34459568522108     -0.88206330588670      0.50008328858434
| 28> C           0.69618993551697     -1.19280776592252      0.00927470210724
| 29> C          -0.69448057691314     -1.20162515498911      0.00211243242400
| 30> C          -1.42112887903605      0.00001156196422     -0.00389874102897
| 31> N          -2.80457629708089     -0.00021726257641     -0.05900293362540
| 32> H          -3.26571318600359     -0.84658941152166      0.25460910629618
| 33> H          -3.26597866165769      0.84602614670405      0.25456635083211
| 34> H          -1.23244316710201     -2.15552812692684      0.00133757208656
| 35> H           1.23001055078301     -2.14947021386169      0.01854947119546
| 36> H           1.22985485991374      2.14960675922401      0.01926471808220
| 37> H          -1.23272228353791      2.15547551511983      0.00212038065604
| 38> *
| 39>
| 40>                          ****END OF INPUT****

CARTESIAN COORDINATES (ANGSTROEM)
---------------------------------
  C     -0.694717    1.201604    0.002543
  C      0.696121    1.192919    0.009686
  C      1.427787    0.000184    0.010078
  C      2.930631   -0.000279   -0.018292
  H      3.344024    0.900787    0.466037
  H      3.317301   -0.020141   -1.055035
  H      3.344596   -0.882063    0.500083
  C      0.696190   -1.192808    0.009275
  C     -0.694481   -1.201625    0.002112
  C     -1.421129    0.000012   -0.003899
  N     -2.804576   -0.000217   -0.059003
  H     -3.265713   -0.846589    0.254609
  H     -3.265979    0.846026    0.254566
  H     -1.232443   -2.155528    0.001338
  H      1.230011   -2.149470    0.018549
  H      1.229855    2.149607    0.019265
  H     -1.232722    2.155476    0.002120

 Total Charge           Charge          ....    0
 Multiplicity           Mult            ....    1
 Number of Electrons    NEL             ....   58
 Basis Dimension        Dim             ....  575

ORBITAL ENERGIES
----------------

  NO   OCC          E(Eh)            E(eV)
   0   2.0000     -14.313246      -389.4832
   1   2.0000     -10.210219      -277.8342
   2   2.0000     -10.169729      -276.7324
   3   2.0000     -10.168193      -276.6906
   4   2.0000     -10.168082      -276.6876
   5   2.0000     -10.164950      -276.6024
   6   2.0000     -10.164888      -276.6007
   7   2.0000     -10.159446      -276.4526
   8   2.0000      -0.913033       -24.8449
   9   2.0000      -0.837382       -22.7863
  10   2.0000      -0.749141       -20.3852
  11   2.0000      -0.738308       -20.0904
  12   2.0000      -0.666113       -18.1259
  13   2.0000      -0.606982       -16.5168
  14   2.0000      -0.576254       -15.6807
  15   2.0000      -0.512759       -13.9529
  16   2.0000      -0.503190       -13.6925
  17   2.0000      -0.453310       -12.3352
  18   2.0000      -0.432332       -11.7644
  19   2.0000      -0.420218       -11.4347
  20   2.0000      -0.408974       -11.1288
  21   2.0000      -0.408964       -11.1285
  22   2.0000      -0.376405       -10.2425
  23   2.0000      -0.369923       -10.0661
  24   2.0000      -0.348135        -9.4732
  25   2.0000      -0.328342        -8.9346
  26   2.0000      -0.302598        -8.2341
  27   2.0000      -0.252253        -6.8642
  28   2.0000      -0.200102        -5.4451
  29   0.0000      -0.011693        -0.3182
  30   0.0000      -0.003226        -0.0878
  31   0.0000       0.002016         0.0549
  32   0.0000       0.006416         0.1746
  33   0.0000       0.013866         0.3773

MULLIKEN ATOMIC CHARGES
-----------------------
   0 C :   -0.821725
   1 C :   -0.795705
   2 C :    1.375549
   3 C :   -0.790434
   4 H :    0.216970
   5 H :    0.236561
   6 H :    0.216826
   7 C :   -0.807006
   8 C :   -0.825757
   9 C :    1.278376
  10 N :   -0.637328
  11 H :    0.043321
  12 H :    0.043200
  13 H :    0.440828
  14 H :    0.194076
  15 H :    0.187928
  16 H :    0.444322
Sum of atomic charges:   -0.0000000

LOEWDIN ATOMIC CHARGES
----------------------
   0 C :    0.200815
   1 C :    0.183007
   2 C :   -0.159541
   3 C :    0.549974
   4 H :   -0.167011
   5 H :   -0.154532
   6 H :   -0.166378
   7 C :    0.183003
   8 C :    0.200827
   9 C :   -0.273190
  10 N :    0.843406
  11 H :   -0.286899
  12 H :   -0.286886
  13 H :   -0.167818
  14 H :   -0.165268
  15 H :   -0.165660
  16 H :   -0.167850

  Mayer bond orders larger than 0.100000
B(  0-C ,  1-C ) :   1.2634 B(  0-C ,  2-C ) :   0.1931 B(  0-C ,  8-C ) :   0.3082
B(  0-C ,  9-C ) :   0.8095 B(  0-C , 16-H ) :   0.4949 B(  1-C ,  2-C ) :   0.5458
B(  1-C ,  3-C ) :   0.1498 B(  1-C ,  7-C ) :  -0.1794 B(  1-C ,  9-C ) :  -0.2421
B(  1-C , 15-H ) :   1.0831 B(  2-C ,  3-C ) :   0.2433 B(  2-C ,  7-C ) :   0.5429
B(  2-C ,  8-C ) :   0.1897 B(  2-C ,  9-C ) :   0.1796 B(  3-C ,  4-H ) :   0.9872
B(  3-C ,  5-H ) :   0.9763 B(  3-C ,  6-H ) :   0.9891 B(  3-C ,  7-C ) :   0.1689
B(  7-C ,  8-C ) :   1.2692 B(  7-C ,  9-C ) :  -0.2404 B(  7-C , 14-H ) :   1.0727
B(  8-C ,  9-C ) :   0.8131 B(  8-C , 13-H ) :   0.5014 B(  9-C , 10-N ) :   0.4318
B(  9-C , 13-H ) :   0.1047 B(  9-C , 16-H ) :   0.1063 B( 10-N , 11-H ) :   1.1082
B( 10-N , 12-H ) :   1.1081

Dispersion correction           -0.028074334
FINAL SINGLE POINT ENERGY      -326.875061653564

DIPOLE MOMENT
-------------

Method             : SCF
Type of density    : Electron Density
Multiplicity       :   1
Irrep              :   0
Energy             :  -326.8469873193635635 Eh
Relativity type    :
Basis              : AO
                                X                 Y                 Z
Electronic contribution:     -3.862773069      -0.000271046      -0.005506150
Nuclear contribution   :      3.276071104      -0.001396692       0.450262688
                        -----------------------------------------
Total Dipole Moment    :     -0.586701965      -0.001667738       0.444756538
                        -----------------------------------------
Magnitude (a.u.)       :      0.736227109
Magnitude (Debye)      :      1.871340592

Rotational constants in cm-1:             0.182492             0.048394             0.038562
Rotational constants in MHz :          5470.963839          1450.824170          1156.068201

                             ****ORCA TERMINATED NORMALLY****
TOTAL RUN TIME: 0 days 0 hours 3 minutes 44 seconds 197 msec
