                         Program Version 6.0.0  -   RELEASE  -
|  1> !PBE0 def2-SV(p) Opt Freq d3 TightSCF SlowConv RIJCOSX defgrid2
|  2>
|  3> %pal
|  4> nprocs 15
|  5> end
|  6>
|  7> %scf
|  8> MaxIter 1500
|  9> end
| 10>
| 11> %maxcore 3500
| 12>
| 13>
| 14>
| 15> * xyz 1 1
| 16> O        1.892148000      3.698010000      1.453118000
| 17> N        2.679299000      2.707472000      1.243603000
| 18> C        3.790696000      2.928351000      0.306337000
| 19> C        4.407191000      1.603078000     -0.074600000
| 20> C        4.673841000      0.680853000      1.061864000
| 21> C        3.381122000      0.396215000      1.757075000
| 22> C        2.704898000      1.678223000      2.337211000
| 23> C        4.793300000      3.830082000      0.961074000
| 24> C        3.182734000      3.627420000     -0.941233000
| 25> C        3.472850000      2.208787000      3.551450000
| 26> C        1.288453000      1.395862000      2.733227000
| 27> H        4.976756000      1.817126000     -0.895203000
| 28> H        3.824828000      1.202309000     -0.926948000
| 29> H        5.356465000     -0.280083000      0.998374000
| 30> H        2.468112000     -0.323348000      1.756281000
| 31> H        4.230136000      4.611128000      1.320584000
| 32> H        6.000692000      3.631975000      1.130115000
| 33> H        5.514322000      4.219466000      0.035713000
| 34> H        2.576906000      4.387972000     -0.761082000
| 35> H        2.235594000      2.907857000     -1.086466000
| 36> H        4.112810000      3.727613000     -1.578510000
| 37> H        2.815824000      3.199326000      3.745886000
| 38> H        4.330396000      2.356799000      2.674499000
| 39> H        3.199800000      1.286562000      4.341101000
| 40> H        0.486370000      2.236112000      3.064167000
| 41> H        0.678358000      1.029249000      1.818183000
| 42> H        1.104998000      0.710455000      3.492722000
| 43> *
| 44>
| 45>                          ****END OF INPUT****
 Total Charge           Charge          ....    1
 Multiplicity           Mult            ....    1
 Number of Electrons    NEL             ....   84
Dispersion correction           -0.027050792
FINAL SINGLE POINT ENERGY      -480.921454436123
Dispersion correction             ... done (  0.1 sec)
Dispersion correction           -0.026945348
FINAL SINGLE POINT ENERGY      -481.013734021964
Dispersion correction             ... done (  0.1 sec)
Dispersion correction           -0.026930349
FINAL SINGLE POINT ENERGY      -481.083968712593
Dispersion correction             ... done (  0.1 sec)
FINAL SINGLE POINT ENERGY      -481.157124199488
FINAL SINGLE POINT ENERGY      -481.221203478253
FINAL SINGLE POINT ENERGY      -481.260147770444
FINAL SINGLE POINT ENERGY      -481.284257984134
FINAL SINGLE POINT ENERGY      -481.298820371525
FINAL SINGLE POINT ENERGY      -481.306434807749
FINAL SINGLE POINT ENERGY      -481.309520430870
FINAL SINGLE POINT ENERGY      -481.310871795832
FINAL SINGLE POINT ENERGY      -481.311588753443
FINAL SINGLE POINT ENERGY      -481.311948612163
FINAL SINGLE POINT ENERGY      -481.312040619711
FINAL SINGLE POINT ENERGY      -481.312123044602
FINAL SINGLE POINT ENERGY      -481.312150841417
FINAL SINGLE POINT ENERGY      -481.312166907699
Dispersion correction             ... done (  0.1 sec)
Dispersion correction           -0.026892389
FINAL SINGLE POINT ENERGY      -481.312172429302
Dispersion correction             ... done (  0.1 sec)
Dispersion correction           -0.026892356
FINAL SINGLE POINT ENERGY      -481.312174350378
Dispersion correction             ... done (  0.1 sec)
                    ***********************HURRAY********************

CARTESIAN COORDINATES (ANGSTROEM)
---------------------------------
  O      1.788041    3.574072    1.269492
  N      2.677894    2.803202    1.242356
  C      3.717783    2.916426    0.166902
  C      4.003363    1.496233   -0.345023
  C      4.257670    0.521919    0.758159
  C      3.724787    0.679022    1.969094
  C      2.749593    1.760277    2.334875
  C      4.954790    3.525959    0.857164
  C      3.190047    3.830728   -0.922244
  C      3.154856    2.514086    3.615499
  C      1.335165    1.179998    2.478260
  H      4.879962    1.576689   -1.009995
  H      3.170217    1.152968   -0.988632
  H      4.903376   -0.338366    0.555663
  H      3.923579   -0.039681    2.770616
  H      4.708446    4.488113    1.334903
  H      5.407617    2.844462    1.592252
  H      5.694835    3.718843    0.062631
  H      3.040245    4.860951   -0.564067
  H      2.239333    3.458944   -1.339202
  H      3.934126    3.855084   -1.734388
  H      2.426900    3.309337    3.843902
  H      4.167019    2.940822    3.546056
  H      3.144785    1.785162    4.441946
  H      0.612766    1.950742    2.789007
  H      1.001047    0.709605    1.538988
  H      1.370656    0.399276    3.254329

 Multiplicity           Mult            ....    1
 Number of Electrons    NEL             ....   84
 Basis Dimension        Dim             ....  186

ORBITAL ENERGIES
----------------

  NO   OCC          E(Eh)            E(eV)
   0   2.0000     -19.506558      -530.8004
   1   2.0000     -14.790872      -402.4801
   2   2.0000     -10.483021      -285.2575
   3   2.0000     -10.482577      -285.2454
   4   2.0000     -10.411247      -283.3044
   5   2.0000     -10.401805      -283.0475
   6   2.0000     -10.400817      -283.0206
   7   2.0000     -10.400027      -282.9991
   8   2.0000     -10.397306      -282.9251
   9   2.0000     -10.390300      -282.7344
  10   2.0000     -10.386272      -282.6248
  11   2.0000      -1.456107       -39.6227
  12   2.0000      -1.109208       -30.1831
  13   2.0000      -1.037627       -28.2353
  14   2.0000      -0.969322       -26.3766
  15   2.0000      -0.924584       -25.1592
  16   2.0000      -0.887150       -24.1406
  17   2.0000      -0.875237       -23.8164
  18   2.0000      -0.874012       -23.7831
  19   2.0000      -0.830070       -22.5874
  20   2.0000      -0.786041       -21.3893
  21   2.0000      -0.753343       -20.4995
  22   2.0000      -0.736040       -20.0287
  23   2.0000      -0.703031       -19.1305
  24   2.0000      -0.666034       -18.1237
  25   2.0000      -0.652489       -17.7551
  26   2.0000      -0.634054       -17.2535
  27   2.0000      -0.629396       -17.1267
  28   2.0000      -0.601928       -16.3793
  29   2.0000      -0.597812       -16.2673
  30   2.0000      -0.590388       -16.0653
  31   2.0000      -0.585500       -15.9323
  32   2.0000      -0.564098       -15.3499
  33   2.0000      -0.562667       -15.3109
  34   2.0000      -0.560027       -15.2391
  35   2.0000      -0.554234       -15.0815
  36   2.0000      -0.540868       -14.7178
  37   2.0000      -0.537827       -14.6350
  38   2.0000      -0.532195       -14.4818
  39   2.0000      -0.510853       -13.9010
  40   2.0000      -0.501913       -13.6578
  41   2.0000      -0.432133       -11.7589
  42   0.0000      -0.315705        -8.5908
  43   0.0000      -0.150716        -4.1012
  44   0.0000      -0.091110        -2.4792
  45   0.0000      -0.083285        -2.2663
  46   0.0000      -0.059964        -1.6317

MULLIKEN ATOMIC CHARGES
-----------------------
   0 O :   -0.030396
   1 N :    0.126604
   2 C :   -0.344528
   3 C :   -0.096092
   4 C :   -0.145675
   5 C :   -0.074457
   6 C :   -0.232273
   7 C :   -0.279372
   8 C :   -0.245326
   9 C :   -0.273846
  10 C :   -0.264350
  11 H :    0.179022
  12 H :    0.180244
  13 H :    0.164511
  14 H :    0.153604
  15 H :    0.177556
  16 H :    0.191442
  17 H :    0.193513
  18 H :    0.177938
  19 H :    0.168844
  20 H :    0.181922
  21 H :    0.179918
  22 H :    0.178415
  23 H :    0.191324
  24 H :    0.186127
  25 H :    0.171035
  26 H :    0.184295
Sum of atomic charges:    1.0000000

LOEWDIN ATOMIC CHARGES
----------------------
   0 O :    0.048136
   1 N :    0.312208
   2 C :   -0.052079
   3 C :   -0.207900
   4 C :   -0.116243
   5 C :   -0.138397
   6 C :   -0.048122
   7 C :   -0.313908
   8 C :   -0.328304
   9 C :   -0.309746
  10 C :   -0.315271
  11 H :    0.165375
  12 H :    0.157843
  13 H :    0.159620
  14 H :    0.160820
  15 H :    0.147032
  16 H :    0.146707
  17 H :    0.165629
  18 H :    0.149661
  19 H :    0.146486
  20 H :    0.159417
  21 H :    0.148117
  22 H :    0.144701
  23 H :    0.163211
  24 H :    0.148565
  25 H :    0.145814
  26 H :    0.160626

  Mayer bond orders larger than 0.100000
B(  0-O ,  1-N ) :   1.8265 B(  1-N ,  2-C ) :   0.7762 B(  1-N ,  6-C ) :   0.7453
B(  2-C ,  3-C ) :   0.9982 B(  2-C ,  7-C ) :   1.0149 B(  2-C ,  8-C ) :   1.1024
B(  3-C ,  4-C ) :   1.0319 B(  3-C , 11-H ) :   0.8987 B(  3-C , 12-H ) :   0.8856
B(  4-C ,  5-C ) :   1.9458 B(  4-C , 13-H ) :   0.9328 B(  5-C ,  6-C ) :   0.9623
B(  5-C , 14-H ) :   0.9329 B(  6-C ,  9-C ) :   1.0204 B(  6-C , 10-C ) :   1.0439
B(  7-C , 15-H ) :   0.9265 B(  7-C , 16-H ) :   0.9158 B(  7-C , 17-H ) :   0.9211
B(  8-C , 18-H ) :   0.9224 B(  8-C , 19-H ) :   0.9240 B(  8-C , 20-H ) :   0.9246
B(  9-C , 21-H ) :   0.9272 B(  9-C , 22-H ) :   0.9275 B(  9-C , 23-H ) :   0.9269
B( 10-C , 24-H ) :   0.9219 B( 10-C , 25-H ) :   0.9355 B( 10-C , 26-H ) :   0.9286

Dispersion correction           -0.026893130
FINAL SINGLE POINT ENERGY      -481.312174934233

DIPOLE MOMENT
-------------

Method             : SCF
Type of density    : Electron Density
Multiplicity       :   1
Irrep              :   0
Energy             :  -481.2852818045523122 Eh
Relativity type    :
Basis              : AO
                                X                 Y                 Z
Electronic contribution:     -2.753820950       0.017127466      -0.474064673
Nuclear contribution   :      3.088927410      -0.095134284       0.454097178
                        -----------------------------------------
Total Dipole Moment    :      0.335106459      -0.078006818      -0.019967495
                        -----------------------------------------
Magnitude (a.u.)       :      0.344644895
Magnitude (Debye)      :      0.876017705

VIBRATIONAL FREQUENCIES
-----------------------

Scaling factor for frequencies =  1.000000000  (already applied!)

     0:       0.00 cm**-1
     1:       0.00 cm**-1
     2:       0.00 cm**-1
     3:       0.00 cm**-1
     4:       0.00 cm**-1
     5:       0.00 cm**-1
     6:      54.19 cm**-1
     7:     115.95 cm**-1
     8:     210.94 cm**-1
     9:     229.95 cm**-1
    10:     249.75 cm**-1
    11:     262.82 cm**-1
    12:     270.53 cm**-1
    13:     274.38 cm**-1
    14:     289.51 cm**-1
    15:     309.30 cm**-1
    16:     314.44 cm**-1
    17:     346.71 cm**-1
    18:     368.85 cm**-1
    19:     400.69 cm**-1
    20:     464.28 cm**-1
    21:     480.51 cm**-1
    22:     519.87 cm**-1
    23:     560.06 cm**-1
    24:     616.40 cm**-1
    25:     730.56 cm**-1
    26:     741.46 cm**-1
    27:     779.69 cm**-1
    28:     834.10 cm**-1
    29:     879.50 cm**-1
    30:     920.19 cm**-1
    31:     947.79 cm**-1
    32:     957.86 cm**-1
    33:     962.57 cm**-1
    34:     968.52 cm**-1
    35:     995.81 cm**-1
    36:    1008.64 cm**-1
    37:    1030.84 cm**-1
    38:    1032.59 cm**-1
    39:    1048.02 cm**-1
    40:    1120.03 cm**-1
    41:    1149.33 cm**-1
    42:    1167.15 cm**-1
    43:    1202.93 cm**-1
    44:    1230.08 cm**-1
    45:    1250.81 cm**-1
    46:    1266.96 cm**-1
    47:    1293.27 cm**-1
    48:    1370.29 cm**-1
    49:    1382.24 cm**-1
    50:    1391.44 cm**-1
    51:    1402.20 cm**-1
    52:    1418.48 cm**-1
    53:    1425.04 cm**-1
    54:    1447.80 cm**-1
    55:    1455.80 cm**-1
    56:    1460.82 cm**-1
    57:    1465.28 cm**-1
    58:    1467.17 cm**-1
    59:    1477.69 cm**-1
    60:    1481.53 cm**-1
    61:    1490.31 cm**-1
    62:    1494.81 cm**-1
    63:    1773.97 cm**-1
    64:    1826.02 cm**-1
    65:    3044.23 cm**-1
    66:    3061.72 cm**-1
    67:    3064.12 cm**-1
    68:    3064.34 cm**-1
    69:    3065.86 cm**-1
    70:    3113.60 cm**-1
    71:    3160.50 cm**-1
    72:    3163.65 cm**-1
    73:    3168.96 cm**-1
    74:    3169.87 cm**-1
    75:    3173.65 cm**-1
    76:    3178.57 cm**-1
    77:    3180.54 cm**-1
    78:    3186.02 cm**-1
    79:    3203.82 cm**-1
    80:    3220.18 cm**-1

IR SPECTRUM
-----------

 Mode   freq       eps      Int      T**2         TX        TY        TZ
       cm**-1   L/(mol*cm) km/mol    a.u.
----------------------------------------------------------------------------
  6:     54.19   0.000235    1.19  0.001351  (-0.023672 -0.018302 -0.021342)
  7:    115.95   0.000015    0.08  0.000041  (-0.001453  0.004992 -0.003765)
  8:    210.94   0.000051    0.26  0.000075  (-0.004751 -0.003738 -0.006203)
  9:    229.95   0.000090    0.45  0.000122  ( 0.000086  0.005529  0.009544)
 10:    249.75   0.000001    0.01  0.000001  ( 0.000186  0.000764  0.000938)
 11:    262.82   0.000023    0.12  0.000027  ( 0.003977  0.000001 -0.003414)
 12:    270.53   0.000023    0.12  0.000027  ( 0.004066 -0.003155 -0.000594)
 13:    274.38   0.000037    0.19  0.000042  (-0.000454 -0.006485 -0.000119)
 14:    289.51   0.000055    0.28  0.000059  ( 0.005669  0.005179 -0.000654)
 15:    309.30   0.000169    0.85  0.000170  (-0.011649  0.004966  0.003129)
 16:    314.44   0.000038    0.19  0.000038  (-0.003617 -0.001635  0.004682)
 17:    346.71   0.000041    0.21  0.000037  (-0.002765  0.005394  0.000108)
 18:    368.85   0.000113    0.57  0.000096  (-0.002942 -0.003278  0.008728)
 19:    400.69   0.000685    3.46  0.000533  ( 0.007711  0.009771 -0.019451)
 20:    464.28   0.000392    1.98  0.000264  (-0.008720  0.007575 -0.011409)
 21:    480.51   0.000258    1.30  0.000168  ( 0.005280 -0.003524 -0.011284)
 22:    519.87   0.000692    3.50  0.000415  ( 0.014240  0.005802 -0.013374)
 23:    560.06   0.000259    1.31  0.000144  ( 0.002887 -0.008783  0.007667)
 24:    616.40   0.000064    0.32  0.000033  ( 0.004884 -0.002942 -0.000011)
 25:    730.56   0.007376   37.28  0.003151  (-0.045875 -0.029567 -0.013123)
 26:    741.46   0.000263    1.33  0.000111  (-0.005825 -0.008305  0.002825)
 27:    779.69   0.002675   13.52  0.001071  ( 0.020980  0.019710  0.015562)
 28:    834.10   0.000417    2.11  0.000156  ( 0.002562  0.007551  0.009623)
 29:    879.50   0.001149    5.81  0.000408  (-0.009732  0.013075  0.011919)
 30:    920.19   0.000624    3.15  0.000212  (-0.003672  0.013644  0.003445)
 31:    947.79   0.001864    9.42  0.000614  ( 0.010325  0.011163 -0.019562)
 32:    957.86   0.000200    1.01  0.000065  ( 0.004575  0.006289 -0.002136)
 33:    962.57   0.000324    1.64  0.000105  ( 0.008106  0.000560  0.006245)
 34:    968.52   0.005179   26.17  0.001669  ( 0.020943  0.014376 -0.031992)
 35:    995.81   0.000539    2.72  0.000169  (-0.002530  0.005757 -0.011376)
 36:   1008.64   0.000116    0.58  0.000036  ( 0.001892 -0.002965 -0.004834)
 37:   1030.84   0.000511    2.58  0.000155  ( 0.010010 -0.002448 -0.006958)
 38:   1032.59   0.001040    5.25  0.000314  (-0.005481  0.013737  0.009770)
 39:   1048.02   0.001498    7.57  0.000446  ( 0.009891  0.015159 -0.010888)
 40:   1120.03   0.002184   11.04  0.000609  (-0.008888 -0.012888  0.019066)
 41:   1149.33   0.000616    3.12  0.000167  (-0.005462 -0.003780  0.011102)
 42:   1167.15   0.000746    3.77  0.000199  (-0.001880 -0.013749 -0.002613)
 43:   1202.93   0.000940    4.75  0.000244  ( 0.006005 -0.001620  0.014326)
 44:   1230.08   0.000832    4.20  0.000211  (-0.011579  0.005343  0.006954)
 45:   1250.81   0.000244    1.23  0.000061  ( 0.001831 -0.006383 -0.004087)
 46:   1266.96   0.000966    4.88  0.000238  (-0.001784  0.014736 -0.004194)
 47:   1293.27   0.001113    5.62  0.000269  ( 0.004450 -0.014686  0.005749)
 48:   1370.29   0.000306    1.54  0.000070  (-0.007306 -0.002705 -0.002983)
 49:   1382.24   0.001582    8.00  0.000357  ( 0.009450  0.014556  0.007487)
 50:   1391.44   0.002797   14.14  0.000627  ( 0.001495 -0.014807 -0.020146)
 51:   1402.20   0.002821   14.26  0.000628  (-0.020962  0.012457 -0.005769)
 52:   1418.48   0.003121   15.77  0.000687  ( 0.006330 -0.020467  0.015087)
 53:   1425.04   0.000850    4.30  0.000186  ( 0.000402 -0.011947  0.006577)
 54:   1447.80   0.000842    4.25  0.000181  ( 0.003237 -0.002265 -0.012876)
 55:   1455.80   0.001461    7.38  0.000313  ( 0.014252  0.007987  0.006805)
 56:   1460.82   0.000882    4.46  0.000188  (-0.005210  0.009731 -0.008162)
 57:   1465.28   0.001179    5.96  0.000251  ( 0.000868 -0.010106 -0.012174)
 58:   1467.17   0.003537   17.88  0.000752  (-0.017474 -0.002604 -0.020983)
 59:   1477.69   0.002789   14.10  0.000589  ( 0.014225  0.014503 -0.013280)
 60:   1481.53   0.003110   15.71  0.000655  (-0.004226  0.023305  0.009696)
 61:   1490.31   0.003805   19.23  0.000797  ( 0.004205  0.015197 -0.023414)
 62:   1494.81   0.004647   23.49  0.000970  ( 0.025140 -0.011202 -0.014585)
 63:   1773.97   0.000556    2.81  0.000098  (-0.007527  0.005448  0.003389)
 64:   1826.02   0.012428   62.80  0.002124  ( 0.038883 -0.024681  0.001674)
 65:   3044.23   0.000318    1.60  0.000033  (-0.001843  0.000657 -0.005359)
 66:   3061.72   0.000078    0.39  0.000008  (-0.000690  0.001580  0.002220)
 67:   3064.12   0.000102    0.51  0.000010  ( 0.002619  0.001240 -0.001393)
 68:   3064.34   0.000063    0.32  0.000006  (-0.000978 -0.001464 -0.001815)
 69:   3065.86   0.000027    0.14  0.000003  (-0.000447 -0.001457 -0.000680)
 70:   3113.60   0.000205    1.04  0.000021  ( 0.002404 -0.003581 -0.001398)
 71:   3160.50   0.000588    2.97  0.000058  ( 0.006653  0.003527 -0.001176)
 72:   3163.65   0.000065    0.33  0.000006  (-0.001238 -0.001360 -0.001742)
 73:   3168.96   0.000314    1.58  0.000031  (-0.002787 -0.002671 -0.003996)
 74:   3169.87   0.000234    1.18  0.000023  ( 0.001169  0.002093 -0.004163)
 75:   3173.65   0.000089    0.45  0.000009  ( 0.001896  0.001838 -0.001345)
 76:   3178.57   0.000266    1.34  0.000026  (-0.000300 -0.002304  0.004551)
 77:   3180.54   0.000112    0.57  0.000011  ( 0.002901  0.001504  0.000552)
 78:   3186.02   0.000257    1.30  0.000025  (-0.004538 -0.000693 -0.002027)
 79:   3203.82   0.000243    1.23  0.000024  ( 0.001186  0.001071 -0.004597)
 80:   3220.18   0.000265    1.34  0.000026  ( 0.003696 -0.003356 -0.000887)

--------------------------
THERMOCHEMISTRY AT 298.15K
--------------------------

Temperature         ...   298.15 K
Pressure            ...     1.00 atm
Total Mass          ...   154.23 AMU
Quasi RRHO          ...     True
Cut-Off Frequency   ...     1.00 cm^-1

Throughout the following assumptions are being made:
  (1) The electronic state is orbitally nondegenerate
  (2) There are no thermally accessible electronically excited states
  (3) Hindered rotations indicated by low frequency modes are not
      treated as such but are treated as vibrations and this may
      cause some error
  (4) All equations used are the standard statistical mechanics
      equations for an ideal gas
  (5) All vibrations are strictly harmonic

freq.      54.19  E(vib)   ...       0.52
freq.     115.95  E(vib)   ...       0.44
freq.     210.94  E(vib)   ...       0.34
freq.     229.95  E(vib)   ...       0.32
freq.     249.75  E(vib)   ...       0.31
freq.     262.82  E(vib)   ...       0.29
freq.     270.53  E(vib)   ...       0.29
freq.     274.38  E(vib)   ...       0.28
freq.     289.51  E(vib)   ...       0.27
freq.     309.30  E(vib)   ...       0.26
freq.     314.44  E(vib)   ...       0.25
freq.     346.71  E(vib)   ...       0.23
freq.     368.85  E(vib)   ...       0.21
freq.     400.69  E(vib)   ...       0.19
freq.     464.28  E(vib)   ...       0.16
freq.     480.51  E(vib)   ...       0.15
freq.     519.87  E(vib)   ...       0.13
freq.     560.06  E(vib)   ...       0.12
freq.     616.40  E(vib)   ...       0.09
freq.     730.56  E(vib)   ...       0.06
freq.     741.46  E(vib)   ...       0.06
freq.     779.69  E(vib)   ...       0.05
freq.     834.10  E(vib)   ...       0.04
freq.     879.50  E(vib)   ...       0.04
freq.     920.19  E(vib)   ...       0.03
freq.     947.79  E(vib)   ...       0.03
freq.     957.86  E(vib)   ...       0.03
freq.     962.57  E(vib)   ...       0.03
freq.     968.52  E(vib)   ...       0.03
freq.     995.81  E(vib)   ...       0.02
freq.    1008.64  E(vib)   ...       0.02
freq.    1030.84  E(vib)   ...       0.02
freq.    1032.59  E(vib)   ...       0.02
freq.    1048.02  E(vib)   ...       0.02
freq.    1120.03  E(vib)   ...       0.01
freq.    1149.33  E(vib)   ...       0.01
freq.    1167.15  E(vib)   ...       0.01
freq.    1202.93  E(vib)   ...       0.01
freq.    1230.08  E(vib)   ...       0.01
freq.    1250.81  E(vib)   ...       0.01
freq.    1266.96  E(vib)   ...       0.01
freq.    1293.27  E(vib)   ...       0.01
freq.    1370.29  E(vib)   ...       0.01
freq.    1382.24  E(vib)   ...       0.01
freq.    1391.44  E(vib)   ...       0.00
freq.    1402.20  E(vib)   ...       0.00
freq.    1418.48  E(vib)   ...       0.00
freq.    1425.04  E(vib)   ...       0.00
freq.    1447.80  E(vib)   ...       0.00
freq.    1455.80  E(vib)   ...       0.00
freq.    1460.82  E(vib)   ...       0.00
freq.    1465.28  E(vib)   ...       0.00
freq.    1467.17  E(vib)   ...       0.00
freq.    1477.69  E(vib)   ...       0.00
freq.    1481.53  E(vib)   ...       0.00
freq.    1490.31  E(vib)   ...       0.00
freq.    1494.81  E(vib)   ...       0.00
freq.    1773.97  E(vib)   ...       0.00
freq.    1826.02  E(vib)   ...       0.00
freq.    3044.23  E(vib)   ...       0.00
freq.    3061.72  E(vib)   ...       0.00
freq.    3064.12  E(vib)   ...       0.00
freq.    3064.34  E(vib)   ...       0.00
freq.    3065.86  E(vib)   ...       0.00
freq.    3113.60  E(vib)   ...       0.00
freq.    3160.50  E(vib)   ...       0.00
freq.    3163.65  E(vib)   ...       0.00
freq.    3168.96  E(vib)   ...       0.00
freq.    3169.87  E(vib)   ...       0.00
freq.    3173.65  E(vib)   ...       0.00
freq.    3178.57  E(vib)   ...       0.00
freq.    3180.54  E(vib)   ...       0.00
freq.    3186.02  E(vib)   ...       0.00
freq.    3203.82  E(vib)   ...       0.00
freq.    3220.18  E(vib)   ...       0.00

------------
INNER ENERGY
------------

The inner energy is: U= E(el) + E(ZPE) + E(vib) + E(rot) + E(trans)
    E(el)   - is the total energy from the electronic structure calculation
              = E(kin-el) + E(nuc-el) + E(el-el) + E(nuc-nuc)
    E(ZPE)  - the the zero temperature vibrational energy from the frequency calculation
    E(vib)  - the the finite temperature correction to E(ZPE) due to population
              of excited vibrational states
    E(rot)  - is the rotational thermal energy
    E(trans)- is the translational thermal energy

Summary of contributions to the inner energy U:
Electronic energy                ...   -481.31217493 Eh
Zero point energy                ...      0.23991015 Eh     150.55 kcal/mol
Thermal vibrational correction   ...      0.00878253 Eh       5.51 kcal/mol
Thermal rotational correction    ...      0.00141627 Eh       0.89 kcal/mol
Thermal translational correction ...      0.00141627 Eh       0.89 kcal/mol
-----------------------------------------------------------------------
Total thermal energy                   -481.06064971 Eh

Summary of corrections to the electronic energy:
(perhaps to be used in another calculation)
Total thermal correction                  0.01161508 Eh       7.29 kcal/mol
Non-thermal (ZPE) correction              0.23991015 Eh     150.55 kcal/mol
-----------------------------------------------------------------------
Total correction                          0.25152522 Eh     157.83 kcal/mol

--------
ENTHALPY
--------

The enthalpy is H = U + kB*T
                kB is Boltzmann's constant
Total thermal energy              ...   -481.06064971 Eh
Thermal Enthalpy correction       ...      0.00094421 Eh       0.59 kcal/mol
-----------------------------------------------------------------------
Total Enthalpy                    ...   -481.05970550 Eh

Note: Only C1 symmetry has been detected, increase convergence thresholds
      if your molecule has a higher symmetry. Symmetry factor of 1.0 is
      used for the rotational entropy correction.

Note: Rotational entropy computed according to Herzberg
Infrared and Raman Spectra, Chapter V,1, Van Nostrand Reinhold, 1945
Point Group:  C1, Symmetry Number:   1
Rotational constants in cm-1:     0.051995     0.036397     0.030146

Vibrational entropy computed according to the QRRHO of S. Grimme
Chem.Eur.J. 2012 18 9955 using a reference frequency of 100.0 cm-1

-------
ENTROPY
-------

The entropy contributions are T*S = T*(S(el)+S(vib)+S(rot)+S(trans))
     S(el)   - electronic entropy
     S(vib)  - vibrational entropy
     S(rot)  - rotational entropy
     S(trans)- translational entropy

                             ****ORCA TERMINATED NORMALLY****
TOTAL RUN TIME: 0 days 0 hours 35 minutes 28 seconds 869 msec
