                         Program Version 6.0.0  -   RELEASE  -
|  1> !r2SCANh freq aug-cc-pVTZ d3 TightSCF SlowConv RIJCOSX defgrid2
|  2>
|  3> %pal
|  4> nprocs 12
|  5> end
|  6>
|  7> %scf
|  8> MaxIter 1500
|  9> end
| 10>
| 11> %maxcore 5000
| 12>
| 13> !CPCM
| 14> %cpcm smd true
| 15> SMDsolvent "MeCN"
| 16> surfacetype gepol_ses
| 17> rsolv 2.19
| 18> end
| 19>
| 20> * xyz 0 1
| 21> C          -0.23002520308763     -1.20341332830315      0.00310882792187
| 22> C           1.15574597998941     -1.19684739048590      0.00051919175392
| 23> C           1.86332565509849     -0.00003044802025      0.00027630236453
| 24> C           1.15577559144280      1.19680415600979      0.00051901016839
| 25> C          -0.22999550611081      1.20340423765114      0.00310769649492
| 26> C          -0.94504278611113      0.00000396926878      0.00537639421876
| 27> N          -2.32651842241592      0.00002086250220      0.06836481903154
| 28> H          -2.77588942908601      0.83593411476266     -0.26698822963208
| 29> H          -2.77590989482050     -0.83588030945130     -0.26699130972078
| 30> H          -0.77155614525640      2.14140622745517      0.00291669602765
| 31> H           1.68741493024732      2.13974437178000     -0.00385125619775
| 32> H           2.94449093341518     -0.00004371463540     -0.00330360163776
| 33> H           1.68736169302004     -2.13980086287038     -0.00385241619803
| 34> H          -0.77160779632486     -2.14140288566335      0.00292157540481
| 35> *
| 36>
| 37>                          ****END OF INPUT****

CARTESIAN COORDINATES (ANGSTROEM)
---------------------------------
  C     -0.230025   -1.203413    0.003109
  C      1.155746   -1.196847    0.000519
  C      1.863326   -0.000030    0.000276
  C      1.155776    1.196804    0.000519
  C     -0.229996    1.203404    0.003108
  C     -0.945043    0.000004    0.005376
  N     -2.326518    0.000021    0.068365
  H     -2.775889    0.835934   -0.266988
  H     -2.775910   -0.835880   -0.266991
  H     -0.771556    2.141406    0.002917
  H      1.687415    2.139744   -0.003851
  H      2.944491   -0.000044   -0.003304
  H      1.687362   -2.139801   -0.003852
  H     -0.771608   -2.141403    0.002922

 Total Charge           Charge          ....    0
 Multiplicity           Mult            ....    1
 Number of Electrons    NEL             ....   50
 Basis Dimension        Dim             ....  483

ORBITAL ENERGIES
----------------

  NO   OCC          E(Eh)            E(eV)
   0   2.0000     -14.302506      -389.1910
   1   2.0000     -10.197643      -277.4920
   2   2.0000     -10.155257      -276.3386
   3   2.0000     -10.155240      -276.3381
   4   2.0000     -10.148600      -276.1575
   5   2.0000     -10.148596      -276.1573
   6   2.0000     -10.144802      -276.0541
   7   2.0000      -0.920933       -25.0598
   8   2.0000      -0.838402       -22.8141
   9   2.0000      -0.743718       -20.2376
  10   2.0000      -0.722819       -19.6689
  11   2.0000      -0.605333       -16.4720
  12   2.0000      -0.590993       -16.0817
  13   2.0000      -0.514847       -14.0097
  14   2.0000      -0.493672       -13.4335
  15   2.0000      -0.465510       -12.6672
  16   2.0000      -0.418832       -11.3970
  17   2.0000      -0.413721       -11.2579
  18   2.0000      -0.403615       -10.9829
  19   2.0000      -0.382989       -10.4217
  20   2.0000      -0.343014        -9.3339
  21   2.0000      -0.323302        -8.7975
  22   2.0000      -0.309610        -8.4249
  23   2.0000      -0.251489        -6.8434
  24   2.0000      -0.203071        -5.5258
  25   0.0000      -0.021811        -0.5935
  26   0.0000      -0.005521        -0.1502
  27   0.0000       0.010741         0.2923
  28   0.0000       0.024046         0.6543
  29   0.0000       0.028535         0.7765

MULLIKEN ATOMIC CHARGES
-----------------------
   0 C :   -0.968943
   1 C :   -0.302133
   2 C :   -0.564433
   3 C :   -0.302990
   4 C :   -0.969330
   5 C :    1.357913
   6 N :   -0.610924
   7 H :    0.049333
   8 H :    0.049095
   9 H :    0.527486
  10 H :    0.333748
  11 H :    0.540172
  12 H :    0.333908
  13 H :    0.527099
Sum of atomic charges:   -0.0000000

LOEWDIN ATOMIC CHARGES
----------------------
   0 C :    0.204276
   1 C :    0.166190
   2 C :    0.167912
   3 C :    0.166190
   4 C :    0.204278
   5 C :   -0.270826
   6 N :    0.864213
   7 H :   -0.293731
   8 H :   -0.293732
   9 H :   -0.178192
  10 H :   -0.182737
  11 H :   -0.192911
  12 H :   -0.182737
  13 H :   -0.178192

  Mayer bond orders larger than 0.100000
B(  0-C ,  1-C ) :   1.1221 B(  0-C ,  2-C ) :   0.3523 B(  0-C ,  3-C ) :  -0.1701
B(  0-C ,  4-C ) :   0.5794 B(  0-C ,  5-C ) :   0.5507 B(  0-C , 13-H ) :   0.2584
B(  1-C ,  2-C ) :   1.0470 B(  1-C ,  3-C ) :  -0.1407 B(  1-C ,  4-C ) :  -0.1689
B(  1-C ,  5-C ) :  -0.2423 B(  1-C , 12-H ) :   0.8737 B(  2-C ,  3-C ) :   1.0473
B(  2-C ,  4-C ) :   0.3517 B(  2-C ,  5-C ) :  -0.1281 B(  2-C , 11-H ) :   0.4714
B(  3-C ,  4-C ) :   1.1227 B(  3-C ,  5-C ) :  -0.2422 B(  3-C , 10-H ) :   0.8739
B(  4-C ,  5-C ) :   0.5527 B(  4-C ,  9-H ) :   0.2579 B(  5-C ,  6-N ) :   0.4627
B(  5-C ,  9-H ) :   0.1569 B(  5-C , 13-H ) :   0.1568 B(  6-N ,  7-H ) :   1.0870
B(  6-N ,  8-H ) :   1.0875

Dispersion correction           -0.003931998
FINAL SINGLE POINT ENERGY      -287.547763304055

DIPOLE MOMENT
-------------

Method             : SCF
Type of density    : Electron Density
Multiplicity       :   1
Irrep              :   0
Energy             :  -287.5438313064037175 Eh
Relativity type    :
Basis              : AO
                                X                 Y                 Z
Electronic contribution:     -0.071704650       0.000006125       0.049628011
Nuclear contribution   :     -0.733382100       0.000008959      -0.545609117
                        -----------------------------------------
Total Dipole Moment    :     -0.805086750       0.000015084      -0.495981105
                        -----------------------------------------
Magnitude (a.u.)       :      0.945601360
Magnitude (Debye)      :      2.403527647

VIBRATIONAL FREQUENCIES
-----------------------

Scaling factor for frequencies =  1.000000000  (already applied!)

     0:       0.00 cm**-1
     1:       0.00 cm**-1
     2:       0.00 cm**-1
     3:       0.00 cm**-1
     4:       0.00 cm**-1
     5:       0.00 cm**-1
     6:     216.62 cm**-1
     7:     310.61 cm**-1
     8:     384.52 cm**-1
     9:     419.39 cm**-1
    10:     488.61 cm**-1
    11:     535.77 cm**-1
    12:     552.56 cm**-1
    13:     633.35 cm**-1
    14:     708.42 cm**-1
    15:     768.57 cm**-1
    16:     840.00 cm**-1
    17:     841.71 cm**-1
    18:     895.47 cm**-1
    19:     987.00 cm**-1
    20:    1000.10 cm**-1
    21:    1017.33 cm**-1
    22:    1051.53 cm**-1
    23:    1066.78 cm**-1
    24:    1136.43 cm**-1
    25:    1166.07 cm**-1
    26:    1191.71 cm**-1
    27:    1313.65 cm**-1
    28:    1365.32 cm**-1
    29:    1380.55 cm**-1
    30:    1503.96 cm**-1
    31:    1533.38 cm**-1
    32:    1632.80 cm**-1
    33:    1635.30 cm**-1
    34:    1654.33 cm**-1
    35:    3172.85 cm**-1
    36:    3174.92 cm**-1
    37:    3188.20 cm**-1
    38:    3193.00 cm**-1
    39:    3209.76 cm**-1
    40:    3571.33 cm**-1
    41:    3672.92 cm**-1

IR SPECTRUM
-----------

 Mode   freq       eps      Int      T**2         TX        TY        TZ
       cm**-1   L/(mol*cm) km/mol    a.u.
----------------------------------------------------------------------------
  6:    216.62   0.002745   13.87  0.003954  ( 0.035852  0.000001 -0.051660)
  7:    310.61   0.007535   38.08  0.007571  ( 0.000001 -0.087009 -0.000003)
  8:    384.52   0.000129    0.65  0.000105  (-0.000001  0.010240  0.000002)
  9:    419.39   0.000005    0.02  0.000003  ( 0.000001  0.001838 -0.000001)
 10:    488.61   0.074606  377.03  0.047649  (-0.149280  0.000001  0.159262)
 11:    535.77   0.009851   49.78  0.005738  ( 0.072894 -0.000001 -0.020601)
 12:    552.56   0.040491  204.63  0.022868  ( 0.137476 -0.000002 -0.062993)
 13:    633.35   0.000214    1.08  0.000105  (-0.000003  0.010265  0.000002)
 14:    708.42   0.011563   58.44  0.005094  (-0.008595  0.000001 -0.070851)
 15:    768.57   0.025163  127.17  0.010217  ( 0.016375 -0.000000 -0.099745)
 16:    840.00   0.001872    9.46  0.000696  (-0.024149  0.000002 -0.010599)
 17:    841.71   0.000012    0.06  0.000005  ( 0.000001 -0.002133  0.000006)
 18:    895.47   0.003454   17.45  0.001204  ( 0.003588  0.000000 -0.034506)
 19:    987.00   0.000001    0.00  0.000000  ( 0.000000 -0.000487 -0.000000)
 20:   1000.10   0.000040    0.20  0.000012  ( 0.000540 -0.000000 -0.003482)
 21:   1017.33   0.001259    6.36  0.000386  ( 0.019058 -0.000015  0.004796)
 22:   1051.53   0.002910   14.71  0.000864  ( 0.029389  0.000024  0.000109)
 23:   1066.78   0.001243    6.28  0.000363  ( 0.000017 -0.019065 -0.000000)
 24:   1136.43   0.002742   13.86  0.000753  ( 0.000001 -0.027439  0.000000)
 25:   1166.07   0.000814    4.11  0.000218  (-0.000007 -0.014757 -0.000000)
 26:   1191.71   0.004386   22.17  0.001149  (-0.033873  0.000000 -0.001088)
 27:   1313.65   0.030537  154.32  0.007254  (-0.085156  0.000001 -0.001624)
 28:   1365.32   0.000269    1.36  0.000062  ( 0.000012 -0.007848  0.000001)
 29:   1380.55   0.003833   19.37  0.000866  (-0.000012  0.029434  0.000000)
 30:   1503.96   0.000176    0.89  0.000036  ( 0.000046  0.006040  0.000002)
 31:   1533.38   0.030417  153.72  0.006190  (-0.078669  0.000000  0.001238)
 32:   1632.80   0.009875   49.91  0.001887  ( 0.037781 -0.000073  0.021446)
 33:   1635.30   0.003098   15.65  0.000591  (-0.000261 -0.024312 -0.000071)
 34:   1654.33   0.059142  298.88  0.011156  ( 0.105488 -0.000035  0.005346)
 35:   3172.85   0.005031   25.42  0.000495  ( 0.022243  0.000005 -0.000228)
 36:   3174.92   0.000313    1.58  0.000031  (-0.000018  0.005543  0.000000)
 37:   3188.20   0.001940    9.81  0.000190  (-0.013781 -0.000009  0.000040)
 38:   3193.00   0.010987   55.52  0.001074  (-0.000004  0.032769  0.000000)
 39:   3209.76   0.003978   20.10  0.000387  ( 0.019666 -0.000001  0.000116)
 40:   3571.33   0.012715   64.26  0.001111  (-0.031963  0.000000 -0.009456)
 41:   3672.92   0.010374   52.43  0.000881  ( 0.000000  0.029688  0.000000)

--------------------------
THERMOCHEMISTRY AT 298.15K
--------------------------

Temperature         ...   298.15 K
Pressure            ...     1.00 atm
Total Mass          ...    93.13 AMU
Quasi RRHO          ...     True
Cut-Off Frequency   ...     1.00 cm^-1

Throughout the following assumptions are being made:
  (1) The electronic state is orbitally nondegenerate
  (2) There are no thermally accessible electronically excited states
  (3) Hindered rotations indicated by low frequency modes are not
      treated as such but are treated as vibrations and this may
      cause some error
  (4) All equations used are the standard statistical mechanics
      equations for an ideal gas
  (5) All vibrations are strictly harmonic

freq.     216.62  E(vib)   ...       0.34
freq.     310.61  E(vib)   ...       0.26
freq.     384.52  E(vib)   ...       0.20
freq.     419.39  E(vib)   ...       0.18
freq.     488.61  E(vib)   ...       0.15
freq.     535.77  E(vib)   ...       0.12
freq.     552.56  E(vib)   ...       0.12
freq.     633.35  E(vib)   ...       0.09
freq.     708.42  E(vib)   ...       0.07
freq.     768.57  E(vib)   ...       0.06
freq.     840.00  E(vib)   ...       0.04
freq.     841.71  E(vib)   ...       0.04
freq.     895.47  E(vib)   ...       0.03
freq.     987.00  E(vib)   ...       0.02
freq.    1000.10  E(vib)   ...       0.02
freq.    1017.33  E(vib)   ...       0.02
freq.    1051.53  E(vib)   ...       0.02
freq.    1066.78  E(vib)   ...       0.02
freq.    1136.43  E(vib)   ...       0.01
freq.    1166.07  E(vib)   ...       0.01
freq.    1191.71  E(vib)   ...       0.01
freq.    1313.65  E(vib)   ...       0.01
freq.    1365.32  E(vib)   ...       0.01
freq.    1380.55  E(vib)   ...       0.01
freq.    1503.96  E(vib)   ...       0.00
freq.    1533.38  E(vib)   ...       0.00
freq.    1632.80  E(vib)   ...       0.00
freq.    1635.30  E(vib)   ...       0.00
freq.    1654.33  E(vib)   ...       0.00
freq.    3172.85  E(vib)   ...       0.00
freq.    3174.92  E(vib)   ...       0.00
freq.    3188.20  E(vib)   ...       0.00
freq.    3193.00  E(vib)   ...       0.00
freq.    3209.76  E(vib)   ...       0.00
freq.    3571.33  E(vib)   ...       0.00
freq.    3672.92  E(vib)   ...       0.00

------------
INNER ENERGY
------------

The inner energy is: U= E(el) + E(ZPE) + E(vib) + E(rot) + E(trans)
    E(el)   - is the total energy from the electronic structure calculation
              = E(kin-el) + E(nuc-el) + E(el-el) + E(nuc-nuc)
    E(ZPE)  - the the zero temperature vibrational energy from the frequency calculation
    E(vib)  - the the finite temperature correction to E(ZPE) due to population
              of excited vibrational states
    E(rot)  - is the rotational thermal energy
    E(trans)- is the translational thermal energy

Summary of contributions to the inner energy U:
Electronic energy                ...   -287.54776330 Eh
Zero point energy                ...      0.11713160 Eh      73.50 kcal/mol
Thermal vibrational correction   ...      0.00297849 Eh       1.87 kcal/mol
Thermal rotational correction    ...      0.00141627 Eh       0.89 kcal/mol
Thermal translational correction ...      0.00141627 Eh       0.89 kcal/mol
-----------------------------------------------------------------------
Total thermal energy                   -287.42482067 Eh

Summary of corrections to the electronic energy:
(perhaps to be used in another calculation)
Total thermal correction                  0.00581103 Eh       3.65 kcal/mol
Non-thermal (ZPE) correction              0.11713160 Eh      73.50 kcal/mol
-----------------------------------------------------------------------
Total correction                          0.12294263 Eh      77.15 kcal/mol

--------
ENTHALPY
--------

The enthalpy is H = U + kB*T
                kB is Boltzmann's constant
Total thermal energy              ...   -287.42482067 Eh
Thermal Enthalpy correction       ...      0.00094421 Eh       0.59 kcal/mol
-----------------------------------------------------------------------
Total Enthalpy                    ...   -287.42387646 Eh

Note: Rotational entropy computed according to Herzberg
Infrared and Raman Spectra, Chapter V,1, Van Nostrand Reinhold, 1945
Point Group:  Cs, Symmetry Number:   1
Rotational constants in cm-1:     0.188809     0.087334     0.059800

Vibrational entropy computed according to the QRRHO of S. Grimme
Chem.Eur.J. 2012 18 9955 using a reference frequency of 100.0 cm-1

-------
ENTROPY
-------

The entropy contributions are T*S = T*(S(el)+S(vib)+S(rot)+S(trans))
     S(el)   - electronic entropy
     S(vib)  - vibrational entropy
     S(rot)  - rotational entropy
     S(trans)- translational entropy
The entropies will be listed as multiplied by the temperature to get
units of energy

Electronic entropy                ...      0.00000000 Eh      0.00 kcal/mol
Vibrational entropy               ...      0.00436090 Eh      2.74 kcal/mol
Rotational entropy                ...      0.01277852 Eh      8.02 kcal/mol
Translational entropy             ...      0.01877043 Eh     11.78 kcal/mol
-----------------------------------------------------------------------
Final entropy term                ...      0.03590984 Eh     22.53 kcal/mol

In case the symmetry of your molecule has not been determined correctly
or in case you have a reason to use a different symmetry number we print
out the resulting rotational entropy values for sn=1,12:

 non-linear molecules -----------------------------------
|  sn= 1 | S(rot)=       0.01277852 Eh      8.02 kcal/mol|
|  sn= 2 | S(rot)=       0.01212406 Eh      7.61 kcal/mol|
|  sn= 3 | S(rot)=       0.01174123 Eh      7.37 kcal/mol|
|  sn= 4 | S(rot)=       0.01146961 Eh      7.20 kcal/mol|
|  sn= 5 | S(rot)=       0.01125892 Eh      7.07 kcal/mol|
|  sn= 6 | S(rot)=       0.01108677 Eh      6.96 kcal/mol|
|  sn= 7 | S(rot)=       0.01094123 Eh      6.87 kcal/mol|
|  sn= 8 | S(rot)=       0.01081515 Eh      6.79 kcal/mol|
|  sn= 9 | S(rot)=       0.01070394 Eh      6.72 kcal/mol|
|  sn=10 | S(rot)=       0.01060446 Eh      6.65 kcal/mol|
|  sn=11 | S(rot)=       0.01051447 Eh      6.60 kcal/mol|
|  sn=12 | S(rot)=       0.01043232 Eh      6.55 kcal/mol|
 linear molecules ---------------------------------------
|  Dinfh | S(rot)=       0.00798533 Eh      5.01 kcal/mol|
|  Cinfv | S(rot)=       0.00863979 Eh      5.42 kcal/mol|
 --------------------------------------------------------

-------------------
GIBBS FREE ENERGY
-------------------

The Gibbs free energy is G = H - T*S

Total enthalpy                    ...   -287.42387646 Eh
Total entropy correction          ...     -0.03590984 Eh    -22.53 kcal/mol
-----------------------------------------------------------------------
Final Gibbs free energy         ...   -287.45978630 Eh

                             ****ORCA TERMINATED NORMALLY****
TOTAL RUN TIME: 0 days 0 hours 21 minutes 4 seconds 780 msec
