                         Program Version 6.0.0  -   RELEASE  -
|  1> !r2SCAN aug-cc-pVTZ d3 TightSCF SlowConv RIJCOSX defgrid2
|  2>
|  3> %pal
|  4> nprocs 4
|  5> end
|  6>
|  7> %scf
|  8> MaxIter 1500
|  9> end
| 10>
| 11> %maxcore 3000
| 12>
| 13> !CPCM
| 14> %cpcm smd true
| 15> SMDsolvent "MeCN"
| 16> surfacetype gepol_ses
| 17> rsolv 2.19
| 18> end
| 19>
| 20> * xyz 0 1
| 21> C           0.86930262577353     -1.20261880029345      0.00017105333715
| 22> C           1.23795362702926      0.14976029336823      0.00011888618076
| 23> C           0.20861669065532      1.10178711313028      0.00004997159606
| 24> C          -1.14266539481067      0.75277814049696     -0.00001496332606
| 25> C          -1.49510132454858     -0.61091836423424      0.00001993066330
| 26> C          -0.47134803669840     -1.56560486246111      0.00011663608289
| 27> H          -0.73825756953350     -2.62759517616832      0.00016986000597
| 28> C          -2.93561352812274     -1.03199819846802     -0.00003268925957
| 29> H          -3.03042597379354     -2.12984128685189      0.00005376751285
| 30> H          -3.47239583982485     -0.64683793793607     -0.88649052066934
| 31> H          -3.47250072897996     -0.64668878799144      0.88629702354134
| 32> C          -2.20261220725801      1.81656948866912     -0.00009254079027
| 33> H          -2.85825633400454      1.73802365829102      0.88648022833246
| 34> H          -2.85834169985167      1.73782693594634     -0.88658224699833
| 35> H          -1.75673523006564      2.82424393630291     -0.00022124376864
| 36> H           0.47747434540426      2.16407970597621      0.00002545328680
| 37> C           2.63224685704945      0.60848489545892      0.00012709034736
| 38> C           3.73948848691454     -0.14591897511127     -0.00036178438147
| 39> H           3.70645882304827     -1.24152951701146     -0.00086807767724
| 40> H           4.73244049250843      0.31559854639130     -0.00029313441000
| 41> H           2.75218557093434      1.69979268676539      0.00055539249904
| 42> H           1.63531784817470     -1.98284589426942      0.00029190789491
| 43> *
| 44>
| 45>                          ****END OF INPUT****

CARTESIAN COORDINATES (ANGSTROEM)
---------------------------------
  C      0.869303   -1.202619    0.000171
  C      1.237954    0.149760    0.000119
  C      0.208617    1.101787    0.000050
  C     -1.142665    0.752778   -0.000015
  C     -1.495101   -0.610918    0.000020
  C     -0.471348   -1.565605    0.000117
  H     -0.738258   -2.627595    0.000170
  C     -2.935614   -1.031998   -0.000033
  H     -3.030426   -2.129841    0.000054
  H     -3.472396   -0.646838   -0.886491
  H     -3.472501   -0.646689    0.886297
  C     -2.202612    1.816569   -0.000093
  H     -2.858256    1.738024    0.886480
  H     -2.858342    1.737827   -0.886582
  H     -1.756735    2.824244   -0.000221
  H      0.477474    2.164080    0.000025
  C      2.632247    0.608485    0.000127
  C      3.739488   -0.145919   -0.000362
  H      3.706459   -1.241530   -0.000868
  H      4.732440    0.315599   -0.000293
  H      2.752186    1.699793    0.000555
  H      1.635318   -1.982846    0.000292

 Total Charge           Charge          ....    0
 Multiplicity           Mult            ....    1
 Number of Electrons    NEL             ....   72
 Basis Dimension        Dim             ....  736

ORBITAL ENERGIES
----------------

  NO   OCC          E(Eh)            E(eV)
   0   2.0000     -10.047737      -273.4128
   1   2.0000     -10.047000      -273.3928
   2   2.0000     -10.046597      -273.3818
   3   2.0000     -10.044132      -273.3147
   4   2.0000     -10.036345      -273.1028
   5   2.0000     -10.035851      -273.0894
   6   2.0000     -10.035393      -273.0769
   7   2.0000     -10.030268      -272.9375
   8   2.0000     -10.027427      -272.8602
   9   2.0000     -10.027235      -272.8549
  10   2.0000      -0.830958       -22.6115
  11   2.0000      -0.768186       -20.9034
  12   2.0000      -0.730575       -19.8800
  13   2.0000      -0.712243       -19.3811
  14   2.0000      -0.661850       -18.0099
  15   2.0000      -0.634288       -17.2599
  16   2.0000      -0.568941       -15.4817
  17   2.0000      -0.562928       -15.3181
  18   2.0000      -0.507271       -13.8036
  19   2.0000      -0.462896       -12.5960
  20   2.0000      -0.445787       -12.1305
  21   2.0000      -0.415340       -11.3020
  22   2.0000      -0.400419       -10.8960
  23   2.0000      -0.395237       -10.7549
  24   2.0000      -0.379858       -10.3365
  25   2.0000      -0.372980       -10.1493
  26   2.0000      -0.361421        -9.8348
  27   2.0000      -0.346889        -9.4393
  28   2.0000      -0.345395        -9.3987
  29   2.0000      -0.340299        -9.2600
  30   2.0000      -0.324923        -8.8416
  31   2.0000      -0.302783        -8.2391
  32   2.0000      -0.296429        -8.0662
  33   2.0000      -0.273283        -7.4364
  34   2.0000      -0.231012        -6.2862
  35   2.0000      -0.204979        -5.5778
  36   0.0000      -0.065131        -1.7723
  37   0.0000      -0.033068        -0.8998
  38   0.0000       0.006491         0.1766
  39   0.0000       0.017479         0.4756
  40   0.0000       0.019158         0.5213

MULLIKEN ATOMIC CHARGES
-----------------------
   0 C :   -0.270456
   1 C :    2.209714
   2 C :   -1.291747
   3 C :    0.823153
   4 C :    1.068241
   5 C :   -1.261927
   6 H :   -0.066694
   7 C :   -0.724539
   8 H :    0.069808
   9 H :    0.194903
  10 H :    0.194181
  11 C :   -0.712128
  12 H :    0.189156
  13 H :    0.188256
  14 H :    0.084659
  15 H :   -0.416257
  16 C :    0.101289
  17 C :   -0.932261
  18 H :    0.152269
  19 H :    0.298111
  20 H :    0.024563
  21 H :    0.077707
Sum of atomic charges:   -0.0000000

LOEWDIN ATOMIC CHARGES
----------------------
   0 C :    0.203996
   1 C :   -0.157246
   2 C :    0.219226
   3 C :   -0.110035
   4 C :   -0.114925
   5 C :    0.215784
   6 H :   -0.167599
   7 C :    0.576519
   8 H :   -0.166543
   9 H :   -0.153970
  10 H :   -0.153954
  11 C :    0.578017
  12 H :   -0.153772
  13 H :   -0.153779
  14 H :   -0.166173
  15 H :   -0.167555
  16 C :    0.158438
  17 C :    0.518760
  18 H :   -0.220626
  19 H :   -0.214664
  20 H :   -0.188762
  21 H :   -0.181139

  Mayer bond orders larger than 0.100000
B(  0-C ,  2-C ) :  -0.8691 B(  0-C ,  3-C ) :  -0.2393 B(  0-C ,  4-C ) :   0.1465
B(  0-C ,  5-C ) :   0.5194 B(  0-C ,  6-H ) :  -0.1367 B(  0-C , 16-C ) :   0.2365
B(  0-C , 18-H ) :  -0.1451 B(  0-C , 21-H ) :   1.5634 B(  1-C ,  2-C ) :  -0.7141
B(  1-C ,  3-C ) :   0.5274 B(  1-C ,  4-C ) :  -0.2628 B(  1-C , 15-H ) :  -0.5642
B(  1-C , 21-H ) :  -0.1615 B(  2-C ,  3-C ) :   0.5217 B(  2-C ,  4-C ) :  -0.3448
B(  2-C ,  5-C ) :   0.1931 B(  2-C , 11-C ) :  -0.1818 B(  2-C , 15-H ) :   2.4418
B(  2-C , 16-C ) :   0.2582 B(  2-C , 17-C ) :   0.1175 B(  2-C , 20-H ) :  -0.1305
B(  3-C ,  4-C ) :   1.1808 B(  3-C ,  5-C ) :   0.1662 B(  3-C ,  7-C ) :   0.1680
B(  3-C , 11-C ) :  -0.1342 B(  3-C , 12-H ) :  -0.1085 B(  3-C , 13-H ) :  -0.1084
B(  3-C , 15-H ) :  -0.2820 B(  3-C , 20-H ) :   0.1085 B(  3-C , 21-H ) :  -0.2264
B(  4-C ,  5-C ) :   0.4432 B(  4-C ,  7-C ) :   0.1556 B(  4-C , 11-C ) :   0.4305
B(  4-C , 16-C ) :   0.1095 B(  4-C , 21-H ) :  -0.1193 B(  5-C ,  6-H ) :   1.3979
B(  5-C ,  7-C ) :  -0.1830 B(  5-C , 17-C ) :  -0.1376 B(  5-C , 21-H ) :  -0.1570
B(  7-C ,  8-H ) :   1.0715 B(  7-C ,  9-H ) :   1.0137 B(  7-C , 10-H ) :   1.0138
B( 11-C , 12-H ) :   1.0251 B( 11-C , 13-H ) :   1.0259 B( 11-C , 14-H ) :   1.0359
B( 15-H , 16-C ) :  -0.1884 B( 16-C , 17-C ) :   0.7999 B( 16-C , 18-H ) :  -0.1044
B( 16-C , 20-H ) :   1.1490 B( 17-C , 18-H ) :   1.2288 B( 17-C , 19-H ) :   0.7954
B( 17-C , 20-H ) :  -0.2021

Dispersion correction           -0.007071064
FINAL SINGLE POINT ENERGY      -388.198205089100

DIPOLE MOMENT
-------------

Method             : SCF
Type of density    : Electron Density
Multiplicity       :   1
Irrep              :   0
Energy             :  -388.1911340253047911 Eh
Relativity type    :
Basis              : AO
                                X                 Y                 Z
Electronic contribution:      3.967013103      -1.061816326       0.000621697
Nuclear contribution   :     -4.612312787       1.157001157      -0.000599620
                        -----------------------------------------
Total Dipole Moment    :     -0.645299684       0.095184831       0.000022077
                        -----------------------------------------
Magnitude (a.u.)       :      0.652282021
Magnitude (Debye)      :      1.657969136

Rotational constants in cm-1:             0.097441             0.028572             0.022278
Rotational constants in MHz :          2921.210321           856.555703           667.890460

                             ****ORCA TERMINATED NORMALLY****
TOTAL RUN TIME: 0 days 0 hours 3 minutes 4 seconds 544 msec
