                         Program Version 6.0.0  -   RELEASE  -
|  1> !PBE0 def2-SV(p) Opt Freq d3 TightSCF SlowConv RIJCOSX defgrid2
|  2>
|  3> %pal
|  4> nprocs 4
|  5> end
|  6>
|  7> %scf
|  8> MaxIter 1500
|  9> end
| 10>
| 11> %maxcore 3000
| 12>
| 13>
| 14>
| 15> * xyz 1 2
| 16> C    -1.9598752   -1.0958377   -0.3876622
| 17> C    -1.2466290    0.2788443   -0.2013813
| 18> N     0.0160231    0.0609648    0.3902936
| 19> H     0.0608423    0.0460395    1.4069850
| 20> C     1.2215921   -0.1317520   -0.3172571
| 21> C     1.8991807    1.2549730   -0.5469378
| 22> H     2.1565514    1.7035146    0.4085905
| 23> H     1.2325678    1.9171429   -1.0925711
| 24> H     2.8042420    1.0988236   -1.1261559
| 25> C     2.1729749   -1.0469771    0.4436056
| 26> H     1.7189896   -2.0248087    0.5918228
| 27> H     3.0908832   -1.1719513   -0.1237902
| 28> H     2.4325394   -0.6322405    1.4157353
| 29> H     0.9884824   -0.5339757   -1.3123313
| 30> C    -2.1127551    1.1911007    0.6593103
| 31> H    -1.6219493    2.1511612    0.8056773
| 32> H    -2.3121507    0.7490593    1.6335208
| 33> H    -3.0661748    1.3591338    0.1658685
| 34> H    -1.1007888    0.6958709   -1.2067572
| 35> H    -1.3592933   -1.7530460   -1.0102187
| 36> H    -2.1254639   -1.5617639    0.5798158
| 37> H    -2.9169019   -0.9189535   -0.8696698
| 38> *
| 39>
| 40>                          ****END OF INPUT****
 Total Charge           Charge          ....    1
 Multiplicity           Mult            ....    2
 Number of Electrons    NEL             ....   57
Dispersion correction           -0.015708105
FINAL SINGLE POINT ENERGY      -291.553153537877
Dispersion correction             ... done (  0.1 sec)
Dispersion correction           -0.015623490
FINAL SINGLE POINT ENERGY      -291.556455653997
Dispersion correction             ... done (  0.1 sec)
Dispersion correction           -0.015613439
FINAL SINGLE POINT ENERGY      -291.556983148834
Dispersion correction             ... done (  0.1 sec)
FINAL SINGLE POINT ENERGY      -291.557161007441
FINAL SINGLE POINT ENERGY      -291.557181344561
FINAL SINGLE POINT ENERGY      -291.557191127943
FINAL SINGLE POINT ENERGY      -291.557195220979
Dispersion correction             ... done (  0.1 sec)
Dispersion correction           -0.015610315
FINAL SINGLE POINT ENERGY      -291.557197902535
Dispersion correction             ... done (  0.1 sec)
Dispersion correction           -0.015609026
FINAL SINGLE POINT ENERGY      -291.557199038435
Dispersion correction             ... done (  0.1 sec)
                    ***********************HURRAY********************

CARTESIAN COORDINATES (ANGSTROEM)
---------------------------------
  C     -1.946052   -1.146026   -0.312280
  C     -1.279466    0.244084   -0.208975
  N      0.016007    0.067444    0.390292
  H      0.062658    0.053911    1.416974
  C      1.251489   -0.091723   -0.328369
  C      1.901776    1.303237   -0.466143
  H      2.174567    1.712552    0.520697
  H      1.236818    2.011619   -0.986219
  H      2.821424    1.184508   -1.063062
  C      2.155740   -1.095677    0.373618
  H      1.675539   -2.084611    0.454967
  H      3.081669   -1.213692   -0.212081
  H      2.441145   -0.746458    1.381780
  H      0.975795   -0.444550   -1.337621
  C     -2.110576    1.237042    0.592231
  H     -1.618629    2.221828    0.650432
  H     -2.306569    0.867788    1.614464
  H     -3.084480    1.371947    0.094507
  H     -1.096459    0.615663   -1.232365
  H     -1.334021   -1.846655   -0.902986
  H     -2.129926   -1.572730    0.687679
  H     -2.915561   -1.014178   -0.821047

 Multiplicity           Mult            ....    2
 Number of Electrons    NEL             ....   57
 Basis Dimension        Dim             ....  128

ORBITAL ENERGIES
----------------
                 SPIN UP ORBITALS
  NO   OCC          E(Eh)            E(eV)
   0   1.0000     -14.696796      -399.9201
   1   1.0000     -10.471828      -284.9529
   2   1.0000     -10.471778      -284.9516
   3   1.0000     -10.401917      -283.0505
   4   1.0000     -10.401800      -283.0474
   5   1.0000     -10.393370      -282.8180
   6   1.0000     -10.393320      -282.8166
   7   1.0000      -1.210036       -32.9268
   8   1.0000      -1.017711       -27.6933
   9   1.0000      -0.948599       -25.8127
  10   1.0000      -0.886057       -24.1108
  11   1.0000      -0.880172       -23.9507
  12   1.0000      -0.832621       -22.6568
  13   1.0000      -0.813114       -22.1260
  14   1.0000      -0.716149       -19.4874
  15   1.0000      -0.690418       -18.7872
  16   1.0000      -0.674457       -18.3529
  17   1.0000      -0.644930       -17.5494
  18   1.0000      -0.627103       -17.0643
  19   1.0000      -0.599249       -16.3064
  20   1.0000      -0.584779       -15.9127
  21   1.0000      -0.575792       -15.6681
  22   1.0000      -0.568745       -15.4763
  23   1.0000      -0.557007       -15.1569
  24   1.0000      -0.552127       -15.0241
  25   1.0000      -0.541475       -14.7343
  26   1.0000      -0.539220       -14.6729
  27   1.0000      -0.537422       -14.6240
  28   1.0000      -0.493171       -13.4199
  29   0.0000      -0.117224        -3.1898
  30   0.0000      -0.100433        -2.7329
  31   0.0000      -0.067115        -1.8263
  32   0.0000      -0.059252        -1.6123
  33   0.0000      -0.057488        -1.5643

                 SPIN DOWN ORBITALS
  NO   OCC          E(Eh)            E(eV)
   0   1.0000     -14.677395      -399.3922
   1   1.0000     -10.472204      -284.9631
   2   1.0000     -10.472154      -284.9618
   3   1.0000     -10.399846      -282.9942
   4   1.0000     -10.399737      -282.9912
   5   1.0000     -10.392797      -282.8024
   6   1.0000     -10.392761      -282.8014
   7   1.0000      -1.174199       -31.9516
   8   1.0000      -1.012755       -27.5585
   9   1.0000      -0.935592       -25.4588
  10   1.0000      -0.879233       -23.9252
  11   1.0000      -0.876378       -23.8474
  12   1.0000      -0.824640       -22.4396
  13   1.0000      -0.808491       -22.0002
  14   1.0000      -0.707084       -19.2407
  15   1.0000      -0.683898       -18.6098
  16   1.0000      -0.641436       -17.4544
  17   1.0000      -0.636987       -17.3333
  18   1.0000      -0.620014       -16.8714
  19   1.0000      -0.594857       -16.1869
  20   1.0000      -0.578725       -15.7479
  21   1.0000      -0.571626       -15.5547
  22   1.0000      -0.566020       -15.4022
  23   1.0000      -0.551833       -15.0161
  24   1.0000      -0.543980       -14.8024
  25   1.0000      -0.539883       -14.6910
  26   1.0000      -0.534445       -14.5430
  27   1.0000      -0.533527       -14.5180
  28   0.0000      -0.336052        -9.1444
  29   0.0000      -0.111952        -3.0464
  30   0.0000      -0.099328        -2.7029
  31   0.0000      -0.066284        -1.8037
  32   0.0000      -0.057494        -1.5645

MULLIKEN ATOMIC CHARGES AND SPIN POPULATIONS
--------------------------------------------
   0 C :   -0.317795    0.078029
   1 C :   -0.195326   -0.041834
   2 N :   -0.149737    0.861126
   3 H :    0.313539   -0.034447
   4 C :   -0.195178   -0.041907
   5 C :   -0.318206    0.078403
   6 H :    0.170252   -0.001851
   7 H :    0.177173   -0.003239
   8 H :    0.199124    0.015306
   9 C :   -0.339818    0.020475
  10 H :    0.179473    0.000820
  11 H :    0.193744    0.003736
  12 H :    0.166558   -0.000534
  13 H :    0.185020    0.015597
  14 C :   -0.339493    0.020972
  15 H :    0.179367    0.000778
  16 H :    0.166568   -0.000579
  17 H :    0.193843    0.003867
  18 H :    0.184758    0.015058
  19 H :    0.177044   -0.003216
  20 H :    0.170116   -0.001877
  21 H :    0.198974    0.015315
Sum of atomic charges         :    1.0000000

LOEWDIN ATOMIC CHARGES AND SPIN POPULATIONS
-------------------------------------------
   0 C :   -0.319171    0.075142
   1 C :   -0.103510    0.004444
   2 N :    0.115022    0.778225
   3 H :    0.275190   -0.021626
   4 C :   -0.103524    0.004454
   5 C :   -0.319128    0.075481
   6 H :    0.146068   -0.001756
   7 H :    0.144522   -0.002482
   8 H :    0.165434    0.010811
   9 C :   -0.337019    0.019910
  10 H :    0.146513    0.000176
  11 H :    0.163367    0.002852
  12 H :    0.144364   -0.000118
  13 H :    0.154371    0.012496
  14 C :   -0.336883    0.020379
  15 H :    0.146445    0.000146
  16 H :    0.144373   -0.000147
  17 H :    0.163424    0.002950
  18 H :    0.154196    0.012060
  19 H :    0.144526   -0.002467
  20 H :    0.146009   -0.001759
  21 H :    0.165413    0.010829

  Mayer bond orders larger than 0.100000
B(  0-C ,  1-C ) :   1.0298 B(  0-C , 19-H ) :   0.9371 B(  0-C , 20-H ) :   0.9319
B(  0-C , 21-H ) :   0.9262 B(  1-C ,  2-N ) :   0.9436 B(  1-C , 14-C ) :   1.0702
B(  1-C , 18-H ) :   0.8920 B(  2-N ,  3-H ) :   0.8267 B(  2-N ,  4-C ) :   0.9442
B(  4-C ,  5-C ) :   1.0294 B(  4-C ,  9-C ) :   1.0704 B(  4-C , 13-H ) :   0.8918
B(  5-C ,  6-H ) :   0.9319 B(  5-C ,  7-H ) :   0.9370 B(  5-C ,  8-H ) :   0.9261
B(  9-C , 10-H ) :   0.9396 B(  9-C , 11-H ) :   0.9311 B(  9-C , 12-H ) :   0.9302
B( 14-C , 15-H ) :   0.9396 B( 14-C , 16-H ) :   0.9302 B( 14-C , 17-H ) :   0.9309

Dispersion correction           -0.015608563
FINAL SINGLE POINT ENERGY      -291.557199390453

DIPOLE MOMENT
-------------

Method             : SCF
Type of density    : Electron Density
Multiplicity       :   2
Irrep              :   0
Energy             :  -291.5415908273817536 Eh
Relativity type    :
Basis              : AO
                                X                 Y                 Z
Electronic contribution:      0.007239599      -0.010027263       0.148382523
Nuclear contribution   :      0.001368449       0.006688621       0.038653602
                        -----------------------------------------
Total Dipole Moment    :      0.008608048      -0.003338642       0.187036125
                        -----------------------------------------
Magnitude (a.u.)       :      0.187263870
Magnitude (Debye)      :      0.475986930

VIBRATIONAL FREQUENCIES
-----------------------

Scaling factor for frequencies =  1.000000000  (already applied!)

     0:       0.00 cm**-1
     1:       0.00 cm**-1
     2:       0.00 cm**-1
     3:       0.00 cm**-1
     4:       0.00 cm**-1
     5:       0.00 cm**-1
     6:      31.99 cm**-1
     7:      48.64 cm**-1
     8:     185.36 cm**-1
     9:     224.44 cm**-1
    10:     225.56 cm**-1
    11:     251.17 cm**-1
    12:     258.29 cm**-1
    13:     291.64 cm**-1
    14:     342.61 cm**-1
    15:     362.91 cm**-1
    16:     373.36 cm**-1
    17:     469.40 cm**-1
    18:     488.33 cm**-1
    19:     676.47 cm**-1
    20:     841.75 cm**-1
    21:     857.06 cm**-1
    22:     908.46 cm**-1
    23:     943.60 cm**-1
    24:     948.88 cm**-1
    25:     962.84 cm**-1
    26:     965.95 cm**-1
    27:     994.47 cm**-1
    28:    1094.63 cm**-1
    29:    1103.92 cm**-1
    30:    1149.30 cm**-1
    31:    1158.50 cm**-1
    32:    1162.61 cm**-1
    33:    1209.00 cm**-1
    34:    1308.31 cm**-1
    35:    1311.95 cm**-1
    36:    1324.28 cm**-1
    37:    1379.03 cm**-1
    38:    1382.07 cm**-1
    39:    1408.67 cm**-1
    40:    1410.07 cm**-1
    41:    1417.45 cm**-1
    42:    1456.17 cm**-1
    43:    1457.53 cm**-1
    44:    1463.20 cm**-1
    45:    1464.13 cm**-1
    46:    1472.06 cm**-1
    47:    1476.18 cm**-1
    48:    1484.93 cm**-1
    49:    1491.80 cm**-1
    50:    1512.19 cm**-1
    51:    3052.12 cm**-1
    52:    3052.16 cm**-1
    53:    3055.39 cm**-1
    54:    3055.50 cm**-1
    55:    3086.25 cm**-1
    56:    3086.98 cm**-1
    57:    3151.02 cm**-1
    58:    3151.19 cm**-1
    59:    3163.95 cm**-1
    60:    3164.16 cm**-1
    61:    3166.00 cm**-1
    62:    3166.36 cm**-1
    63:    3167.83 cm**-1
    64:    3167.85 cm**-1
    65:    3451.05 cm**-1

IR SPECTRUM
-----------

 Mode   freq       eps      Int      T**2         TX        TY        TZ
       cm**-1   L/(mol*cm) km/mol    a.u.
----------------------------------------------------------------------------
  6:     31.99   0.000143    0.72  0.001390  ( 0.003848  0.037084  0.000411)
  7:     48.64   0.000001    0.00  0.000003  (-0.000180 -0.001581  0.000944)
  8:    185.36   0.000133    0.67  0.000224  (-0.000871  0.000078 -0.014935)
  9:    224.44   0.000005    0.03  0.000008  ( 0.000047 -0.002310 -0.001496)
 10:    225.56   0.000011    0.06  0.000015  ( 0.000445 -0.003742  0.001004)
 11:    251.17   0.000002    0.01  0.000003  (-0.000163 -0.000099 -0.001584)
 12:    258.29   0.000050    0.25  0.000060  (-0.005210 -0.005738  0.000274)
 13:    291.64   0.000055    0.28  0.000059  ( 0.000426 -0.000078  0.007677)
 14:    342.61   0.000086    0.43  0.000078  ( 0.000544  0.000103  0.008813)
 15:    362.91   0.002681   13.55  0.002305  ( 0.025834  0.040462 -0.000671)
 16:    373.36   0.000874    4.42  0.000730  (-0.015869 -0.021873  0.000418)
 17:    469.40   0.000353    1.78  0.000235  ( 0.013820  0.006594 -0.000515)
 18:    488.33   0.000104    0.53  0.000067  ( 0.000156 -0.000156  0.008155)
 19:    676.47   0.007886   39.85  0.003638  (-0.013596 -0.058762 -0.000052)
 20:    841.75   0.000881    4.45  0.000326  ( 0.001150 -0.000103  0.018031)
 21:    857.06   0.002660   13.44  0.000969  ( 0.030174  0.007478 -0.001514)
 22:    908.46   0.000187    0.95  0.000064  (-0.000437  0.000060 -0.008012)
 23:    943.60   0.002904   14.67  0.000960  (-0.026380 -0.016225  0.001073)
 24:    948.88   0.000101    0.51  0.000033  ( 0.000080 -0.000106  0.005763)
 25:    962.84   0.000003    0.02  0.000001  (-0.000222  0.000348 -0.000921)
 26:    965.95   0.001441    7.28  0.000466  (-0.019079  0.010026  0.001069)
 27:    994.47   0.014532   73.44  0.004560  (-0.067411  0.002295  0.003250)
 28:   1094.63   0.000404    2.04  0.000115  (-0.000526  0.000061 -0.010718)
 29:   1103.92   0.000095    0.48  0.000027  (-0.005170 -0.000010  0.000410)
 30:   1149.30   0.000661    3.34  0.000180  ( 0.007423 -0.011146 -0.000493)
 31:   1158.50   0.000966    4.88  0.000260  ( 0.005554 -0.015138 -0.000475)
 32:   1162.61   0.000110    0.56  0.000030  (-0.000382  0.000225 -0.005413)
 33:   1209.00   0.000124    0.63  0.000032  (-0.000568  0.000138 -0.005636)
 34:   1308.31   0.000650    3.29  0.000155  (-0.000441  0.000017  0.012445)
 35:   1311.95   0.002188   11.06  0.000520  ( 0.022686 -0.002310 -0.000622)
 36:   1324.28   0.000571    2.89  0.000135  ( 0.010321  0.005272 -0.000457)
 37:   1379.03   0.000010    0.05  0.000002  (-0.000184  0.000235 -0.001458)
 38:   1382.07   0.001932    9.76  0.000436  ( 0.010039 -0.018305 -0.000619)
 39:   1408.67   0.000056    0.28  0.000012  (-0.000096  0.000016 -0.003523)
 40:   1410.07   0.002276   11.50  0.000504  ( 0.020058 -0.009956 -0.001488)
 41:   1417.45   0.001703    8.61  0.000375  (-0.001543  0.000473 -0.019298)
 42:   1456.17   0.002791   14.10  0.000598  (-0.012390  0.021084 -0.000151)
 43:   1457.53   0.002844   14.37  0.000609  ( 0.000890  0.000748  0.024648)
 44:   1463.20   0.001794    9.06  0.000383  ( 0.014766  0.012811 -0.000612)
 45:   1464.13   0.000068    0.34  0.000014  ( 0.001268  0.000712 -0.003516)
 46:   1472.06   0.007786   39.35  0.001651  ( 0.038396  0.013133 -0.001964)
 47:   1476.18   0.003542   17.90  0.000749  (-0.001648 -0.000065 -0.027314)
 48:   1484.93   0.003167   16.00  0.000666  ( 0.015285 -0.020749 -0.001180)
 49:   1491.80   0.005921   29.92  0.001239  (-0.001708  0.000591 -0.035149)
 50:   1512.19   0.000519    2.62  0.000107  ( 0.001606  0.010220 -0.000033)
 51:   3052.12   0.000402    2.03  0.000041  (-0.000674 -0.000629 -0.006345)
 52:   3052.16   0.000098    0.49  0.000010  (-0.001023 -0.002066  0.002159)
 53:   3055.39   0.000261    1.32  0.000027  (-0.001787  0.004776  0.000823)
 54:   3055.50   0.000106    0.53  0.000011  ( 0.000553 -0.001150  0.003030)
 55:   3086.25   0.000160    0.81  0.000016  (-0.003678  0.000748 -0.001432)
 56:   3086.98   0.000258    1.30  0.000026  (-0.004804  0.000976  0.001440)
 57:   3151.02   0.000179    0.90  0.000018  (-0.000865 -0.000856 -0.004028)
 58:   3151.19   0.000209    1.05  0.000021  (-0.002815 -0.003389  0.001116)
 59:   3163.95   0.000247    1.25  0.000024  (-0.003496 -0.002267 -0.002654)
 60:   3164.16   0.002298   11.61  0.000227  ( 0.012505  0.008254 -0.001456)
 61:   3166.00   0.000465    2.35  0.000046  (-0.005570  0.003818 -0.000499)
 62:   3166.36   0.000288    1.46  0.000028  ( 0.004362 -0.002832 -0.001155)
 63:   3167.83   0.000425    2.15  0.000042  (-0.001470  0.001162 -0.006197)
 64:   3167.85   0.000344    1.74  0.000034  (-0.002721  0.004755  0.001978)
 65:   3451.05   0.010111   51.10  0.000914  ( 0.001403 -0.000427  0.030202)

--------------------------
THERMOCHEMISTRY AT 298.15K
--------------------------

Temperature         ...   298.15 K
Pressure            ...     1.00 atm
Total Mass          ...   101.19 AMU
Quasi RRHO          ...     True
Cut-Off Frequency   ...     1.00 cm^-1

Throughout the following assumptions are being made:
  (1) The electronic state is orbitally nondegenerate
      but the spin degeneracy is treated
  (2) There are no thermally accessible electronically excited states
  (3) Hindered rotations indicated by low frequency modes are not
      treated as such but are treated as vibrations and this may
      cause some error
  (4) All equations used are the standard statistical mechanics
      equations for an ideal gas
  (5) All vibrations are strictly harmonic

freq.      31.99  E(vib)   ...       0.55
freq.      48.64  E(vib)   ...       0.53
freq.     185.36  E(vib)   ...       0.37
freq.     224.44  E(vib)   ...       0.33
freq.     225.56  E(vib)   ...       0.33
freq.     251.17  E(vib)   ...       0.30
freq.     258.29  E(vib)   ...       0.30
freq.     291.64  E(vib)   ...       0.27
freq.     342.61  E(vib)   ...       0.23
freq.     362.91  E(vib)   ...       0.22
freq.     373.36  E(vib)   ...       0.21
freq.     469.40  E(vib)   ...       0.16
freq.     488.33  E(vib)   ...       0.15
freq.     676.47  E(vib)   ...       0.08
freq.     841.75  E(vib)   ...       0.04
freq.     857.06  E(vib)   ...       0.04
freq.     908.46  E(vib)   ...       0.03
freq.     943.60  E(vib)   ...       0.03
freq.     948.88  E(vib)   ...       0.03
freq.     962.84  E(vib)   ...       0.03
freq.     965.95  E(vib)   ...       0.03
freq.     994.47  E(vib)   ...       0.02
freq.    1094.63  E(vib)   ...       0.02
freq.    1103.92  E(vib)   ...       0.02
freq.    1149.30  E(vib)   ...       0.01
freq.    1158.50  E(vib)   ...       0.01
freq.    1162.61  E(vib)   ...       0.01
freq.    1209.00  E(vib)   ...       0.01
freq.    1308.31  E(vib)   ...       0.01
freq.    1311.95  E(vib)   ...       0.01
freq.    1324.28  E(vib)   ...       0.01
freq.    1379.03  E(vib)   ...       0.01
freq.    1382.07  E(vib)   ...       0.01
freq.    1408.67  E(vib)   ...       0.00
freq.    1410.07  E(vib)   ...       0.00
freq.    1417.45  E(vib)   ...       0.00
freq.    1456.17  E(vib)   ...       0.00
freq.    1457.53  E(vib)   ...       0.00
freq.    1463.20  E(vib)   ...       0.00
freq.    1464.13  E(vib)   ...       0.00
freq.    1472.06  E(vib)   ...       0.00
freq.    1476.18  E(vib)   ...       0.00
freq.    1484.93  E(vib)   ...       0.00
freq.    1491.80  E(vib)   ...       0.00
freq.    1512.19  E(vib)   ...       0.00
freq.    3052.12  E(vib)   ...       0.00
freq.    3052.16  E(vib)   ...       0.00
freq.    3055.39  E(vib)   ...       0.00
freq.    3055.50  E(vib)   ...       0.00
freq.    3086.25  E(vib)   ...       0.00
freq.    3086.98  E(vib)   ...       0.00
freq.    3151.02  E(vib)   ...       0.00
freq.    3151.19  E(vib)   ...       0.00
freq.    3163.95  E(vib)   ...       0.00
freq.    3164.16  E(vib)   ...       0.00
freq.    3166.00  E(vib)   ...       0.00
freq.    3166.36  E(vib)   ...       0.00
freq.    3167.83  E(vib)   ...       0.00
freq.    3167.85  E(vib)   ...       0.00
freq.    3451.05  E(vib)   ...       0.00

------------
INNER ENERGY
------------

The inner energy is: U= E(el) + E(ZPE) + E(vib) + E(rot) + E(trans)
    E(el)   - is the total energy from the electronic structure calculation
              = E(kin-el) + E(nuc-el) + E(el-el) + E(nuc-nuc)
    E(ZPE)  - the the zero temperature vibrational energy from the frequency calculation
    E(vib)  - the the finite temperature correction to E(ZPE) due to population
              of excited vibrational states
    E(rot)  - is the rotational thermal energy
    E(trans)- is the translational thermal energy

Summary of contributions to the inner energy U:
Electronic energy                ...   -291.55719939 Eh
Zero point energy                ...      0.20478222 Eh     128.50 kcal/mol
Thermal vibrational correction   ...      0.00702672 Eh       4.41 kcal/mol
Thermal rotational correction    ...      0.00141627 Eh       0.89 kcal/mol
Thermal translational correction ...      0.00141627 Eh       0.89 kcal/mol
-----------------------------------------------------------------------
Total thermal energy                   -291.34255792 Eh

Summary of corrections to the electronic energy:
(perhaps to be used in another calculation)
Total thermal correction                  0.00985926 Eh       6.19 kcal/mol
Non-thermal (ZPE) correction              0.20478222 Eh     128.50 kcal/mol
-----------------------------------------------------------------------
Total correction                          0.21464148 Eh     134.69 kcal/mol

--------
ENTHALPY
--------

The enthalpy is H = U + kB*T
                kB is Boltzmann's constant
Total thermal energy              ...   -291.34255792 Eh
Thermal Enthalpy correction       ...      0.00094421 Eh       0.59 kcal/mol
-----------------------------------------------------------------------
Total Enthalpy                    ...   -291.34161371 Eh

Note: Only C1 symmetry has been detected, increase convergence thresholds
      if your molecule has a higher symmetry. Symmetry factor of 1.0 is
      used for the rotational entropy correction.

Note: Rotational entropy computed according to Herzberg
Infrared and Raman Spectra, Chapter V,1, Van Nostrand Reinhold, 1945
Point Group:  C1, Symmetry Number:   1
Rotational constants in cm-1:     0.132886     0.050590     0.041714

Vibrational entropy computed according to the QRRHO of S. Grimme
Chem.Eur.J. 2012 18 9955 using a reference frequency of 100.0 cm-1

-------
ENTROPY
-------

The entropy contributions are T*S = T*(S(el)+S(vib)+S(rot)+S(trans))
     S(el)   - electronic entropy
     S(vib)  - vibrational entropy
     S(rot)  - rotational entropy
     S(trans)- translational entropy
The entropies will be listed as multiplied by the temperature to get
units of energy

Electronic entropy                ...      0.00065446 Eh      0.41 kcal/mol
Vibrational entropy               ...      0.01207052 Eh      7.57 kcal/mol
Rotational entropy                ...      0.01337214 Eh      8.39 kcal/mol
Translational entropy             ...      0.01888804 Eh     11.85 kcal/mol
-----------------------------------------------------------------------
Final entropy term                ...      0.04498515 Eh     28.23 kcal/mol

In case the symmetry of your molecule has not been determined correctly
or in case you have a reason to use a different symmetry number we print
out the resulting rotational entropy values for sn=1,12:

                             ****ORCA TERMINATED NORMALLY****
TOTAL RUN TIME: 0 days 0 hours 12 minutes 16 seconds 493 msec
