                         Program Version 6.0.0  -   RELEASE  -
|  1> !PBE0 aug-cc-pVTZ d3 TightSCF SlowConv RIJCOSX defgrid2
|  2>
|  3> %pal
|  4> nprocs 4
|  5> end
|  6>
|  7> %scf
|  8> MaxIter 1500
|  9> end
| 10>
| 11> %maxcore 3000
| 12>
| 13> !CPCM
| 14> %cpcm smd true
| 15> SMDsolvent "MeCN"
| 16> surfacetype gepol_ses
| 17> rsolv 2.19
| 18> end
| 19>
| 20> * xyz -1 2
| 21> C           0.48430727092939     -1.21516905318477      0.00018212657990
| 22> C           1.86893489645764     -1.23471525883061      0.00003208773951
| 23> C           2.62346115159641     -0.04459960429403     -0.00011347347240
| 24> C           1.91719196899144      1.18166812135145     -0.00009858652004
| 25> C           0.53848704808454      1.21700668050313      0.00004693720302
| 26> C          -0.25134605739008      0.01820867284039      0.00018913172850
| 27> C          -1.68142459571573      0.11401828572460      0.00025810009938
| 28> O          -2.30904371905977      1.20375222206345     -0.00021388182496
| 29> C          -2.48201195396780     -1.18785928153366     -0.00008271887877
| 30> H          -3.55195535151616     -0.92055571828390     -0.00040503473791
| 31> H          -2.27639676371142     -1.81970454990542      0.88827366491426
| 32> H          -2.27584482297506     -1.81958543160251     -0.88839650427297
| 33> H          -0.00899519579743      2.16434489361400      0.00006122664782
| 34> H           2.47845175619435      2.12626372992034     -0.00020253099996
| 35> H           3.71827539321824     -0.06872896483531     -0.00023193512716
| 36> H           2.38810382970115     -2.20294221124226      0.00002680569261
| 37> H          -0.05769635503973     -2.16717953230489      0.00028068522919
| 38> *
| 39>
| 40>                          ****END OF INPUT****

CARTESIAN COORDINATES (ANGSTROEM)
---------------------------------
  C      0.484307   -1.215169    0.000182
  C      1.868935   -1.234715    0.000032
  C      2.623461   -0.044600   -0.000113
  C      1.917192    1.181668   -0.000099
  C      0.538487    1.217007    0.000047
  C     -0.251346    0.018209    0.000189
  C     -1.681425    0.114018    0.000258
  O     -2.309044    1.203752   -0.000214
  C     -2.482012   -1.187859   -0.000083
  H     -3.551955   -0.920556   -0.000405
  H     -2.276397   -1.819705    0.888274
  H     -2.275845   -1.819585   -0.888397
  H     -0.008995    2.164345    0.000061
  H      2.478452    2.126264   -0.000203
  H      3.718275   -0.068729   -0.000232
  H      2.388104   -2.202942    0.000027
  H     -0.057696   -2.167180    0.000281

 Total Charge           Charge          ....   -1
 Multiplicity           Mult            ....    2
 Number of Electrons    NEL             ....   65
 Basis Dimension        Dim             ....  598

ORBITAL ENERGIES
----------------
                 SPIN UP ORBITALS
  NO   OCC          E(Eh)            E(eV)
   0   1.0000     -19.129952      -520.5524
   1   1.0000     -10.241349      -278.6813
   2   1.0000     -10.207872      -277.7703
   3   1.0000     -10.207794      -277.7682
   4   1.0000     -10.203809      -277.6598
   5   1.0000     -10.198854      -277.5249
   6   1.0000     -10.198692      -277.5205
   7   1.0000     -10.196053      -277.4487
   8   1.0000     -10.194393      -277.4035
   9   1.0000      -0.995056       -27.0769
  10   1.0000      -0.850602       -23.1461
  11   1.0000      -0.759891       -20.6777
  12   1.0000      -0.744036       -20.2463
  13   1.0000      -0.709640       -19.3103
  14   1.0000      -0.622664       -16.9435
  15   1.0000      -0.588133       -16.0039
  16   1.0000      -0.535592       -14.5742
  17   1.0000      -0.491319       -13.3695
  18   1.0000      -0.443721       -12.0743
  19   1.0000      -0.436793       -11.8857
  20   1.0000      -0.422860       -11.5066
  21   1.0000      -0.419528       -11.4159
  22   1.0000      -0.404926       -11.0186
  23   1.0000      -0.380157       -10.3446
  24   1.0000      -0.366020        -9.9599
  25   1.0000      -0.365424        -9.9437
  26   1.0000      -0.340255        -9.2588
  27   1.0000      -0.332185        -9.0392
  28   1.0000      -0.313955        -8.5431
  29   1.0000      -0.256191        -6.9713
  30   1.0000      -0.249338        -6.7848
  31   1.0000      -0.221349        -6.0232
  32   1.0000      -0.103822        -2.8251
  33   0.0000       0.002513         0.0684
  34   0.0000       0.010207         0.2778
  35   0.0000       0.015502         0.4218
  36   0.0000       0.019469         0.5298
  37   0.0000       0.029601         0.8055

                 SPIN DOWN ORBITALS
  NO   OCC          E(Eh)            E(eV)
   0   1.0000     -19.124059      -520.3921
   1   1.0000     -10.237340      -278.5722
   2   1.0000     -10.209078      -277.8031
   3   1.0000     -10.209057      -277.8026
   4   1.0000     -10.201433      -277.5951
   5   1.0000     -10.196263      -277.4544
   6   1.0000     -10.194779      -277.4141
   7   1.0000     -10.194763      -277.4136
   8   1.0000     -10.194422      -277.4043
   9   1.0000      -0.983603       -26.7652
  10   1.0000      -0.846309       -23.0292
  11   1.0000      -0.752268       -20.4702
  12   1.0000      -0.740241       -20.1430
  13   1.0000      -0.706650       -19.2289
  14   1.0000      -0.612175       -16.6581
  15   1.0000      -0.586784       -15.9672
  16   1.0000      -0.531567       -14.4647
  17   1.0000      -0.486398       -13.2356
  18   1.0000      -0.441203       -12.0057
  19   1.0000      -0.432697       -11.7743
  20   1.0000      -0.421872       -11.4797
  21   1.0000      -0.407231       -11.0813
  22   1.0000      -0.404107       -10.9963
  23   1.0000      -0.375778       -10.2254
  24   1.0000      -0.364174        -9.9097
  25   1.0000      -0.355567        -9.6755
  26   1.0000      -0.337657        -9.1881
  27   1.0000      -0.312701        -8.5090
  28   1.0000      -0.305938        -8.3250
  29   1.0000      -0.245312        -6.6753
  30   1.0000      -0.224083        -6.0976
  31   1.0000      -0.216253        -5.8845
  32   0.0000      -0.018582        -0.5056
  33   0.0000       0.004680         0.1274
  34   0.0000       0.014407         0.3920
  35   0.0000       0.017111         0.4656
  36   0.0000       0.021496         0.5849

MULLIKEN ATOMIC CHARGES AND SPIN POPULATIONS
--------------------------------------------
   0 C :   -0.843252    0.202221
   1 C :   -0.804655   -0.079811
   2 C :   -0.465836    0.302201
   3 C :   -0.663428   -0.071218
   4 C :   -1.180027    0.197723
   5 C :    1.557543    0.086353
   6 C :    0.646907    0.201141
   7 O :   -1.036789    0.224963
   8 C :   -0.681546   -0.015680
   9 H :    0.156639   -0.000202
  10 H :    0.268317    0.010136
  11 H :    0.269116    0.010153
  12 H :    0.086107   -0.020193
  13 H :    0.575345   -0.010840
  14 H :    0.503171   -0.012657
  15 H :    0.583454   -0.004811
  16 H :    0.028933   -0.019478
Sum of atomic charges         :   -1.0000000

LOEWDIN ATOMIC CHARGES AND SPIN POPULATIONS
-------------------------------------------
   0 C :    0.139473    0.090120
   1 C :    0.117465    0.032411
   2 C :    0.127785    0.135384
   3 C :    0.115658    0.031123
   4 C :    0.125359    0.088552
   5 C :   -0.216589    0.122700
   6 C :   -0.679941    0.181054
   7 O :    0.337898    0.200796
   8 C :    0.490919    0.034145
   9 H :   -0.202199   -0.000739
  10 H :   -0.176628    0.008599
  11 H :   -0.176662    0.008606
  12 H :   -0.215673    0.019602
  13 H :   -0.188790   -0.004396
  14 H :   -0.206166    0.036660
  15 H :   -0.187185   -0.003994
  16 H :   -0.204721    0.019377

  Mayer bond orders larger than 0.100000
B(  0-C ,  1-C ) :   1.1951 B(  0-C ,  2-C ) :  -0.1364 B(  0-C ,  4-C ) :  -0.3558
B(  0-C ,  5-C ) :   0.2683 B(  0-C ,  6-C ) :   0.2137 B(  0-C , 12-H ) :   0.1568
B(  0-C , 16-H ) :   1.5450 B(  1-C ,  2-C ) :   1.1857 B(  1-C ,  3-C ) :   0.1409
B(  1-C ,  5-C ) :   0.1576 B(  1-C , 12-H ) :  -0.1117 B(  1-C , 15-H ) :   0.4153
B(  2-C ,  3-C ) :   1.1629 B(  2-C ,  6-C ) :   0.1429 B(  2-C , 14-H ) :   0.5951
B(  3-C ,  4-C ) :   1.4323 B(  3-C , 13-H ) :   0.4518 B(  3-C , 16-H ) :  -0.1102
B(  4-C ,  5-C ) :   0.1863 B(  4-C ,  6-C ) :   0.2024 B(  4-C ,  7-O ) :   0.1003
B(  4-C , 12-H ) :   1.2722 B(  4-C , 13-H ) :  -0.1432 B(  4-C , 14-H ) :   0.1251
B(  4-C , 16-H ) :   0.1383 B(  5-C ,  6-C ) :   0.6063 B(  5-C ,  7-O ) :   0.1265
B(  5-C , 16-H ) :  -0.1377 B(  6-C ,  7-O ) :   0.5899 B(  6-C ,  8-C ) :   0.9311
B(  6-C , 12-H ) :  -0.1343 B(  6-C , 13-H ) :   0.1485 B(  6-C , 15-H ) :   0.1081
B(  6-C , 16-H ) :  -0.1373 B(  7-O , 12-H ) :   0.1652 B(  8-C ,  9-H ) :   0.9843
B(  8-C , 10-H ) :   0.9276 B(  8-C , 11-H ) :   0.9270 B( 12-H , 16-H ) :   0.1527

Dispersion correction           -0.015091707
FINAL SINGLE POINT ENERGY      -384.684629345750

DIPOLE MOMENT
-------------

Method             : SCF
Type of density    : Electron Density
Multiplicity       :   2
Irrep              :   0
Energy             :  -384.6695376389590706 Eh
Relativity type    :
Basis              : AO
                                X                 Y                 Z
Electronic contribution:      0.988190834       2.979034030       0.000799986
Nuclear contribution   :      0.371773726      -4.441970232      -0.000619392
                        -----------------------------------------
Total Dipole Moment    :      1.359964560      -1.462936202       0.000180594
                        -----------------------------------------
Magnitude (a.u.)       :      1.997419828
Magnitude (Debye)      :      5.077037723

Rotational constants in cm-1:             0.121326             0.040165             0.030348
Rotational constants in MHz :          3637.264281          1204.105692           909.812230

                             ****ORCA TERMINATED NORMALLY****
TOTAL RUN TIME: 0 days 0 hours 6 minutes 20 seconds 41 msec
