                         Program Version 6.0.0  -   RELEASE  -
|  1> !PBE0 def2-SV(p) Opt Freq d3 TightSCF SlowConv RIJCOSX defgrid2
|  2>
|  3> %pal
|  4> nprocs 4
|  5> end
|  6>
|  7> %scf
|  8> MaxIter 1500
|  9> end
| 10>
| 11> %maxcore 3000
| 12>
| 13>
| 14>
| 15> * xyz -1 2
| 16> C     0.2404869   -1.3278763    0.0001679
| 17> C     1.5959524   -1.2243178    0.0002237
| 18> C     2.2261763    0.0500330   -0.0000437
| 19> C     1.3991995    1.2057250   -0.0004066
| 20> C     0.0432543    1.0974376   -0.0004156
| 21> C    -0.5951387   -0.1747765   -0.0000988
| 22> C    -2.0069107   -0.3271269    0.0000338
| 23> O    -2.6369949   -1.4007974    0.0001347
| 24> O    -2.7010407    0.8788643    0.0001626
| 25> C    -4.1094336    0.7798295    0.0004811
| 26> H    -4.4616198    0.2448071   -0.8874501
| 27> H    -4.4819983    1.8022151    0.0024041
| 28> H    -4.4609707    0.2416785    0.8867681
| 29> H    -0.5767165    1.9822023   -0.0006896
| 30> H     1.8751865    2.1789438   -0.0006689
| 31> C     3.6030920    0.1624892    0.0000681
| 32> N     4.7630412    0.2584513    0.0001665
| 33> H     2.2193931   -2.1103325    0.0004839
| 34> H    -0.2437073   -2.2958142    0.0003781
| 35> *
| 36>
| 37>                          ****END OF INPUT****
 Total Charge           Charge          ....   -1
 Multiplicity           Mult            ....    2
 Number of Electrons    NEL             ....   85
Dispersion correction           -0.018000825
FINAL SINGLE POINT ENERGY      -551.366677014746
Dispersion correction             ... done (  0.1 sec)
Dispersion correction           -0.017916610
FINAL SINGLE POINT ENERGY      -551.369592675395
Dispersion correction             ... done (  0.1 sec)
Dispersion correction           -0.017895267
FINAL SINGLE POINT ENERGY      -551.369760854194
Dispersion correction             ... done (  0.1 sec)
FINAL SINGLE POINT ENERGY      -551.369794794605
Dispersion correction             ... done (  0.1 sec)
Dispersion correction           -0.017888909
FINAL SINGLE POINT ENERGY      -551.369800924548
Dispersion correction             ... done (  0.1 sec)
Dispersion correction           -0.017889635
FINAL SINGLE POINT ENERGY      -551.369800948380
Dispersion correction             ... done (  0.1 sec)
                    ***********************HURRAY********************

CARTESIAN COORDINATES (ANGSTROEM)
---------------------------------
  C      0.227943   -1.322656    0.000101
  C      1.595438   -1.225199    0.000059
  C      2.249389    0.050513   -0.000061
  C      1.413238    1.213443   -0.000131
  C      0.044760    1.110785   -0.000091
  C     -0.609631   -0.162440    0.000019
  C     -2.032347   -0.326426    0.000048
  O     -2.662493   -1.380703    0.000287
  O     -2.714314    0.878340    0.000173
  C     -4.104096    0.764104    0.000376
  H     -4.476224    0.222395   -0.889935
  H     -4.504725    1.792279    0.001105
  H     -4.475856    0.221197    0.890095
  H     -0.569695    2.014809   -0.000157
  H      1.886750    2.200807   -0.000223
  C      3.652555    0.156856   -0.000113
  N      4.821727    0.246055   -0.000153
  H      2.210018   -2.131426    0.000113
  H     -0.261186   -2.301098    0.000188

 Multiplicity           Mult            ....    2
 Number of Electrons    NEL             ....   85
 Basis Dimension        Dim             ....  182

ORBITAL ENERGIES
----------------
                 SPIN UP ORBITALS
  NO   OCC          E(Eh)            E(eV)
   0   1.0000     -19.101431      -519.7764
   1   1.0000     -19.028029      -517.7790
   2   1.0000     -14.224561      -387.0700
   3   1.0000     -10.186379      -277.1855
   4   1.0000     -10.158514      -276.4272
   5   1.0000     -10.113374      -275.1989
   6   1.0000     -10.102392      -274.9001
   7   1.0000     -10.093464      -274.6571
   8   1.0000     -10.092546      -274.6321
   9   1.0000     -10.087167      -274.4858
  10   1.0000     -10.084899      -274.4240
  11   1.0000     -10.079810      -274.2856
  12   1.0000      -0.967197       -26.3188
  13   1.0000      -0.866537       -23.5797
  14   1.0000      -0.759959       -20.6795
  15   1.0000      -0.722747       -19.6670
  16   1.0000      -0.648280       -17.6406
  17   1.0000      -0.617942       -16.8151
  18   1.0000      -0.599265       -16.3068
  19   1.0000      -0.526844       -14.3362
  20   1.0000      -0.470418       -12.8007
  21   1.0000      -0.444645       -12.0994
  22   1.0000      -0.412451       -11.2234
  23   1.0000      -0.393313       -10.7026
  24   1.0000      -0.362419        -9.8619
  25   1.0000      -0.348557        -9.4847
  26   1.0000      -0.318435        -8.6651
  27   1.0000      -0.306867        -8.3503
  28   1.0000      -0.296667        -8.0727
  29   1.0000      -0.290258        -7.8983
  30   1.0000      -0.277411        -7.5487
  31   1.0000      -0.252815        -6.8795
  32   1.0000      -0.252738        -6.8774
  33   1.0000      -0.230797        -6.2803
  34   1.0000      -0.219370        -5.9694
  35   1.0000      -0.210214        -5.7202
  36   1.0000      -0.201703        -5.4886
  37   1.0000      -0.181304        -4.9335
  38   1.0000      -0.173455        -4.7199
  39   1.0000      -0.134157        -3.6506
  40   1.0000      -0.132016        -3.5923
  41   1.0000      -0.119287        -3.2460
  42   1.0000       0.020000         0.5442
  43   0.0000       0.147494         4.0135
  44   0.0000       0.169951         4.6246
  45   0.0000       0.193870         5.2755
  46   0.0000       0.194898         5.3034
  47   0.0000       0.212697         5.7878

                 SPIN DOWN ORBITALS
  NO   OCC          E(Eh)            E(eV)
   0   1.0000     -19.100707      -519.7567
   1   1.0000     -19.024217      -517.6753
   2   1.0000     -14.220792      -386.9674
   3   1.0000     -10.184781      -277.1420
   4   1.0000     -10.158568      -276.4287
   5   1.0000     -10.114324      -275.2247
   6   1.0000     -10.097917      -274.7783
   7   1.0000     -10.093321      -274.6532
   8   1.0000     -10.092340      -274.6265
   9   1.0000     -10.086122      -274.4573
  10   1.0000     -10.083883      -274.3964
  11   1.0000     -10.076491      -274.1953
  12   1.0000      -0.964644       -26.2493
  13   1.0000      -0.860745       -23.4221
  14   1.0000      -0.754472       -20.5302
  15   1.0000      -0.717532       -19.5250
  16   1.0000      -0.640736       -17.4353
  17   1.0000      -0.613700       -16.6996
  18   1.0000      -0.596114       -16.2211
  19   1.0000      -0.518145       -14.0994
  20   1.0000      -0.469354       -12.7718
  21   1.0000      -0.442212       -12.0332
  22   1.0000      -0.410295       -11.1647
  23   1.0000      -0.390399       -10.6233
  24   1.0000      -0.358640        -9.7591
  25   1.0000      -0.346106        -9.4180
  26   1.0000      -0.316288        -8.6066
  27   1.0000      -0.303601        -8.2614
  28   1.0000      -0.295115        -8.0305
  29   1.0000      -0.289467        -7.8768
  30   1.0000      -0.262941        -7.1550
  31   1.0000      -0.250337        -6.8120
  32   1.0000      -0.237475        -6.4620
  33   1.0000      -0.228935        -6.2297
  34   1.0000      -0.213972        -5.8225
  35   1.0000      -0.208705        -5.6791
  36   1.0000      -0.188034        -5.1167
  37   1.0000      -0.179465        -4.8835
  38   1.0000      -0.161011        -4.3813
  39   1.0000      -0.130473        -3.5503
  40   1.0000      -0.119355        -3.2478
  41   1.0000      -0.092607        -2.5200
  42   0.0000       0.096267         2.6196
  43   0.0000       0.151137         4.1127
  44   0.0000       0.194031         5.2799
  45   0.0000       0.194362         5.2889
  46   0.0000       0.196905         5.3581

MULLIKEN ATOMIC CHARGES AND SPIN POPULATIONS
--------------------------------------------
   0 C :   -0.130334    0.072089
   1 C :   -0.093617    0.007172
   2 C :   -0.139957    0.299498
   3 C :   -0.093473    0.003259
   4 C :   -0.124247    0.072956
   5 C :   -0.088496    0.221630
   6 C :    0.231983    0.083592
   7 O :   -0.347371    0.124906
   8 O :   -0.361913    0.015812
   9 C :   -0.114598   -0.002795
  10 H :    0.099986    0.001514
  11 H :    0.096053   -0.000119
  12 H :    0.100044    0.001504
  13 H :    0.056569   -0.005333
  14 H :    0.044465   -0.001875
  15 C :   -0.106895   -0.065603
  16 N :   -0.134873    0.179378
  17 H :    0.045901   -0.002093
  18 H :    0.060774   -0.005492
Sum of atomic charges         :   -1.0000000

LOEWDIN ATOMIC CHARGES AND SPIN POPULATIONS
-------------------------------------------
   0 C :   -0.134351    0.070651
   1 C :   -0.139992    0.027071
   2 C :   -0.170477    0.228961
   3 C :   -0.139953    0.023886
   4 C :   -0.145155    0.070114
   5 C :   -0.158048    0.187580
   6 C :    0.048170    0.099159
   7 O :   -0.281870    0.124798
   8 O :   -0.159326    0.020627
   9 C :   -0.210697   -0.001305
  10 H :    0.098839    0.001166
  11 H :    0.096839   -0.000101
  12 H :    0.098869    0.001160
  13 H :    0.115009   -0.002594
  14 H :    0.111705   -0.000962
  15 C :   -0.055338   -0.009225
  16 N :   -0.205559    0.162756
  17 H :    0.112279   -0.001071
  18 H :    0.119056   -0.002672

  Mayer bond orders larger than 0.100000
B(  0-C ,  1-C ) :   1.5303 B(  0-C ,  5-C ) :   1.2329 B(  0-C , 18-H ) :   0.9564
B(  1-C ,  2-C ) :   1.2136 B(  1-C , 17-H ) :   0.9640 B(  2-C ,  3-C ) :   1.2226
B(  2-C , 15-C ) :   1.1971 B(  3-C ,  4-C ) :   1.5294 B(  3-C , 14-H ) :   0.9621
B(  4-C ,  5-C ) :   1.2119 B(  4-C , 13-H ) :   0.9551 B(  5-C ,  6-C ) :   1.1888
B(  6-C ,  7-O ) :   1.9127 B(  6-C ,  8-O ) :   1.0619 B(  8-O ,  9-C ) :   0.9830
B(  9-C , 10-H ) :   0.9511 B(  9-C , 11-H ) :   0.9610 B(  9-C , 12-H ) :   0.9510
B( 15-C , 16-N ) :   2.8784

Dispersion correction           -0.017889812
FINAL SINGLE POINT ENERGY      -551.369802106356

DIPOLE MOMENT
-------------

Method             : SCF
Type of density    : Electron Density
Multiplicity       :   2
Irrep              :   0
Energy             :  -551.3519122944628634 Eh
Relativity type    :
Basis              : AO
                                X                 Y                 Z
Electronic contribution:      7.388866690      -1.271937481      -0.000649677
Nuclear contribution   :     -9.634977547       1.865335493       0.000753927
                        -----------------------------------------
Total Dipole Moment    :     -2.246110857       0.593398012       0.000104251
                        -----------------------------------------
Magnitude (a.u.)       :      2.323173518
Magnitude (Debye)      :      5.905037802

VIBRATIONAL FREQUENCIES
-----------------------

Scaling factor for frequencies =  1.000000000  (already applied!)

     0:       0.00 cm**-1
     1:       0.00 cm**-1
     2:       0.00 cm**-1
     3:       0.00 cm**-1
     4:       0.00 cm**-1
     5:       0.00 cm**-1
     6:      59.94 cm**-1
     7:     103.06 cm**-1
     8:     108.76 cm**-1
     9:     115.07 cm**-1
    10:     151.64 cm**-1
    11:     191.15 cm**-1
    12:     215.26 cm**-1
    13:     306.70 cm**-1
    14:     338.14 cm**-1
    15:     367.50 cm**-1
    16:     448.16 cm**-1
    17:     484.03 cm**-1
    18:     534.73 cm**-1
    19:     576.33 cm**-1
    20:     588.36 cm**-1
    21:     652.54 cm**-1
    22:     672.87 cm**-1
    23:     743.16 cm**-1
    24:     749.72 cm**-1
    25:     794.77 cm**-1
    26:     805.60 cm**-1
    27:     816.58 cm**-1
    28:     967.97 cm**-1
    29:     978.68 cm**-1
    30:     993.57 cm**-1
    31:    1026.04 cm**-1
    32:    1120.57 cm**-1
    33:    1171.80 cm**-1
    34:    1187.44 cm**-1
    35:    1190.38 cm**-1
    36:    1214.63 cm**-1
    37:    1264.30 cm**-1
    38:    1287.94 cm**-1
    39:    1349.08 cm**-1
    40:    1365.46 cm**-1
    41:    1461.90 cm**-1
    42:    1465.63 cm**-1
    43:    1483.45 cm**-1
    44:    1497.66 cm**-1
    45:    1519.10 cm**-1
    46:    1541.08 cm**-1
    47:    1704.14 cm**-1
    48:    1770.42 cm**-1
    49:    2272.33 cm**-1
    50:    3011.93 cm**-1
    51:    3084.65 cm**-1
    52:    3124.20 cm**-1
    53:    3178.52 cm**-1
    54:    3179.36 cm**-1
    55:    3208.25 cm**-1
    56:    3214.30 cm**-1

IR SPECTRUM
-----------

 Mode   freq       eps      Int      T**2         TX        TY        TZ
       cm**-1   L/(mol*cm) km/mol    a.u.
----------------------------------------------------------------------------
  6:     59.94   0.000072    0.36  0.000373  ( 0.000004 -0.000001  0.019300)
  7:    103.06   0.000186    0.94  0.000563  (-0.000031  0.000016 -0.023720)
  8:    108.76   0.001138    5.75  0.003266  ( 0.000044 -0.000057 -0.057153)
  9:    115.07   0.000411    2.08  0.001115  ( 0.019584 -0.027047  0.000100)
 10:    151.64   0.000313    1.58  0.000643  (-0.000011  0.000053  0.025367)
 11:    191.15   0.001264    6.39  0.002064  ( 0.006709  0.044932 -0.000013)
 12:    215.26   0.000011    0.05  0.000016  (-0.000008  0.000010  0.003960)
 13:    306.70   0.000060    0.30  0.000061  (-0.004464  0.006393  0.000003)
 14:    338.14   0.002647   13.38  0.002443  ( 0.038557 -0.030929  0.000005)
 15:    367.50   0.000262    1.32  0.000222  (-0.000014 -0.000001 -0.014905)
 16:    448.16   0.000002    0.01  0.000001  (-0.000004  0.000001 -0.001073)
 17:    484.03   0.000452    2.28  0.000291  ( 0.015203  0.007760 -0.000003)
 18:    534.73   0.003088   15.61  0.001802  (-0.000013 -0.000005 -0.042452)
 19:    576.33   0.001612    8.15  0.000873  ( 0.029520 -0.001165  0.000002)
 20:    588.36   0.000576    2.91  0.000306  ( 0.016412  0.006021  0.000001)
 21:    652.54   0.000281    1.42  0.000134  (-0.007135  0.009125 -0.000000)
 22:    672.87   0.003342   16.89  0.001550  ( 0.000041 -0.000003 -0.039367)
 23:    743.16   0.004248   21.47  0.001784  (-0.000092  0.000011  0.042235)
 24:    749.72   0.005623   28.42  0.002341  ( 0.048094 -0.005256  0.000055)
 25:    794.77   0.000961    4.86  0.000377  ( 0.000015  0.000007  0.019424)
 26:    805.60   0.002316   11.70  0.000897  ( 0.000018  0.000002  0.029953)
 27:    816.58   0.006799   34.36  0.002598  (-0.047695  0.017985  0.000006)
 28:    967.97   0.000000    0.00  0.000000  ( 0.000006  0.000006  0.000084)
 29:    978.68   0.000006    0.03  0.000002  ( 0.000004  0.000001 -0.001347)
 30:    993.57   0.015539   78.53  0.004881  (-0.069720  0.004430  0.000002)
 31:   1026.04   0.015772   79.71  0.004797  (-0.058353  0.037310  0.000004)
 32:   1120.57   0.001128    5.70  0.000314  (-0.006234 -0.016590  0.000002)
 33:   1171.80   0.014490   73.23  0.003859  ( 0.062087 -0.001978 -0.000001)
 34:   1187.44   0.000066    0.33  0.000017  (-0.000264  0.000065  0.004161)
 35:   1190.38   0.014709   74.33  0.003856  (-0.060402  0.014413 -0.000011)
 36:   1214.63   0.070427  355.91  0.018094  (-0.131077  0.030216  0.000003)
 37:   1264.30   0.025826  130.51  0.006374  (-0.079611  0.006052  0.000002)
 38:   1287.94   0.000239    1.21  0.000058  (-0.007166  0.002551  0.000000)
 39:   1349.08   0.021143  106.85  0.004891  (-0.066856  0.020515  0.000001)
 40:   1365.46   0.049720  251.26  0.011363  ( 0.096214 -0.045889  0.000000)
 41:   1461.90   0.000543    2.74  0.000116  ( 0.000281 -0.000103 -0.010759)
 42:   1465.63   0.002209   11.16  0.000470  (-0.019242  0.010007 -0.000097)
 43:   1483.45   0.006870   34.72  0.001445  (-0.037782  0.004219 -0.000000)
 44:   1497.66   0.011520   58.22  0.002400  (-0.047392  0.012424  0.000002)
 45:   1519.10   0.031891  161.17  0.006551  ( 0.080381 -0.009497 -0.000003)
 46:   1541.08   0.000698    3.53  0.000141  (-0.006819 -0.009739  0.000002)
 47:   1704.14   0.035122  177.49  0.006432  ( 0.072223  0.034864 -0.000002)
 48:   1770.42   0.170429  861.28  0.030041  ( 0.158315  0.070548 -0.000011)
 49:   2272.33   0.147708  746.46  0.020285  (-0.142144 -0.008956  0.000004)
 50:   3011.93   0.028837  145.73  0.002988  ( 0.054511 -0.004051  0.000041)
 51:   3084.65   0.009190   46.44  0.000930  ( 0.000030 -0.000027 -0.030492)
 52:   3124.20   0.008325   42.07  0.000832  (-0.010598  0.026819 -0.000006)
 53:   3178.52   0.003797   19.19  0.000373  (-0.001888 -0.019215  0.000001)
 54:   3179.36   0.001042    5.26  0.000102  (-0.009485  0.003505 -0.000000)
 55:   3208.25   0.004820   24.36  0.000469  ( 0.004524 -0.021175  0.000001)
 56:   3214.30   0.002457   12.42  0.000239  ( 0.001059 -0.015408  0.000001)

--------------------------
THERMOCHEMISTRY AT 298.15K
--------------------------

Temperature         ...   298.15 K
Pressure            ...     1.00 atm
Total Mass          ...   161.16 AMU
Quasi RRHO          ...     True
Cut-Off Frequency   ...     1.00 cm^-1

Throughout the following assumptions are being made:
  (1) The electronic state is orbitally nondegenerate
      but the spin degeneracy is treated
  (2) There are no thermally accessible electronically excited states
  (3) Hindered rotations indicated by low frequency modes are not
      treated as such but are treated as vibrations and this may
      cause some error
  (4) All equations used are the standard statistical mechanics
      equations for an ideal gas
  (5) All vibrations are strictly harmonic

freq.      59.94  E(vib)   ...       0.51
freq.     103.06  E(vib)   ...       0.46
freq.     108.76  E(vib)   ...       0.45
freq.     115.07  E(vib)   ...       0.44
freq.     151.64  E(vib)   ...       0.40
freq.     191.15  E(vib)   ...       0.36
freq.     215.26  E(vib)   ...       0.34
freq.     306.70  E(vib)   ...       0.26
freq.     338.14  E(vib)   ...       0.24
freq.     367.50  E(vib)   ...       0.21
freq.     448.16  E(vib)   ...       0.17
freq.     484.03  E(vib)   ...       0.15
freq.     534.73  E(vib)   ...       0.13
freq.     576.33  E(vib)   ...       0.11
freq.     588.36  E(vib)   ...       0.10
freq.     652.54  E(vib)   ...       0.08
freq.     672.87  E(vib)   ...       0.08
freq.     743.16  E(vib)   ...       0.06
freq.     749.72  E(vib)   ...       0.06
freq.     794.77  E(vib)   ...       0.05
freq.     805.60  E(vib)   ...       0.05
freq.     816.58  E(vib)   ...       0.05
freq.     967.97  E(vib)   ...       0.03
freq.     978.68  E(vib)   ...       0.03
freq.     993.57  E(vib)   ...       0.02
freq.    1026.04  E(vib)   ...       0.02
freq.    1120.57  E(vib)   ...       0.01
freq.    1171.80  E(vib)   ...       0.01
freq.    1187.44  E(vib)   ...       0.01
freq.    1190.38  E(vib)   ...       0.01
freq.    1214.63  E(vib)   ...       0.01
freq.    1264.30  E(vib)   ...       0.01
freq.    1287.94  E(vib)   ...       0.01
freq.    1349.08  E(vib)   ...       0.01
freq.    1365.46  E(vib)   ...       0.01
freq.    1461.90  E(vib)   ...       0.00
freq.    1465.63  E(vib)   ...       0.00
freq.    1483.45  E(vib)   ...       0.00
freq.    1497.66  E(vib)   ...       0.00
freq.    1519.10  E(vib)   ...       0.00
freq.    1541.08  E(vib)   ...       0.00
freq.    1704.14  E(vib)   ...       0.00
freq.    1770.42  E(vib)   ...       0.00
freq.    2272.33  E(vib)   ...       0.00
freq.    3011.93  E(vib)   ...       0.00
freq.    3084.65  E(vib)   ...       0.00
freq.    3124.20  E(vib)   ...       0.00
freq.    3178.52  E(vib)   ...       0.00
freq.    3179.36  E(vib)   ...       0.00
freq.    3208.25  E(vib)   ...       0.00
freq.    3214.30  E(vib)   ...       0.00

------------
INNER ENERGY
------------

The inner energy is: U= E(el) + E(ZPE) + E(vib) + E(rot) + E(trans)
    E(el)   - is the total energy from the electronic structure calculation
              = E(kin-el) + E(nuc-el) + E(el-el) + E(nuc-nuc)
    E(ZPE)  - the the zero temperature vibrational energy from the frequency calculation
    E(vib)  - the the finite temperature correction to E(ZPE) due to population
              of excited vibrational states
    E(rot)  - is the rotational thermal energy
    E(trans)- is the translational thermal energy

Summary of contributions to the inner energy U:
Electronic energy                ...   -551.36980211 Eh
Zero point energy                ...      0.14046926 Eh      88.15 kcal/mol
Thermal vibrational correction   ...      0.00789032 Eh       4.95 kcal/mol
Thermal rotational correction    ...      0.00141627 Eh       0.89 kcal/mol
Thermal translational correction ...      0.00141627 Eh       0.89 kcal/mol
-----------------------------------------------------------------------
Total thermal energy                   -551.21860999 Eh

Summary of corrections to the electronic energy:
(perhaps to be used in another calculation)
Total thermal correction                  0.01072286 Eh       6.73 kcal/mol
Non-thermal (ZPE) correction              0.14046926 Eh      88.15 kcal/mol
-----------------------------------------------------------------------
Total correction                          0.15119212 Eh      94.87 kcal/mol

--------
ENTHALPY
--------

The enthalpy is H = U + kB*T
                kB is Boltzmann's constant
Total thermal energy              ...   -551.21860999 Eh
Thermal Enthalpy correction       ...      0.00094421 Eh       0.59 kcal/mol
-----------------------------------------------------------------------
Total Enthalpy                    ...   -551.21766578 Eh

Note: Only C1 symmetry has been detected, increase convergence thresholds
      if your molecule has a higher symmetry. Symmetry factor of 1.0 is
      used for the rotational entropy correction.

Note: Rotational entropy computed according to Herzberg
Infrared and Raman Spectra, Chapter V,1, Van Nostrand Reinhold, 1945
Point Group:  C1, Symmetry Number:   1
Rotational constants in cm-1:     0.113906     0.014521     0.012911

Vibrational entropy computed according to the QRRHO of S. Grimme
Chem.Eur.J. 2012 18 9955 using a reference frequency of 100.0 cm-1

-------
ENTROPY
-------

The entropy contributions are T*S = T*(S(el)+S(vib)+S(rot)+S(trans))
     S(el)   - electronic entropy
     S(vib)  - vibrational entropy
     S(rot)  - rotational entropy
     S(trans)- translational entropy
The entropies will be listed as multiplied by the temperature to get
units of energy

Electronic entropy                ...      0.00065446 Eh      0.41 kcal/mol
Vibrational entropy               ...      0.01373978 Eh      8.62 kcal/mol
Rotational entropy                ...      0.01458777 Eh      9.15 kcal/mol
Translational entropy             ...      0.01954713 Eh     12.27 kcal/mol
-----------------------------------------------------------------------
Final entropy term                ...      0.04852913 Eh     30.45 kcal/mol

In case the symmetry of your molecule has not been determined correctly
or in case you have a reason to use a different symmetry number we print
out the resulting rotational entropy values for sn=1,12:

 non-linear molecules -----------------------------------
|  sn= 1 | S(rot)=       0.01458777 Eh      9.15 kcal/mol|
|  sn= 2 | S(rot)=       0.01393331 Eh      8.74 kcal/mol|
|  sn= 3 | S(rot)=       0.01355048 Eh      8.50 kcal/mol|
|  sn= 4 | S(rot)=       0.01327886 Eh      8.33 kcal/mol|
|  sn= 5 | S(rot)=       0.01306817 Eh      8.20 kcal/mol|
|  sn= 6 | S(rot)=       0.01289603 Eh      8.09 kcal/mol|
|  sn= 7 | S(rot)=       0.01275048 Eh      8.00 kcal/mol|
|  sn= 8 | S(rot)=       0.01262440 Eh      7.92 kcal/mol|

                             ****ORCA TERMINATED NORMALLY****
TOTAL RUN TIME: 0 days 0 hours 13 minutes 22 seconds 14 msec
