                         Program Version 6.0.0  -   RELEASE  -
|  1> !PBE0 aug-cc-pVTZ d3 TightSCF SlowConv RIJCOSX defgrid2
|  2>
|  3> %pal
|  4> nprocs 4
|  5> end
|  6>
|  7> %scf
|  8> MaxIter 1500
|  9> end
| 10>
| 11> %maxcore 3000
| 12>
| 13> !CPCM
| 14> %cpcm smd true
| 15> SMDsolvent "MeCN"
| 16> surfacetype gepol_ses
| 17> rsolv 2.19
| 18> end
| 19>
| 20> * xyz 0 1
| 21> C          -0.33578897576289      0.78706332413970     -0.00007064342653
| 22> C          -1.63104450940735      0.25443214150099      0.00002424994707
| 23> C          -1.80666505085776     -1.13184792287007      0.00010488474499
| 24> C          -0.67709514280741     -1.95709297790421      0.00008171672668
| 25> C           0.60485199074243     -1.42986794226310     -0.00000896897667
| 26> C           0.79403740595386     -0.03404919740528     -0.00007754792200
| 27> C           2.11776775675579      0.59942775277408     -0.00015788147995
| 28> C           3.31301096591764     -0.01037680773538      0.00016998990263
| 29> C           4.62672268480693      0.69670422006693      0.00006613977785
| 30> H           5.22986800286636      0.42062681248378     -0.88556810108390
| 31> H           5.22969209158747      0.42121685919020      0.88600364391119
| 32> H           4.49947065542959      1.79239087728672     -0.00031400154329
| 33> H           3.35830731979376     -1.10765129675188      0.00055685548665
| 34> H           2.10183131012046      1.69773297660842     -0.00050241232510
| 35> H           1.46480294351024     -2.10372145346859     -0.00005885954138
| 36> H          -0.81507815522221     -3.04272899333565      0.00012435061663
| 37> H          -2.80202830314914     -1.57931173714880      0.00017356816380
| 38> O          -2.63880088575063      1.15236499149081      0.00002597094029
| 39> C          -3.95583677666632      0.68525859520605      0.00017372040280
| 40> H          -4.60351833384684      1.57486457447649      0.00019490121742
| 41> H          -4.17725863855936      0.08018155004781      0.90083429325456
| 42> H          -4.17743481291300      0.08009944047560     -0.90038823724126
| 43> H          -0.23264934254160      1.87564721313537     -0.00013303155248
| 44> *
| 45>
| 46>                          ****END OF INPUT****

CARTESIAN COORDINATES (ANGSTROEM)
---------------------------------
  C     -0.335789    0.787063   -0.000071
  C     -1.631045    0.254432    0.000024
  C     -1.806665   -1.131848    0.000105
  C     -0.677095   -1.957093    0.000082
  C      0.604852   -1.429868   -0.000009
  C      0.794037   -0.034049   -0.000078
  C      2.117768    0.599428   -0.000158
  C      3.313011   -0.010377    0.000170
  C      4.626723    0.696704    0.000066
  H      5.229868    0.420627   -0.885568
  H      5.229692    0.421217    0.886004
  H      4.499471    1.792391   -0.000314
  H      3.358307   -1.107651    0.000557
  H      2.101831    1.697733   -0.000502
  H      1.464803   -2.103721   -0.000059
  H     -0.815078   -3.042729    0.000124
  H     -2.802028   -1.579312    0.000174
  O     -2.638801    1.152365    0.000026
  C     -3.955837    0.685259    0.000174
  H     -4.603518    1.574865    0.000195
  H     -4.177259    0.080182    0.900834
  H     -4.177435    0.080099   -0.900388
  H     -0.232649    1.875647   -0.000133

 Total Charge           Charge          ....    0
 Multiplicity           Mult            ....    1
 Number of Electrons    NEL             ....   80
 Basis Dimension        Dim             ....  782

ORBITAL ENERGIES
----------------

  NO   OCC          E(Eh)            E(eV)
   0   2.0000     -19.244474      -523.6688
   1   2.0000     -10.290961      -280.0313
   2   2.0000     -10.265824      -279.3473
   3   2.0000     -10.244559      -278.7686
   4   2.0000     -10.232529      -278.4413
   5   2.0000     -10.231576      -278.4153
   6   2.0000     -10.226395      -278.2744
   7   2.0000     -10.225818      -278.2586
   8   2.0000     -10.225466      -278.2491
   9   2.0000     -10.222873      -278.1785
  10   2.0000     -10.216422      -278.0030
  11   2.0000      -1.107145       -30.1270
  12   2.0000      -0.886306       -24.1176
  13   2.0000      -0.824075       -22.4242
  14   2.0000      -0.781461       -21.2646
  15   2.0000      -0.773056       -21.0359
  16   2.0000      -0.712110       -19.3775
  17   2.0000      -0.698906       -19.0182
  18   2.0000      -0.624544       -16.9947
  19   2.0000      -0.616669       -16.7804
  20   2.0000      -0.566392       -15.4123
  21   2.0000      -0.537604       -14.6289
  22   2.0000      -0.502903       -13.6847
  23   2.0000      -0.496360       -13.5066
  24   2.0000      -0.483583       -13.1590
  25   2.0000      -0.472718       -12.8633
  26   2.0000      -0.444687       -12.1005
  27   2.0000      -0.430714       -11.7203
  28   2.0000      -0.419860       -11.4250
  29   2.0000      -0.409997       -11.1566
  30   2.0000      -0.397616       -10.8197
  31   2.0000      -0.395420       -10.7599
  32   2.0000      -0.378106       -10.2888
  33   2.0000      -0.363997        -9.9049
  34   2.0000      -0.352681        -9.5969
  35   2.0000      -0.344679        -9.3792
  36   2.0000      -0.335471        -9.1286
  37   2.0000      -0.304375        -8.2825
  38   2.0000      -0.244335        -6.6487
  39   2.0000      -0.229537        -6.2460
  40   0.0000      -0.034447        -0.9373
  41   0.0000      -0.006339        -0.1725
  42   0.0000       0.002296         0.0625
  43   0.0000       0.010135         0.2758
  44   0.0000       0.014762         0.4017

MULLIKEN ATOMIC CHARGES
-----------------------
   0 C :   -0.982756
   1 C :    0.737041
   2 C :   -0.237207
   3 C :   -1.055434
   4 C :   -0.637045
   5 C :    1.425865
   6 C :   -0.199720
   7 C :   -0.442788
   8 C :   -0.810854
   9 H :    0.223280
  10 H :    0.222361
  11 H :    0.288109
  12 H :    0.233237
  13 H :    0.095477
  14 H :    0.318307
  15 H :    0.640970
  16 H :    0.350325
  17 O :   -0.584075
  18 C :   -0.691961
  19 H :    0.265410
  20 H :    0.282979
  21 H :    0.283516
  22 H :    0.274963
Sum of atomic charges:   -0.0000000

LOEWDIN ATOMIC CHARGES
----------------------
   0 C :    0.204620
   1 C :   -0.405643
   2 C :    0.196454
   3 C :    0.181549
   4 C :    0.192033
   5 C :   -0.164385
   6 C :    0.196316
   7 C :    0.195613
   8 C :    0.545888
   9 H :   -0.161791
  10 H :   -0.161816
  11 H :   -0.171696
  12 H :   -0.180552
  13 H :   -0.180912
  14 H :   -0.184618
  15 H :   -0.165232
  16 H :   -0.188838
  17 O :    0.594411
  18 C :    0.310771
  19 H :   -0.167740
  20 H :   -0.158884
  21 H :   -0.158863
  22 H :   -0.166685

  Mayer bond orders larger than 0.100000
B(  0-C ,  1-C ) :   0.7376 B(  0-C ,  2-C ) :  -0.1290 B(  0-C ,  3-C ) :   0.1109
B(  0-C ,  4-C ) :  -0.2352 B(  0-C ,  5-C ) :   0.3710 B(  0-C ,  6-C ) :  -0.2029
B(  0-C ,  7-C ) :   0.1402 B(  0-C , 17-O ) :   0.3406 B(  0-C , 22-H ) :   0.9790
B(  1-C ,  2-C ) :   1.1300 B(  1-C ,  4-C ) :  -0.1043 B(  1-C , 17-O ) :   0.2327
B(  2-C ,  3-C ) :   1.1458 B(  2-C , 16-H ) :   0.8893 B(  2-C , 17-O ) :  -0.1789
B(  2-C , 18-C ) :  -0.1155 B(  3-C ,  4-C ) :   1.1148 B(  3-C , 15-H ) :   0.2213
B(  4-C ,  5-C ) :   0.6861 B(  4-C ,  7-C ) :   0.1047 B(  4-C , 14-H ) :   0.9320
B(  5-C ,  6-C ) :   0.2124 B(  5-C ,  7-C ) :  -0.1533 B(  5-C , 12-H ) :  -0.1066
B(  5-C , 17-O ) :   0.1122 B(  6-C ,  7-C ) :   1.1214 B(  6-C , 13-H ) :   1.1942
B(  7-C ,  8-C ) :   0.8410 B(  7-C , 12-H ) :   1.1898 B(  8-C ,  9-H ) :   0.9814
B(  8-C , 10-H ) :   0.9833 B(  8-C , 11-H ) :   0.8966 B(  8-C , 12-H ) :  -0.1002
B( 17-O , 18-C ) :   1.0447 B( 18-C , 19-H ) :   0.9267 B( 18-C , 20-H ) :   0.9148
B( 18-C , 21-H ) :   0.9162

Dispersion correction           -0.019920963
FINAL SINGLE POINT ENERGY      -463.130220325452

DIPOLE MOMENT
-------------

Method             : SCF
Type of density    : Electron Density
Multiplicity       :   1
Irrep              :   0
Energy             :  -463.1102993622035342 Eh
Relativity type    :
Basis              : AO
                                X                 Y                 Z
Electronic contribution:     -5.054658914      -0.441925011      -0.000535549
Nuclear contribution   :      4.758796555       0.116147158       0.000484674
                        -----------------------------------------
Total Dipole Moment    :     -0.295862359      -0.325777853      -0.000050875
                        -----------------------------------------
Magnitude (a.u.)       :      0.440074707
Magnitude (Debye)      :      1.118581010

Rotational constants in cm-1:             0.102459             0.016958             0.014631
Rotational constants in MHz :          3071.640827           508.382931           438.625504

                             ****ORCA TERMINATED NORMALLY****
TOTAL RUN TIME: 0 days 0 hours 7 minutes 45 seconds 520 msec
