                         Program Version 6.0.0  -   RELEASE  -
|  1> !PBE0 def2-SV(p) Opt Freq d3 TightSCF SlowConv RIJCOSX defgrid2
|  2>
|  3> %pal
|  4> nprocs 15
|  5> end
|  6>
|  7> %scf
|  8> MaxIter 1500
|  9> end
| 10>
| 11> %maxcore 3500
| 12>
| 13>
| 14>
| 15> * xyz 0 2
| 16> 6       -0.080290000     -0.030919000     -1.061927000
| 17> 6       -0.032526000     -0.982519000     -0.118192000
| 18> 6       -0.122898000     -0.420116000      1.266271000
| 19> 7       -0.235687000      1.018304000      0.961098000
| 20> 6       -0.207924000      1.355178000     -0.476887000
| 21> 1        0.067026000     -2.051769000     -0.317209000
| 22> 8       -0.333015000      1.887825000      1.856050000
| 23> 6       -0.013597000     -0.254038000     -2.514182000
| 24> 8        0.057196000     -1.560355000     -2.817746000
| 25> 6       -1.510709000      2.055326000     -0.862954000
| 26> 1       -1.493887000      2.336765000     -1.927729000
| 27> 1       -2.377397000      1.397756000     -0.679166000
| 28> 1       -1.623784000      2.961497000     -0.245067000
| 29> 6        0.999803000      2.244868000     -0.770841000
| 30> 1        0.927442000      3.158286000     -0.157171000
| 31> 1        1.938723000      1.725802000     -0.514059000
| 32> 1        1.023771000      2.518081000     -1.837383000
| 33> 6        1.138876000     -0.675535000      2.093292000
| 34> 1        1.225866000     -1.742215000      2.360700000
| 35> 1        2.040985000     -0.375004000      1.534893000
| 36> 1        1.084808000     -0.077503000      3.018383000
| 37> 6       -1.372355000     -0.886005000      2.016764000
| 38> 1       -2.275957000     -0.734333000      1.403036000
| 39> 1       -1.297957000     -1.953943000      2.283069000
| 40> 1       -1.473658000     -0.291485000      2.939951000
| 41> 7       -0.023270609      0.823799828     -3.513717912
| 42> 1       -0.398586844      1.703566444     -3.186183886
| 43> 1       -0.410447058      0.567017770     -4.411653035
| 44> *
| 45>
| 46>                          ****END OF INPUT****
 Total Charge           Charge          ....    0
 Multiplicity           Mult            ....    2
 Number of Electrons    NEL             ....   99
Dispersion correction           -0.028758614
FINAL SINGLE POINT ENERGY      -610.697769334219
Dispersion correction             ... done (  0.1 sec)
Dispersion correction           -0.028704508
FINAL SINGLE POINT ENERGY      -610.729892484345
Dispersion correction             ... done (  0.1 sec)
Dispersion correction           -0.028698130
FINAL SINGLE POINT ENERGY      -610.734262213034
Dispersion correction             ... done (  0.1 sec)
FINAL SINGLE POINT ENERGY      -610.735598271471
FINAL SINGLE POINT ENERGY      -610.735395806997
FINAL SINGLE POINT ENERGY      -610.736155964555
FINAL SINGLE POINT ENERGY      -610.736293035793
FINAL SINGLE POINT ENERGY      -610.736465715691
FINAL SINGLE POINT ENERGY      -610.736523528473
FINAL SINGLE POINT ENERGY      -610.736550264808
FINAL SINGLE POINT ENERGY      -610.736562908612
FINAL SINGLE POINT ENERGY      -610.736573494562
FINAL SINGLE POINT ENERGY      -610.736582369888
FINAL SINGLE POINT ENERGY      -610.736588634185
FINAL SINGLE POINT ENERGY      -610.736593390329
Dispersion correction             ... done (  0.1 sec)
Dispersion correction           -0.028641694
FINAL SINGLE POINT ENERGY      -610.736596171762
Dispersion correction             ... done (  0.1 sec)
Dispersion correction           -0.028641770
FINAL SINGLE POINT ENERGY      -610.736597606576
Dispersion correction             ... done (  0.1 sec)
                    ***********************HURRAY********************

CARTESIAN COORDINATES (ANGSTROEM)
---------------------------------
  C     -0.116099   -0.005498   -1.091661
  C     -0.060117   -0.952785   -0.146296
  C     -0.124711   -0.406699    1.243623
  N     -0.227544    1.034343    0.950798
  C     -0.231504    1.380426   -0.488408
  H      0.025598   -2.017350   -0.376075
  O     -0.307197    1.903525    1.847635
  C     -0.060262   -0.388082   -2.535466
  O      0.042636   -1.549034   -2.880612
  C     -1.549093    2.096487   -0.800361
  H     -1.582471    2.485764   -1.831906
  H     -2.404676    1.415316   -0.659841
  H     -1.657100    2.945637   -0.105154
  C      0.971377    2.287935   -0.761835
  H      0.924038    3.148452   -0.073737
  H      1.914665    1.745860   -0.582933
  H      0.983234    2.669407   -1.796630
  C      1.146035   -0.678499    2.051082
  H      1.229448   -1.749858    2.299700
  H      2.041882   -0.377458    1.482845
  H      1.111221   -0.095133    2.986492
  C     -1.367311   -0.865173    2.009582
  H     -2.278346   -0.697417    1.411304
  H     -1.300325   -1.937842    2.257667
  H     -1.448371   -0.284921    2.943881
  N     -0.129134    0.628549   -3.438207
  H     -0.227212    1.597786   -3.172671
  H     -0.098113    0.384598   -4.421378

 Multiplicity           Mult            ....    2
 Number of Electrons    NEL             ....   99
 Basis Dimension        Dim             ....  212

ORBITAL ENERGIES
----------------
                 SPIN UP ORBITALS
  NO   OCC          E(Eh)            E(eV)
   0   1.0000     -19.213000      -522.8123
   1   1.0000     -19.173504      -521.7376
   2   1.0000     -14.480344      -394.0302
   3   1.0000     -14.415502      -392.2658
   4   1.0000     -10.341035      -281.3939
   5   1.0000     -10.297509      -280.2095
   6   1.0000     -10.290693      -280.0240
   7   1.0000     -10.254236      -279.0320
   8   1.0000     -10.252536      -278.9857
   9   1.0000     -10.235843      -278.5315
  10   1.0000     -10.235401      -278.5194
  11   1.0000     -10.229802      -278.3671
  12   1.0000     -10.229786      -278.3666
  13   1.0000      -1.135695       -30.9038
  14   1.0000      -1.057460       -28.7749
  15   1.0000      -0.932770       -25.3820
  16   1.0000      -0.923434       -25.1279
  17   1.0000      -0.843682       -22.9578
  18   1.0000      -0.778252       -21.1773
  19   1.0000      -0.745437       -20.2844
  20   1.0000      -0.722058       -19.6482
  21   1.0000      -0.711496       -19.3608
  22   1.0000      -0.669798       -18.2261
  23   1.0000      -0.628852       -17.1119
  24   1.0000      -0.596285       -16.2257
  25   1.0000      -0.572031       -15.5658
  26   1.0000      -0.557500       -15.1704
  27   1.0000      -0.513597       -13.9757
  28   1.0000      -0.512846       -13.9552
  29   1.0000      -0.490431       -13.3453
  30   1.0000      -0.474066       -12.9000
  31   1.0000      -0.461162       -12.5489
  32   1.0000      -0.452470       -12.3123
  33   1.0000      -0.448562       -12.2060
  34   1.0000      -0.436391       -11.8748
  35   1.0000      -0.433854       -11.8058
  36   1.0000      -0.422573       -11.4988
  37   1.0000      -0.421675       -11.4744
  38   1.0000      -0.409840       -11.1523
  39   1.0000      -0.399257       -10.8643
  40   1.0000      -0.398416       -10.8414
  41   1.0000      -0.374431       -10.1888
  42   1.0000      -0.371610       -10.1120
  43   1.0000      -0.370649       -10.0859
  44   1.0000      -0.360875        -9.8199
  45   1.0000      -0.291724        -7.9382
  46   1.0000      -0.281626        -7.6634
  47   1.0000      -0.278947        -7.5905
  48   1.0000      -0.270728        -7.3669
  49   1.0000      -0.204117        -5.5543
  50   0.0000      -0.036123        -0.9830
  51   0.0000       0.040585         1.1044
  52   0.0000       0.066888         1.8201
  53   0.0000       0.087090         2.3699
  54   0.0000       0.088230         2.4009

                 SPIN DOWN ORBITALS
  NO   OCC          E(Eh)            E(eV)
   0   1.0000     -19.197647      -522.3945
   1   1.0000     -19.173503      -521.7375
   2   1.0000     -14.468438      -393.7062
   3   1.0000     -14.415501      -392.2657
   4   1.0000     -10.341058      -281.3945
   5   1.0000     -10.298243      -280.2294
   6   1.0000     -10.291422      -280.0438
   7   1.0000     -10.254224      -279.0316
   8   1.0000     -10.252515      -278.9851
   9   1.0000     -10.235332      -278.5175
  10   1.0000     -10.234889      -278.5055
  11   1.0000     -10.229262      -278.3524
  12   1.0000     -10.229247      -278.3520
  13   1.0000      -1.109875       -30.2012
  14   1.0000      -1.057440       -28.7744
  15   1.0000      -0.929904       -25.3040
  16   1.0000      -0.916007       -24.9258
  17   1.0000      -0.842433       -22.9238
  18   1.0000      -0.774848       -21.0847
  19   1.0000      -0.732550       -19.9337
  20   1.0000      -0.719713       -19.5844
  21   1.0000      -0.710180       -19.3250
  22   1.0000      -0.668458       -18.1897
  23   1.0000      -0.626258       -17.0413
  24   1.0000      -0.595431       -16.2025
  25   1.0000      -0.563626       -15.3371
  26   1.0000      -0.556065       -15.1313
  27   1.0000      -0.511802       -13.9269
  28   1.0000      -0.485473       -13.2104
  29   1.0000      -0.485393       -13.2082
  30   1.0000      -0.469263       -12.7693
  31   1.0000      -0.460867       -12.5408
  32   1.0000      -0.449227       -12.2241
  33   1.0000      -0.442252       -12.0343
  34   1.0000      -0.434857       -11.8331
  35   1.0000      -0.433198       -11.7879
  36   1.0000      -0.417418       -11.3585
  37   1.0000      -0.414097       -11.2682
  38   1.0000      -0.409179       -11.1343
  39   1.0000      -0.395846       -10.7715
  40   1.0000      -0.386367       -10.5136
  41   1.0000      -0.370712       -10.0876
  42   1.0000      -0.370561       -10.0835
  43   1.0000      -0.360319        -9.8048
  44   1.0000      -0.337570        -9.1857
  45   1.0000      -0.290797        -7.9130
  46   1.0000      -0.277004        -7.5377
  47   1.0000      -0.276664        -7.5284
  48   1.0000      -0.262959        -7.1555
  49   0.0000      -0.039408        -1.0724
  50   0.0000      -0.032550        -0.8857
  51   0.0000       0.040901         1.1130
  52   0.0000       0.067195         1.8285
  53   0.0000       0.088886         2.4187

MULLIKEN ATOMIC CHARGES AND SPIN POPULATIONS
--------------------------------------------
   0 C :   -0.045060   -0.002277
   1 C :   -0.162090    0.001240
   2 C :   -0.063618   -0.020526
   3 N :   -0.094870    0.443607
   4 C :   -0.116232   -0.016966
   5 H :    0.118873   -0.000927
   6 O :   -0.294442    0.519984
   7 C :    0.215752   -0.000885
   8 O :   -0.252121    0.000138
   9 C :   -0.255372    0.018995
  10 H :    0.111323    0.001837
  11 H :    0.137851    0.000170
  12 H :    0.152161   -0.002241
  13 C :   -0.253313    0.018910
  14 H :    0.151841   -0.002241
  15 H :    0.137629    0.000185
  16 H :    0.110810    0.001800
  17 C :   -0.256551    0.020264
  18 H :    0.129532    0.001317
  19 H :    0.132149    0.000165
  20 H :    0.148001   -0.002183
  21 C :   -0.256291    0.020330
  22 H :    0.131906    0.000172
  23 H :    0.129531    0.001332
  24 H :    0.147863   -0.002188
  25 N :   -0.436713    0.000099
  26 H :    0.267976   -0.000093
  27 H :    0.263476   -0.000020
Sum of atomic charges         :   -0.0000000

LOEWDIN ATOMIC CHARGES AND SPIN POPULATIONS
-------------------------------------------
   0 C :   -0.084841    0.000294
   1 C :   -0.062257    0.000899
   2 C :   -0.049685   -0.009388
   3 N :    0.099704    0.434693
   4 C :   -0.042178   -0.009912
   5 H :    0.147735   -0.000699
   6 O :   -0.240416    0.510272
   7 C :    0.059230   -0.000519
   8 O :   -0.222775    0.000154
   9 C :   -0.327390    0.018615
  10 H :    0.114803    0.001029
  11 H :    0.129415   -0.000313
  12 H :    0.137177   -0.000973
  13 C :   -0.327226    0.018582
  14 H :    0.136918   -0.000991
  15 H :    0.129463   -0.000310
  16 H :    0.115084    0.000994
  17 C :   -0.322886    0.019507
  18 H :    0.127777    0.000663
  19 H :    0.125915   -0.000338
  20 H :    0.134670   -0.001097
  21 C :   -0.322883    0.019571
  22 H :    0.125816   -0.000338
  23 H :    0.127754    0.000677
  24 H :    0.134680   -0.001098
  25 N :   -0.325335    0.000081
  26 H :    0.234661   -0.000043
  27 H :    0.247069   -0.000012

  Mayer bond orders larger than 0.100000
B(  0-C ,  1-C ) :   1.8687 B(  0-C ,  4-C ) :   0.9408 B(  0-C ,  7-C ) :   0.9187
B(  1-C ,  2-C ) :   0.9306 B(  1-C ,  5-H ) :   0.9625 B(  2-C ,  3-N ) :   0.8687
B(  2-C , 17-C ) :   1.0530 B(  2-C , 21-C ) :   1.0531 B(  3-N ,  4-C ) :   0.8649
B(  3-N ,  6-O ) :   1.4719 B(  4-C ,  9-C ) :   1.0614 B(  4-C , 13-C ) :   1.0624
B(  7-C ,  8-O ) :   2.1222 B(  7-C , 25-N ) :   1.2683 B(  9-C , 10-H ) :   0.9384
B(  9-C , 11-H ) :   0.9407 B(  9-C , 12-H ) :   0.9300 B( 13-C , 14-H ) :   0.9304
B( 13-C , 15-H ) :   0.9407 B( 13-C , 16-H ) :   0.9388 B( 17-C , 18-H ) :   0.9450
B( 17-C , 19-H ) :   0.9427 B( 17-C , 20-H ) :   0.9347 B( 21-C , 22-H ) :   0.9427
B( 21-C , 23-H ) :   0.9451 B( 21-C , 24-H ) :   0.9347 B( 25-N , 26-H ) :   0.8402
B( 25-N , 27-H ) :   0.8579

Dispersion correction           -0.028641835
FINAL SINGLE POINT ENERGY      -610.736597892313

DIPOLE MOMENT
-------------

Method             : SCF
Type of density    : Electron Density
Multiplicity       :   2
Irrep              :   0
Energy             :  -610.7079560571793309 Eh
Relativity type    :
Basis              : AO
                                X                 Y                 Z
Electronic contribution:      0.332131424      -2.895205136      -5.208388253
Nuclear contribution   :     -0.388237367       3.445340699       4.719558355
                        -----------------------------------------
Total Dipole Moment    :     -0.056105943       0.550135563      -0.488829898
                        -----------------------------------------
Magnitude (a.u.)       :      0.738072953
Magnitude (Debye)      :      1.876032356

VIBRATIONAL FREQUENCIES
-----------------------

Scaling factor for frequencies =  1.000000000  (already applied!)

     0:       0.00 cm**-1
     1:       0.00 cm**-1
     2:       0.00 cm**-1
     3:       0.00 cm**-1
     4:       0.00 cm**-1
     5:       0.00 cm**-1
     6:      30.30 cm**-1
     7:      49.91 cm**-1
     8:      97.19 cm**-1
     9:     132.72 cm**-1
    10:     167.57 cm**-1
    11:     176.18 cm**-1
    12:     184.80 cm**-1
    13:     215.22 cm**-1
    14:     238.52 cm**-1
    15:     246.35 cm**-1
    16:     264.98 cm**-1
    17:     295.94 cm**-1
    18:     303.37 cm**-1
    19:     315.08 cm**-1
    20:     321.02 cm**-1
    21:     329.69 cm**-1
    22:     392.40 cm**-1
    23:     399.56 cm**-1
    24:     439.22 cm**-1
    25:     525.56 cm**-1
    26:     548.09 cm**-1
    27:     586.10 cm**-1
    28:     603.91 cm**-1
    29:     632.44 cm**-1
    30:     643.73 cm**-1
    31:     715.03 cm**-1
    32:     773.72 cm**-1
    33:     790.73 cm**-1
    34:     892.19 cm**-1
    35:     937.44 cm**-1
    36:     947.83 cm**-1
    37:     953.09 cm**-1
    38:     957.08 cm**-1
    39:     974.86 cm**-1
    40:    1007.60 cm**-1
    41:    1013.04 cm**-1
    42:    1064.74 cm**-1
    43:    1098.64 cm**-1
    44:    1106.78 cm**-1
    45:    1180.12 cm**-1
    46:    1205.42 cm**-1
    47:    1209.04 cm**-1
    48:    1231.76 cm**-1
    49:    1267.16 cm**-1
    50:    1316.25 cm**-1
    51:    1368.96 cm**-1
    52:    1380.40 cm**-1
    53:    1386.39 cm**-1
    54:    1398.17 cm**-1
    55:    1405.82 cm**-1
    56:    1418.72 cm**-1
    57:    1453.59 cm**-1
    58:    1460.28 cm**-1
    59:    1468.06 cm**-1
    60:    1473.36 cm**-1
    61:    1480.61 cm**-1
    62:    1485.19 cm**-1
    63:    1491.81 cm**-1
    64:    1494.66 cm**-1
    65:    1577.80 cm**-1
    66:    1625.35 cm**-1
    67:    1732.33 cm**-1
    68:    1839.42 cm**-1
    69:    3045.77 cm**-1
    70:    3047.03 cm**-1
    71:    3048.63 cm**-1
    72:    3050.86 cm**-1
    73:    3142.96 cm**-1
    74:    3146.59 cm**-1
    75:    3147.00 cm**-1
    76:    3149.06 cm**-1
    77:    3150.20 cm**-1
    78:    3152.68 cm**-1
    79:    3153.05 cm**-1
    80:    3154.35 cm**-1
    81:    3239.78 cm**-1
    82:    3590.07 cm**-1
    83:    3717.32 cm**-1

IR SPECTRUM
-----------

 Mode   freq       eps      Int      T**2         TX        TY        TZ
       cm**-1   L/(mol*cm) km/mol    a.u.
----------------------------------------------------------------------------
  6:     30.30   0.004788   24.20  0.049309  (-0.221049 -0.020993 -0.002277)
  7:     49.91   0.000325    1.64  0.002032  (-0.044952 -0.003195 -0.001109)
  8:     97.19   0.000260    1.31  0.000834  ( 0.028727  0.002760  0.001233)
  9:    132.72   0.000238    1.20  0.000559  (-0.023578 -0.001463 -0.000872)
 10:    167.57   0.001552    7.84  0.002891  (-0.011599 -0.002815  0.052424)
 11:    176.18   0.008149   41.18  0.014434  ( 0.119387  0.012648  0.004519)
 12:    184.80   0.003731   18.86  0.006301  (-0.078855 -0.008919 -0.001809)
 13:    215.22   0.000053    0.27  0.000077  (-0.008653 -0.001277  0.000217)
 14:    238.52   0.000259    1.31  0.000339  (-0.001049  0.008640  0.016224)
 15:    246.35   0.000414    2.09  0.000524  ( 0.001144 -0.018257  0.013759)
 16:    264.98   0.022042  111.39  0.025958  (-0.160289 -0.016287 -0.000841)
 17:    295.94   0.000029    0.15  0.000031  (-0.001478  0.005097 -0.001534)
 18:    303.37   0.000009    0.05  0.000009  ( 0.000872 -0.001065  0.002726)
 19:    315.08   0.000713    3.60  0.000706  ( 0.026326  0.003007  0.002059)
 20:    321.02   0.002055   10.39  0.001998  (-0.002630  0.002201  0.044568)
 21:    329.69   0.001404    7.09  0.001329  (-0.000864  0.029810 -0.020958)
 22:    392.40   0.000035    0.18  0.000028  (-0.005165 -0.000891 -0.000590)
 23:    399.56   0.000296    1.50  0.000231  ( 0.001023 -0.010230  0.011204)
 24:    439.22   0.001184    5.98  0.000841  ( 0.002882 -0.028802  0.001789)
 25:    525.56   0.003346   16.91  0.001987  ( 0.044438  0.003489 -0.000203)
 26:    548.09   0.000297    1.50  0.000169  ( 0.012951  0.001104 -0.000541)
 27:    586.10   0.000828    4.18  0.000441  (-0.000915  0.007572  0.019562)
 28:    603.91   0.000821    4.15  0.000424  (-0.000274 -0.000721  0.020586)
 29:    632.44   0.000598    3.02  0.000295  (-0.017126 -0.001049 -0.000793)
 30:    643.73   0.002478   12.52  0.001201  ( 0.000384  0.009995 -0.033182)
 31:    715.03   0.001522    7.69  0.000664  (-0.001088  0.012055  0.022750)
 32:    773.72   0.000093    0.47  0.000037  (-0.000165 -0.002665 -0.005501)
 33:    790.73   0.005241   26.49  0.002068  ( 0.045339  0.003537  0.000577)
 34:    892.19   0.000598    3.02  0.000209  ( 0.000250 -0.002192 -0.014290)
 35:    937.44   0.000926    4.68  0.000308  ( 0.017501  0.001422 -0.000185)
 36:    947.83   0.000000    0.00  0.000000  ( 0.000056 -0.000207  0.000103)
 37:    953.09   0.000113    0.57  0.000037  (-0.006049 -0.000510 -0.000001)
 38:    957.08   0.001021    5.16  0.000333  ( 0.000350 -0.008265  0.016262)
 39:    974.86   0.001465    7.40  0.000469  (-0.000244 -0.000386  0.021649)
 40:   1007.60   0.000211    1.07  0.000065  (-0.008062 -0.000620 -0.000262)
 41:   1013.04   0.000304    1.53  0.000094  (-0.009641 -0.000749 -0.000219)
 42:   1064.74   0.000626    3.16  0.000183  ( 0.000802 -0.008269 -0.010694)
 43:   1098.64   0.000766    3.87  0.000218  ( 0.000312 -0.006639  0.013172)
 44:   1106.78   0.000537    2.71  0.000151  (-0.000741  0.011572 -0.004108)
 45:   1180.12   0.001715    8.66  0.000453  (-0.001411  0.015918  0.014071)
 46:   1205.42   0.001157    5.85  0.000300  ( 0.017247  0.001444  0.000239)
 47:   1209.04   0.002954   14.93  0.000762  (-0.027535 -0.002027 -0.000418)
 48:   1231.76   0.000153    0.77  0.000039  ( 0.000820 -0.006104 -0.000845)
 49:   1267.16   0.001765    8.92  0.000435  (-0.001520  0.020572  0.003031)
 50:   1316.25   0.003135   15.84  0.000743  (-0.002039  0.027180 -0.000642)
 51:   1368.96   0.007319   36.99  0.001669  ( 0.000987 -0.020340  0.035410)
 52:   1380.40   0.001742    8.81  0.000394  (-0.019790 -0.001394 -0.000552)
 53:   1386.39   0.003378   17.07  0.000760  ( 0.027518  0.001760 -0.000213)
 54:   1398.17   0.000319    1.61  0.000071  (-0.000309  0.008334 -0.001284)
 55:   1405.82   0.002413   12.19  0.000536  ( 0.001276 -0.023106  0.000081)
 56:   1418.72   0.034979  176.77  0.007694  ( 0.000700 -0.024421  0.084244)
 57:   1453.59   0.000122    0.62  0.000026  (-0.005093 -0.000537 -0.000035)
 58:   1460.28   0.001181    5.97  0.000252  (-0.015833 -0.001266 -0.000264)
 59:   1468.06   0.000129    0.65  0.000027  ( 0.005212  0.000425  0.000158)
 60:   1473.36   0.000432    2.18  0.000091  (-0.009562 -0.000095 -0.000080)
 61:   1480.61   0.001951    9.86  0.000411  ( 0.001337 -0.019904 -0.003632)
 62:   1485.19   0.000647    3.27  0.000136  ( 0.000312 -0.002227 -0.011438)
 63:   1491.81   0.000870    4.40  0.000182  ( 0.000943 -0.013323 -0.001912)
 64:   1494.66   0.001254    6.34  0.000262  ( 0.001210 -0.013826 -0.008313)
 65:   1577.80   0.001574    7.96  0.000311  ( 0.000976 -0.010626 -0.014053)
 66:   1625.35   0.036671  185.32  0.007041  (-0.001841  0.031500 -0.077750)
 67:   1732.33   0.010578   53.46  0.001906  (-0.001401  0.008731  0.042748)
 68:   1839.42   0.055049  278.20  0.009339  (-0.008263  0.095001  0.015682)
 69:   3045.77   0.001974    9.98  0.000202  ( 0.014196  0.000469  0.000744)
 70:   3047.03   0.002499   12.63  0.000256  ( 0.015834  0.000036  0.002280)
 71:   3048.63   0.003423   17.30  0.000350  (-0.000932 -0.013157  0.013282)
 72:   3050.86   0.002297   11.61  0.000235  (-0.000577 -0.007131  0.013555)
 73:   3142.96   0.000491    2.48  0.000049  ( 0.005066  0.002096 -0.004327)
 74:   3146.59   0.001037    5.24  0.000103  (-0.009465 -0.001967  0.003070)
 75:   3147.00   0.007481   37.80  0.000742  ( 0.002395 -0.011055  0.024776)
 76:   3149.06   0.001951    9.86  0.000193  (-0.000359 -0.012247  0.006578)
 77:   3150.20   0.000627    3.17  0.000062  ( 0.007337 -0.002866 -0.000326)
 78:   3152.68   0.001029    5.20  0.000102  (-0.010073  0.000598  0.000043)
 79:   3153.05   0.001002    5.06  0.000099  (-0.000689 -0.007793 -0.006161)
 80:   3154.35   0.001202    6.07  0.000119  ( 0.000541  0.010267  0.003635)
 81:   3239.78   0.000114    0.57  0.000011  (-0.000257  0.002353  0.002312)
 82:   3590.07   0.010157   51.33  0.000883  (-0.001100  0.013630 -0.026379)
 83:   3717.32   0.012213   61.72  0.001025  (-0.002346  0.019897  0.024977)

--------------------------
THERMOCHEMISTRY AT 298.15K
--------------------------

Temperature         ...   298.15 K
Pressure            ...     1.00 atm
Total Mass          ...   183.23 AMU
Quasi RRHO          ...     True
Cut-Off Frequency   ...     1.00 cm^-1

Throughout the following assumptions are being made:
  (1) The electronic state is orbitally nondegenerate
      but the spin degeneracy is treated
  (2) There are no thermally accessible electronically excited states
  (3) Hindered rotations indicated by low frequency modes are not
      treated as such but are treated as vibrations and this may
      cause some error
  (4) All equations used are the standard statistical mechanics
      equations for an ideal gas
  (5) All vibrations are strictly harmonic

freq.      30.30  E(vib)   ...       0.55
freq.      49.91  E(vib)   ...       0.52
freq.      97.19  E(vib)   ...       0.46
freq.     132.72  E(vib)   ...       0.42
freq.     167.57  E(vib)   ...       0.38
freq.     176.18  E(vib)   ...       0.38
freq.     184.80  E(vib)   ...       0.37
freq.     215.22  E(vib)   ...       0.34
freq.     238.52  E(vib)   ...       0.32
freq.     246.35  E(vib)   ...       0.31
freq.     264.98  E(vib)   ...       0.29
freq.     295.94  E(vib)   ...       0.27
freq.     303.37  E(vib)   ...       0.26
freq.     315.08  E(vib)   ...       0.25
freq.     321.02  E(vib)   ...       0.25
freq.     329.69  E(vib)   ...       0.24
freq.     392.40  E(vib)   ...       0.20
freq.     399.56  E(vib)   ...       0.19
freq.     439.22  E(vib)   ...       0.17
freq.     525.56  E(vib)   ...       0.13
freq.     548.09  E(vib)   ...       0.12
freq.     586.10  E(vib)   ...       0.11
freq.     603.91  E(vib)   ...       0.10
freq.     632.44  E(vib)   ...       0.09
freq.     643.73  E(vib)   ...       0.09
freq.     715.03  E(vib)   ...       0.07
freq.     773.72  E(vib)   ...       0.05
freq.     790.73  E(vib)   ...       0.05
freq.     892.19  E(vib)   ...       0.03
freq.     937.44  E(vib)   ...       0.03
freq.     947.83  E(vib)   ...       0.03
freq.     953.09  E(vib)   ...       0.03
freq.     957.08  E(vib)   ...       0.03
freq.     974.86  E(vib)   ...       0.03
freq.    1007.60  E(vib)   ...       0.02
freq.    1013.04  E(vib)   ...       0.02
freq.    1064.74  E(vib)   ...       0.02
freq.    1098.64  E(vib)   ...       0.02
freq.    1106.78  E(vib)   ...       0.02
freq.    1180.12  E(vib)   ...       0.01
freq.    1205.42  E(vib)   ...       0.01
freq.    1209.04  E(vib)   ...       0.01
freq.    1231.76  E(vib)   ...       0.01
freq.    1267.16  E(vib)   ...       0.01
freq.    1316.25  E(vib)   ...       0.01
freq.    1368.96  E(vib)   ...       0.01
freq.    1380.40  E(vib)   ...       0.01
freq.    1386.39  E(vib)   ...       0.00
freq.    1398.17  E(vib)   ...       0.00
freq.    1405.82  E(vib)   ...       0.00
freq.    1418.72  E(vib)   ...       0.00
freq.    1453.59  E(vib)   ...       0.00
freq.    1460.28  E(vib)   ...       0.00
freq.    1468.06  E(vib)   ...       0.00
freq.    1473.36  E(vib)   ...       0.00
freq.    1480.61  E(vib)   ...       0.00
freq.    1485.19  E(vib)   ...       0.00
freq.    1491.81  E(vib)   ...       0.00
freq.    1494.66  E(vib)   ...       0.00
freq.    1577.80  E(vib)   ...       0.00
freq.    1625.35  E(vib)   ...       0.00
freq.    1732.33  E(vib)   ...       0.00
freq.    1839.42  E(vib)   ...       0.00
freq.    3045.77  E(vib)   ...       0.00
freq.    3047.03  E(vib)   ...       0.00
freq.    3048.63  E(vib)   ...       0.00
freq.    3050.86  E(vib)   ...       0.00
freq.    3142.96  E(vib)   ...       0.00
freq.    3146.59  E(vib)   ...       0.00
freq.    3147.00  E(vib)   ...       0.00
freq.    3149.06  E(vib)   ...       0.00
freq.    3150.20  E(vib)   ...       0.00
freq.    3152.68  E(vib)   ...       0.00
freq.    3153.05  E(vib)   ...       0.00
freq.    3154.35  E(vib)   ...       0.00
freq.    3239.78  E(vib)   ...       0.00
freq.    3590.07  E(vib)   ...       0.00
freq.    3717.32  E(vib)   ...       0.00

------------
INNER ENERGY
------------

The inner energy is: U= E(el) + E(ZPE) + E(vib) + E(rot) + E(trans)
    E(el)   - is the total energy from the electronic structure calculation
              = E(kin-el) + E(nuc-el) + E(el-el) + E(nuc-nuc)
    E(ZPE)  - the the zero temperature vibrational energy from the frequency calculation
    E(vib)  - the the finite temperature correction to E(ZPE) due to population
              of excited vibrational states
    E(rot)  - is the rotational thermal energy
    E(trans)- is the translational thermal energy

Summary of contributions to the inner energy U:
Electronic energy                ...   -610.73659789 Eh
Zero point energy                ...      0.23615183 Eh     148.19 kcal/mol
Thermal vibrational correction   ...      0.01173168 Eh       7.36 kcal/mol
Thermal rotational correction    ...      0.00141627 Eh       0.89 kcal/mol
Thermal translational correction ...      0.00141627 Eh       0.89 kcal/mol
-----------------------------------------------------------------------
Total thermal energy                   -610.48588184 Eh

Summary of corrections to the electronic energy:
(perhaps to be used in another calculation)
Total thermal correction                  0.01456422 Eh       9.14 kcal/mol
Non-thermal (ZPE) correction              0.23615183 Eh     148.19 kcal/mol
-----------------------------------------------------------------------
Total correction                          0.25071605 Eh     157.33 kcal/mol

--------
ENTHALPY
--------

The enthalpy is H = U + kB*T
                kB is Boltzmann's constant
Total thermal energy              ...   -610.48588184 Eh
Thermal Enthalpy correction       ...      0.00094421 Eh       0.59 kcal/mol
-----------------------------------------------------------------------
Total Enthalpy                    ...   -610.48493763 Eh

Note: Only C1 symmetry has been detected, increase convergence thresholds
      if your molecule has a higher symmetry. Symmetry factor of 1.0 is
      used for the rotational entropy correction.

Note: Rotational entropy computed according to Herzberg
Infrared and Raman Spectra, Chapter V,1, Van Nostrand Reinhold, 1945
Point Group:  C1, Symmetry Number:   1
Rotational constants in cm-1:     0.040199     0.022321     0.017613

Vibrational entropy computed according to the QRRHO of S. Grimme
Chem.Eur.J. 2012 18 9955 using a reference frequency of 100.0 cm-1

-------
ENTROPY
-------

The entropy contributions are T*S = T*(S(el)+S(vib)+S(rot)+S(trans))

                             ****ORCA TERMINATED NORMALLY****
TOTAL RUN TIME: 0 days 0 hours 31 minutes 39 seconds 215 msec
