                         Program Version 6.0.0  -   RELEASE  -
|  1> !PBE0 opt def2-SV(p) d3 TightSCF SlowConv RIJCOSX defgrid2
|  2>
|  3> %pal
|  4> nprocs 8
|  5> end
|  6>
|  7> %scf
|  8> MaxIter 1500
|  9> end
| 10>
| 11> %maxcore 3500
| 12>
| 13> !CPCM
| 14> %cpcm smd true
| 15> SMDsolvent "MeCN"
| 16> surfacetype gepol_ses
| 17> rsolv 2.19
| 18> end
| 19>
| 20> * xyz -1 2
| 21> C          -0.01331421056281      1.21015152275559     -0.00003912841012
| 22> C           1.37407426915828      1.22077182581697      0.00009471803504
| 23> C           2.08268728216500      0.01623593632828      0.00008078293558
| 24> C           1.39800867624770     -1.21018542596672     -0.00005492668248
| 25> C           0.01763373542032     -1.22524409629627     -0.00018246787257
| 26> C          -0.75988843497050     -0.01763719993150     -0.00018385015586
| 27> C          -2.18998893121825     -0.10468719257966     -0.00029823993913
| 28> O          -2.82191384294989     -1.19348424477804     -0.00032077578394
| 29> C          -2.98040993394950      1.20193760901241     -0.00023396308602
| 30> H          -2.77113925068928      1.83311429650402      0.88831166373856
| 31> H          -2.77095660989795      1.83331313895105     -0.88859326031545
| 32> H          -4.05230547218906      0.94280281896802     -0.00037251615162
| 33> H          -0.53955758793286     -2.16627118900373     -0.00028423650614
| 34> H           1.97817281356228     -2.14018774357936     -0.00004958149680
| 35> F           3.44427090335711      0.03016813897025      0.00021925839865
| 36> H           1.93269491180525      2.16366570442592      0.00021265957610
| 37> H          -0.54367651735585      2.16766590040277     -0.00001523628380
| 38> *
| 39>
| 40>                          ****END OF INPUT****
 Total Charge           Charge          ....   -1
 Multiplicity           Mult            ....    2
 Number of Electrons    NEL             ....   73
Dispersion correction           -0.015265120
FINAL SINGLE POINT ENERGY      -483.322021077175
Dispersion correction             ... done (  0.1 sec)
Dispersion correction           -0.015260909
FINAL SINGLE POINT ENERGY      -483.322136197892
Dispersion correction             ... done (  0.1 sec)
Dispersion correction           -0.015259451
FINAL SINGLE POINT ENERGY      -483.322168447895
Dispersion correction             ... done (  0.1 sec)
Dispersion correction           -0.015259454
FINAL SINGLE POINT ENERGY      -483.322172560525
Dispersion correction             ... done (  0.1 sec)
Dispersion correction           -0.015259500
FINAL SINGLE POINT ENERGY      -483.322171547127
Dispersion correction             ... done (  0.1 sec)
                    ***********************HURRAY********************

CARTESIAN COORDINATES (ANGSTROEM)
---------------------------------
  C     -0.012216    1.212238   -0.000705
  C      1.374737    1.222400    0.000070
  C      2.079749    0.013467    0.000103
  C      1.400523   -1.213553   -0.000900
  C      0.017819   -1.227922   -0.001306
  C     -0.758730   -0.017119   -0.000861
  C     -2.189604   -0.097541    0.001097
  O     -2.811460   -1.196537    0.005355
  C     -2.982356    1.201331   -0.000618
  H     -2.779422    1.833724    0.886980
  H     -2.774838    1.834259   -0.886754
  H     -4.056421    0.950656   -0.003364
  H     -0.530633   -2.174269   -0.001833
  H      1.978838   -2.144136   -0.001226
  F      3.437147    0.028008    0.001353
  H      1.930855    2.166020    0.000991
  H     -0.539596    2.171104   -0.000091

 Multiplicity           Mult            ....    2
 Number of Electrons    NEL             ....   73
 Basis Dimension        Dim             ....  154

ORBITAL ENERGIES
----------------
                 SPIN UP ORBITALS
  NO   OCC          E(Eh)            E(eV)
   0   1.0000     -24.758758      -673.7200
   1   1.0000     -19.115470      -520.1584
   2   1.0000     -10.277331      -279.6604
   3   1.0000     -10.236684      -278.5543
   4   1.0000     -10.214199      -277.9425
   5   1.0000     -10.213770      -277.9308
   6   1.0000     -10.210160      -277.8326
   7   1.0000     -10.205612      -277.7088
   8   1.0000     -10.195534      -277.4346
   9   1.0000     -10.193976      -277.3922
  10   1.0000      -1.210263       -32.9329
  11   1.0000      -0.965098       -26.2617
  12   1.0000      -0.845672       -23.0119
  13   1.0000      -0.749759       -20.4020
  14   1.0000      -0.741048       -20.1650
  15   1.0000      -0.700870       -19.0716
  16   1.0000      -0.618211       -16.8224
  17   1.0000      -0.601650       -16.3717
  18   1.0000      -0.534336       -14.5400
  19   1.0000      -0.530479       -14.4351
  20   1.0000      -0.477204       -12.9854
  21   1.0000      -0.465265       -12.6605
  22   1.0000      -0.447623       -12.1804
  23   1.0000      -0.430732       -11.7208
  24   1.0000      -0.415190       -11.2979
  25   1.0000      -0.414494       -11.2790
  26   1.0000      -0.398743       -10.8503
  27   1.0000      -0.387403       -10.5418
  28   1.0000      -0.363792        -9.8993
  29   1.0000      -0.358319        -9.7504
  30   1.0000      -0.348471        -9.4824
  31   1.0000      -0.320563        -8.7230
  32   1.0000      -0.317322        -8.6348
  33   1.0000      -0.258134        -7.0242
  34   1.0000      -0.237467        -6.4618
  35   1.0000      -0.206789        -5.6270
  36   1.0000      -0.090227        -2.4552
  37   0.0000       0.014151         0.3851
  38   0.0000       0.069363         1.8875
  39   0.0000       0.093058         2.5322
  40   0.0000       0.115678         3.1478
  41   0.0000       0.135243         3.6801

                 SPIN DOWN ORBITALS
  NO   OCC          E(Eh)            E(eV)
   0   1.0000     -24.757696      -673.6911
   1   1.0000     -19.108276      -519.9626
   2   1.0000     -10.271983      -279.5149
   3   1.0000     -10.233017      -278.4545
   4   1.0000     -10.215903      -277.9889
   5   1.0000     -10.215440      -277.9763
   6   1.0000     -10.207252      -277.7534
   7   1.0000     -10.202713      -277.6299
   8   1.0000     -10.194372      -277.4030
   9   1.0000     -10.194337      -277.4020
  10   1.0000      -1.207558       -32.8593
  11   1.0000      -0.952018       -25.9057
  12   1.0000      -0.841469       -22.8975
  13   1.0000      -0.743599       -20.2344
  14   1.0000      -0.736604       -20.0440
  15   1.0000      -0.698002       -18.9936
  16   1.0000      -0.609815       -16.5939
  17   1.0000      -0.599038       -16.3007
  18   1.0000      -0.532238       -14.4829
  19   1.0000      -0.525184       -14.2910
  20   1.0000      -0.475496       -12.9389
  21   1.0000      -0.454390       -12.3646
  22   1.0000      -0.443460       -12.0672
  23   1.0000      -0.429113       -11.6768
  24   1.0000      -0.413941       -11.2639
  25   1.0000      -0.405002       -11.0207
  26   1.0000      -0.396114       -10.7788
  27   1.0000      -0.385789       -10.4978
  28   1.0000      -0.360042        -9.7972
  29   1.0000      -0.347389        -9.4529
  30   1.0000      -0.345198        -9.3933
  31   1.0000      -0.315654        -8.5894
  32   1.0000      -0.291567        -7.9339
  33   1.0000      -0.248257        -6.7554
  34   1.0000      -0.210928        -5.7396
  35   1.0000      -0.200436        -5.4541
  36   0.0000       0.000308         0.0084
  37   0.0000       0.020153         0.5484
  38   0.0000       0.094521         2.5720
  39   0.0000       0.100281         2.7288
  40   0.0000       0.116452         3.1688

MULLIKEN ATOMIC CHARGES AND SPIN POPULATIONS
--------------------------------------------
   0 C :   -0.225746    0.212606
   1 C :   -0.220117   -0.130550
   2 C :    0.263002    0.310687
   3 C :   -0.217866   -0.129580
   4 C :   -0.215381    0.216849
   5 C :   -0.019211    0.069064
   6 C :   -0.041233    0.216723
   7 O :   -0.421389    0.241734
   8 C :   -0.349234   -0.029983
   9 H :    0.123181    0.012310
  10 H :    0.123111    0.012110
  11 H :    0.103021   -0.000442
  12 H :    0.072328   -0.013364
  13 H :    0.099637    0.004951
  14 F :   -0.265463    0.014115
  15 H :    0.099458    0.005104
  16 H :    0.091901   -0.012334
Sum of atomic charges         :   -1.0000000

LOEWDIN ATOMIC CHARGES AND SPIN POPULATIONS
-------------------------------------------
   0 C :   -0.185683    0.163041
   1 C :   -0.195291   -0.070745
   2 C :   -0.018411    0.243305
   3 C :   -0.194451   -0.068927
   4 C :   -0.172281    0.168413
   5 C :   -0.164948    0.092370
   6 C :   -0.070014    0.204891
   7 O :   -0.368085    0.240441
   8 C :   -0.378768   -0.008879
   9 H :    0.120874    0.010425
  10 H :    0.120794    0.010266
  11 H :    0.115524   -0.000155
  12 H :    0.119347   -0.006208
  13 H :    0.134303    0.002298
  14 F :   -0.123548    0.022835
  15 H :    0.135113    0.002338
  16 H :    0.125524   -0.005711

  Mayer bond orders larger than 0.100000
B(  0-C ,  1-C ) :   1.4338 B(  0-C ,  5-C ) :   1.1981 B(  0-C , 16-H ) :   0.9496
B(  1-C ,  2-C ) :   1.2927 B(  1-C , 15-H ) :   0.9611 B(  2-C ,  3-C ) :   1.2744
B(  2-C , 14-F ) :   0.9873 B(  3-C ,  4-C ) :   1.4213 B(  3-C , 13-H ) :   0.9647
B(  4-C ,  5-C ) :   1.1993 B(  4-C , 12-H ) :   0.9595 B(  5-C ,  6-C ) :   1.2261
B(  6-C ,  7-O ) :   1.8666 B(  6-C ,  8-C ) :   1.0784 B(  8-C ,  9-H ) :   0.9293
B(  8-C , 10-H ) :   0.9294 B(  8-C , 11-H ) :   0.9460

Dispersion correction           -0.015259494
FINAL SINGLE POINT ENERGY      -483.322173142023

DIPOLE MOMENT
-------------

Method             : SCF
Type of density    : Electron Density
Multiplicity       :   2
Irrep              :   0
Energy             :  -483.3069136481406076 Eh
Relativity type    :
Basis              : AO
                                X                 Y                 Z
Electronic contribution:     11.106203480      -3.068114866       0.006126921
Nuclear contribution   :     -9.605022052       4.339979394      -0.008952288
                        -----------------------------------------
Total Dipole Moment    :      1.501181428       1.271864528      -0.002825368
                        -----------------------------------------
Magnitude (a.u.)       :      1.967534762
Magnitude (Debye)      :      5.001075923

Rotational constants in cm-1:             0.120477             0.025447             0.021093
Rotational constants in MHz :          3611.819072           762.893094           632.354459

                             ****ORCA TERMINATED NORMALLY****
TOTAL RUN TIME: 0 days 0 hours 7 minutes 59 seconds 741 msec
