                         Program Version 6.0.0  -   RELEASE  -
|  1> !PBE0 aug-cc-pVTZ d3 TightSCF SlowConv RIJCOSX defgrid2
|  2>
|  3> %pal
|  4> nprocs 4
|  5> end
|  6>
|  7> %scf
|  8> MaxIter 1500
|  9> end
| 10>
| 11> %maxcore 3000
| 12>
| 13> !CPCM
| 14> %cpcm smd true
| 15> SMDsolvent "MeCN"
| 16> surfacetype gepol_ses
| 17> rsolv 2.19
| 18> end
| 19>
| 20> * xyz 1 2
| 21> C          -1.06386344655545     -0.91329923764825      0.00354757702725
| 22> C           0.22163478430249     -1.40337223094175      0.04858043804036
| 23> C           0.53945025913243     -2.86197889510622      0.10169084984005
| 24> H          -0.37259520711996     -3.47715377611844      0.08589055463224
| 25> H           1.10475563615799     -3.10497153663765      1.01926780026075
| 26> H           1.17109714187519     -3.15621662267989     -0.75541137044371
| 27> C           1.27360747036098     -0.44465743263894      0.04352288846465
| 28> C           1.04730295949006      0.97973504194292     -0.00482697142823
| 29> C           2.21826802319715      1.89495355633420     -0.00501918248716
| 30> H           2.87852806587755      1.67773079367681     -0.86595049735279
| 31> H           1.91752465121824      2.95187818048041     -0.04884973003982
| 32> H           2.83071273968936      1.73802851771994      0.90320153771289
| 33> C          -0.25714882442837      1.42208817632644     -0.04842885905841
| 34> C          -1.33212517936375      0.50020425527138     -0.04514025959234
| 35> C          -2.73438084453214      0.95960010306211     -0.09132088440263
| 36> H          -3.24557910809032      0.52601718911780     -0.97488501067325
| 37> H          -2.82792542810869      2.05448934777564     -0.12005666171949
| 38> H          -3.29093535822372      0.56719702138835      0.78377537035428
| 39> H          -0.47441598823820      2.49274908825876     -0.08618140398361
| 40> H           2.30992878348264     -0.80041103745640      0.07738415126096
| 41> H          -1.91351563012347     -1.60314880212721      0.00441476358802
| 42> *
| 43>
| 44>                          ****END OF INPUT****

CARTESIAN COORDINATES (ANGSTROEM)
---------------------------------
  C     -1.063863   -0.913299    0.003548
  C      0.221635   -1.403372    0.048580
  C      0.539450   -2.861979    0.101691
  H     -0.372595   -3.477154    0.085891
  H      1.104756   -3.104972    1.019268
  H      1.171097   -3.156217   -0.755411
  C      1.273607   -0.444657    0.043523
  C      1.047303    0.979735   -0.004827
  C      2.218268    1.894954   -0.005019
  H      2.878528    1.677731   -0.865950
  H      1.917525    2.951878   -0.048850
  H      2.830713    1.738029    0.903202
  C     -0.257149    1.422088   -0.048429
  C     -1.332125    0.500204   -0.045140
  C     -2.734381    0.959600   -0.091321
  H     -3.245579    0.526017   -0.974885
  H     -2.827925    2.054489   -0.120057
  H     -3.290935    0.567197    0.783775
  H     -0.474416    2.492749   -0.086181
  H      2.309929   -0.800411    0.077384
  H     -1.913516   -1.603149    0.004415

 Total Charge           Charge          ....    1
 Multiplicity           Mult            ....    2
 Number of Electrons    NEL             ....   65
 Basis Dimension        Dim             ....  690

ORBITAL ENERGIES
----------------
                 SPIN UP ORBITALS
  NO   OCC          E(Eh)            E(eV)
   0   1.0000     -10.317951      -280.7657
   1   1.0000     -10.307147      -280.4717
   2   1.0000     -10.297391      -280.2062
   3   1.0000     -10.283844      -279.8376
   4   1.0000     -10.276825      -279.6466
   5   1.0000     -10.263892      -279.2947
   6   1.0000     -10.242346      -278.7084
   7   1.0000     -10.237108      -278.5659
   8   1.0000     -10.233255      -278.4610
   9   1.0000      -0.939023       -25.5521
  10   1.0000      -0.853342       -23.2206
  11   1.0000      -0.845874       -23.0174
  12   1.0000      -0.747273       -20.3343
  13   1.0000      -0.737303       -20.0630
  14   1.0000      -0.733975       -19.9725
  15   1.0000      -0.629863       -17.1394
  16   1.0000      -0.625668       -17.0253
  17   1.0000      -0.547302       -14.8928
  18   1.0000      -0.536354       -14.5949
  19   1.0000      -0.478687       -13.0257
  20   1.0000      -0.476970       -12.9790
  21   1.0000      -0.453317       -12.3354
  22   1.0000      -0.449182       -12.2229
  23   1.0000      -0.448276       -12.1982
  24   1.0000      -0.439423       -11.9573
  25   1.0000      -0.426567       -11.6075
  26   1.0000      -0.425349       -11.5743
  27   1.0000      -0.395007       -10.7487
  28   1.0000      -0.385039       -10.4774
  29   1.0000      -0.382847       -10.4178
  30   1.0000      -0.381025       -10.3682
  31   1.0000      -0.307675        -8.3723
  32   1.0000      -0.295705        -8.0465
  33   0.0000      -0.076162        -2.0725
  34   0.0000      -0.037943        -1.0325
  35   0.0000      -0.002680        -0.0729
  36   0.0000       0.011278         0.3069
  37   0.0000       0.012049         0.3279

                 SPIN DOWN ORBITALS
  NO   OCC          E(Eh)            E(eV)
   0   1.0000     -10.312851      -280.6269
   1   1.0000     -10.299121      -280.2533
   2   1.0000     -10.296449      -280.1806
   3   1.0000     -10.285182      -279.8740
   4   1.0000     -10.274628      -279.5868
   5   1.0000     -10.264222      -279.3037
   6   1.0000     -10.242304      -278.7073
   7   1.0000     -10.236993      -278.5627
   8   1.0000     -10.233137      -278.4578
   9   1.0000      -0.928857       -25.2755
  10   1.0000      -0.844917       -22.9914
  11   1.0000      -0.839946       -22.8561
  12   1.0000      -0.745501       -20.2861
  13   1.0000      -0.731313       -19.9000
  14   1.0000      -0.725289       -19.7361
  15   1.0000      -0.623059       -16.9543
  16   1.0000      -0.621550       -16.9132
  17   1.0000      -0.543812       -14.7979
  18   1.0000      -0.533085       -14.5060
  19   1.0000      -0.475719       -12.9450
  20   1.0000      -0.459877       -12.5139
  21   1.0000      -0.453000       -12.3268
  22   1.0000      -0.444611       -12.0985
  23   1.0000      -0.438064       -11.9203
  24   1.0000      -0.436842       -11.8871
  25   1.0000      -0.425546       -11.5797
  26   1.0000      -0.424286       -11.5454
  27   1.0000      -0.393572       -10.7096
  28   1.0000      -0.383576       -10.4376
  29   1.0000      -0.378191       -10.2911
  30   1.0000      -0.361064        -9.8251
  31   1.0000      -0.291454        -7.9309
  32   0.0000      -0.202103        -5.4995
  33   0.0000      -0.037616        -1.0236
  34   0.0000      -0.025449        -0.6925
  35   0.0000      -0.001794        -0.0488
  36   0.0000       0.011832         0.3220

MULLIKEN ATOMIC CHARGES AND SPIN POPULATIONS
--------------------------------------------
   0 C :   -0.802029    0.167477
   1 C :    0.741620   -0.103550
   2 C :   -0.717446    0.010576
   3 H :    0.252892   -0.000662
   4 H :    0.263522   -0.001425
   5 H :    0.259427   -0.001437
   6 C :   -1.239839    0.470897
   7 C :    0.782158    0.074696
   8 C :   -0.696755    0.000066
   9 H :    0.270624    0.009383
  10 H :    0.245472   -0.002771
  11 H :    0.270591    0.009560
  12 C :   -0.408932   -0.017131
  13 C :    0.941205    0.358601
  14 C :   -0.624653   -0.018657
  15 H :    0.274333    0.031087
  16 H :    0.256820   -0.006637
  17 H :    0.272448    0.030474
  18 H :    0.168007   -0.002249
  19 H :    0.260188   -0.005742
  20 H :    0.230348   -0.002555
Sum of atomic charges         :    1.0000000

LOEWDIN ATOMIC CHARGES AND SPIN POPULATIONS
-------------------------------------------
   0 C :    0.303983    0.109779
   1 C :   -0.069159    0.062518
   2 C :    0.603526   -0.001594
   3 H :   -0.153167    0.000339
   4 H :   -0.139575    0.000178
   5 H :   -0.140128    0.000170
   6 C :    0.344094    0.269198
   7 C :   -0.059053    0.108494
   8 C :    0.612181    0.023232
   9 H :   -0.133126    0.006309
  10 H :   -0.148598    0.001354
  11 H :   -0.132888    0.006383
  12 C :    0.295459    0.051390
  13 C :   -0.044503    0.188612
  14 C :    0.628282    0.067183
  15 H :   -0.122525    0.017024
  16 H :   -0.144183    0.002601
  17 H :   -0.123005    0.016740
  18 H :   -0.139313   -0.000134
  19 H :   -0.109739    0.054183
  20 H :   -0.128561    0.016042

  Mayer bond orders larger than 0.100000
B(  0-C ,  1-C ) :   0.9643 B(  0-C ,  2-C ) :  -0.1421 B(  0-C , 13-C ) :   0.4980
B(  0-C , 14-C ) :   0.1468 B(  0-C , 20-H ) :   1.0501 B(  1-C ,  2-C ) :   0.5626
B(  1-C ,  6-C ) :   0.6735 B(  1-C ,  7-C ) :   0.2968 B(  1-C , 13-C ) :   0.3173
B(  2-C ,  3-H ) :   0.9267 B(  2-C ,  4-H ) :   0.9530 B(  2-C ,  5-H ) :   0.9565
B(  2-C ,  6-C ) :   0.1675 B(  6-C ,  7-C ) :   0.6153 B(  6-C ,  8-C ) :   0.1596
B(  6-C , 13-C ) :  -0.3009 B(  6-C , 19-H ) :   0.9994 B(  7-C ,  8-C ) :   0.5142
B(  7-C , 12-C ) :   0.8564 B(  7-C , 13-C ) :   0.3285 B(  8-C ,  9-H ) :   0.9400
B(  8-C , 10-H ) :   0.9432 B(  8-C , 11-H ) :   0.9400 B(  8-C , 12-C ) :  -0.1579
B( 12-C , 13-C ) :   0.5285 B( 12-C , 18-H ) :   1.1942 B( 13-C , 14-C ) :   0.5589
B( 14-C , 15-H ) :   0.9184 B( 14-C , 16-H ) :   0.9377 B( 14-C , 17-H ) :   0.9201

Dispersion correction           -0.017913297
FINAL SINGLE POINT ENERGY      -349.688699069805

DIPOLE MOMENT
-------------

Method             : SCF
Type of density    : Electron Density
Multiplicity       :   2
Irrep              :   0
Energy             :  -349.6707857723173447 Eh
Relativity type    :
Basis              : AO
                                X                 Y                 Z
Electronic contribution:     -0.254332108       0.328889302      -0.019549195
Nuclear contribution   :      0.172059902      -0.262839703       0.016137258
                        -----------------------------------------
Total Dipole Moment    :     -0.082272206       0.066049598      -0.003411937
                        -----------------------------------------
Magnitude (a.u.)       :      0.105559967
Magnitude (Debye)      :      0.268312113

Rotational constants in cm-1:             0.058615             0.057378             0.029475
Rotational constants in MHz :          1757.241718          1720.152474           883.633658

                             ****ORCA TERMINATED NORMALLY****
TOTAL RUN TIME: 0 days 0 hours 9 minutes 54 seconds 593 msec
