                         Program Version 6.0.0  -   RELEASE  -
|  1> !TPSSh aug-cc-pVTZ d3 TightSCF SlowConv RIJCOSX defgrid2
|  2>
|  3> %pal
|  4> nprocs 4
|  5> end
|  6>
|  7> %scf
|  8> MaxIter 1500
|  9> end
| 10>
| 11> %maxcore 3000
| 12>
| 13> !CPCM
| 14> %cpcm smd true
| 15> SMDsolvent "MeCN"
| 16> surfacetype gepol_ses
| 17> rsolv 2.19
| 18> end
| 19>
| 20> * xyz 1 2
| 21> C          -1.94605217400678     -1.14602633273004     -0.31228004530400
| 22> C          -1.27946551773851      0.24408441077832     -0.20897492502665
| 23> N           0.01600699561608      0.06744351701809      0.39029195846881
| 24> H           0.06265782979012      0.05391117721033      1.41697390045102
| 25> C           1.25148854883622     -0.09172311464903     -0.32836866073256
| 26> C           1.90177624486915      1.30323669855352     -0.46614331567862
| 27> H           2.17456664951472      1.71255161234552      0.52069722483394
| 28> H           1.23681825466419      2.01161865664215     -0.98621902186020
| 29> H           2.82142391902319      1.18450836803534     -1.06306170139066
| 30> C           2.15574014749067     -1.09567716286551      0.37361772774099
| 31> H           1.67553906419562     -2.08461070530957      0.45496677186850
| 32> H           3.08166929363866     -1.21369164664504     -0.21208064192341
| 33> H           2.44114524539303     -0.74645819923523      1.38177992392114
| 34> H           0.97579493542327     -0.44455026880370     -1.33762113459450
| 35> C          -2.11057591663361      1.23704215369463      0.59223096402592
| 36> H          -1.61862942705056      2.22182755506889      0.65043188583308
| 37> H          -2.30656920422753      0.86778750595824      1.61446351535389
| 38> H          -3.08448029295519      1.37194719861582      0.09450678436786
| 39> H          -1.09645939641756      0.61566302218729     -1.23236453185842
| 40> H          -1.33402126313580     -1.84665456543689     -0.90298607858241
| 41> H          -2.12992557602449     -1.57272950513057      0.68767946741479
| 42> H          -2.91556146026488     -1.01417817530256     -0.82104716732853
| 43> *
| 44>
| 45>                          ****END OF INPUT****

CARTESIAN COORDINATES (ANGSTROEM)
---------------------------------
  C     -1.946052   -1.146026   -0.312280
  C     -1.279466    0.244084   -0.208975
  N      0.016007    0.067444    0.390292
  H      0.062658    0.053911    1.416974
  C      1.251489   -0.091723   -0.328369
  C      1.901776    1.303237   -0.466143
  H      2.174567    1.712552    0.520697
  H      1.236818    2.011619   -0.986219
  H      2.821424    1.184508   -1.063062
  C      2.155740   -1.095677    0.373618
  H      1.675539   -2.084611    0.454967
  H      3.081669   -1.213692   -0.212081
  H      2.441145   -0.746458    1.381780
  H      0.975795   -0.444550   -1.337621
  C     -2.110576    1.237042    0.592231
  H     -1.618629    2.221828    0.650432
  H     -2.306569    0.867788    1.614464
  H     -3.084480    1.371947    0.094507
  H     -1.096459    0.615663   -1.232365
  H     -1.334021   -1.846655   -0.902986
  H     -2.129926   -1.572730    0.687679
  H     -2.915561   -1.014178   -0.821047

 Total Charge           Charge          ....    1
 Multiplicity           Mult            ....    2
 Number of Electrons    NEL             ....   57
 Basis Dimension        Dim             ....  667

ORBITAL ENERGIES
----------------
                 SPIN UP ORBITALS
  NO   OCC          E(Eh)            E(eV)
   0   1.0000     -14.378965      -391.2715
   1   1.0000     -10.189699      -277.2758
   2   1.0000     -10.189558      -277.2720
   3   1.0000     -10.131113      -275.6816
   4   1.0000     -10.131036      -275.6795
   5   1.0000     -10.123778      -275.4820
   6   1.0000     -10.123605      -275.4773
   7   1.0000      -0.993178       -27.0257
   8   1.0000      -0.812533       -22.1101
   9   1.0000      -0.749385       -20.3918
  10   1.0000      -0.692909       -18.8550
  11   1.0000      -0.687963       -18.7204
  12   1.0000      -0.624582       -16.9957
  13   1.0000      -0.615469       -16.7478
  14   1.0000      -0.513515       -13.9734
  15   1.0000      -0.492938       -13.4135
  16   1.0000      -0.472988       -12.8707
  17   1.0000      -0.449054       -12.2194
  18   1.0000      -0.435205       -11.8425
  19   1.0000      -0.408653       -11.1200
  20   1.0000      -0.396894       -10.8000
  21   1.0000      -0.387778       -10.5520
  22   1.0000      -0.382584       -10.4106
  23   1.0000      -0.368349       -10.0233
  24   1.0000      -0.365756        -9.9527
  25   1.0000      -0.351814        -9.5734
  26   1.0000      -0.351243        -9.5578
  27   1.0000      -0.347476        -9.4553
  28   1.0000      -0.295738        -8.0475
  29   0.0000      -0.008010        -0.2180
  30   0.0000       0.005047         0.1373
  31   0.0000       0.007273         0.1979
  32   0.0000       0.008816         0.2399
  33   0.0000       0.027410         0.7459

                 SPIN DOWN ORBITALS
  NO   OCC          E(Eh)            E(eV)
   0   1.0000     -14.360114      -390.7586
   1   1.0000     -10.190013      -277.2844
   2   1.0000     -10.189871      -277.2805
   3   1.0000     -10.129219      -275.6301
   4   1.0000     -10.129149      -275.6282
   5   1.0000     -10.123255      -275.4678
   6   1.0000     -10.123094      -275.4634
   7   1.0000      -0.961414       -26.1614
   8   1.0000      -0.808970       -22.0132
   9   1.0000      -0.738175       -20.0868
  10   1.0000      -0.687616       -18.7110
  11   1.0000      -0.684821       -18.6349
  12   1.0000      -0.618537       -16.8312
  13   1.0000      -0.612735       -16.6734
  14   1.0000      -0.506518       -13.7831
  15   1.0000      -0.487728       -13.2717
  16   1.0000      -0.446262       -12.1434
  17   1.0000      -0.444154       -12.0861
  18   1.0000      -0.428354       -11.6561
  19   1.0000      -0.405716       -11.0401
  20   1.0000      -0.391894       -10.6640
  21   1.0000      -0.384972       -10.4756
  22   1.0000      -0.380528       -10.3547
  23   1.0000      -0.364141        -9.9088
  24   1.0000      -0.357754        -9.7350
  25   1.0000      -0.349999        -9.5240
  26   1.0000      -0.346660        -9.4331
  27   1.0000      -0.344924        -9.3859
  28   0.0000      -0.182332        -4.9615
  29   0.0000      -0.007350        -0.2000
  30   0.0000       0.005854         0.1593
  31   0.0000       0.007592         0.2066
  32   0.0000       0.009762         0.2656

MULLIKEN ATOMIC CHARGES AND SPIN POPULATIONS
--------------------------------------------
   0 C :   -0.398140    0.105936
   1 C :    0.602916   -0.127660
   2 N :    0.073264    0.894412
   3 H :    0.046885   -0.016257
   4 C :    0.597552   -0.128136
   5 C :   -0.395638    0.106074
   6 H :    0.104480    0.006018
   7 H :    0.112086    0.000870
   8 H :    0.073407    0.020516
   9 C :   -0.437995    0.038077
  10 H :    0.088906    0.002479
  11 H :    0.087721    0.005834
  12 H :    0.119677    0.000771
  13 H :    0.088402    0.008350
  14 C :   -0.439215    0.038566
  15 H :    0.086244    0.002556
  16 H :    0.118409    0.000823
  17 H :    0.089246    0.005960
  18 H :    0.092336    0.007637
  19 H :    0.109177    0.000984
  20 H :    0.104636    0.005869
  21 H :    0.075645    0.020321
Sum of atomic charges         :    1.0000000

LOEWDIN ATOMIC CHARGES AND SPIN POPULATIONS
-------------------------------------------
   0 C :    0.636499    0.051584
   1 C :   -0.092771    0.096607
   2 N :    0.705869    0.526142
   3 H :   -0.152951    0.069084
   4 C :   -0.092909    0.096838
   5 C :    0.636605    0.051781
   6 H :   -0.139472    0.004815
   7 H :   -0.141751    0.004344
   8 H :   -0.138099    0.014162
   9 C :    0.624807    0.016522
  10 H :   -0.141993    0.001949
  11 H :   -0.141604    0.003861
  12 H :   -0.139553    0.001014
  13 H :   -0.102372    0.007260
  14 C :    0.624725    0.016809
  15 H :   -0.142114    0.001976
  16 H :   -0.139651    0.001034
  17 H :   -0.141470    0.003965
  18 H :   -0.102378    0.007020
  19 H :   -0.141834    0.004332
  20 H :   -0.139399    0.004785
  21 H :   -0.138184    0.014117

  Mayer bond orders larger than 0.100000
B(  0-C ,  1-C ) :   0.9007 B(  0-C ,  2-N ) :   0.1054 B(  0-C , 14-C ) :   0.1194
B(  0-C , 19-H ) :   0.9716 B(  0-C , 20-H ) :   0.9575 B(  0-C , 21-H ) :   1.0202
B(  1-C ,  2-N ) :   0.9066 B(  1-C , 14-C ) :   0.9274 B(  1-C , 18-H ) :   0.8686
B(  2-N ,  3-H ) :   0.9208 B(  2-N ,  4-C ) :   0.9129 B(  2-N ,  5-C ) :   0.1062
B(  4-C ,  5-C ) :   0.9038 B(  4-C ,  9-C ) :   0.9273 B(  4-C , 13-H ) :   0.8692
B(  5-C ,  6-H ) :   0.9574 B(  5-C ,  7-H ) :   0.9682 B(  5-C ,  8-H ) :   1.0226
B(  5-C ,  9-C ) :   0.1187 B(  9-C , 10-H ) :   0.9773 B(  9-C , 11-H ) :   1.0118
B(  9-C , 12-H ) :   0.9414 B( 14-C , 15-H ) :   0.9798 B( 14-C , 16-H ) :   0.9425
B( 14-C , 17-H ) :   1.0088

Dispersion correction           -0.020698671
FINAL SINGLE POINT ENERGY      -292.389734010244

DIPOLE MOMENT
-------------

Method             : SCF
Type of density    : Electron Density
Multiplicity       :   2
Irrep              :   0
Energy             :  -292.3690353389134202 Eh
Relativity type    :
Basis              : AO
                                X                 Y                 Z
Electronic contribution:      0.010809543      -0.011988838       0.202140595
Nuclear contribution   :      0.001368449       0.006688621       0.038653602
                        -----------------------------------------
Total Dipole Moment    :      0.012177992      -0.005300218       0.240794197
                        -----------------------------------------
Magnitude (a.u.)       :      0.241160198
Magnitude (Debye)      :      0.612980509

Rotational constants in cm-1:             0.132886             0.050590             0.041714
Rotational constants in MHz :          3983.810476          1516.635197          1250.539791

                             ****ORCA TERMINATED NORMALLY****
TOTAL RUN TIME: 0 days 0 hours 5 minutes 48 seconds 321 msec
