                         Program Version 6.0.0  -   RELEASE  -
|  1> !r2SCANh aug-cc-pVTZ d3 TightSCF SlowConv RIJCOSX defgrid2
|  2>
|  3> %pal
|  4> nprocs 4
|  5> end
|  6>
|  7> %scf
|  8> MaxIter 1500
|  9> end
| 10>
| 11> %maxcore 3000
| 12>
| 13> !CPCM
| 14> %cpcm smd true
| 15> SMDsolvent "MeCN"
| 16> surfacetype gepol_ses
| 17> rsolv 2.19
| 18> end
| 19>
| 20> * xyz 0 1
| 21> C          -0.70040560978015      1.38862025457992      0.01444069210645
| 22> C          -1.91245524702018      0.69567306005554      0.01462586157947
| 23> C          -1.91249387248428     -0.69558156366748     -0.01462751179559
| 24> C          -0.70048149668899     -1.38859471559027     -0.01444474347923
| 25> C           0.51701567119323     -0.70749863359451      0.00344351300980
| 26> N           1.75688785576029     -1.35032496518044     -0.01869709041630
| 27> H           2.43013802514878     -0.92879340551386      0.62128772624243
| 28> H           1.70402046370050     -2.35551735549936      0.11662272713410
| 29> C           0.51705531626238      0.70745871640913     -0.00345498008622
| 30> N           1.75696057869555      1.35021757408851      0.01868096018628
| 31> H           2.43019999443086      0.92862198390732     -0.62127304374208
| 32> H           1.70415275870095      2.35540776572739     -0.11667373624575
| 33> H          -0.69435322474112     -2.48383255240663     -0.01483473135793
| 34> H          -2.85473613557899     -1.25061144525607     -0.02611079663032
| 35> H          -2.85466720705613      1.25075497082180      0.02610952373100
| 36> H          -0.69421807054270      2.48385751111900      0.01483302976389
| 37> *
| 38>
| 39>                          ****END OF INPUT****

CARTESIAN COORDINATES (ANGSTROEM)
---------------------------------
  C     -0.700406    1.388620    0.014441
  C     -1.912455    0.695673    0.014626
  C     -1.912494   -0.695582   -0.014628
  C     -0.700481   -1.388595   -0.014445
  C      0.517016   -0.707499    0.003444
  N      1.756888   -1.350325   -0.018697
  H      2.430138   -0.928793    0.621288
  H      1.704020   -2.355517    0.116623
  C      0.517055    0.707459   -0.003455
  N      1.756961    1.350218    0.018681
  H      2.430200    0.928622   -0.621273
  H      1.704153    2.355408   -0.116674
  H     -0.694353   -2.483833   -0.014835
  H     -2.854736   -1.250611   -0.026111
  H     -2.854667    1.250755    0.026110
  H     -0.694218    2.483858    0.014833

 Total Charge           Charge          ....    0
 Multiplicity           Mult            ....    1
 Number of Electrons    NEL             ....   58
 Basis Dimension        Dim             ....  552

ORBITAL ENERGIES
----------------

  NO   OCC          E(Eh)            E(eV)
   0   2.0000     -14.303364      -389.2143
   1   2.0000     -14.303350      -389.2139
   2   2.0000     -10.190945      -277.3097
   3   2.0000     -10.190501      -277.2976
   4   2.0000     -10.150853      -276.2188
   5   2.0000     -10.150842      -276.2185
   6   2.0000     -10.149035      -276.1693
   7   2.0000     -10.148505      -276.1549
   8   2.0000      -0.935743       -25.4629
   9   2.0000      -0.887274       -24.1440
  10   2.0000      -0.827355       -22.5135
  11   2.0000      -0.728802       -19.8317
  12   2.0000      -0.711531       -19.3617
  13   2.0000      -0.607552       -16.5323
  14   2.0000      -0.584047       -15.8927
  15   2.0000      -0.512380       -13.9426
  16   2.0000      -0.505302       -13.7500
  17   2.0000      -0.477265       -12.9870
  18   2.0000      -0.460686       -12.5359
  19   2.0000      -0.427093       -11.6218
  20   2.0000      -0.407886       -11.0991
  21   2.0000      -0.405512       -11.0346
  22   2.0000      -0.387657       -10.5487
  23   2.0000      -0.344394        -9.3714
  24   2.0000      -0.328210        -8.9310
  25   2.0000      -0.308921        -8.4062
  26   2.0000      -0.301842        -8.2135
  27   2.0000      -0.225826        -6.1450
  28   2.0000      -0.190047        -5.1714
  29   0.0000      -0.014176        -0.3857
  30   0.0000       0.000124         0.0034
  31   0.0000       0.006855         0.1865
  32   0.0000       0.020891         0.5685
  33   0.0000       0.024672         0.6714

MULLIKEN ATOMIC CHARGES
-----------------------
   0 C :   -0.976658
   1 C :   -0.532015
   2 C :   -0.533524
   3 C :   -0.976291
   4 C :    1.170456
   5 N :   -0.615510
   6 H :    0.075423
   7 H :   -0.000314
   8 C :    1.170658
   9 N :   -0.615659
  10 H :    0.075239
  11 H :   -0.000445
  12 H :    0.399567
  13 H :    0.479040
  14 H :    0.479786
  15 H :    0.400247
Sum of atomic charges:    0.0000000

LOEWDIN ATOMIC CHARGES
----------------------
   0 C :    0.191391
   1 C :    0.149690
   2 C :    0.149694
   3 C :    0.191399
   4 C :   -0.250270
   5 N :    0.851838
   6 H :   -0.300688
   7 H :   -0.287144
   8 C :   -0.250282
   9 N :    0.851814
  10 H :   -0.300727
  11 H :   -0.287138
  12 H :   -0.171082
  13 H :   -0.183705
  14 H :   -0.183705
  15 H :   -0.171085

  Mayer bond orders larger than 0.100000
B(  0-C ,  1-C ) :   1.3097 B(  0-C ,  8-C ) :   0.6918 B(  0-C , 15-H ) :   0.5232
B(  1-C ,  2-C ) :   1.1718 B(  1-C ,  8-C ) :  -0.2012 B(  1-C , 14-H ) :   0.5842
B(  2-C ,  3-C ) :   1.3106 B(  2-C ,  4-C ) :  -0.2009 B(  2-C , 13-H ) :   0.5857
B(  3-C ,  4-C ) :   0.6910 B(  3-C , 12-H ) :   0.5241 B(  4-C ,  5-N ) :   0.1485
B(  4-C ,  8-C ) :   0.7273 B(  4-C ,  9-N ) :   0.1420 B(  4-C , 12-H ) :   0.1460
B(  5-N ,  6-H ) :   1.0798 B(  5-N ,  7-H ) :   1.1168 B(  5-N ,  8-C ) :   0.1418
B(  8-C ,  9-N ) :   0.1477 B(  8-C , 10-H ) :  -0.1000 B(  8-C , 15-H ) :   0.1459
B(  9-N , 10-H ) :   1.0794 B(  9-N , 11-H ) :   1.1174

Dispersion correction           -0.004861554
FINAL SINGLE POINT ENERGY      -342.901372845853

DIPOLE MOMENT
-------------

Method             : SCF
Type of density    : Electron Density
Multiplicity       :   1
Irrep              :   0
Energy             :  -342.8965112914151518 Eh
Relativity type    :
Basis              : AO
                                X                 Y                 Z
Electronic contribution:     -0.210444380      -0.000074296      -0.000059312
Nuclear contribution   :      1.113968872      -0.000058108      -0.000004171
                        -----------------------------------------
Total Dipole Moment    :      0.903524492      -0.000132403      -0.000063483
                        -----------------------------------------
Magnitude (a.u.)       :      0.903524504
Magnitude (Debye)      :      2.296576777

Rotational constants in cm-1:             0.112095             0.073765             0.044684
Rotational constants in MHz :          3360.536612          2211.428639          1339.595991

                             ****ORCA TERMINATED NORMALLY****
TOTAL RUN TIME: 0 days 0 hours 4 minutes 49 seconds 788 msec
