                         Program Version 6.0.0  -   RELEASE  -
|  1> !r2SCANh aug-cc-pVTZ d3 TightSCF SlowConv RIJCOSX defgrid2
|  2>
|  3> %pal
|  4> nprocs 4
|  5> end
|  6>
|  7> %scf
|  8> MaxIter 1500
|  9> end
| 10>
| 11> %maxcore 3000
| 12>
| 13> !CPCM
| 14> %cpcm smd true
| 15> SMDsolvent "MeCN"
| 16> surfacetype gepol_ses
| 17> rsolv 2.19
| 18> end
| 19>
| 20> * xyz 1 2
| 21> C           1.36337197862367      0.00925782782262      0.00042331345329
| 22> C           0.74822645901465      1.29296895528656      0.00038316234352
| 23> C          -0.61529602246028      1.39626207073000      0.00023060917101
| 24> C          -1.42835414240665      0.22289484643639      0.00009324782531
| 25> C          -0.81975705014986     -1.06228254929373      0.00009847310954
| 26> C           0.54832834357610     -1.16073135173507      0.00023403456932
| 27> H           1.01965556748509     -2.14817388841103      0.00023835116044
| 28> H          -1.42717703035162     -1.96898347753981      0.00000365697629
| 29> O          -2.71426815111900      0.42982708435483     -0.00003024655139
| 30> C          -3.65743877124361     -0.63904368121668     -0.00016458675956
| 31> H          -4.64491010243250     -0.16049105257969     -0.00025717007063
| 32> H          -3.53752517507174     -1.25276547158578     -0.90821236062697
| 33> H          -3.53771725035146     -1.25281703649443      0.90787613291043
| 34> H          -1.11664261012245      2.36720004312394      0.00019734665612
| 35> H           1.36186872975284      2.19800021241604      0.00046058429736
| 36> S           3.05618464536732     -0.23274264105176      0.00049319565771
| 37> H           3.42654608188951      1.07420050973759     -0.00198104412179
| 38> *
| 39>
| 40>                          ****END OF INPUT****

CARTESIAN COORDINATES (ANGSTROEM)
---------------------------------
  C      1.363372    0.009258    0.000423
  C      0.748226    1.292969    0.000383
  C     -0.615296    1.396262    0.000231
  C     -1.428354    0.222895    0.000093
  C     -0.819757   -1.062283    0.000098
  C      0.548328   -1.160731    0.000234
  H      1.019656   -2.148174    0.000238
  H     -1.427177   -1.968983    0.000004
  O     -2.714268    0.429827   -0.000030
  C     -3.657439   -0.639044   -0.000165
  H     -4.644910   -0.160491   -0.000257
  H     -3.537525   -1.252765   -0.908212
  H     -3.537717   -1.252817    0.907876
  H     -1.116643    2.367200    0.000197
  H      1.361869    2.198000    0.000461
  S      3.056185   -0.232743    0.000493
  H      3.426546    1.074201   -0.001981

 Total Charge           Charge          ....    1
 Multiplicity           Mult            ....    2
 Number of Electrons    NEL             ....   73
 Basis Dimension        Dim             ....  602

ORBITAL ENERGIES
----------------
                 SPIN UP ORBITALS
  NO   OCC          E(Eh)            E(eV)
   0   1.0000     -88.975706     -2421.1520
   1   1.0000     -19.217582      -522.9370
   2   1.0000     -10.287172      -279.9282
   3   1.0000     -10.261659      -279.2339
   4   1.0000     -10.222774      -278.1758
   5   1.0000     -10.215826      -277.9868
   6   1.0000     -10.211456      -277.8679
   7   1.0000     -10.206711      -277.7387
   8   1.0000     -10.206054      -277.7209
   9   1.0000      -8.040126      -218.7829
  10   1.0000      -5.960578      -162.1956
  11   1.0000      -5.958107      -162.1283
  12   1.0000      -5.956534      -162.0855
  13   1.0000      -1.145922       -31.1821
  14   1.0000      -0.917050       -24.9542
  15   1.0000      -0.844621       -22.9833
  16   1.0000      -0.800499       -21.7827
  17   1.0000      -0.770543       -20.9676
  18   1.0000      -0.711949       -19.3731
  19   1.0000      -0.653565       -17.7844
  20   1.0000      -0.620353       -16.8807
  21   1.0000      -0.564912       -15.3720
  22   1.0000      -0.534483       -14.5440
  23   1.0000      -0.509699       -13.8696
  24   1.0000      -0.508240       -13.8299
  25   1.0000      -0.468621       -12.7518
  26   1.0000      -0.455047       -12.3825
  27   1.0000      -0.448313       -12.1992
  28   1.0000      -0.429322       -11.6824
  29   1.0000      -0.422207       -11.4888
  30   1.0000      -0.389179       -10.5901
  31   1.0000      -0.385863       -10.4999
  32   1.0000      -0.380938       -10.3659
  33   1.0000      -0.350167        -9.5285
  34   1.0000      -0.325954        -8.8697
  35   1.0000      -0.302020        -8.2184
  36   1.0000      -0.250995        -6.8299
  37   0.0000      -0.073021        -1.9870
  38   0.0000      -0.065415        -1.7800
  39   0.0000      -0.025831        -0.7029
  40   0.0000       0.008514         0.2317
  41   0.0000       0.012532         0.3410

                 SPIN DOWN ORBITALS
  NO   OCC          E(Eh)            E(eV)
   0   1.0000     -88.973615     -2421.0951
   1   1.0000     -19.211752      -522.7783
   2   1.0000     -10.284086      -279.8442
   3   1.0000     -10.257148      -279.1112
   4   1.0000     -10.222972      -278.1812
   5   1.0000     -10.215058      -277.9659
   6   1.0000     -10.211603      -277.8718
   7   1.0000     -10.205335      -277.7013
   8   1.0000     -10.205321      -277.7009
   9   1.0000      -8.038624      -218.7421
  10   1.0000      -5.959459      -162.1651
  11   1.0000      -5.955503      -162.0575
  12   1.0000      -5.952168      -161.9667
  13   1.0000      -1.136723       -30.9318
  14   1.0000      -0.908874       -24.7317
  15   1.0000      -0.835671       -22.7398
  16   1.0000      -0.798120       -21.7180
  17   1.0000      -0.766141       -20.8478
  18   1.0000      -0.702910       -19.1271
  19   1.0000      -0.649162       -17.6646
  20   1.0000      -0.614871       -16.7315
  21   1.0000      -0.562680       -15.3113
  22   1.0000      -0.532898       -14.5009
  23   1.0000      -0.506343       -13.7783
  24   1.0000      -0.490606       -13.3501
  25   1.0000      -0.465881       -12.6773
  26   1.0000      -0.454462       -12.3665
  27   1.0000      -0.445812       -12.1312
  28   1.0000      -0.420366       -11.4387
  29   1.0000      -0.410550       -11.1716
  30   1.0000      -0.386944       -10.5293
  31   1.0000      -0.376637       -10.2488
  32   1.0000      -0.366751        -9.9798
  33   1.0000      -0.347110        -9.4453
  34   1.0000      -0.300948        -8.1892
  35   1.0000      -0.295434        -8.0392
  36   0.0000      -0.195244        -5.3129
  37   0.0000      -0.054531        -1.4839
  38   0.0000      -0.041656        -1.1335
  39   0.0000      -0.023271        -0.6332
  40   0.0000       0.009849         0.2680

MULLIKEN ATOMIC CHARGES AND SPIN POPULATIONS
--------------------------------------------
   0 C :    0.898186    0.203358
   1 C :   -0.641717   -0.032782
   2 C :   -0.792221    0.061513
   3 C :    1.230470    0.174150
   4 C :   -0.241687    0.019634
   5 C :   -0.766692    0.048044
   6 H :    0.466789   -0.000850
   7 H :    0.430115    0.013195
   8 O :   -0.621785    0.166971
   9 C :   -0.666251   -0.016880
  10 H :    0.262826   -0.000911
  11 H :    0.303384    0.008342
  12 H :    0.303075    0.008250
  13 H :    0.582293    0.008360
  14 H :    0.316677   -0.000723
  15 S :   -0.237548    0.381626
  16 H :    0.174088   -0.041298
Sum of atomic charges         :    1.0000000

LOEWDIN ATOMIC CHARGES AND SPIN POPULATIONS
-------------------------------------------
   0 C :   -0.549174    0.168810
   1 C :    0.178608    0.040879
   2 C :    0.262017    0.067833
   3 C :   -0.346481    0.131451
   4 C :    0.263957    0.061786
   5 C :    0.158848    0.060314
   6 H :   -0.160013    0.003027
   7 H :   -0.158306    0.005879
   8 O :    0.642778    0.145016
   9 C :    0.423632    0.014670
  10 H :   -0.156630   -0.000481
  11 H :   -0.146260    0.004278
  12 H :   -0.146211    0.004279
  13 H :   -0.143080    0.007805
  14 H :   -0.160631   -0.001231
  15 S :    1.499375    0.249473
  16 H :   -0.462428    0.036211

  Mayer bond orders larger than 0.100000
B(  0-C ,  1-C ) :   0.7675 B(  0-C ,  5-C ) :   0.9390 B(  0-C , 15-S ) :   0.4776
B(  1-C ,  2-C ) :   1.4718 B(  1-C ,  3-C ) :  -0.2750 B(  1-C , 14-H ) :   0.7775
B(  2-C ,  3-C ) :   0.5954 B(  2-C ,  4-C ) :   0.1368 B(  2-C ,  8-O ) :   0.2856
B(  2-C , 13-H ) :   0.3063 B(  3-C ,  4-C ) :   0.8464 B(  3-C ,  5-C ) :  -0.2336
B(  3-C ,  8-O ) :   0.4837 B(  4-C ,  5-C ) :   1.1186 B(  4-C ,  7-H ) :   0.5097
B(  4-C ,  8-O ) :  -0.1821 B(  4-C ,  9-C ) :  -0.1191 B(  4-C , 15-S ) :   0.1230
B(  5-C ,  6-H ) :   0.6093 B(  5-C , 15-S ) :   0.1673 B(  8-O ,  9-C ) :   0.9865
B(  9-C , 10-H ) :   0.9611 B(  9-C , 11-H ) :   0.8840 B(  9-C , 12-H ) :   0.8844
B( 15-S , 16-H ) :   1.0352

Dispersion correction           -0.005704695
FINAL SINGLE POINT ENERGY      -744.681382119269

DIPOLE MOMENT
-------------

Method             : SCF
Type of density    : Electron Density
Multiplicity       :   2
Irrep              :   0
Energy             :  -744.6756774242355732 Eh
Relativity type    :
Basis              : AO
                                X                 Y                 Z
Electronic contribution:      7.725122685       0.893803852       0.001681234
Nuclear contribution   :     -8.043505047      -1.005233306      -0.003147719
                        -----------------------------------------
Total Dipole Moment    :     -0.318382362      -0.111429454      -0.001466485
                        -----------------------------------------
Magnitude (a.u.)       :      0.337321808
Magnitude (Debye)      :      0.857403898

Rotational constants in cm-1:             0.155356             0.023594             0.020567
Rotational constants in MHz :          4657.467859           707.342014           616.570776

                             ****ORCA TERMINATED NORMALLY****
TOTAL RUN TIME: 0 days 0 hours 5 minutes 27 seconds 285 msec
