                         Program Version 6.0.0  -   RELEASE  -
|  1> !B3LYP aug-cc-pVTZ d3 TightSCF SlowConv RIJCOSX defgrid2
|  2>
|  3> %pal
|  4> nprocs 4
|  5> end
|  6>
|  7> %scf
|  8> MaxIter 1500
|  9> end
| 10>
| 11> %maxcore 3000
| 12>
| 13> !CPCM
| 14> %cpcm smd true
| 15> SMDsolvent "MeCN"
| 16> surfacetype gepol_ses
| 17> rsolv 2.19
| 18> end
| 19>
| 20> * xyz 1 2
| 21> N          -0.13330630053238      0.06463805569502     -0.18304866803580
| 22> C          -1.32995968454461     -0.05705711923400      0.61490351827717
| 23> C          -2.57421309286138      0.33481234464037     -0.19256986810199
| 24> H          -3.45480969375926      0.22323852439894      0.46049095721574
| 25> H          -2.70531629638278     -0.32397925846158     -1.06629352870040
| 26> H          -2.52831512549297      1.38214059969960     -0.53226116106563
| 27> H          -1.40987553635449     -1.09741088656851      0.96495289752573
| 28> H          -1.21877257502732      0.60521085770950      1.49113445986830
| 29> C           0.43429422987933     -1.10866495137441     -0.80815428990417
| 30> C           1.14824192611518     -2.02637648462657      0.18904742798723
| 31> H           0.46485226728110     -2.40600168320464      0.96542777225008
| 32> H           1.54101253446494     -2.89222669399406     -0.36800716513612
| 33> H           1.99361403139429     -1.51333347667236      0.67360854639463
| 34> H          -0.40183357197737     -1.65464503658306     -1.28440413538018
| 35> H           1.12467869031116     -0.77476724100708     -1.59754076820295
| 36> C           0.46556546208798      1.36302303485303     -0.38848915911148
| 37> C           1.83969934059673      1.47885748883746      0.27662539319278
| 38> H           2.56824381802577      0.77442980736822     -0.15544421644798
| 39> H           1.77196599043451      1.31206045111972      1.36382157767815
| 40> H           2.21499768699688      2.50090234957054      0.10662332519206
| 41> H           0.56270404138467      1.51155401080161     -1.48061267604024
| 42> H          -0.22507674203997      2.12332900703226      0.00577186054505
| 43> *
| 44>
| 45>                          ****END OF INPUT****

CARTESIAN COORDINATES (ANGSTROEM)
---------------------------------
  N     -0.133306    0.064638   -0.183049
  C     -1.329960   -0.057057    0.614904
  C     -2.574213    0.334812   -0.192570
  H     -3.454810    0.223239    0.460491
  H     -2.705316   -0.323979   -1.066294
  H     -2.528315    1.382141   -0.532261
  H     -1.409876   -1.097411    0.964953
  H     -1.218773    0.605211    1.491134
  C      0.434294   -1.108665   -0.808154
  C      1.148242   -2.026376    0.189047
  H      0.464852   -2.406002    0.965428
  H      1.541013   -2.892227   -0.368007
  H      1.993614   -1.513333    0.673609
  H     -0.401834   -1.654645   -1.284404
  H      1.124679   -0.774767   -1.597541
  C      0.465565    1.363023   -0.388489
  C      1.839699    1.478857    0.276625
  H      2.568244    0.774430   -0.155444
  H      1.771966    1.312060    1.363822
  H      2.214998    2.500902    0.106623
  H      0.562704    1.511554   -1.480613
  H     -0.225077    2.123329    0.005772

 Total Charge           Charge          ....    1
 Multiplicity           Mult            ....    2
 Number of Electrons    NEL             ....   57
 Basis Dimension        Dim             ....  667

ORBITAL ENERGIES
----------------
                 SPIN UP ORBITALS
  NO   OCC          E(Eh)            E(eV)
   0   1.0000     -14.449504      -393.1910
   1   1.0000     -10.235847      -278.5316
   2   1.0000     -10.235371      -278.5186
   3   1.0000     -10.235290      -278.5164
   4   1.0000     -10.184820      -277.1430
   5   1.0000     -10.184138      -277.1245
   6   1.0000     -10.183807      -277.1155
   7   1.0000      -1.022837       -27.8328
   8   1.0000      -0.802746       -21.8438
   9   1.0000      -0.801078       -21.7984
  10   1.0000      -0.734952       -19.9990
  11   1.0000      -0.671099       -18.2615
  12   1.0000      -0.663345       -18.0505
  13   1.0000      -0.586163       -15.9503
  14   1.0000      -0.542141       -14.7524
  15   1.0000      -0.525297       -14.2941
  16   1.0000      -0.500513       -13.6197
  17   1.0000      -0.459449       -12.5022
  18   1.0000      -0.449500       -12.2315
  19   1.0000      -0.440952       -11.9989
  20   1.0000      -0.412620       -11.2280
  21   1.0000      -0.406954       -11.0738
  22   1.0000      -0.400479       -10.8976
  23   1.0000      -0.391409       -10.6508
  24   1.0000      -0.384738       -10.4692
  25   1.0000      -0.369456       -10.0534
  26   1.0000      -0.365836        -9.9549
  27   1.0000      -0.361047        -9.8246
  28   1.0000      -0.299127        -8.1396
  29   0.0000      -0.007792        -0.2120
  30   0.0000       0.004394         0.1196
  31   0.0000       0.007624         0.2074
  32   0.0000       0.010716         0.2916
  33   0.0000       0.027484         0.7479

                 SPIN DOWN ORBITALS
  NO   OCC          E(Eh)            E(eV)
   0   1.0000     -14.431299      -392.6956
   1   1.0000     -10.236296      -278.5438
   2   1.0000     -10.235816      -278.5307
   3   1.0000     -10.235715      -278.5280
   4   1.0000     -10.183341      -277.1028
   5   1.0000     -10.182832      -277.0889
   6   1.0000     -10.182526      -277.0806
   7   1.0000      -0.990906       -26.9639
   8   1.0000      -0.798137       -21.7184
   9   1.0000      -0.796726       -21.6800
  10   1.0000      -0.725909       -19.7530
  11   1.0000      -0.665474       -18.1085
  12   1.0000      -0.659308       -17.9407
  13   1.0000      -0.577248       -15.7077
  14   1.0000      -0.529041       -14.3959
  15   1.0000      -0.520063       -14.1516
  16   1.0000      -0.476681       -12.9711
  17   1.0000      -0.455775       -12.4023
  18   1.0000      -0.444775       -12.1029
  19   1.0000      -0.431405       -11.7391
  20   1.0000      -0.407564       -11.0904
  21   1.0000      -0.399940       -10.8829
  22   1.0000      -0.394325       -10.7301
  23   1.0000      -0.388592       -10.5741
  24   1.0000      -0.381906       -10.3922
  25   1.0000      -0.367334        -9.9957
  26   1.0000      -0.363470        -9.8905
  27   1.0000      -0.358765        -9.7625
  28   0.0000      -0.163590        -4.4515
  29   0.0000      -0.007452        -0.2028
  30   0.0000       0.004929         0.1341
  31   0.0000       0.007755         0.2110
  32   0.0000       0.011125         0.3027

MULLIKEN ATOMIC CHARGES AND SPIN POPULATIONS
--------------------------------------------
   0 N :    0.643628    0.840297
   1 C :   -0.287719   -0.061505
   2 C :   -0.678640    0.081117
   3 H :    0.205144    0.011716
   4 H :    0.206365    0.002121
   5 H :    0.217414    0.000829
   6 H :    0.244369    0.004629
   7 H :    0.179956    0.021334
   8 C :   -0.228139   -0.066192
   9 C :   -0.663398    0.066052
  10 H :    0.209747   -0.000764
  11 H :    0.189575    0.009346
  12 H :    0.230111    0.003494
  13 H :    0.208974    0.036853
  14 H :    0.197388   -0.002622
  15 C :   -0.308645   -0.063736
  16 C :   -0.664076    0.068031
  17 H :    0.253844    0.000607
  18 H :    0.217091    0.002212
  19 H :    0.163459    0.009261
  20 H :    0.211579    0.037491
  21 H :    0.251974   -0.000571
Sum of atomic charges         :    1.0000000

LOEWDIN ATOMIC CHARGES AND SPIN POPULATIONS
-------------------------------------------
   0 N :    0.369430    0.519272
   1 C :    0.236530    0.088252
   2 C :    0.625368    0.039251
   3 H :   -0.140806    0.008767
   4 H :   -0.143466    0.003723
   5 H :   -0.147096    0.003249
   6 H :   -0.121112    0.005017
   7 H :   -0.097567    0.014127
   8 C :    0.238295    0.087094
   9 C :    0.621089    0.033717
  10 H :   -0.150586    0.002680
  11 H :   -0.139254    0.007192
  12 H :   -0.152869    0.003951
  13 H :   -0.096626    0.019544
  14 H :   -0.112593    0.002767
  15 C :    0.237194    0.089593
  16 C :    0.619220    0.034126
  17 H :   -0.153461    0.003014
  18 H :   -0.139199    0.003754
  19 H :   -0.139855    0.007516
  20 H :   -0.093561    0.021300
  21 H :   -0.119074    0.002092

  Mayer bond orders larger than 0.100000
B(  0-N ,  1-C ) :   0.8252 B(  0-N ,  8-C ) :   0.8066 B(  0-N , 15-C ) :   0.8110
B(  1-C ,  2-C ) :   0.8474 B(  1-C ,  6-H ) :   0.9261 B(  1-C ,  7-H ) :   0.9736
B(  2-C ,  3-H ) :   1.0052 B(  2-C ,  4-H ) :   0.9753 B(  2-C ,  5-H ) :   0.9681
B(  8-C ,  9-C ) :   0.8189 B(  8-C , 13-H ) :   0.9092 B(  8-C , 14-H ) :   1.0255
B(  9-C , 10-H ) :   0.9800 B(  9-C , 11-H ) :   1.0104 B(  9-C , 12-H ) :   0.9528
B( 15-C , 16-C ) :   0.8527 B( 15-C , 20-H ) :   0.9369 B( 15-C , 21-H ) :   0.9613
B( 16-C , 17-H ) :   0.9346 B( 16-C , 18-H ) :   0.9624 B( 16-C , 19-H ) :   1.0463

Dispersion correction           -0.030436043
FINAL SINGLE POINT ENERGY      -292.173078293558

DIPOLE MOMENT
-------------

Method             : SCF
Type of density    : Electron Density
Multiplicity       :   2
Irrep              :   0
Energy             :  -292.1426422507719849 Eh
Relativity type    :
Basis              : AO
                                X                 Y                 Z
Electronic contribution:     -0.707534253       0.367188526      -0.688648910
Nuclear contribution   :      0.524236393      -0.282986655       0.510171142
                        -----------------------------------------
Total Dipole Moment    :     -0.183297860       0.084201872      -0.178477768
                        -----------------------------------------
Magnitude (a.u.)       :      0.269336916
Magnitude (Debye)      :      0.684600035

Rotational constants in cm-1:             0.091790             0.068571             0.045776
Rotational constants in MHz :          2751.807698          2055.699126          1372.315040

                             ****ORCA TERMINATED NORMALLY****
TOTAL RUN TIME: 0 days 0 hours 5 minutes 33 seconds 48 msec
