                         Program Version 6.0.0  -   RELEASE  -
|  1> !r2SCAN aug-cc-pVTZ d3 TightSCF SlowConv RIJCOSX defgrid2
|  2>
|  3> %pal
|  4> nprocs 4
|  5> end
|  6>
|  7> %scf
|  8> MaxIter 1500
|  9> end
| 10>
| 11> %maxcore 3000
| 12>
| 13> !CPCM
| 14> %cpcm smd true
| 15> SMDsolvent "MeCN"
| 16> surfacetype gepol_ses
| 17> rsolv 2.19
| 18> end
| 19>
| 20> * xyz 1 2
| 21> C          -0.91447665052191     -0.47212024963727      0.00305742174444
| 22> C          -2.18959675934569      0.11971421337046      0.01409102309685
| 23> C          -2.29388700864009      1.49579494614513      0.03719397935039
| 24> C          -1.14208865599825      2.32820910625960      0.04995116881801
| 25> C           0.10947335768495      1.76881259512950      0.03960538148135
| 26> C           0.28212991065801      0.35726166855364      0.01600485453252
| 27> C           1.54760711026767     -0.28724291022231      0.00423169337063
| 28> C           2.77332093532235      0.34213760096678      0.01571595747138
| 29> C           4.06622172347746     -0.36316154066438      0.00304916339958
| 30> H           3.96002045066298     -1.45844987469069     -0.01793750531576
| 31> H           4.66637612050733     -0.03672280648830     -0.86953860101039
| 32> H           4.66526755704250     -0.07044112617912      0.88830060381995
| 33> H           2.81784562071465      1.43840343521638      0.03577451797111
| 34> H           1.53655051969215     -1.38139322639124     -0.01527207677871
| 35> H           0.98749423584764      2.41741461359963      0.04936131634716
| 36> H          -1.26152864583437      3.41417242331339      0.06788229194881
| 37> H          -3.28641699296290      1.95584755491465      0.04577091193408
| 38> H          -3.08960840973113     -0.49602884724601      0.00463129800869
| 39> O          -0.70644499866046     -1.76403981031241     -0.01892493742312
| 40> C          -1.78404812347373     -2.69340134662684     -0.03465822668874
| 41> H          -2.39834499922984     -2.55118103918316     -0.93925561775505
| 42> H          -2.39845270509497     -2.58207749303523      0.87418511117935
| 43> H          -1.31890279238437     -3.68732048679220     -0.05153622950254
| 44> *
| 45>
| 46>                          ****END OF INPUT****

CARTESIAN COORDINATES (ANGSTROEM)
---------------------------------
  C     -0.914477   -0.472120    0.003057
  C     -2.189597    0.119714    0.014091
  C     -2.293887    1.495795    0.037194
  C     -1.142089    2.328209    0.049951
  C      0.109473    1.768813    0.039605
  C      0.282130    0.357262    0.016005
  C      1.547607   -0.287243    0.004232
  C      2.773321    0.342138    0.015716
  C      4.066222   -0.363162    0.003049
  H      3.960020   -1.458450   -0.017938
  H      4.666376   -0.036723   -0.869539
  H      4.665268   -0.070441    0.888301
  H      2.817846    1.438403    0.035775
  H      1.536551   -1.381393   -0.015272
  H      0.987494    2.417415    0.049361
  H     -1.261529    3.414172    0.067882
  H     -3.286417    1.955848    0.045771
  H     -3.089608   -0.496029    0.004631
  O     -0.706445   -1.764040   -0.018925
  C     -1.784048   -2.693401   -0.034658
  H     -2.398345   -2.551181   -0.939256
  H     -2.398453   -2.582077    0.874185
  H     -1.318903   -3.687320   -0.051536

 Total Charge           Charge          ....    1
 Multiplicity           Mult            ....    2
 Number of Electrons    NEL             ....   79
 Basis Dimension        Dim             ....  782

ORBITAL ENERGIES
----------------
                 SPIN UP ORBITALS
  NO   OCC          E(Eh)            E(eV)
   0   1.0000     -19.046413      -518.2792
   1   1.0000     -10.158008      -276.4135
   2   1.0000     -10.106048      -274.9996
   3   1.0000     -10.100240      -274.8415
   4   1.0000     -10.099873      -274.8315
   5   1.0000     -10.085996      -274.4539
   6   1.0000     -10.081930      -274.3433
   7   1.0000     -10.073905      -274.1249
   8   1.0000     -10.072124      -274.0764
   9   1.0000     -10.067602      -273.9534
  10   1.0000     -10.047048      -273.3941
  11   1.0000      -1.097169       -29.8555
  12   1.0000      -0.863887       -23.5076
  13   1.0000      -0.809610       -22.0306
  14   1.0000      -0.763985       -20.7891
  15   1.0000      -0.751480       -20.4488
  16   1.0000      -0.699908       -19.0455
  17   1.0000      -0.673093       -18.3158
  18   1.0000      -0.617718       -16.8090
  19   1.0000      -0.585995       -15.9457
  20   1.0000      -0.549447       -14.9512
  21   1.0000      -0.531823       -14.4716
  22   1.0000      -0.496456       -13.5093
  23   1.0000      -0.482881       -13.1399
  24   1.0000      -0.476242       -12.9592
  25   1.0000      -0.445234       -12.1154
  26   1.0000      -0.433173       -11.7872
  27   1.0000      -0.418503       -11.3880
  28   1.0000      -0.406603       -11.0642
  29   1.0000      -0.403037       -10.9672
  30   1.0000      -0.390309       -10.6208
  31   1.0000      -0.380406       -10.3514
  32   1.0000      -0.363069        -9.8796
  33   1.0000      -0.359040        -9.7700
  34   1.0000      -0.337669        -9.1884
  35   1.0000      -0.335817        -9.1380
  36   1.0000      -0.321111        -8.7379
  37   1.0000      -0.317704        -8.6452
  38   1.0000      -0.256264        -6.9733
  39   1.0000      -0.234922        -6.3925
  40   0.0000      -0.112577        -3.0634
  41   0.0000      -0.057293        -1.5590
  42   0.0000      -0.019397        -0.5278
  43   0.0000       0.003514         0.0956
  44   0.0000       0.014349         0.3905

                 SPIN DOWN ORBITALS
  NO   OCC          E(Eh)            E(eV)
   0   1.0000     -19.042286      -518.1669
   1   1.0000     -10.155570      -276.3471
   2   1.0000     -10.102471      -274.9022
   3   1.0000     -10.100364      -274.8449
   4   1.0000     -10.093305      -274.6528
   5   1.0000     -10.083342      -274.3817
   6   1.0000     -10.082069      -274.3470
   7   1.0000     -10.074442      -274.1395
   8   1.0000     -10.070678      -274.0371
   9   1.0000     -10.068556      -273.9793
  10   1.0000     -10.047224      -273.3989
  11   1.0000      -1.091077       -29.6897
  12   1.0000      -0.857258       -23.3272
  13   1.0000      -0.801205       -21.8019
  14   1.0000      -0.756800       -20.5936
  15   1.0000      -0.747992       -20.3539
  16   1.0000      -0.698850       -19.0167
  17   1.0000      -0.668628       -18.1943
  18   1.0000      -0.612158       -16.6577
  19   1.0000      -0.582142       -15.8409
  20   1.0000      -0.544164       -14.8074
  21   1.0000      -0.529920       -14.4198
  22   1.0000      -0.494926       -13.4676
  23   1.0000      -0.480751       -13.0819
  24   1.0000      -0.464816       -12.6483
  25   1.0000      -0.443344       -12.0640
  26   1.0000      -0.431768       -11.7490
  27   1.0000      -0.417339       -11.3564
  28   1.0000      -0.401385       -10.9222
  29   1.0000      -0.393674       -10.7124
  30   1.0000      -0.379704       -10.3323
  31   1.0000      -0.378615       -10.3026
  32   1.0000      -0.361964        -9.8495
  33   1.0000      -0.357746        -9.7348
  34   1.0000      -0.334107        -9.0915
  35   1.0000      -0.326998        -8.8981
  36   1.0000      -0.319058        -8.6820
  37   1.0000      -0.302908        -8.2425
  38   1.0000      -0.248683        -6.7670
  39   0.0000      -0.200616        -5.4590
  40   0.0000      -0.086238        -2.3466
  41   0.0000      -0.044116        -1.2004
  42   0.0000       0.000882         0.0240
  43   0.0000       0.004630         0.1260

MULLIKEN ATOMIC CHARGES AND SPIN POPULATIONS
--------------------------------------------
   0 C :    0.752461    0.157858
   1 C :   -0.589769   -0.105073
   2 C :   -0.206254    0.155515
   3 C :   -0.643609    0.092784
   4 C :   -0.536179   -0.062908
   5 C :    1.456992    0.262939
   6 C :    0.243295   -0.015393
   7 C :   -0.220242    0.313314
   8 C :   -0.773428   -0.042711
   9 H :    0.251222   -0.008533
  10 H :    0.173866    0.036180
  11 H :    0.174136    0.036316
  12 H :    0.237776    0.039864
  13 H :    0.080359    0.003763
  14 H :   -0.129415   -0.004780
  15 H :    0.563109   -0.001967
  16 H :    0.313304    0.012007
  17 H :    0.500388    0.005537
  18 O :   -0.793757    0.124588
  19 C :   -0.689102   -0.013804
  20 H :    0.302502    0.007843
  21 H :    0.302917    0.007875
  22 H :    0.229429   -0.001215
Sum of atomic charges         :    1.0000000

LOEWDIN ATOMIC CHARGES AND SPIN POPULATIONS
-------------------------------------------
   0 C :   -0.326814    0.107583
   1 C :    0.256309    0.020240
   2 C :    0.253774    0.091163
   3 C :    0.253472    0.068520
   4 C :    0.248144    0.025397
   5 C :   -0.065499    0.123187
   6 C :    0.269883    0.085266
   7 C :    0.292000    0.197993
   8 C :    0.609029    0.064832
   9 H :   -0.156614    0.001249
  10 H :   -0.141423    0.014699
  11 H :   -0.141407    0.014725
  12 H :   -0.153520    0.034888
  13 H :   -0.185868    0.001594
  14 H :   -0.166908   -0.004057
  15 H :   -0.150788    0.011324
  16 H :   -0.141880    0.018211
  17 H :   -0.170168   -0.004726
  18 O :    0.646978    0.107766
  19 C :    0.421510    0.012827
  20 H :   -0.147250    0.003734
  21 H :   -0.147295    0.003730
  22 H :   -0.155663   -0.000147

  Mayer bond orders larger than 0.100000
B(  0-C ,  1-C ) :   1.1948 B(  0-C ,  2-C ) :  -0.4388 B(  0-C ,  4-C ) :  -0.9923
B(  0-C ,  5-C ) :   0.4382 B(  0-C ,  7-C ) :   0.2545 B(  0-C , 14-H ) :   0.1213
B(  0-C , 16-H ) :   0.2932 B(  0-C , 17-H ) :  -0.2127 B(  0-C , 18-O ) :   0.5866
B(  1-C ,  2-C ) :   0.7226 B(  1-C ,  3-C ) :   0.3430 B(  1-C ,  4-C ) :  -0.2221
B(  1-C ,  5-C ) :   0.1638 B(  1-C , 14-H ) :  -0.1647 B(  1-C , 17-H ) :   0.2185
B(  1-C , 18-O ) :  -0.1627 B(  1-C , 19-C ) :  -0.1181 B(  2-C ,  3-C ) :   0.9154
B(  2-C ,  4-C ) :  -0.1688 B(  2-C ,  5-C ) :  -0.1772 B(  2-C ,  6-C ) :   0.1430
B(  2-C , 16-H ) :   0.8799 B(  2-C , 17-H ) :   0.2543 B(  3-C ,  4-C ) :   0.9379
B(  3-C ,  5-C ) :   0.1553 B(  3-C ,  7-C ) :  -0.1148 B(  3-C , 14-H ) :  -0.2193
B(  3-C , 15-H ) :   0.3093 B(  3-C , 16-H ) :  -0.1055 B(  3-C , 17-H ) :  -0.1688
B(  4-C ,  5-C ) :   0.5103 B(  4-C , 14-H ) :   1.7464 B(  4-C , 17-H ) :   0.1822
B(  5-C ,  6-C ) :   0.1571 B(  5-C , 12-H ) :  -0.1239 B(  5-C , 14-H ) :  -0.1570
B(  5-C , 16-H ) :  -0.1982 B(  5-C , 17-H ) :   0.1287 B(  5-C , 18-O ) :   0.1022
B(  6-C ,  7-C ) :   0.4208 B(  6-C , 13-H ) :   1.1525 B(  7-C ,  8-C ) :   0.5953
B(  7-C , 12-H ) :   1.2006 B(  7-C , 13-H ) :  -0.1480 B(  8-C ,  9-H ) :   0.9342
B(  8-C , 10-H ) :   1.0466 B(  8-C , 11-H ) :   1.0466 B(  8-C , 12-H ) :  -0.2201
B( 14-H , 16-H ) :   0.1133 B( 14-H , 17-H ) :  -0.1133 B( 14-H , 18-O ) :   0.1031
B( 17-H , 19-C ) :  -0.1328 B( 18-O , 19-C ) :   1.1149 B( 19-C , 20-H ) :   0.8731
B( 19-C , 21-H ) :   0.8726 B( 19-C , 22-H ) :   0.9930

Dispersion correction           -0.007174365
FINAL SINGLE POINT ENERGY      -463.205904869579

DIPOLE MOMENT
-------------

Method             : SCF
Type of density    : Electron Density
Multiplicity       :   2
Irrep              :   0
Energy             :  -463.1987305049807446 Eh
Relativity type    :
Basis              : AO
                                X                 Y                 Z
Electronic contribution:     -4.547777352       2.796231955       0.049061873
Nuclear contribution   :      4.638279725      -2.868122594      -0.050338921
                        -----------------------------------------
Total Dipole Moment    :      0.090502373      -0.071890639      -0.001277048
                        -----------------------------------------
Magnitude (a.u.)       :      0.115587951
Magnitude (Debye)      :      0.293801222

Rotational constants in cm-1:             0.050628             0.027043             0.017747
Rotational constants in MHz :          1517.785345           810.742847           532.038071

                             ****ORCA TERMINATED NORMALLY****
TOTAL RUN TIME: 0 days 0 hours 7 minutes 19 seconds 684 msec
