                         Program Version 6.0.0  -   RELEASE  -
|  1> !r2SCANh aug-cc-pVTZ d3 TightSCF SlowConv RIJCOSX defgrid2
|  2>
|  3> %pal
|  4> nprocs 4
|  5> end
|  6>
|  7> %scf
|  8> MaxIter 1500
|  9> end
| 10>
| 11> %maxcore 3000
| 12>
| 13> !CPCM
| 14> %cpcm smd true
| 15> SMDsolvent "MeCN"
| 16> surfacetype gepol_ses
| 17> rsolv 2.19
| 18> end
| 19>
| 20> * xyz 0 1
| 21> C           1.11186063431218     -1.27161750848334      0.03529687525431
| 22> C           0.40062560849469      0.06050080568744      0.01645658990368
| 23> C           1.09132291899843      1.22728525455366     -0.01481187748794
| 24> C           2.59071448413322      1.31213757575100     -0.04259953894168
| 25> C           3.24159815994134     -0.01937627947586     -0.39841325306825
| 26> C           2.58911379103733     -1.14676967388403      0.38832716012891
| 27> H           3.09748891391144     -2.10891626969463      0.20096696093946
| 28> H           2.69042588645759     -0.93817776710244      1.47032103152836
| 29> H           4.32799261089383      0.01691698871123     -0.20339895848800
| 30> H           3.11607401581807     -0.21456505742642     -1.48081651387058
| 31> H           2.90797745861562      2.08798412644276     -0.76484604682040
| 32> H           2.97758486033447      1.65547047948827      0.94073256876005
| 33> H           0.54718288972158      2.17640255493605     -0.01902463744638
| 34> N          -0.97616721213332      0.00495853491955      0.02697160227337
| 35> C          -1.78872482665766      1.19747534852265      0.05715418513192
| 36> C          -3.21005262050385      0.66964169739812      0.23596327149758
| 37> C          -3.15237336592481     -0.69599286303147     -0.44293484397097
| 38> C          -1.76610643119617     -1.20659042879325     -0.05714971676551
| 39> H          -1.36563278919925     -1.91141795135958     -0.80640934529533
| 40> H          -1.80537787661672     -1.75015520174994      0.91214209774396
| 41> H          -3.95970487602702     -1.37895631866201     -0.13218330548580
| 42> H          -3.21412175894358     -0.57519572273874     -1.53925950514829
| 43> H          -3.97216674301970      1.34137885928184     -0.19076791065005
| 44> H          -3.43419513408562      0.54752707903326      1.31073431906276
| 45> H          -1.48163666786281      1.86730753786198      0.88332008233158
| 46> H          -1.67922253541657      1.78041926532680     -0.88331716928986
| 47> H           0.61356353671055     -1.94715361756419      0.75320195239957
| 48> H           1.00544556820675     -1.75500544794871     -0.95629237422648
| 49> *
| 50>
| 51>                          ****END OF INPUT****

CARTESIAN COORDINATES (ANGSTROEM)
---------------------------------
  C      1.111861   -1.271618    0.035297
  C      0.400626    0.060501    0.016457
  C      1.091323    1.227285   -0.014812
  C      2.590714    1.312138   -0.042600
  C      3.241598   -0.019376   -0.398413
  C      2.589114   -1.146770    0.388327
  H      3.097489   -2.108916    0.200967
  H      2.690426   -0.938178    1.470321
  H      4.327993    0.016917   -0.203399
  H      3.116074   -0.214565   -1.480817
  H      2.907977    2.087984   -0.764846
  H      2.977585    1.655470    0.940733
  H      0.547183    2.176403   -0.019025
  N     -0.976167    0.004959    0.026972
  C     -1.788725    1.197475    0.057154
  C     -3.210053    0.669642    0.235963
  C     -3.152373   -0.695993   -0.442935
  C     -1.766106   -1.206590   -0.057150
  H     -1.365633   -1.911418   -0.806409
  H     -1.805378   -1.750155    0.912142
  H     -3.959705   -1.378956   -0.132183
  H     -3.214122   -0.575196   -1.539260
  H     -3.972167    1.341379   -0.190768
  H     -3.434195    0.547527    1.310734
  H     -1.481637    1.867308    0.883320
  H     -1.679223    1.780419   -0.883317
  H      0.613564   -1.947154    0.753202
  H      1.005446   -1.755005   -0.956292

 Total Charge           Charge          ....    0
 Multiplicity           Mult            ....    1
 Number of Electrons    NEL             ....   84
 Basis Dimension        Dim             ....  897

ORBITAL ENERGIES
----------------

  NO   OCC          E(Eh)            E(eV)
   0   2.0000     -14.306937      -389.3116
   1   2.0000     -10.180118      -277.0151
   2   2.0000     -10.177391      -276.9409
   3   2.0000     -10.174527      -276.8630
   4   2.0000     -10.149264      -276.1755
   5   2.0000     -10.148063      -276.1428
   6   2.0000     -10.147759      -276.1346
   7   2.0000     -10.143054      -276.0065
   8   2.0000     -10.142560      -275.9931
   9   2.0000     -10.140090      -275.9259
  10   2.0000     -10.119335      -275.3611
  11   2.0000      -0.949371       -25.8337
  12   2.0000      -0.826239       -22.4831
  13   2.0000      -0.780961       -21.2510
  14   2.0000      -0.736719       -20.0471
  15   2.0000      -0.718024       -19.5384
  16   2.0000      -0.706921       -19.2363
  17   2.0000      -0.614747       -16.7281
  18   2.0000      -0.603974       -16.4350
  19   2.0000      -0.565459       -15.3869
  20   2.0000      -0.558387       -15.1945
  21   2.0000      -0.515020       -14.0144
  22   2.0000      -0.484023       -13.1709
  23   2.0000      -0.480285       -13.0692
  24   2.0000      -0.438265       -11.9258
  25   2.0000      -0.422541       -11.4979
  26   2.0000      -0.410498       -11.1702
  27   2.0000      -0.409393       -11.1402
  28   2.0000      -0.403312       -10.9747
  29   2.0000      -0.386487       -10.5168
  30   2.0000      -0.372568       -10.1381
  31   2.0000      -0.363589        -9.8938
  32   2.0000      -0.357173        -9.7192
  33   2.0000      -0.354275        -9.6403
  34   2.0000      -0.327721        -8.9177
  35   2.0000      -0.325029        -8.8445
  36   2.0000      -0.308887        -8.4052
  37   2.0000      -0.304633        -8.2895
  38   2.0000      -0.300086        -8.1658
  39   2.0000      -0.286771        -7.8034
  40   2.0000      -0.265555        -7.2261
  41   2.0000      -0.166190        -4.5223
  42   0.0000       0.006978         0.1899
  43   0.0000       0.020375         0.5544
  44   0.0000       0.023635         0.6431
  45   0.0000       0.023780         0.6471
  46   0.0000       0.032827         0.8933

MULLIKEN ATOMIC CHARGES
-----------------------
   0 C :    0.099668
   1 C :    0.401309
   2 C :   -0.434242
   3 C :   -0.347045
   4 C :   -0.321170
   5 C :   -0.527444
   6 H :    0.219959
   7 H :    0.080149
   8 H :    0.204020
   9 H :    0.107096
  10 H :    0.184177
  11 H :    0.124557
  12 H :   -0.074082
  13 N :    0.351680
  14 C :   -0.551387
  15 C :   -0.459345
  16 C :   -0.379542
  17 C :   -0.455204
  18 H :    0.224082
  19 H :    0.195550
  20 H :    0.249726
  21 H :    0.068825
  22 H :    0.243531
  23 H :    0.079179
  24 H :    0.202902
  25 H :    0.179132
  26 H :    0.193612
  27 H :    0.140307
Sum of atomic charges:    0.0000000

LOEWDIN ATOMIC CHARGES
----------------------
   0 C :    0.274404
   1 C :   -0.197548
   2 C :    0.229275
   3 C :    0.226869
   4 C :    0.258737
   5 C :    0.273938
   6 H :   -0.128279
   7 H :   -0.126975
   8 H :   -0.132091
   9 H :   -0.130217
  10 H :   -0.146316
  11 H :   -0.141937
  12 H :   -0.206681
  13 N :    0.272102
  14 C :    0.166943
  15 C :    0.300302
  16 C :    0.298372
  17 C :    0.181479
  18 H :   -0.132454
  19 H :   -0.116792
  20 H :   -0.126341
  21 H :   -0.127787
  22 H :   -0.127648
  23 H :   -0.128932
  24 H :   -0.131144
  25 H :   -0.116897
  26 H :   -0.140796
  27 H :   -0.123587

  Mayer bond orders larger than 0.100000
B(  0-C ,  1-C ) :   0.4480 B(  0-C ,  2-C ) :  -0.1311 B(  0-C ,  5-C ) :   0.8767
B(  0-C , 26-H ) :   0.9552 B(  0-C , 27-H ) :   1.0025 B(  1-C ,  2-C ) :   0.6414
B(  1-C ,  3-C ) :  -0.1694 B(  1-C ,  4-C ) :  -0.1139 B(  1-C , 12-H ) :  -0.1861
B(  1-C , 13-N ) :   0.1929 B(  1-C , 17-C ) :  -0.1409 B(  1-C , 26-H ) :  -0.1226
B(  2-C ,  3-C ) :   0.7073 B(  2-C ,  4-C ) :   0.1786 B(  2-C , 12-H ) :   1.1472
B(  2-C , 13-N ) :  -0.4266 B(  2-C , 14-C ) :  -0.1150 B(  2-C , 17-C ) :   0.1472
B(  3-C ,  4-C ) :   0.8978 B(  3-C ,  5-C ) :   0.1115 B(  3-C , 10-H ) :   0.9873
B(  3-C , 11-H ) :   1.0422 B(  4-C ,  5-C ) :   0.9321 B(  4-C ,  8-H ) :   0.9448
B(  4-C ,  9-H ) :   1.0470 B(  5-C ,  6-H ) :   0.9188 B(  5-C ,  7-H ) :   1.0833
B( 12-H , 14-C ) :  -0.1427 B( 13-N , 14-C ) :   0.7390 B( 13-N , 17-C ) :   0.6374
B( 14-C , 15-C ) :   0.9152 B( 14-C , 16-C ) :   0.1028 B( 14-C , 24-H ) :   1.0389
B( 14-C , 25-H ) :   1.0262 B( 15-C , 16-C ) :   0.9601 B( 15-C , 17-C ) :   0.1139
B( 15-C , 22-H ) :   0.9347 B( 15-C , 23-H ) :   1.0771 B( 16-C , 17-C ) :   0.8826
B( 16-C , 20-H ) :   0.9288 B( 16-C , 21-H ) :   1.0888 B( 17-C , 18-H ) :   0.9840
B( 17-C , 19-H ) :   0.9874

Dispersion correction           -0.009334145
FINAL SINGLE POINT ENERGY      -445.929033681203

DIPOLE MOMENT
-------------

Method             : SCF
Type of density    : Electron Density
Multiplicity       :   1
Irrep              :   0
Energy             :  -445.9196995363615770 Eh
Relativity type    :
Basis              : AO
                                X                 Y                 Z
Electronic contribution:     -1.147439635       0.480538704       0.148063801
Nuclear contribution   :      0.342331497      -1.087953366      -0.177536996
                        -----------------------------------------
Total Dipole Moment    :     -0.805108138      -0.607414662      -0.029473195
                        -----------------------------------------
Magnitude (a.u.)       :      1.008969947
Magnitude (Debye)      :      2.564597794

Rotational constants in cm-1:             0.091846             0.021037             0.017897
Rotational constants in MHz :          2753.468293           630.660673           536.548584

                             ****ORCA TERMINATED NORMALLY****
TOTAL RUN TIME: 0 days 0 hours 13 minutes 58 seconds 842 msec
