                         Program Version 6.0.0  -   RELEASE  -
|  1> !r2SCAN aug-cc-pVTZ d3 TightSCF SlowConv RIJCOSX defgrid2
|  2>
|  3> %pal
|  4> nprocs 6
|  5> end
|  6>
|  7> %scf
|  8> MaxIter 1500
|  9> end
| 10>
| 11> %maxcore 3000
| 12>
| 13> !CPCM
| 14> %cpcm smd true
| 15> SMDsolvent "MeCN"
| 16> surfacetype gepol_ses
| 17> rsolv 2.19
| 18> end
| 19>
| 20> * xyz 0 1
| 21>   C          -1.14933226451234     -1.23882509190584     -0.00046672280380
| 22>   C          -2.50857813675911     -0.94988227106401     -0.00054346756040
| 23>   C          -2.93817015440872      0.37868475331297     -0.00006408928605
| 24>   C          -2.00629101009504      1.41668452923491      0.00049673263770
| 25>   C          -0.64374499246001      1.13250357756874      0.00056381244254
| 26>   C          -0.20908515748665     -0.19753416758703      0.00007645085547
| 27>   C           1.21837162790625     -0.59720306751016      0.00007667382631
| 28>   O           1.62341721296480     -1.71314820484524     -0.00012734829677
| 29>   Cl          2.38206247173385      0.76415186429790      0.00056602291059
| 30>   H           0.09169908378046      1.93929798920226      0.00098639048783
| 31>   H          -2.34320651232058      2.45698180479248      0.00087795608335
| 32>   H          -4.00834754942676      0.60618222514384     -0.00012604204670
| 33>   H          -3.23886079813446     -1.76401666244183     -0.00098417146236
| 34>   H          -0.79061102078168     -2.27094327819897     -0.00083749778771
| 35> *
| 36>
| 37>                          ****END OF INPUT****

CARTESIAN COORDINATES (ANGSTROEM)
---------------------------------
  C     -1.149332   -1.238825   -0.000467
  C     -2.508578   -0.949882   -0.000543
  C     -2.938170    0.378685   -0.000064
  C     -2.006291    1.416685    0.000497
  C     -0.643745    1.132504    0.000564
  C     -0.209085   -0.197534    0.000076
  C      1.218372   -0.597203    0.000077
  O      1.623417   -1.713148   -0.000127
  Cl     2.382062    0.764152    0.000566
  H      0.091699    1.939298    0.000986
  H     -2.343207    2.456982    0.000878
  H     -4.008348    0.606182   -0.000126
  H     -3.238861   -1.764017   -0.000984
  H     -0.790611   -2.270943   -0.000837

 Total Charge           Charge          ....    0
 Multiplicity           Mult            ....    1
 Number of Electrons    NEL             ....   72
 Basis Dimension        Dim             ....  533

ORBITAL ENERGIES
----------------

  NO   OCC          E(Eh)            E(eV)
   0   2.0000    -101.227807     -2754.5487
   1   2.0000     -18.983171      -516.5583
   2   2.0000     -10.186097      -277.1778
   3   2.0000     -10.074460      -274.1400
   4   2.0000     -10.060109      -273.7495
   5   2.0000     -10.059380      -273.7296
   6   2.0000     -10.057241      -273.6714
   7   2.0000     -10.052819      -273.5511
   8   2.0000     -10.052729      -273.5487
   9   2.0000      -9.381314      -255.2785
  10   2.0000      -7.125683      -193.8997
  11   2.0000      -7.118606      -193.7071
  12   2.0000      -7.117232      -193.6697
  13   2.0000      -1.059352       -28.8264
  14   2.0000      -0.844810       -22.9884
  15   2.0000      -0.815333       -22.1863
  16   2.0000      -0.741529       -20.1780
  17   2.0000      -0.728057       -19.8114
  18   2.0000      -0.619919       -16.8688
  19   2.0000      -0.586713       -15.9653
  20   2.0000      -0.537066       -14.6143
  21   2.0000      -0.496117       -13.5000
  22   2.0000      -0.457494       -12.4490
  23   2.0000      -0.443926       -12.0798
  24   2.0000      -0.425186       -11.5699
  25   2.0000      -0.416626       -11.3370
  26   2.0000      -0.415547       -11.3076
  27   2.0000      -0.399458       -10.8698
  28   2.0000      -0.356868        -9.7109
  29   2.0000      -0.337223        -9.1763
  30   2.0000      -0.321631        -8.7520
  31   2.0000      -0.307146        -8.3579
  32   2.0000      -0.301345        -8.2000
  33   2.0000      -0.270656        -7.3649
  34   2.0000      -0.258804        -7.0424
  35   2.0000      -0.253060        -6.8861
  36   0.0000      -0.104893        -2.8543
  37   0.0000      -0.049295        -1.3414
  38   0.0000      -0.008824        -0.2401
  39   0.0000      -0.005303        -0.1443
  40   0.0000       0.009189         0.2500

MULLIKEN ATOMIC CHARGES
-----------------------
   0 C :   -0.848598
   1 C :   -0.428199
   2 C :   -0.257890
   3 C :   -0.636288
   4 C :   -0.754409
   5 C :    1.408683
   6 C :    0.647090
   7 O :   -0.715356
   8 Cl:   -0.267553
   9 H :    0.348963
  10 H :    0.459361
  11 H :    0.466011
  12 H :    0.416690
  13 H :    0.161493
Sum of atomic charges:   -0.0000000

LOEWDIN ATOMIC CHARGES
----------------------
   0 C :    0.188531
   1 C :    0.214541
   2 C :    0.210080
   3 C :    0.211315
   4 C :    0.157886
   5 C :   -0.251385
   6 C :   -1.141490
   7 O :    0.414302
   8 Cl:    0.896671
   9 H :   -0.235319
  10 H :   -0.163654
  11 H :   -0.159915
  12 H :   -0.163154
  13 H :   -0.178410

  Mayer bond orders larger than 0.100000
B(  0-C ,  1-C ) :   1.1290 B(  0-C ,  5-C ) :   0.3387 B(  0-C ,  6-C ) :   0.1543
B(  0-C , 13-H ) :   0.8777 B(  1-C ,  2-C ) :   1.1058 B(  1-C , 12-H ) :   0.7085
B(  2-C ,  3-C ) :   1.1635 B(  2-C ,  5-C ) :  -0.1635 B(  2-C , 11-H ) :   0.6318
B(  3-C ,  4-C ) :   1.1249 B(  3-C ,  5-C ) :  -0.1311 B(  3-C , 10-H ) :   0.6326
B(  4-C ,  5-C ) :   0.2557 B(  4-C ,  6-C ) :   0.1283 B(  4-C ,  9-H ) :   0.9347
B(  5-C ,  6-C ) :   0.5989 B(  5-C ,  7-O ) :   0.2468 B(  5-C ,  8-Cl) :   0.1941
B(  6-C ,  7-O ) :   1.0254 B(  6-C ,  8-Cl) :   0.7485 B(  7-O , 13-H ) :   0.1478
B(  8-Cl,  9-H ) :  -0.1539

Dispersion correction           -0.004741402
FINAL SINGLE POINT ENERGY      -805.130574573900

DIPOLE MOMENT
-------------

Method             : SCF
Type of density    : Electron Density
Multiplicity       :   1
Irrep              :   0
Energy             :  -805.1258331719193393 Eh
Relativity type    :
Basis              : AO
                                X                 Y                 Z
Electronic contribution:     10.888180011       0.785577023       0.001146757
Nuclear contribution   :    -12.853217840      -0.143073741      -0.001309271
                        -----------------------------------------
Total Dipole Moment    :     -1.965037829       0.642503283      -0.000162513
                        -----------------------------------------
Magnitude (a.u.)       :      2.067410013
Magnitude (Debye)      :      5.254938637

Rotational constants in cm-1:             0.104386             0.031040             0.023926
Rotational constants in MHz :          3129.416204           930.567874           717.277244

                             ****ORCA TERMINATED NORMALLY****
TOTAL RUN TIME: 0 days 0 hours 2 minutes 1 seconds 330 msec
