                         Program Version 6.0.0  -   RELEASE  -
|  1> !TPSSh aug-cc-pVTZ d3 TightSCF SlowConv RIJCOSX defgrid2
|  2>
|  3> %pal
|  4> nprocs 4
|  5> end
|  6>
|  7> %scf
|  8> MaxIter 1500
|  9> end
| 10>
| 11> %maxcore 3000
| 12>
| 13> !CPCM
| 14> %cpcm smd true
| 15> SMDsolvent "MeCN"
| 16> surfacetype gepol_ses
| 17> rsolv 2.19
| 18> end
| 19>
| 20> * xyz 1 2
| 21> C           0.00952428511137      1.14381862948455     -0.00004241850549
| 22> C          -1.34405804782715      1.36835429039483     -0.00004501377751
| 23> C          -2.25803675623572      0.27994374569514     -0.00001444991813
| 24> C          -1.79893876317452     -1.05503699905501      0.00001836451112
| 25> C          -0.44966853213070     -1.30717096682290      0.00001901616088
| 26> C           0.47768132323041     -0.20754569072665     -0.00000570718377
| 27> O           1.72715481916077     -0.54575427099223      0.00000126933750
| 28> C           2.80134500679620      0.40109022692015     -0.00002708967268
| 29> H           2.75083060085294      1.02148240859275     -0.90936313619747
| 30> H           2.75076150937771      1.02163468660922      0.90919997962481
| 31> H           3.71874480964519     -0.20034761824646      0.00005825478275
| 32> H          -0.03837787308311     -2.31994207676691      0.00003911986652
| 33> H          -2.51564718597583     -1.88032469418672      0.00003900521605
| 34> H          -3.33291112256179      0.48384956913135     -0.00002166925602
| 35> H          -1.72762364845365      2.39229306604659     -0.00007349223884
| 36> H           0.71284737526787      1.97878939392230     -0.00006603274972
| 37> *
| 38>
| 39>                          ****END OF INPUT****

CARTESIAN COORDINATES (ANGSTROEM)
---------------------------------
  C      0.009524    1.143819   -0.000042
  C     -1.344058    1.368354   -0.000045
  C     -2.258037    0.279944   -0.000014
  C     -1.798939   -1.055037    0.000018
  C     -0.449669   -1.307171    0.000019
  C      0.477681   -0.207546   -0.000006
  O      1.727155   -0.545754    0.000001
  C      2.801345    0.401090   -0.000027
  H      2.750831    1.021482   -0.909363
  H      2.750762    1.021635    0.909200
  H      3.718745   -0.200348    0.000058
  H     -0.038378   -2.319942    0.000039
  H     -2.515647   -1.880325    0.000039
  H     -3.332911    0.483850   -0.000022
  H     -1.727624    2.392293   -0.000073
  H      0.712847    1.978789   -0.000066

 Total Charge           Charge          ....    1
 Multiplicity           Mult            ....    2
 Number of Electrons    NEL             ....   57
 Basis Dimension        Dim             ....  552

ORBITAL ENERGIES
----------------
                 SPIN UP ORBITALS
  NO   OCC          E(Eh)            E(eV)
   0   1.0000     -19.171827      -521.6919
   1   1.0000     -10.252106      -278.9740
   2   1.0000     -10.189637      -277.2741
   3   1.0000     -10.182017      -277.0668
   4   1.0000     -10.171769      -276.7879
   5   1.0000     -10.168247      -276.6921
   6   1.0000     -10.164181      -276.5814
   7   1.0000     -10.158598      -276.4295
   8   1.0000      -1.134609       -30.8743
   9   1.0000      -0.881045       -23.9745
  10   1.0000      -0.789239       -21.4763
  11   1.0000      -0.776640       -21.1334
  12   1.0000      -0.718832       -19.5604
  13   1.0000      -0.636454       -17.3188
  14   1.0000      -0.612203       -16.6589
  15   1.0000      -0.559215       -15.2170
  16   1.0000      -0.512112       -13.9353
  17   1.0000      -0.510578       -13.8935
  18   1.0000      -0.509604       -13.8670
  19   1.0000      -0.459053       -12.4915
  20   1.0000      -0.446414       -12.1475
  21   1.0000      -0.433058       -11.7841
  22   1.0000      -0.411981       -11.2106
  23   1.0000      -0.387865       -10.5543
  24   1.0000      -0.382540       -10.4094
  25   1.0000      -0.366876        -9.9832
  26   1.0000      -0.348296        -9.4776
  27   1.0000      -0.295357        -8.0371
  28   1.0000      -0.271799        -7.3960
  29   0.0000      -0.073346        -1.9958
  30   0.0000      -0.061672        -1.6782
  31   0.0000      -0.007649        -0.2081
  32   0.0000       0.005851         0.1592
  33   0.0000       0.009166         0.2494

                 SPIN DOWN ORBITALS
  NO   OCC          E(Eh)            E(eV)
   0   1.0000     -19.164741      -521.4991
   1   1.0000     -10.249550      -278.9044
   2   1.0000     -10.189855      -277.2801
   3   1.0000     -10.175536      -276.8904
   4   1.0000     -10.168568      -276.7008
   5   1.0000     -10.166267      -276.6382
   6   1.0000     -10.164832      -276.5991
   7   1.0000     -10.160170      -276.4723
   8   1.0000      -1.122849       -30.5543
   9   1.0000      -0.873250       -23.7623
  10   1.0000      -0.782637       -21.2966
  11   1.0000      -0.772371       -21.0173
  12   1.0000      -0.710900       -19.3446
  13   1.0000      -0.632173       -17.2023
  14   1.0000      -0.607021       -16.5179
  15   1.0000      -0.556268       -15.1368
  16   1.0000      -0.508946       -13.8491
  17   1.0000      -0.506135       -13.7726
  18   1.0000      -0.487937       -13.2775
  19   1.0000      -0.456563       -12.4237
  20   1.0000      -0.445161       -12.1134
  21   1.0000      -0.430977       -11.7275
  22   1.0000      -0.396457       -10.7881
  23   1.0000      -0.385887       -10.5005
  24   1.0000      -0.380481       -10.3534
  25   1.0000      -0.345088        -9.3903
  26   1.0000      -0.343440        -9.3455
  27   1.0000      -0.287267        -7.8169
  28   0.0000      -0.209014        -5.6876
  29   0.0000      -0.051135        -1.3914
  30   0.0000      -0.040736        -1.1085
  31   0.0000      -0.006752        -0.1837
  32   0.0000       0.006567         0.1787

MULLIKEN ATOMIC CHARGES AND SPIN POPULATIONS
--------------------------------------------
   0 C :   -0.270178    0.118290
   1 C :   -0.305948   -0.037453
   2 C :   -0.344240    0.410351
   3 C :   -0.239601   -0.111910
   4 C :   -0.624734    0.175017
   5 C :    0.936662    0.192255
   6 O :   -0.602673    0.225183
   7 C :   -0.255741   -0.017299
   8 H :    0.219046    0.013022
   9 H :    0.219283    0.013010
  10 H :    0.088308    0.001974
  11 H :    0.496803   -0.000372
  12 H :    0.340008   -0.002028
  13 H :    0.492877    0.014551
  14 H :    0.332745    0.000737
  15 H :    0.517383    0.004673
Sum of atomic charges         :    1.0000000

LOEWDIN ATOMIC CHARGES AND SPIN POPULATIONS
-------------------------------------------
   0 C :    0.278704    0.095198
   1 C :    0.266210    0.064014
   2 C :    0.287587    0.206171
   3 C :    0.256932    0.046516
   4 C :    0.277737    0.118589
   5 C :   -0.330760    0.162809
   6 O :    0.667570    0.197639
   7 C :    0.447298    0.024896
   8 H :   -0.141358    0.007062
   9 H :   -0.141395    0.007062
  10 H :   -0.152239   -0.000243
  11 H :   -0.141300    0.019033
  12 H :   -0.145171   -0.006794
  13 H :   -0.134259    0.045096
  14 H :   -0.141583   -0.000885
  15 H :   -0.153974    0.013835

  Mayer bond orders larger than 0.100000
B(  0-C ,  1-C ) :   1.5163 B(  0-C ,  2-C ) :   0.1948 B(  0-C ,  4-C ) :   0.3152
B(  0-C ,  5-C ) :   0.9476 B(  0-C , 14-H ) :   0.1204 B(  0-C , 15-H ) :   0.2806
B(  1-C ,  2-C ) :   1.2375 B(  1-C ,  3-C ) :  -0.1348 B(  1-C ,  5-C ) :  -0.3303
B(  1-C , 14-H ) :   0.7441 B(  1-C , 15-H ) :   0.1455 B(  2-C ,  3-C ) :   1.2569
B(  2-C ,  4-C ) :   0.3467 B(  2-C , 13-H ) :   0.4587 B(  3-C ,  4-C ) :   1.6107
B(  3-C ,  5-C ) :  -0.2702 B(  3-C , 11-H ) :   0.1177 B(  3-C , 12-H ) :   0.7415
B(  4-C ,  5-C ) :   0.8313 B(  4-C ,  6-O ) :   0.2585 B(  4-C , 11-H ) :   0.2990
B(  4-C , 12-H ) :   0.1303 B(  5-C ,  6-O ) :   0.6094 B(  5-C ,  7-C ) :   0.1172
B(  5-C , 11-H ) :   0.1011 B(  6-O ,  7-C ) :   0.9653 B(  7-C ,  8-H ) :   0.9107
B(  7-C ,  9-H ) :   0.9104 B(  7-C , 10-H ) :   1.0391

Dispersion correction           -0.017230613
FINAL SINGLE POINT ENERGY      -346.731359332045

DIPOLE MOMENT
-------------

Method             : SCF
Type of density    : Electron Density
Multiplicity       :   2
Irrep              :   0
Energy             :  -346.7141287189153900 Eh
Relativity type    :
Basis              : AO
                                X                 Y                 Z
Electronic contribution:     -2.178190791      -1.608079747       0.000072668
Nuclear contribution   :      2.256738866       2.246354274      -0.000083298
                        -----------------------------------------
Total Dipole Moment    :      0.078548074       0.638274527      -0.000010629
                        -----------------------------------------
Magnitude (a.u.)       :      0.643089552
Magnitude (Debye)      :      1.634603737

Rotational constants in cm-1:             0.163746             0.052523             0.040083
Rotational constants in MHz :          4908.994994          1574.611095          1201.650329

                             ****ORCA TERMINATED NORMALLY****
TOTAL RUN TIME: 0 days 0 hours 4 minutes 28 seconds 438 msec
