                         Program Version 6.0.0  -   RELEASE  -
|  1> !B3LYP freq aug-cc-pVTZ d3 TightSCF SlowConv RIJCOSX defgrid2
|  2>
|  3> %pal
|  4> nprocs 12
|  5>
|  6> end
|  7>
|  8> %scf
|  9> MaxIter 1500
| 10> end
| 11>
| 12> %maxcore 5000
| 13>
| 14> !CPCM
| 15> %cpcm smd true
| 16> SMDsolvent "MeCN"
| 17> surfacetype gepol_ses
| 18> rsolv 2.19
| 19> end
| 20>
| 21> * xyz 0 1
| 22>   C           0.69041529299401     -1.22381364736019     -0.00204513004828
| 23>   C          -0.69166280644881     -1.21993998657167     -0.00208729689060
| 24>   C          -1.34926601215825      0.00364993899665     -0.00024996159156
| 25>   C          -0.66830928738403      1.21131272043568      0.00171888002757
| 26>   C           0.71705377170033      1.18955547055464      0.00130608489995
| 27>   C           1.40698569560389     -0.02424584685745     -0.00045378467654
| 28>   C           2.90693784774073     -0.07995675954243     -0.00094109720476
| 29>   O           3.47569323647892     -1.15793413861091      0.00174165564003
| 30>   C           3.67327216713827      1.21129516002014     -0.00508581422538
| 31>   H           3.42237083409204      1.80831271574433      0.87365277098708
| 32>   H           4.73921750638238      1.00050827396738     -0.00799040728148
| 33>   H           3.41695275883805      1.80601204465083     -0.88368120508424
| 34>   H           1.25107381437750      2.12692201464351      0.00181163594992
| 35>   H          -1.20910136391767      2.14366601549033      0.00379622403654
| 36>   N          -2.81784929160355      0.01867489531912      0.00064643990860
| 37>   O          -3.38417700452612      1.10479729803861      0.00418444493546
| 38>   O          -3.40528615758406     -1.05618957383709     -0.00171339649307
| 39>   H          -1.25224712247021     -2.14065530313609     -0.00309580454167
| 40>   H           1.22886802074658     -2.15935779194539     -0.00354893834757
| 41> *
| 42>
| 43>                          ****END OF INPUT****

CARTESIAN COORDINATES (ANGSTROEM)
---------------------------------
  C      0.690415   -1.223814   -0.002045
  C     -0.691663   -1.219940   -0.002087
  C     -1.349266    0.003650   -0.000250
  C     -0.668309    1.211313    0.001719
  C      0.717054    1.189555    0.001306
  C      1.406986   -0.024246   -0.000454
  C      2.906938   -0.079957   -0.000941
  O      3.475693   -1.157934    0.001742
  C      3.673272    1.211295   -0.005086
  H      3.422371    1.808313    0.873653
  H      4.739218    1.000508   -0.007990
  H      3.416953    1.806012   -0.883681
  H      1.251074    2.126922    0.001812
  H     -1.209101    2.143666    0.003796
  N     -2.817849    0.018675    0.000646
  O     -3.384177    1.104797    0.004184
  O     -3.405286   -1.056190   -0.001713
  H     -1.252247   -2.140655   -0.003096
  H      1.228868   -2.159358   -0.003549

 Total Charge           Charge          ....    0
 Multiplicity           Mult            ....    1
 Number of Electrons    NEL             ....   86
 Basis Dimension        Dim             ....  713

ORBITAL ENERGIES
----------------

  NO   OCC          E(Eh)            E(eV)
   0   2.0000     -19.173548      -521.7388
   1   2.0000     -19.173500      -521.7375
   2   2.0000     -19.125525      -520.4320
   3   2.0000     -14.565757      -396.3544
   4   2.0000     -10.272196      -279.5207
   5   2.0000     -10.245081      -278.7828
   6   2.0000     -10.205040      -277.6933
   7   2.0000     -10.202206      -277.6161
   8   2.0000     -10.201509      -277.5972
   9   2.0000     -10.198278      -277.5092
  10   2.0000     -10.195354      -277.4297
  11   2.0000     -10.166739      -276.6510
  12   2.0000      -1.242927       -33.8218
  13   2.0000      -1.068138       -29.0655
  14   2.0000      -1.051358       -28.6089
  15   2.0000      -0.896474       -24.3943
  16   2.0000      -0.820557       -22.3285
  17   2.0000      -0.775426       -21.1004
  18   2.0000      -0.751053       -20.4372
  19   2.0000      -0.708181       -19.2706
  20   2.0000      -0.632428       -17.2092
  21   2.0000      -0.615054       -16.7365
  22   2.0000      -0.572760       -15.5856
  23   2.0000      -0.561557       -15.2807
  24   2.0000      -0.548679       -14.9303
  25   2.0000      -0.530764       -14.4428
  26   2.0000      -0.492938       -13.4135
  27   2.0000      -0.483083       -13.1454
  28   2.0000      -0.463263       -12.6060
  29   2.0000      -0.447396       -12.1743
  30   2.0000      -0.445706       -12.1283
  31   2.0000      -0.430356       -11.7106
  32   2.0000      -0.418315       -11.3829
  33   2.0000      -0.394384       -10.7317
  34   2.0000      -0.383149       -10.4260
  35   2.0000      -0.365197        -9.9375
  36   2.0000      -0.364965        -9.9312
  37   2.0000      -0.330836        -9.0025
  38   2.0000      -0.328176        -8.9301
  39   2.0000      -0.309608        -8.4249
  40   2.0000      -0.285412        -7.7665
  41   2.0000      -0.279309        -7.6004
  42   2.0000      -0.265746        -7.2313
  43   0.0000      -0.111959        -3.0466
  44   0.0000      -0.051463        -1.4004
  45   0.0000      -0.031516        -0.8576
  46   0.0000      -0.004702        -0.1280
  47   0.0000       0.008833         0.2404

MULLIKEN ATOMIC CHARGES
-----------------------
   0 C :   -0.844352
   1 C :   -0.403288
   2 C :    0.493826
   3 C :   -0.655657
   4 C :   -0.314560
   5 C :    1.299675
   6 C :    0.653196
   7 O :   -0.925336
   8 C :   -0.584269
   9 H :    0.255243
  10 H :    0.182275
  11 H :    0.254615
  12 H :    0.097925
  13 H :    0.459357
  14 N :    0.755272
  15 O :   -0.684838
  16 O :   -0.683712
  17 H :    0.518928
  18 H :    0.125698
Sum of atomic charges:   -0.0000000

LOEWDIN ATOMIC CHARGES
----------------------
   0 C :    0.224354
   1 C :    0.226089
   2 C :   -0.221024
   3 C :    0.231392
   4 C :    0.238305
   5 C :   -0.102411
   6 C :   -0.521584
   7 O :    0.492070
   8 C :    0.577911
   9 H :   -0.159276
  10 H :   -0.176370
  11 H :   -0.159395
  12 H :   -0.174443
  13 H :   -0.186530
  14 N :   -0.730547
  15 O :    0.405557
  16 O :    0.405861
  17 H :   -0.187973
  18 H :   -0.181987

  Mayer bond orders larger than 0.100000
B(  0-C ,  1-C ) :   1.3463 B(  0-C ,  2-C ) :  -0.3272 B(  0-C ,  4-C ) :  -0.3778
B(  0-C ,  5-C ) :   0.3187 B(  0-C ,  6-C ) :   0.2726 B(  0-C , 16-O ) :  -0.1074
B(  0-C , 18-H ) :   1.1454 B(  1-C ,  2-C ) :   0.9870 B(  1-C ,  3-C ) :   0.1362
B(  1-C ,  4-C ) :  -0.1033 B(  1-C ,  5-C ) :   0.1874 B(  1-C , 14-N ) :  -0.1249
B(  1-C , 17-H ) :   0.4258 B(  2-C ,  3-C ) :   0.8659 B(  2-C ,  4-C ) :  -0.2548
B(  2-C , 14-N ) :   1.1416 B(  2-C , 15-O ) :   0.4196 B(  2-C , 16-O ) :   0.4366
B(  3-C ,  4-C ) :   0.9559 B(  3-C ,  5-C ) :   0.2279 B(  3-C , 13-H ) :   0.5048
B(  3-C , 14-N ) :  -0.1870 B(  4-C ,  5-C ) :   0.5054 B(  4-C ,  6-C ) :   0.1285
B(  4-C , 12-H ) :   1.2826 B(  5-C ,  6-C ) :   0.2232 B(  5-C ,  7-O ) :   0.1728
B(  5-C , 12-H ) :  -0.1781 B(  5-C , 18-H ) :  -0.1188 B(  6-C ,  7-O ) :   0.8716
B(  6-C ,  8-C ) :   0.9282 B(  7-O , 18-H ) :   0.1624 B(  8-C ,  9-H ) :   0.9640
B(  8-C , 10-H ) :   0.9615 B(  8-C , 11-H ) :   0.9644 B( 14-N , 15-O ) :   0.8660
B( 14-N , 16-O ) :   0.8741 B( 15-O , 16-O ) :   0.1987

Dispersion correction           -0.036009486
FINAL SINGLE POINT ENERGY      -589.353383746882

DIPOLE MOMENT
-------------

Method             : SCF
Type of density    : Electron Density
Multiplicity       :   1
Irrep              :   0
Energy             :  -589.3173742608491921 Eh
Relativity type    :
Basis              : AO
                                X                 Y                 Z
Electronic contribution:     -9.356603766      -2.934825477       0.011221192
Nuclear contribution   :     10.835588484       4.287157368      -0.016333345
                        -----------------------------------------
Total Dipole Moment    :      1.478984718       1.352331891      -0.005112153
                        -----------------------------------------
Magnitude (a.u.)       :      2.004051764
Magnitude (Debye)      :      5.093894766

VIBRATIONAL FREQUENCIES
-----------------------

Scaling factor for frequencies =  1.000000000  (already applied!)

     0:       0.00 cm**-1
     1:       0.00 cm**-1
     2:       0.00 cm**-1
     3:       0.00 cm**-1
     4:       0.00 cm**-1
     5:       0.00 cm**-1
     6:     -25.39 cm**-1 ***imaginary mode***
     7:      22.70 cm**-1
     8:      72.41 cm**-1
     9:     140.91 cm**-1
    10:     160.48 cm**-1
    11:     236.29 cm**-1
    12:     268.86 cm**-1
    13:     293.92 cm**-1
    14:     412.89 cm**-1
    15:     435.45 cm**-1
    16:     448.63 cm**-1
    17:     508.71 cm**-1
    18:     537.49 cm**-1
    19:     591.21 cm**-1
    20:     623.12 cm**-1
    21:     630.94 cm**-1
    22:     709.45 cm**-1
    23:     758.90 cm**-1
    24:     774.43 cm**-1
    25:     842.74 cm**-1
    26:     870.26 cm**-1
    27:     880.85 cm**-1
    28:     966.54 cm**-1
    29:     998.83 cm**-1
    30:    1012.83 cm**-1
    31:    1023.10 cm**-1
    32:    1043.82 cm**-1
    33:    1093.98 cm**-1
    34:    1118.21 cm**-1
    35:    1125.21 cm**-1
    36:    1188.02 cm**-1
    37:    1266.50 cm**-1
    38:    1318.50 cm**-1
    39:    1355.40 cm**-1
    40:    1358.36 cm**-1
    41:    1375.35 cm**-1
    42:    1431.04 cm**-1
    43:    1446.41 cm**-1
    44:    1451.14 cm**-1
    45:    1516.22 cm**-1
    46:    1535.99 cm**-1
    47:    1633.31 cm**-1
    48:    1634.84 cm**-1
    49:    1722.81 cm**-1
    50:    3036.76 cm**-1
    51:    3091.59 cm**-1
    52:    3138.50 cm**-1
    53:    3207.48 cm**-1
    54:    3211.38 cm**-1
    55:    3229.67 cm**-1
    56:    3231.47 cm**-1

IR SPECTRUM
-----------

 Mode   freq       eps      Int      T**2         TX        TY        TZ
       cm**-1   L/(mol*cm) km/mol    a.u.
----------------------------------------------------------------------------
  7:     22.70   0.000464    2.35  0.006385  (-0.001677 -0.000765  0.079887)
  8:     72.41   0.001436    7.26  0.006190  (-0.000197 -0.000179 -0.078678)
  9:    140.91   0.000017    0.09  0.000038  (-0.000901 -0.000296 -0.006105)
 10:    160.48   0.001799    9.09  0.003498  ( 0.044806  0.038608  0.000226)
 11:    236.29   0.000200    1.01  0.000264  (-0.000530  0.000310 -0.016240)
 12:    268.86   0.001139    5.76  0.001322  (-0.031659  0.017886 -0.000019)
 13:    293.92   0.000047    0.24  0.000050  ( 0.000306 -0.007039  0.000025)
 14:    412.89   0.000002    0.01  0.000002  ( 0.000105 -0.001143  0.000555)
 15:    435.45   0.000825    4.17  0.000591  (-0.012375 -0.020898  0.001157)
 16:    448.63   0.000718    3.63  0.000500  (-0.000101  0.000999  0.022332)
 17:    508.71   0.003492   17.65  0.002142  (-0.046192 -0.002862  0.000291)
 18:    537.49   0.000831    4.20  0.000482  (-0.016917 -0.014002  0.000265)
 19:    591.21   0.003698   18.69  0.001952  ( 0.000308 -0.000129 -0.044178)
 20:    623.12   0.005265   26.61  0.002637  (-0.047068 -0.020527  0.000225)
 21:    630.94   0.000039    0.20  0.000019  ( 0.001148 -0.004248  0.000148)
 22:    709.45   0.006423   32.46  0.002825  ( 0.000049 -0.000055  0.053154)
 23:    758.90   0.005684   28.73  0.002337  ( 0.048346  0.000270  0.000185)
 24:    774.43   0.007994   40.40  0.003221  ( 0.000390  0.000184 -0.056756)
 25:    842.74   0.000172    0.87  0.000064  (-0.000281  0.000131  0.007967)
 26:    870.26   0.012356   62.44  0.004431  (-0.066539 -0.001733 -0.000352)
 27:    880.85   0.011315   57.18  0.004009  (-0.001032 -0.000331  0.063305)
 28:    966.54   0.013147   66.44  0.004245  (-0.058861 -0.027927 -0.000273)
 29:    998.83   0.000009    0.05  0.000003  (-0.001264 -0.000038 -0.001126)
 30:   1012.83   0.000044    0.22  0.000014  (-0.000290 -0.001118 -0.003503)
 31:   1023.10   0.004319   21.82  0.001317  ( 0.036214  0.002398 -0.000223)
 32:   1043.82   0.000622    3.15  0.000186  (-0.000356 -0.000291 -0.013633)
 33:   1093.98   0.001196    6.04  0.000341  ( 0.014603  0.011308 -0.000221)
 34:   1118.21   0.015228   76.95  0.004250  (-0.065172  0.001487 -0.000019)
 35:   1125.21   0.003300   16.68  0.000915  (-0.004552 -0.029910  0.000107)
 36:   1188.02   0.001988   10.05  0.000522  (-0.022476 -0.004137 -0.000042)
 37:   1266.50   0.087022  439.78  0.021442  (-0.145174 -0.019144  0.000057)
 38:   1318.50   0.002578   13.03  0.000610  ( 0.023830 -0.006499 -0.000038)
 39:   1355.40   0.037986  191.97  0.008746  (-0.067137  0.065104  0.000058)
 40:   1358.36   0.095371  481.97  0.021910  ( 0.145780  0.025655 -0.000025)
 41:   1375.35   0.010205   51.57  0.002316  (-0.021000 -0.043294  0.000396)
 42:   1431.04   0.003112   15.72  0.000679  (-0.025304 -0.006185  0.000001)
 43:   1446.41   0.006641   33.56  0.001433  (-0.028035  0.025419  0.000844)
 44:   1451.14   0.003257   16.46  0.000700  ( 0.000876 -0.000163  0.026452)
 45:   1516.22   0.000704    3.56  0.000145  ( 0.008091  0.008907 -0.000026)
 46:   1535.99   0.096794  489.16  0.019665  (-0.010455 -0.139843 -0.000391)
 47:   1633.31   0.009983   50.45  0.001907  (-0.020966  0.038312  0.000050)
 48:   1634.84   0.002374   11.99  0.000453  (-0.004099  0.020887  0.000021)
 49:   1722.81   0.075896  383.55  0.013748  ( 0.070944 -0.093351  0.000304)
 50:   3036.76   0.000117    0.59  0.000012  (-0.003252  0.001218  0.000110)
 51:   3091.59   0.000825    4.17  0.000083  ( 0.000012 -0.000142  0.009123)
 52:   3138.50   0.004245   21.45  0.000422  (-0.020526  0.000863 -0.000043)
 53:   3207.48   0.000516    2.61  0.000050  (-0.005730 -0.004171  0.000106)
 54:   3211.38   0.000228    1.15  0.000022  (-0.000205 -0.004697 -0.000158)
 55:   3229.67   0.000228    1.15  0.000022  (-0.003009 -0.003600  0.000066)
 56:   3231.47   0.000437    2.21  0.000042  ( 0.005618 -0.003259 -0.000097)

--------------------------
THERMOCHEMISTRY AT 298.15K
--------------------------

Temperature         ...   298.15 K
Pressure            ...     1.00 atm
Total Mass          ...   165.15 AMU
Quasi RRHO          ...     True
Cut-Off Frequency   ...     1.00 cm^-1

Throughout the following assumptions are being made:
  (1) The electronic state is orbitally nondegenerate
  (2) There are no thermally accessible electronically excited states
  (3) Hindered rotations indicated by low frequency modes are not
      treated as such but are treated as vibrations and this may
      cause some error
  (4) All equations used are the standard statistical mechanics
      equations for an ideal gas
  (5) All vibrations are strictly harmonic

freq.      22.70  E(vib)   ...       0.56
freq.      72.41  E(vib)   ...       0.50
freq.     140.91  E(vib)   ...       0.41
freq.     160.48  E(vib)   ...       0.39
freq.     236.29  E(vib)   ...       0.32
freq.     268.86  E(vib)   ...       0.29
freq.     293.92  E(vib)   ...       0.27
freq.     412.89  E(vib)   ...       0.19
freq.     435.45  E(vib)   ...       0.17
freq.     448.63  E(vib)   ...       0.17
freq.     508.71  E(vib)   ...       0.14
freq.     537.49  E(vib)   ...       0.12
freq.     591.21  E(vib)   ...       0.10
freq.     623.12  E(vib)   ...       0.09
freq.     630.94  E(vib)   ...       0.09
freq.     709.45  E(vib)   ...       0.07
freq.     758.90  E(vib)   ...       0.06
freq.     774.43  E(vib)   ...       0.05
freq.     842.74  E(vib)   ...       0.04
freq.     870.26  E(vib)   ...       0.04
freq.     880.85  E(vib)   ...       0.04
freq.     966.54  E(vib)   ...       0.03
freq.     998.83  E(vib)   ...       0.02
freq.    1012.83  E(vib)   ...       0.02
freq.    1023.10  E(vib)   ...       0.02
freq.    1043.82  E(vib)   ...       0.02
freq.    1093.98  E(vib)   ...       0.02
freq.    1118.21  E(vib)   ...       0.01
freq.    1125.21  E(vib)   ...       0.01
freq.    1188.02  E(vib)   ...       0.01
freq.    1266.50  E(vib)   ...       0.01
freq.    1318.50  E(vib)   ...       0.01
freq.    1355.40  E(vib)   ...       0.01
freq.    1358.36  E(vib)   ...       0.01
freq.    1375.35  E(vib)   ...       0.01
freq.    1431.04  E(vib)   ...       0.00
freq.    1446.41  E(vib)   ...       0.00
freq.    1451.14  E(vib)   ...       0.00
freq.    1516.22  E(vib)   ...       0.00
freq.    1535.99  E(vib)   ...       0.00
freq.    1633.31  E(vib)   ...       0.00
freq.    1634.84  E(vib)   ...       0.00
freq.    1722.81  E(vib)   ...       0.00
freq.    3036.76  E(vib)   ...       0.00
freq.    3091.59  E(vib)   ...       0.00
freq.    3138.50  E(vib)   ...       0.00
freq.    3207.48  E(vib)   ...       0.00
freq.    3211.38  E(vib)   ...       0.00
freq.    3229.67  E(vib)   ...       0.00
freq.    3231.47  E(vib)   ...       0.00

------------
INNER ENERGY
------------

The inner energy is: U= E(el) + E(ZPE) + E(vib) + E(rot) + E(trans)
    E(el)   - is the total energy from the electronic structure calculation
              = E(kin-el) + E(nuc-el) + E(el-el) + E(nuc-nuc)
    E(ZPE)  - the the zero temperature vibrational energy from the frequency calculation
    E(vib)  - the the finite temperature correction to E(ZPE) due to population
              of excited vibrational states
    E(rot)  - is the rotational thermal energy
    E(trans)- is the translational thermal energy

Summary of contributions to the inner energy U:
Electronic energy                ...   -589.35338375 Eh
Zero point energy                ...      0.13893148 Eh      87.18 kcal/mol
Thermal vibrational correction   ...      0.00689523 Eh       4.33 kcal/mol
Thermal rotational correction    ...      0.00141627 Eh       0.89 kcal/mol
Thermal translational correction ...      0.00141627 Eh       0.89 kcal/mol
-----------------------------------------------------------------------
Total thermal energy                   -589.20472449 Eh

Summary of corrections to the electronic energy:
(perhaps to be used in another calculation)
Total thermal correction                  0.00972777 Eh       6.10 kcal/mol
Non-thermal (ZPE) correction              0.13893148 Eh      87.18 kcal/mol
-----------------------------------------------------------------------
Total correction                          0.14865926 Eh      93.28 kcal/mol

--------
ENTHALPY
--------

The enthalpy is H = U + kB*T
                kB is Boltzmann's constant
Total thermal energy              ...   -589.20472449 Eh
Thermal Enthalpy correction       ...      0.00094421 Eh       0.59 kcal/mol
-----------------------------------------------------------------------
Total Enthalpy                    ...   -589.20378028 Eh

Note: Only C1 symmetry has been detected, increase convergence thresholds
      if your molecule has a higher symmetry. Symmetry factor of 1.0 is
      used for the rotational entropy correction.

Note: Rotational entropy computed according to Herzberg
Infrared and Raman Spectra, Chapter V,1, Van Nostrand Reinhold, 1945
Point Group:  C1, Symmetry Number:   1
Rotational constants in cm-1:     0.096504     0.015913     0.013695

Vibrational entropy computed according to the QRRHO of S. Grimme
Chem.Eur.J. 2012 18 9955 using a reference frequency of 100.0 cm-1

-------
ENTROPY
-------

The entropy contributions are T*S = T*(S(el)+S(vib)+S(rot)+S(trans))
     S(el)   - electronic entropy
     S(vib)  - vibrational entropy
     S(rot)  - rotational entropy
     S(trans)- translational entropy
The entropies will be listed as multiplied by the temperature to get
units of energy

Electronic entropy                ...      0.00000000 Eh      0.00 kcal/mol
Vibrational entropy               ...      0.01189915 Eh      7.47 kcal/mol
Rotational entropy                ...      0.01459502 Eh      9.16 kcal/mol
Translational entropy             ...      0.01958175 Eh     12.29 kcal/mol
-----------------------------------------------------------------------
Final entropy term                ...      0.04607592 Eh     28.91 kcal/mol

In case the symmetry of your molecule has not been determined correctly
or in case you have a reason to use a different symmetry number we print
out the resulting rotational entropy values for sn=1,12:

 non-linear molecules -----------------------------------
|  sn= 1 | S(rot)=       0.01459502 Eh      9.16 kcal/mol|
|  sn= 2 | S(rot)=       0.01394056 Eh      8.75 kcal/mol|
|  sn= 3 | S(rot)=       0.01355773 Eh      8.51 kcal/mol|
|  sn= 4 | S(rot)=       0.01328611 Eh      8.34 kcal/mol|
|  sn= 5 | S(rot)=       0.01307542 Eh      8.20 kcal/mol|
|  sn= 6 | S(rot)=       0.01290327 Eh      8.10 kcal/mol|
|  sn= 7 | S(rot)=       0.01275773 Eh      8.01 kcal/mol|
|  sn= 8 | S(rot)=       0.01263165 Eh      7.93 kcal/mol|
|  sn= 9 | S(rot)=       0.01252044 Eh      7.86 kcal/mol|
|  sn=10 | S(rot)=       0.01242096 Eh      7.79 kcal/mol|

                             ****ORCA TERMINATED NORMALLY****
TOTAL RUN TIME: 0 days 0 hours 41 minutes 52 seconds 72 msec
