                         Program Version 6.0.0  -   RELEASE  -
|  1> !PBE0 def2-SV(p) Opt Freq d3 TightSCF SlowConv RIJCOSX defgrid2
|  2>
|  3> %pal
|  4> nprocs 4
|  5> end
|  6>
|  7> %scf
|  8> MaxIter 1500
|  9> end
| 10>
| 11> %maxcore 3000
| 12>
| 13>
| 14>
| 15> * xyz 0 1
| 16> C     0.4050775    1.0913819    0.0000000
| 17> C     1.2145913   -0.0201964    0.0000153
| 18> C     0.3236793   -1.1045329   -0.0000030
| 19> N    -0.9286336   -0.6896451   -0.0000091
| 20> N    -0.8650375    0.6394316   -0.0000113
| 21> H    -1.7153781    1.1810842   -0.0000238
| 22> H     0.5484545   -2.1530181    0.0000032
| 23> H     2.2844692   -0.0547856    0.0000213
| 24> H     0.6364986    2.1368529    0.0000024
| 25> *
| 26>
| 27>                          ****END OF INPUT****
 Total Charge           Charge          ....    0
 Multiplicity           Mult            ....    1
 Number of Electrons    NEL             ....   36
Dispersion correction           -0.005597442
FINAL SINGLE POINT ENERGY      -225.772385907090
Dispersion correction             ... done (  0.0 sec)
Dispersion correction           -0.005591144
FINAL SINGLE POINT ENERGY      -225.773562469229
Dispersion correction             ... done (  0.0 sec)
Dispersion correction           -0.005592481
FINAL SINGLE POINT ENERGY      -225.773585157719
Dispersion correction             ... done (  0.0 sec)
Dispersion correction           -0.005592962
FINAL SINGLE POINT ENERGY      -225.773591835788
Dispersion correction             ... done (  0.0 sec)
Dispersion correction           -0.005592854
FINAL SINGLE POINT ENERGY      -225.773592868201
Dispersion correction             ... done (  0.0 sec)
                    ***********************HURRAY********************

CARTESIAN COORDINATES (ANGSTROEM)
---------------------------------
  C      0.408456    1.096549    0.000022
  C      1.221570   -0.020559   -0.000011
  C      0.316275   -1.105520    0.000025
  N     -0.943627   -0.694078   -0.000038
  N     -0.862227    0.631490   -0.000022
  H     -1.714699    1.177295   -0.000039
  H      0.535861   -2.173965    0.000036
  H      2.309762   -0.047004   -0.000017
  H      0.632349    2.162365    0.000039

 Multiplicity           Mult            ....    1
 Number of Electrons    NEL             ....   36
 Basis Dimension        Dim             ....   78

ORBITAL ENERGIES
----------------

  NO   OCC          E(Eh)            E(eV)
   0   2.0000     -14.464688      -393.6042
   1   2.0000     -14.400125      -391.8473
   2   2.0000     -10.267959      -279.4054
   3   2.0000     -10.242976      -278.7255
   4   2.0000     -10.225655      -278.2542
   5   2.0000      -1.076827       -29.3020
   6   2.0000      -0.834193       -22.6995
   7   2.0000      -0.798015       -21.7151
   8   2.0000      -0.626532       -17.0488
   9   2.0000      -0.614004       -16.7079
  10   2.0000      -0.560070       -15.2403
  11   2.0000      -0.461278       -12.5520
  12   2.0000      -0.461152       -12.5486
  13   2.0000      -0.441678       -12.0187
  14   2.0000      -0.411715       -11.2033
  15   2.0000      -0.300403        -8.1744
  16   2.0000      -0.273216        -7.4346
  17   2.0000      -0.263025        -7.1573
  18   0.0000       0.026100         0.7102
  19   0.0000       0.064387         1.7521
  20   0.0000       0.075485         2.0541
  21   0.0000       0.111758         3.0411
  22   0.0000       0.126523         3.4429

MULLIKEN ATOMIC CHARGES
-----------------------
   0 C :    0.019703
   1 C :   -0.227949
   2 C :   -0.044483
   3 N :   -0.137384
   4 N :   -0.211157
   5 H :    0.265013
   6 H :    0.109655
   7 H :    0.112136
   8 H :    0.114466
Sum of atomic charges:   -0.0000000

LOEWDIN ATOMIC CHARGES
----------------------
   0 C :   -0.123735
   1 C :   -0.214338
   2 C :   -0.141415
   3 N :   -0.121288
   4 N :   -0.035320
   5 H :    0.245364
   6 H :    0.123911
   7 H :    0.134558
   8 H :    0.132263

  Mayer bond orders larger than 0.100000
B(  0-C ,  1-C ) :   1.4770 B(  0-C ,  3-N ) :   0.1260 B(  0-C ,  4-N ) :   1.2155
B(  0-C ,  8-H ) :   0.9625 B(  1-C ,  2-C ) :   1.3234 B(  1-C ,  7-H ) :   0.9680
B(  2-C ,  3-N ) :   1.5759 B(  2-C ,  6-H ) :   0.9713 B(  3-N ,  4-N ) :   1.1884
B(  4-N ,  5-H ) :   0.8750

Dispersion correction           -0.005592723
FINAL SINGLE POINT ENERGY      -225.773593081079

DIPOLE MOMENT
-------------

Method             : SCF
Type of density    : Electron Density
Multiplicity       :   1
Irrep              :   0
Energy             :  -225.7680003584664803 Eh
Relativity type    :
Basis              : AO
                                X                 Y                 Z
Electronic contribution:     -1.520859395      -0.155710714      -0.000025221
Nuclear contribution   :      1.652068746       1.054919735       0.000040788
                        -----------------------------------------
Total Dipole Moment    :      0.131209351       0.899209021       0.000015568
                        -----------------------------------------
Magnitude (a.u.)       :      0.908731400
Magnitude (Debye)      :      2.309811655

VIBRATIONAL FREQUENCIES
-----------------------

Scaling factor for frequencies =  1.000000000  (already applied!)

     0:       0.00 cm**-1
     1:       0.00 cm**-1
     2:       0.00 cm**-1
     3:       0.00 cm**-1
     4:       0.00 cm**-1
     5:       0.00 cm**-1
     6:     591.99 cm**-1
     7:     647.17 cm**-1
     8:     712.07 cm**-1
     9:     756.62 cm**-1
    10:     853.33 cm**-1
    11:     908.30 cm**-1
    12:     922.64 cm**-1
    13:     945.87 cm**-1
    14:    1057.09 cm**-1
    15:    1068.53 cm**-1
    16:    1168.84 cm**-1
    17:    1230.21 cm**-1
    18:    1313.18 cm**-1
    19:    1429.17 cm**-1
    20:    1472.08 cm**-1
    21:    1529.70 cm**-1
    22:    1606.49 cm**-1
    23:    3260.15 cm**-1
    24:    3275.25 cm**-1
    25:    3292.64 cm**-1
    26:    3644.77 cm**-1

IR SPECTRUM
-----------

 Mode   freq       eps      Int      T**2         TX        TY        TZ
       cm**-1   L/(mol*cm) km/mol    a.u.
----------------------------------------------------------------------------
  6:    591.99   0.010983   55.51  0.005790  ( 0.000002 -0.000002  0.076090)
  7:    647.17   0.000059    0.30  0.000029  (-0.000002 -0.000001  0.005350)
  8:    712.07   0.004593   23.21  0.002013  ( 0.000001  0.000004 -0.044863)
  9:    756.62   0.015698   79.33  0.006474  (-0.000000 -0.000003 -0.080463)
 10:    853.33   0.001872    9.46  0.000685  ( 0.000001 -0.000002  0.026165)
 11:    908.30   0.000383    1.93  0.000132  ( 0.000007  0.000001  0.011468)
 12:    922.64   0.001734    8.76  0.000586  (-0.018478 -0.015654  0.000004)
 13:    945.87   0.000733    3.70  0.000242  (-0.015487 -0.001428 -0.000001)
 14:   1057.09   0.001715    8.67  0.000506  (-0.003239  0.022267  0.000000)
 15:   1068.53   0.008245   41.67  0.002408  ( 0.048434  0.007884  0.000000)
 16:   1168.84   0.002960   14.96  0.000790  ( 0.010172  0.026205  0.000001)
 17:   1230.21   0.001051    5.31  0.000267  ( 0.016325  0.000341  0.000001)
 18:   1313.18   0.001257    6.35  0.000299  ( 0.005193  0.016487  0.000001)
 19:   1429.17   0.000211    1.07  0.000046  ( 0.006350  0.002398  0.000000)
 20:   1472.08   0.003220   16.27  0.000683  ( 0.000899  0.026112  0.000000)
 21:   1529.70   0.000891    4.50  0.000182  (-0.010983 -0.007818 -0.000000)
 22:   1606.49   0.001275    6.44  0.000248  (-0.007564  0.013799  0.000000)
 23:   3260.15   0.000551    2.78  0.000053  ( 0.000164 -0.007260  0.000001)
 24:   3275.25   0.000114    0.58  0.000011  ( 0.001991 -0.002636 -0.000000)
 25:   3292.64   0.000001    0.00  0.000000  ( 0.000147 -0.000175  0.000000)
 26:   3644.77   0.017137   86.60  0.001467  ( 0.033474 -0.018621  0.000001)

--------------------------
THERMOCHEMISTRY AT 298.15K
--------------------------

Temperature         ...   298.15 K
Pressure            ...     1.00 atm
Total Mass          ...    68.08 AMU
Quasi RRHO          ...     True
Cut-Off Frequency   ...     1.00 cm^-1

Throughout the following assumptions are being made:
  (1) The electronic state is orbitally nondegenerate
  (2) There are no thermally accessible electronically excited states
  (3) Hindered rotations indicated by low frequency modes are not
      treated as such but are treated as vibrations and this may
      cause some error
  (4) All equations used are the standard statistical mechanics
      equations for an ideal gas
  (5) All vibrations are strictly harmonic

freq.     591.99  E(vib)   ...       0.10
freq.     647.17  E(vib)   ...       0.09
freq.     712.07  E(vib)   ...       0.07
freq.     756.62  E(vib)   ...       0.06
freq.     853.33  E(vib)   ...       0.04
freq.     908.30  E(vib)   ...       0.03
freq.     922.64  E(vib)   ...       0.03
freq.     945.87  E(vib)   ...       0.03
freq.    1057.09  E(vib)   ...       0.02
freq.    1068.53  E(vib)   ...       0.02
freq.    1168.84  E(vib)   ...       0.01
freq.    1230.21  E(vib)   ...       0.01
freq.    1313.18  E(vib)   ...       0.01
freq.    1429.17  E(vib)   ...       0.00
freq.    1472.08  E(vib)   ...       0.00
freq.    1529.70  E(vib)   ...       0.00
freq.    1606.49  E(vib)   ...       0.00
freq.    3260.15  E(vib)   ...       0.00
freq.    3275.25  E(vib)   ...       0.00
freq.    3292.64  E(vib)   ...       0.00
freq.    3644.77  E(vib)   ...       0.00

------------
INNER ENERGY
------------

The inner energy is: U= E(el) + E(ZPE) + E(vib) + E(rot) + E(trans)
    E(el)   - is the total energy from the electronic structure calculation
              = E(kin-el) + E(nuc-el) + E(el-el) + E(nuc-nuc)
    E(ZPE)  - the the zero temperature vibrational energy from the frequency calculation
    E(vib)  - the the finite temperature correction to E(ZPE) due to population
              of excited vibrational states
    E(rot)  - is the rotational thermal energy
    E(trans)- is the translational thermal energy

Summary of contributions to the inner energy U:
Electronic energy                ...   -225.77359308 Eh
Zero point energy                ...      0.07218626 Eh      45.30 kcal/mol
Thermal vibrational correction   ...      0.00083341 Eh       0.52 kcal/mol
Thermal rotational correction    ...      0.00141627 Eh       0.89 kcal/mol
Thermal translational correction ...      0.00141627 Eh       0.89 kcal/mol
-----------------------------------------------------------------------
Total thermal energy                   -225.69774086 Eh

Summary of corrections to the electronic energy:
(perhaps to be used in another calculation)
Total thermal correction                  0.00366596 Eh       2.30 kcal/mol
Non-thermal (ZPE) correction              0.07218626 Eh      45.30 kcal/mol
-----------------------------------------------------------------------
Total correction                          0.07585222 Eh      47.60 kcal/mol

--------
ENTHALPY
--------

The enthalpy is H = U + kB*T
                kB is Boltzmann's constant
Total thermal energy              ...   -225.69774086 Eh
Thermal Enthalpy correction       ...      0.00094421 Eh       0.59 kcal/mol
-----------------------------------------------------------------------
Total Enthalpy                    ...   -225.69679665 Eh

Note: Rotational entropy computed according to Herzberg
Infrared and Raman Spectra, Chapter V,1, Van Nostrand Reinhold, 1945
Point Group:  Cs, Symmetry Number:   1
Rotational constants in cm-1:     0.323621     0.316316     0.159963

Vibrational entropy computed according to the QRRHO of S. Grimme
Chem.Eur.J. 2012 18 9955 using a reference frequency of 100.0 cm-1

-------
ENTROPY
-------

The entropy contributions are T*S = T*(S(el)+S(vib)+S(rot)+S(trans))
     S(el)   - electronic entropy
     S(vib)  - vibrational entropy
     S(rot)  - rotational entropy
     S(trans)- translational entropy
The entropies will be listed as multiplied by the temperature to get
units of energy

Electronic entropy                ...      0.00000000 Eh      0.00 kcal/mol
Vibrational entropy               ...      0.00105812 Eh      0.66 kcal/mol
Rotational entropy                ...      0.01145205 Eh      7.19 kcal/mol
Translational entropy             ...      0.01832668 Eh     11.50 kcal/mol
-----------------------------------------------------------------------
Final entropy term                ...      0.03083685 Eh     19.35 kcal/mol

In case the symmetry of your molecule has not been determined correctly
or in case you have a reason to use a different symmetry number we print
out the resulting rotational entropy values for sn=1,12:

 non-linear molecules -----------------------------------
|  sn= 1 | S(rot)=       0.01145205 Eh      7.19 kcal/mol|
|  sn= 2 | S(rot)=       0.01079759 Eh      6.78 kcal/mol|
|  sn= 3 | S(rot)=       0.01041476 Eh      6.54 kcal/mol|
|  sn= 4 | S(rot)=       0.01014314 Eh      6.36 kcal/mol|
|  sn= 5 | S(rot)=       0.00993245 Eh      6.23 kcal/mol|
|  sn= 6 | S(rot)=       0.00976031 Eh      6.12 kcal/mol|
|  sn= 7 | S(rot)=       0.00961476 Eh      6.03 kcal/mol|
|  sn= 8 | S(rot)=       0.00948868 Eh      5.95 kcal/mol|
|  sn= 9 | S(rot)=       0.00937747 Eh      5.88 kcal/mol|
|  sn=10 | S(rot)=       0.00927799 Eh      5.82 kcal/mol|
|  sn=11 | S(rot)=       0.00918800 Eh      5.77 kcal/mol|
|  sn=12 | S(rot)=       0.00910585 Eh      5.71 kcal/mol|
 linear molecules ---------------------------------------
|  Dinfh | S(rot)=       0.00705631 Eh      4.43 kcal/mol|
|  Cinfv | S(rot)=       0.00771077 Eh      4.84 kcal/mol|
 --------------------------------------------------------

-------------------
GIBBS FREE ENERGY
-------------------

The Gibbs free energy is G = H - T*S

Total enthalpy                    ...   -225.69679665 Eh
Total entropy correction          ...     -0.03083685 Eh    -19.35 kcal/mol
-----------------------------------------------------------------------
Final Gibbs free energy         ...   -225.72763350 Eh

For completeness - the Gibbs free energy minus the electronic energy
G-E(el)                           ...      0.04595958 Eh     28.84 kcal/mol

                             ****ORCA TERMINATED NORMALLY****
TOTAL RUN TIME: 0 days 0 hours 4 minutes 49 seconds 711 msec
