                         Program Version 6.0.0  -   RELEASE  -
|  1> !B3LYP aug-cc-pVTZ d3 TightSCF SlowConv RIJCOSX defgrid2
|  2>
|  3> %pal
|  4> nprocs 15
|  5> end
|  6>
|  7> %scf
|  8> MaxIter 1500
|  9> end
| 10>
| 11> %maxcore 3500
| 12>
| 13> !CPCM
| 14> %cpcm smd true
| 15> SMDsolvent "WATER"
| 16> surfacetype gepol_ses
| 17> rsolv 1.40
| 18> end
| 19>
| 20> * xyz -1 2
| 21> C          -0.06058974015319     -0.02786640637996     -0.06636687374245
| 22> C          -0.02915253757207      1.41200889322469      0.08669635331984
| 23> C           0.02798442423532      2.03233434330205      1.32981811902407
| 24> C           0.05891841826264      1.28851377532912      2.57222906271290
| 25> C           0.02788466230184     -0.17442785622153      2.44488354658359
| 26> C          -0.02912762559812     -0.80604792656199      1.17894588306731
| 27> C          -0.05600083532212     -2.21190043304611      1.11490808218194
| 28> C          -0.02778223638882     -2.97912152092029      2.26676120872945
| 29> C           0.02864253401367     -2.35043181295908      3.52692854346035
| 30> C           0.05574276936416     -0.96875665770795      3.60660845784379
| 31> H           0.09961725693663     -0.44137362844551      4.56397519772263
| 32> H           0.05097367878843     -2.95610213708649      4.44040440744309
| 33> H          -0.04909796692647     -4.07320599895043      2.20123731713864
| 34> H          -0.09984497496410     -2.65971392423461      0.11785465933687
| 35> C           0.06118565181994      3.52761243856941      1.44630550499102
| 36> H          -0.83631875455019      3.99924775120952      0.99973118694746
| 37> H           0.10955815705607      3.79661097587730      2.51364550587021
| 38> H           0.93630443757164      3.96465252836867      0.92646488630537
| 39> C          -0.06070223464566      2.21802482702039     -1.17830606330920
| 40> H           0.83706819273596      2.85838996312933     -1.28473705482212
| 41> H          -0.10791860033235      1.52690469530484     -2.03502370536211
| 42> H          -0.93579834377862      2.89621056380490     -1.21654993473529
| 43> O           0.10927738480662      1.83885022543947      3.69657300623271
| 44> O          -0.11082371766120     -0.59470609206575     -1.18250068694010
| 45> *
| 46>
| 47>                          ****END OF INPUT****

CARTESIAN COORDINATES (ANGSTROEM)
---------------------------------
  C     -0.060590   -0.027866   -0.066367
  C     -0.029153    1.412009    0.086696
  C      0.027984    2.032334    1.329818
  C      0.058918    1.288514    2.572229
  C      0.027885   -0.174428    2.444884
  C     -0.029128   -0.806048    1.178946
  C     -0.056001   -2.211900    1.114908
  C     -0.027782   -2.979122    2.266761
  C      0.028643   -2.350432    3.526929
  C      0.055743   -0.968757    3.606608
  H      0.099617   -0.441374    4.563975
  H      0.050974   -2.956102    4.440404
  H     -0.049098   -4.073206    2.201237
  H     -0.099845   -2.659714    0.117855
  C      0.061186    3.527612    1.446306
  H     -0.836319    3.999248    0.999731
  H      0.109558    3.796611    2.513646
  H      0.936304    3.964653    0.926465
  C     -0.060702    2.218025   -1.178306
  H      0.837068    2.858390   -1.284737
  H     -0.107919    1.526905   -2.035024
  H     -0.935798    2.896211   -1.216550
  O      0.109277    1.838850    3.696573
  O     -0.110824   -0.594706   -1.182501

 Total Charge           Charge          ....   -1
 Multiplicity           Mult            ....    2
 Number of Electrons    NEL             ....   99
 Basis Dimension        Dim             ....  874

ORBITAL ENERGIES
----------------
                 SPIN UP ORBITALS
  NO   OCC          E(Eh)            E(eV)
   0   1.0000     -19.084248      -519.3088
   1   1.0000     -19.084188      -519.3072
   2   1.0000     -10.221700      -278.1466
   3   1.0000     -10.221652      -278.1453
   4   1.0000     -10.172399      -276.8050
   5   1.0000     -10.171864      -276.7905
   6   1.0000     -10.171267      -276.7742
   7   1.0000     -10.170753      -276.7603
   8   1.0000     -10.169128      -276.7160
   9   1.0000     -10.169098      -276.7152
  10   1.0000     -10.168291      -276.6933
  11   1.0000     -10.167674      -276.6765
  12   1.0000     -10.152946      -276.2757
  13   1.0000     -10.152918      -276.2749
  14   1.0000      -1.007875       -27.4257
  15   1.0000      -1.005680       -27.3659
  16   1.0000      -0.853977       -23.2379
  17   1.0000      -0.813418       -22.1342
  18   1.0000      -0.752948       -20.4888
  19   1.0000      -0.745483       -20.2856
  20   1.0000      -0.720591       -19.6083
  21   1.0000      -0.666906       -18.1474
  22   1.0000      -0.650078       -17.6895
  23   1.0000      -0.593110       -16.1394
  24   1.0000      -0.581570       -15.8253
  25   1.0000      -0.548365       -14.9218
  26   1.0000      -0.511430       -13.9167
  27   1.0000      -0.483841       -13.1660
  28   1.0000      -0.464603       -12.6425
  29   1.0000      -0.443338       -12.0638
  30   1.0000      -0.434393       -11.8204
  31   1.0000      -0.421895       -11.4804
  32   1.0000      -0.417750       -11.3676
  33   1.0000      -0.417673       -11.3655
  34   1.0000      -0.394961       -10.7474
  35   1.0000      -0.394616       -10.7380
  36   1.0000      -0.380880       -10.3643
  37   1.0000      -0.380026       -10.3410
  38   1.0000      -0.370965       -10.0945
  39   1.0000      -0.368700       -10.0328
  40   1.0000      -0.352078        -9.5805
  41   1.0000      -0.348522        -9.4838
  42   1.0000      -0.335025        -9.1165
  43   1.0000      -0.331453        -9.0193
  44   1.0000      -0.269470        -7.3327
  45   1.0000      -0.254987        -6.9386
  46   1.0000      -0.253077        -6.8866
  47   1.0000      -0.237978        -6.4757
  48   1.0000      -0.237256        -6.4561
  49   1.0000      -0.151788        -4.1303
  50   0.0000      -0.030599        -0.8326
  51   0.0000      -0.011790        -0.3208
  52   0.0000      -0.003027        -0.0824
  53   0.0000       0.006880         0.1872
  54   0.0000       0.014003         0.3810

                 SPIN DOWN ORBITALS
  NO   OCC          E(Eh)            E(eV)
   0   1.0000     -19.078654      -519.1566
   1   1.0000     -19.078589      -519.1548
   2   1.0000     -10.219646      -278.0907
   3   1.0000     -10.219602      -278.0895
   4   1.0000     -10.172047      -276.7955
   5   1.0000     -10.171511      -276.7809
   6   1.0000     -10.170787      -276.7612
   7   1.0000     -10.170274      -276.7472
   8   1.0000     -10.169012      -276.7129
   9   1.0000     -10.168989      -276.7123
  10   1.0000     -10.166973      -276.6574
  11   1.0000     -10.166342      -276.6402
  12   1.0000     -10.153050      -276.2785
  13   1.0000     -10.153022      -276.2778
  14   1.0000      -0.997884       -27.1538
  15   1.0000      -0.995515       -27.0893
  16   1.0000      -0.851836       -23.1796
  17   1.0000      -0.809247       -22.0207
  18   1.0000      -0.750947       -20.4343
  19   1.0000      -0.743455       -20.2304
  20   1.0000      -0.716969       -19.5097
  21   1.0000      -0.664912       -18.0932
  22   1.0000      -0.643379       -17.5072
  23   1.0000      -0.592208       -16.1148
  24   1.0000      -0.577913       -15.7258
  25   1.0000      -0.545320       -14.8389
  26   1.0000      -0.509269       -13.8579
  27   1.0000      -0.481308       -13.0970
  28   1.0000      -0.461759       -12.5651
  29   1.0000      -0.442325       -12.0363
  30   1.0000      -0.424825       -11.5601
  31   1.0000      -0.418524       -11.3886
  32   1.0000      -0.415529       -11.3071
  33   1.0000      -0.414950       -11.2914
  34   1.0000      -0.387435       -10.5426
  35   1.0000      -0.384639       -10.4666
  36   1.0000      -0.379691       -10.3319
  37   1.0000      -0.378768       -10.3068
  38   1.0000      -0.369878       -10.0649
  39   1.0000      -0.351275        -9.5587
  40   1.0000      -0.351183        -9.5562
  41   1.0000      -0.337061        -9.1719
  42   1.0000      -0.333425        -9.0730
  43   1.0000      -0.330174        -8.9845
  44   1.0000      -0.248733        -6.7684
  45   1.0000      -0.248395        -6.7592
  46   1.0000      -0.248066        -6.7502
  47   1.0000      -0.233099        -6.3429
  48   1.0000      -0.228426        -6.2158
  49   0.0000      -0.085942        -2.3386
  50   0.0000      -0.022909        -0.6234
  51   0.0000      -0.002823        -0.0768
  52   0.0000      -0.000611        -0.0166
  53   0.0000       0.006868         0.1869

MULLIKEN ATOMIC CHARGES AND SPIN POPULATIONS
--------------------------------------------
   0 C :    1.251492    0.116980
   1 C :    0.084197    0.100690
   2 C :    0.067577    0.100711
   3 C :    1.249941    0.117455
   4 C :    1.032054    0.027200
   5 C :    1.023564    0.027271
   6 C :   -1.203480    0.018617
   7 C :   -0.437232    0.026887
   8 C :   -0.408837    0.026865
   9 C :   -1.191941    0.018564
  10 H :    0.018697   -0.002173
  11 H :    0.606321   -0.001170
  12 H :    0.616836   -0.001177
  13 H :    0.015396   -0.002247
  14 C :   -0.963601   -0.001905
  15 H :    0.180045    0.004106
  16 H :    0.184117   -0.000469
  17 H :    0.179573    0.004052
  18 C :   -0.968242   -0.001932
  19 H :    0.185028    0.004100
  20 H :    0.181362   -0.000382
  21 H :    0.185925    0.004025
  22 O :   -1.449701    0.206823
  23 O :   -1.439093    0.207108
Sum of atomic charges         :   -1.0000000

LOEWDIN ATOMIC CHARGES AND SPIN POPULATIONS
-------------------------------------------
   0 C :   -0.605669    0.127797
   1 C :   -0.128930    0.085397
   2 C :   -0.128894    0.085302
   3 C :   -0.605791    0.127849
   4 C :   -0.148237    0.046629
   5 C :   -0.148203    0.046626
   6 C :    0.180005    0.013778
   7 C :    0.184746    0.018878
   8 C :    0.184797    0.018861
   9 C :    0.179937    0.013779
  10 H :   -0.196747    0.001056
  11 H :   -0.172427    0.003311
  12 H :   -0.172420    0.003316
  13 H :   -0.196645    0.001051
  14 C :    0.531405    0.012497
  15 H :   -0.153042    0.002578
  16 H :   -0.220475   -0.000958
  17 H :   -0.153479    0.002541
  18 C :    0.531459    0.012528
  19 H :   -0.153173    0.002579
  20 H :   -0.220659   -0.000958
  21 H :   -0.153347    0.002551
  22 O :    0.382755    0.186438
  23 O :    0.383034    0.186573

  Mayer bond orders larger than 0.100000
B(  0-C ,  1-C ) :   1.2264 B(  0-C ,  2-C ) :  -0.4849 B(  0-C ,  3-C ) :   1.0842
B(  0-C ,  4-C ) :  -0.4829 B(  0-C ,  5-C ) :   0.7052 B(  0-C ,  6-C ) :   0.5628
B(  0-C ,  9-C ) :  -0.1049 B(  0-C , 23-O ) :  -0.4450 B(  1-C ,  2-C ) :   0.8638
B(  1-C ,  3-C ) :  -0.4783 B(  1-C ,  5-C ) :   0.6668 B(  1-C , 14-C ) :   0.1133
B(  1-C , 18-C ) :   0.2840 B(  1-C , 19-H ) :  -0.1638 B(  1-C , 21-H ) :  -0.1660
B(  1-C , 23-O ) :   0.3685 B(  2-C ,  3-C ) :   1.2497 B(  2-C ,  4-C ) :   0.6544
B(  2-C ,  9-C ) :   0.1126 B(  2-C , 14-C ) :   0.2603 B(  2-C , 15-H ) :  -0.1683
B(  2-C , 17-H ) :  -0.1768 B(  2-C , 18-C ) :   0.1163 B(  2-C , 22-O ) :   0.3812
B(  3-C ,  4-C ) :   0.6789 B(  3-C ,  5-C ) :  -0.4356 B(  3-C ,  6-C ) :  -0.1380
B(  3-C ,  9-C ) :   0.5702 B(  3-C , 14-C ) :  -0.1043 B(  3-C , 22-O ) :  -0.4557
B(  4-C ,  5-C ) :   0.6411 B(  4-C ,  6-C ) :  -0.5208 B(  4-C ,  7-C ) :  -0.1433
B(  4-C ,  9-C ) :  -0.2558 B(  4-C , 10-H ) :  -0.1443 B(  4-C , 22-O ) :   0.4098
B(  5-C ,  6-C ) :  -0.2966 B(  5-C ,  7-C ) :  -0.1004 B(  5-C ,  8-C ) :  -0.1355
B(  5-C ,  9-C ) :  -0.5679 B(  5-C , 13-H ) :  -0.1497 B(  5-C , 23-O ) :   0.4262
B(  6-C ,  7-C ) :   1.2306 B(  6-C , 12-H ) :  -0.1668 B(  6-C , 13-H ) :   1.2444
B(  7-C ,  8-C ) :   1.0795 B(  7-C , 12-H ) :   0.3419 B(  8-C ,  9-C ) :   1.1905
B(  8-C , 11-H ) :   0.3658 B(  9-C , 10-H ) :   1.2305 B(  9-C , 11-H ) :  -0.1690
B( 10-H , 22-O ) :   0.2179 B( 13-H , 23-O ) :   0.2187 B( 14-C , 15-H ) :   1.0980
B( 14-C , 16-H ) :   0.9321 B( 14-C , 17-H ) :   1.1006 B( 18-C , 19-H ) :   1.0875
B( 18-C , 20-H ) :   0.9476 B( 18-C , 21-H ) :   1.0865

Dispersion correction           -0.051229408
FINAL SINGLE POINT ENERGY      -613.807054127940

DIPOLE MOMENT
-------------

Method             : SCF
Type of density    : Electron Density
Multiplicity       :   2
Irrep              :   0
Energy             :  -613.7558247194479009 Eh
Relativity type    :
Basis              : AO
                                X                 Y                 Z
Electronic contribution:     -0.006337775      -6.798579043       3.389229172
Nuclear contribution   :      0.007077470       6.336292283      -3.161748014
                        -----------------------------------------
Total Dipole Moment    :      0.000739695      -0.462286760       0.227481158
                        -----------------------------------------
Magnitude (a.u.)       :      0.515225458
Magnitude (Debye)      :      1.309599040

Rotational constants in cm-1:             0.036449             0.021992             0.013787
Rotational constants in MHz :          1092.703549           659.301071           413.332938

                             ****ORCA TERMINATED NORMALLY****
TOTAL RUN TIME: 0 days 0 hours 6 minutes 33 seconds 70 msec
