                         Program Version 6.0.0  -   RELEASE  -
|  1> !B3LYP opt aug-cc-pVTZ d3 TightSCF SlowConv RIJCOSX defgrid2
|  2>
|  3> %pal
|  4> nprocs 8
|  5> end
|  6>
|  7> %scf
|  8> MaxIter 1500
|  9> end
| 10>
| 11> %maxcore 3500
| 12>
| 13> !CPCM
| 14> %cpcm smd true
| 15> SMDsolvent "MeCN"
| 16> surfacetype gepol_ses
| 17> rsolv 2.19
| 18> end
| 19>
| 20> * xyz 0 1
| 21>   C          -1.14933226451234     -1.23882509190584     -0.00046672280380
| 22>   C          -2.50857813675911     -0.94988227106401     -0.00054346756040
| 23>   C          -2.93817015440872      0.37868475331297     -0.00006408928605
| 24>   C          -2.00629101009504      1.41668452923491      0.00049673263770
| 25>   C          -0.64374499246001      1.13250357756874      0.00056381244254
| 26>   C          -0.20908515748665     -0.19753416758703      0.00007645085547
| 27>   C           1.21837162790625     -0.59720306751016      0.00007667382631
| 28>   O           1.62341721296480     -1.71314820484524     -0.00012734829677
| 29>   Cl          2.38206247173385      0.76415186429790      0.00056602291059
| 30>   H           0.09169908378046      1.93929798920226      0.00098639048783
| 31>   H          -2.34320651232058      2.45698180479248      0.00087795608335
| 32>   H          -4.00834754942676      0.60618222514384     -0.00012604204670
| 33>   H          -3.23886079813446     -1.76401666244183     -0.00098417146236
| 34>   H          -0.79061102078168     -2.27094327819897     -0.00083749778771
| 35> *
| 36>
| 37>                          ****END OF INPUT****
 Total Charge           Charge          ....    0
 Multiplicity           Mult            ....    1
 Number of Electrons    NEL             ....   72
Dispersion correction           -0.028248897
FINAL SINGLE POINT ENERGY      -805.121024688225
Dispersion correction             ... done (  0.1 sec)
Dispersion correction           -0.028269515
FINAL SINGLE POINT ENERGY      -805.122053905915
Dispersion correction             ... done (  0.1 sec)
Dispersion correction           -0.028272600
FINAL SINGLE POINT ENERGY      -805.122240690214
Dispersion correction             ... done (  0.0 sec)
FINAL SINGLE POINT ENERGY      -805.122074225938
FINAL SINGLE POINT ENERGY      -805.122357061072
FINAL SINGLE POINT ENERGY      -805.122369969313
Dispersion correction             ... done (  0.0 sec)
Dispersion correction           -0.028253844
FINAL SINGLE POINT ENERGY      -805.122372806312
Dispersion correction             ... done (  0.1 sec)
Dispersion correction           -0.028253072
FINAL SINGLE POINT ENERGY      -805.122373785322
Dispersion correction             ... done (  0.1 sec)
                    ***********************HURRAY********************

CARTESIAN COORDINATES (ANGSTROEM)
---------------------------------
  C     -1.157064   -1.242245   -0.000715
  C     -2.509165   -0.948194   -0.000437
  C     -2.932866    0.378556    0.000218
  C     -2.001317    1.411203    0.000131
  C     -0.644583    1.125392   -0.000316
  C     -0.215093   -0.203609   -0.000482
  C      1.198283   -0.602389    0.000382
  O      1.639716   -1.705092   -0.000220
  Cl     2.402743    0.791533    0.002470
  H      0.073317    1.929712   -0.000665
  H     -2.331002    2.440437    0.001196
  H     -3.990051    0.605840    0.000976
  H     -3.233798   -1.750113   -0.000703
  H     -0.819796   -2.268097   -0.001340

 Multiplicity           Mult            ....    1
 Number of Electrons    NEL             ....   72
 Basis Dimension        Dim             ....  533

ORBITAL ENERGIES
----------------

  NO   OCC          E(Eh)            E(eV)
   0   2.0000    -101.560000     -2763.5881
   1   2.0000     -19.160704      -521.3893
   2   2.0000     -10.327724      -281.0317
   3   2.0000     -10.210117      -277.8314
   4   2.0000     -10.194426      -277.4044
   5   2.0000     -10.194280      -277.4005
   6   2.0000     -10.191005      -277.3113
   7   2.0000     -10.185458      -277.1604
   8   2.0000     -10.185265      -277.1551
   9   2.0000      -9.464832      -257.5512
  10   2.0000      -7.226899      -196.6539
  11   2.0000      -7.220084      -196.4685
  12   2.0000      -7.219048      -196.4403
  13   2.0000      -1.098299       -29.8862
  14   2.0000      -0.879641       -23.9362
  15   2.0000      -0.840982       -22.8843
  16   2.0000      -0.776568       -21.1315
  17   2.0000      -0.762379       -20.7454
  18   2.0000      -0.655681       -17.8420
  19   2.0000      -0.620051       -16.8725
  20   2.0000      -0.570402       -15.5214
  21   2.0000      -0.528006       -14.3678
  22   2.0000      -0.490242       -13.3402
  23   2.0000      -0.480745       -13.0817
  24   2.0000      -0.454242       -12.3606
  25   2.0000      -0.449423       -12.2294
  26   2.0000      -0.447779       -12.1847
  27   2.0000      -0.434570       -11.8252
  28   2.0000      -0.382149       -10.3988
  29   2.0000      -0.371086       -10.0978
  30   2.0000      -0.356222        -9.6933
  31   2.0000      -0.327768        -8.9190
  32   2.0000      -0.326771        -8.8919
  33   2.0000      -0.301258        -8.1977
  34   2.0000      -0.276833        -7.5330
  35   2.0000      -0.271486        -7.3875
  36   0.0000      -0.082436        -2.2432
  37   0.0000      -0.024722        -0.6727
  38   0.0000      -0.009715        -0.2644
  39   0.0000       0.004708         0.1281
  40   0.0000       0.014290         0.3888

MULLIKEN ATOMIC CHARGES
-----------------------
   0 C :   -0.832808
   1 C :   -0.420669
   2 C :   -0.291667
   3 C :   -0.650677
   4 C :   -0.744121
   5 C :    1.399641
   6 C :    0.529467
   7 O :   -0.676716
   8 Cl:   -0.299985
   9 H :    0.323740
  10 H :    0.516707
  11 H :    0.462055
  12 H :    0.457328
  13 H :    0.227705
Sum of atomic charges:   -0.0000000

LOEWDIN ATOMIC CHARGES
----------------------
   0 C :    0.195679
   1 C :    0.220657
   2 C :    0.219157
   3 C :    0.217920
   4 C :    0.163372
   5 C :   -0.243900
   6 C :   -1.079759
   7 O :    0.417388
   8 Cl:    0.814125
   9 H :   -0.240661
  10 H :   -0.169163
  11 H :   -0.165327
  12 H :   -0.168916
  13 H :   -0.180571

  Mayer bond orders larger than 0.100000
B(  0-C ,  1-C ) :   1.2205 B(  0-C ,  4-C ) :  -0.1312 B(  0-C ,  5-C ) :   0.4957
B(  0-C ,  6-C ) :   0.1474 B(  0-C , 12-H ) :  -0.1066 B(  0-C , 13-H ) :   0.8867
B(  1-C ,  2-C ) :   1.1759 B(  1-C , 12-H ) :   0.6684 B(  2-C ,  3-C ) :   1.2504
B(  2-C ,  5-C ) :  -0.1335 B(  2-C , 11-H ) :   0.6691 B(  3-C ,  4-C ) :   1.1866
B(  3-C ,  5-C ) :  -0.1271 B(  3-C , 10-H ) :   0.5673 B(  4-C ,  5-C ) :   0.3325
B(  4-C ,  6-C ) :   0.2015 B(  4-C ,  9-H ) :   1.0473 B(  4-C , 10-H ) :  -0.1013
B(  5-C ,  6-C ) :   0.5412 B(  5-C ,  7-O ) :   0.2290 B(  5-C ,  8-Cl) :   0.1003
B(  6-C ,  7-O ) :   1.0953 B(  6-C ,  8-Cl) :   0.7666 B(  7-O , 13-H ) :   0.1421
B(  8-Cl,  9-H ) :  -0.1188

Dispersion correction           -0.028253168
FINAL SINGLE POINT ENERGY      -805.122374108587

DIPOLE MOMENT
-------------

Method             : SCF
Type of density    : Electron Density
Multiplicity       :   1
Irrep              :   0
Energy             :  -805.0941209410341344 Eh
Relativity type    :
Basis              : AO
                                X                 Y                 Z
Electronic contribution:     10.737402047       0.772610921       0.004950996
Nuclear contribution   :    -12.908310486      -0.207513336      -0.005468533
                        -----------------------------------------
Total Dipole Moment    :     -2.170908439       0.565097585      -0.000517537
                        -----------------------------------------
Magnitude (a.u.)       :      2.243251880
Magnitude (Debye)      :      5.701893142

Rotational constants in cm-1:             0.103979             0.030854             0.023793
Rotational constants in MHz :          3117.226099           924.969096           713.310011

                             ****ORCA TERMINATED NORMALLY****
TOTAL RUN TIME: 0 days 0 hours 27 minutes 21 seconds 476 msec
