                         Program Version 6.0.0  -   RELEASE  -
|  1> !PBE0 opt def2-SV(p) d3 TightSCF SlowConv RIJCOSX defgrid2
|  2>
|  3> %pal
|  4> nprocs 8
|  5> end
|  6>
|  7> %scf
|  8> MaxIter 1500
|  9> end
| 10>
| 11> %maxcore 3500
| 12>
| 13> !CPCM
| 14> %cpcm smd true
| 15> SMDsolvent "MeCN"
| 16> surfacetype gepol_ses
| 17> rsolv 2.19
| 18> end
| 19>
| 20> * xyz 0 1
| 21> C          -0.22997754219743     -1.20609091856311     -0.00046087004095
| 22> C           1.16128384069195     -1.20031253591911      0.00041394587123
| 23> C           1.87254503831811     -0.00003037040882      0.00072012391754
| 24> C           1.16131377140118      1.20026930808148      0.00041360790641
| 25> C          -0.22994707632405      1.20608173416170     -0.00046177829750
| 26> C          -0.95218511536342      0.00000427823419     -0.00003761551285
| 27> N          -2.33340895991450      0.00002157595282      0.04653779431621
| 28> H          -2.79855452143895      0.84821355690402     -0.25483389378867
| 29> H          -2.79857532928795     -0.84816111010491     -0.25482834496791
| 30> H          -0.77344381556999      2.15676174884881      0.00298430668171
| 31> H           1.69817818740019      2.15419904894576     -0.00079679497611
| 32> H           2.96571339060225     -0.00004426352233      0.00028554339021
| 33> H           1.69812535441562     -2.15425546581862     -0.00079688995407
| 34> H          -0.77349762273302     -2.15675758679187      0.00298456545474
| 35> *
| 36>
| 37>                          ****END OF INPUT****
 Total Charge           Charge          ....    0
 Multiplicity           Mult            ....    1
 Number of Electrons    NEL             ....   50
Dispersion correction           -0.011429003
FINAL SINGLE POINT ENERGY      -287.063635076233
Dispersion correction             ... done (  0.1 sec)
Dispersion correction           -0.011425436
FINAL SINGLE POINT ENERGY      -287.063705864649
Dispersion correction             ... done (  0.1 sec)
Dispersion correction           -0.011424646
FINAL SINGLE POINT ENERGY      -287.063716217074
Dispersion correction             ... done (  0.1 sec)
                    ***********************HURRAY********************

CARTESIAN COORDINATES (ANGSTROEM)
---------------------------------
  C     -0.230602   -1.208338   -0.001269
  C      1.161858   -1.201684    0.001232
  C      1.874741   -0.000030    0.003616
  C      1.161887    1.201640    0.001231
  C     -0.230573    1.208328   -0.001270
  C     -0.956157    0.000004    0.000692
  N     -2.331651    0.000021    0.053265
  H     -2.798817    0.848279   -0.253220
  H     -2.798840   -0.848222   -0.253227
  H     -0.774719    2.158602   -0.004441
  H      1.698359    2.156358   -0.001853
  H      2.968549   -0.000044    0.003656
  H      1.698306   -2.156415   -0.001850
  H     -0.774771   -2.158599   -0.004438

 Multiplicity           Mult            ....    1
 Number of Electrons    NEL             ....   50
 Basis Dimension        Dim             ....  112

ORBITAL ENERGIES
----------------

  NO   OCC          E(Eh)            E(eV)
   0   2.0000     -14.383411      -391.3925
   1   2.0000     -10.275891      -279.6212
   2   2.0000     -10.232526      -278.4412
   3   2.0000     -10.232510      -278.4408
   4   2.0000     -10.225346      -278.2458
   5   2.0000     -10.225343      -278.2457
   6   2.0000     -10.221590      -278.1436
   7   2.0000      -0.933847       -25.4113
   8   2.0000      -0.851944       -23.1826
   9   2.0000      -0.756574       -20.5874
  10   2.0000      -0.735900       -20.0249
  11   2.0000      -0.622248       -16.9322
  12   2.0000      -0.608596       -16.5607
  13   2.0000      -0.537058       -14.6141
  14   2.0000      -0.517297       -14.0764
  15   2.0000      -0.485893       -13.2218
  16   2.0000      -0.440616       -11.9898
  17   2.0000      -0.437795       -11.9130
  18   2.0000      -0.425809       -11.5868
  19   2.0000      -0.402102       -10.9417
  20   2.0000      -0.366988        -9.9863
  21   2.0000      -0.346851        -9.4383
  22   2.0000      -0.327061        -8.8998
  23   2.0000      -0.266063        -7.2399
  24   2.0000      -0.214196        -5.8286
  25   0.0000      -0.000962        -0.0262
  26   0.0000       0.016738         0.4555
  27   0.0000       0.083426         2.2701
  28   0.0000       0.097592         2.6556
  29   0.0000       0.114197         3.1074

MULLIKEN ATOMIC CHARGES
-----------------------
   0 C :   -0.195804
   1 C :   -0.129942
   2 C :   -0.148497
   3 C :   -0.129940
   4 C :   -0.195803
   5 C :    0.131655
   6 N :   -0.453864
   7 H :    0.281201
   8 H :    0.281202
   9 H :    0.103305
  10 H :    0.119885
  11 H :    0.113413
  12 H :    0.119885
  13 H :    0.103304
Sum of atomic charges:    0.0000000

LOEWDIN ATOMIC CHARGES
----------------------
   0 C :   -0.186701
   1 C :   -0.134249
   2 C :   -0.191976
   3 C :   -0.134248
   4 C :   -0.186701
   5 C :   -0.006335
   6 N :   -0.351674
   7 H :    0.251485
   8 H :    0.251485
   9 H :    0.138225
  10 H :    0.138562
  11 H :    0.135343
  12 H :    0.138562
  13 H :    0.138224

  Mayer bond orders larger than 0.100000
B(  0-C ,  1-C ) :   1.4042 B(  0-C ,  5-C ) :   1.3204 B(  0-C , 13-H ) :   0.9659
B(  1-C ,  2-C ) :   1.3652 B(  1-C , 12-H ) :   0.9615 B(  2-C ,  3-C ) :   1.3652
B(  2-C , 11-H ) :   0.9690 B(  3-C ,  4-C ) :   1.4042 B(  3-C , 10-H ) :   0.9615
B(  4-C ,  5-C ) :   1.3204 B(  4-C ,  9-H ) :   0.9659 B(  5-C ,  6-N ) :   1.2328
B(  6-N ,  7-H ) :   0.8667 B(  6-N ,  8-H ) :   0.8667

Dispersion correction           -0.011424525
FINAL SINGLE POINT ENERGY      -287.063715892204

DIPOLE MOMENT
-------------

Method             : SCF
Type of density    : Electron Density
Multiplicity       :   1
Irrep              :   0
Energy             :  -287.0522913676007875 Eh
Relativity type    :
Basis              : AO
                                X                 Y                 Z
Electronic contribution:     -0.185242814       0.000003565       0.048157981
Nuclear contribution   :     -0.743380688       0.000012663      -0.502796380
                        -----------------------------------------
Total Dipole Moment    :     -0.928623502       0.000016228      -0.454638398
                        -----------------------------------------
Magnitude (a.u.)       :      1.033942785
Magnitude (Debye)      :      2.628073702

Rotational constants in cm-1:             0.186999             0.086485             0.059205
Rotational constants in MHz :          5606.091891          2592.755670          1774.933635

                             ****ORCA TERMINATED NORMALLY****
TOTAL RUN TIME: 0 days 0 hours 3 minutes 40 seconds 528 msec
