                         Program Version 6.0.0  -   RELEASE  -
|  1> !TPSSh aug-cc-pVTZ d3 TightSCF SlowConv RIJCOSX defgrid2
|  2>
|  3> %pal
|  4> nprocs 4
|  5> end
|  6>
|  7> %scf
|  8> MaxIter 1500
|  9> end
| 10>
| 11> %maxcore 3000
| 12>
| 13> !CPCM
| 14> %cpcm smd true
| 15> SMDsolvent "MeCN"
| 16> surfacetype gepol_ses
| 17> rsolv 2.19
| 18> end
| 19>
| 20> * xyz 0 1
| 21> C           0.42903816797988     -1.14370342260353     -0.19375133840947
| 22> N           1.23090536349830     -0.00018108549555      0.21241157549017
| 23> H           1.32661660064153     -0.00085078462932      1.22885627448115
| 24> C           0.42918767964663      1.14398838233565     -0.19235272832111
| 25> C          -1.04960974603338      0.77261574951429      0.06492785280490
| 26> C          -1.04906283726916     -0.77294678133786      0.06683505909787
| 27> H          -1.38035607535846     -1.16390392177494      1.04420027054079
| 28> H          -1.72458244369567     -1.20024957174541     -0.69292350481507
| 29> H          -1.38487048878375      1.16593613289024      1.03994785440171
| 30> H          -1.72261217593395      1.19722636930467     -0.69855684493278
| 31> H           0.59041632586080      1.31476098653939     -1.27323726969509
| 32> H           0.75473592936517      2.05790809606369      0.33083351670359
| 33> H           0.58863701367587     -1.31196075363090     -1.27529624277050
| 34> H           0.75559928640620     -2.05873729543043      0.32686602542384
| 35> *
| 36>
| 37>                          ****END OF INPUT****

CARTESIAN COORDINATES (ANGSTROEM)
---------------------------------
  C      0.429038   -1.143703   -0.193751
  N      1.230905   -0.000181    0.212412
  H      1.326617   -0.000851    1.228856
  C      0.429188    1.143988   -0.192353
  C     -1.049610    0.772616    0.064928
  C     -1.049063   -0.772947    0.066835
  H     -1.380356   -1.163904    1.044200
  H     -1.724582   -1.200250   -0.692924
  H     -1.384870    1.165936    1.039948
  H     -1.722612    1.197226   -0.698557
  H      0.590416    1.314761   -1.273237
  H      0.754736    2.057908    0.330834
  H      0.588637   -1.311961   -1.275296
  H      0.755599   -2.058737    0.326866

 Total Charge           Charge          ....    0
 Multiplicity           Mult            ....    1
 Number of Electrons    NEL             ....   40
 Basis Dimension        Dim             ....  437

ORBITAL ENERGIES
----------------

  NO   OCC          E(Eh)            E(eV)
   0   2.0000     -14.228773      -387.1846
   1   2.0000     -10.123850      -275.4840
   2   2.0000     -10.123843      -275.4838
   3   2.0000     -10.099373      -274.8179
   4   2.0000     -10.099232      -274.8141
   5   2.0000      -0.892389       -24.2831
   6   2.0000      -0.725841       -19.7511
   7   2.0000      -0.689116       -18.7518
   8   2.0000      -0.573216       -15.5980
   9   2.0000      -0.547025       -14.8853
  10   2.0000      -0.478761       -13.0277
  11   2.0000      -0.441140       -12.0040
  12   2.0000      -0.404092       -10.9959
  13   2.0000      -0.401209       -10.9175
  14   2.0000      -0.347416        -9.4537
  15   2.0000      -0.327984        -8.9249
  16   2.0000      -0.315425        -8.5831
  17   2.0000      -0.314437        -8.5563
  18   2.0000      -0.292863        -7.9692
  19   2.0000      -0.215715        -5.8699
  20   0.0000      -0.003512        -0.0956
  21   0.0000       0.012281         0.3342
  22   0.0000       0.017135         0.4663
  23   0.0000       0.017538         0.4772
  24   0.0000       0.038138         1.0378

MULLIKEN ATOMIC CHARGES
-----------------------
   0 C :    0.182529
   1 N :   -0.477253
   2 H :   -0.010515
   3 C :    0.184062
   4 C :   -0.080722
   5 C :   -0.079476
   6 H :    0.031575
   7 H :    0.019829
   8 H :    0.032374
   9 H :    0.019119
  10 H :    0.069477
  11 H :    0.020094
  12 H :    0.068517
  13 H :    0.020390
Sum of atomic charges:   -0.0000000

LOEWDIN ATOMIC CHARGES
----------------------
   0 C :    0.149468
   1 N :    0.536825
   2 H :   -0.293525
   3 C :    0.149689
   4 C :    0.301326
   5 C :    0.301154
   6 H :   -0.147278
   7 H :   -0.145319
   8 H :   -0.147325
   9 H :   -0.145407
  10 H :   -0.143770
  11 H :   -0.136124
  12 H :   -0.143645
  13 H :   -0.136071

  Mayer bond orders larger than 0.100000
B(  0-C ,  1-N ) :   0.8249 B(  0-C ,  5-C ) :   1.0804 B(  0-C , 12-H ) :   0.9514
B(  0-C , 13-H ) :   0.9831 B(  1-N ,  2-H ) :   0.9098 B(  1-N ,  3-C ) :   0.8224
B(  3-C ,  4-C ) :   1.0813 B(  3-C , 10-H ) :   0.9513 B(  3-C , 11-H ) :   0.9831
B(  4-C ,  5-C ) :   1.1010 B(  4-C ,  8-H ) :   0.9940 B(  4-C ,  9-H ) :   0.9523
B(  5-C ,  6-H ) :   0.9943 B(  5-C ,  7-H ) :   0.9515

Dispersion correction           -0.011946637
FINAL SINGLE POINT ENERGY      -212.696469915862

DIPOLE MOMENT
-------------

Method             : SCF
Type of density    : Electron Density
Multiplicity       :   1
Irrep              :   0
Energy             :  -212.6845232785099711 Eh
Relativity type    :
Basis              : AO
                                X                 Y                 Z
Electronic contribution:      1.471943137      -0.000968142       0.336456447
Nuclear contribution   :     -2.069088816       0.000471850       0.035748568
                        -----------------------------------------
Total Dipole Moment    :     -0.597145679      -0.000496292       0.372205015
                        -----------------------------------------
Magnitude (a.u.)       :      0.703647484
Magnitude (Debye)      :      1.788529768

Rotational constants in cm-1:             0.230180             0.223654             0.130688
Rotational constants in MHz :          6900.610800          6704.969164          3917.942142

                             ****ORCA TERMINATED NORMALLY****
TOTAL RUN TIME: 0 days 0 hours 1 minutes 55 seconds 920 msec
