                         Program Version 6.0.0  -   RELEASE  -
|  1> !r2SCANh aug-cc-pVTZ d3 TightSCF SlowConv RIJCOSX defgrid2
|  2>
|  3> %pal
|  4> nprocs 4
|  5> end
|  6>
|  7> %scf
|  8> MaxIter 1500
|  9> end
| 10>
| 11> %maxcore 3000
| 12>
| 13> !CPCM
| 14> %cpcm smd true
| 15> SMDsolvent "MeCN"
| 16> surfacetype gepol_ses
| 17> rsolv 2.19
| 18> end
| 19>
| 20> * xyz 0 1
| 21> C          -0.01157783641881      1.20352898199244      0.00001890353025
| 22> C           1.37990540430455      1.22191450811359      0.00011854591947
| 23> C           2.06592899516975      0.01252414866139      0.00007181753194
| 24> C           1.39794249050432     -1.20933071970230     -0.00006681343243
| 25> C           0.01016197626576     -1.21076373795935     -0.00015906863819
| 26> C          -0.71228022521915     -0.00932565619212     -0.00012281102354
| 27> C          -2.20544538942687     -0.09111368239076     -0.00023883939795
| 28> O          -2.76237956084169     -1.16697560386648     -0.00031741607190
| 29> C          -2.99637020201978      1.19627311334720     -0.00027997588088
| 30> H          -2.76201741553525      1.80607989056811      0.88981335524989
| 31> H          -2.76168147330890      1.80627685436038     -0.89014621124470
| 32> H          -4.06823478710533      0.95066483560844     -0.00049545748797
| 33> H          -0.55378818786793     -2.14712022161097     -0.00026564570615
| 34> H           1.97664868381534     -2.13630478054762     -0.00010007290271
| 35> F           3.39392859180167      0.02324511926514      0.00015796253828
| 36> H           1.94353444532030      2.15785345098842      0.00023004641097
| 37> H          -0.54990740943796      2.15466559936447      0.00005528060562
| 38> *
| 39>
| 40>                          ****END OF INPUT****

CARTESIAN COORDINATES (ANGSTROEM)
---------------------------------
  C     -0.011578    1.203529    0.000019
  C      1.379905    1.221915    0.000119
  C      2.065929    0.012524    0.000072
  C      1.397942   -1.209331   -0.000067
  C      0.010162   -1.210764   -0.000159
  C     -0.712280   -0.009326   -0.000123
  C     -2.205445   -0.091114   -0.000239
  O     -2.762380   -1.166976   -0.000317
  C     -2.996370    1.196273   -0.000280
  H     -2.762017    1.806080    0.889813
  H     -2.761681    1.806277   -0.890146
  H     -4.068235    0.950665   -0.000495
  H     -0.553788   -2.147120   -0.000266
  H      1.976649   -2.136305   -0.000100
  F      3.393929    0.023245    0.000158
  H      1.943534    2.157853    0.000230
  H     -0.549907    2.154666    0.000055

 Total Charge           Charge          ....    0
 Multiplicity           Mult            ....    1
 Number of Electrons    NEL             ....   72
 Basis Dimension        Dim             ....  621

ORBITAL ENERGIES
----------------

  NO   OCC          E(Eh)            E(eV)
   0   2.0000     -24.701817      -672.1706
   1   2.0000     -19.105465      -519.8861
   2   2.0000     -10.257916      -279.1321
   3   2.0000     -10.248486      -278.8755
   4   2.0000     -10.180061      -277.0135
   5   2.0000     -10.176207      -276.9087
   6   2.0000     -10.174025      -276.8493
   7   2.0000     -10.172999      -276.8214
   8   2.0000     -10.172950      -276.8200
   9   2.0000     -10.150281      -276.2032
  10   2.0000      -1.256280       -34.1851
  11   2.0000      -1.051044       -28.6004
  12   2.0000      -0.874287       -23.7906
  13   2.0000      -0.776344       -21.1254
  14   2.0000      -0.763891       -20.7865
  15   2.0000      -0.725785       -19.7496
  16   2.0000      -0.635586       -17.2952
  17   2.0000      -0.624832       -17.0025
  18   2.0000      -0.551723       -15.0131
  19   2.0000      -0.548621       -14.9287
  20   2.0000      -0.496542       -13.5116
  21   2.0000      -0.477900       -13.0043
  22   2.0000      -0.475846       -12.9484
  23   2.0000      -0.443558       -12.0698
  24   2.0000      -0.433279       -11.7901
  25   2.0000      -0.425299       -11.5730
  26   2.0000      -0.423625       -11.5274
  27   2.0000      -0.399954       -10.8833
  28   2.0000      -0.393025       -10.6947
  29   2.0000      -0.370859       -10.0916
  30   2.0000      -0.364743        -9.9252
  31   2.0000      -0.348249        -9.4763
  32   2.0000      -0.335444        -9.1279
  33   2.0000      -0.267811        -7.2875
  34   2.0000      -0.254004        -6.9118
  35   2.0000      -0.245890        -6.6910
  36   0.0000      -0.072973        -1.9857
  37   0.0000      -0.037679        -1.0253
  38   0.0000       0.009219         0.2509
  39   0.0000       0.021869         0.5951
  40   0.0000       0.022383         0.6091

MULLIKEN ATOMIC CHARGES
-----------------------
   0 C :   -0.347436
   1 C :   -0.906840
   2 C :    0.703930
   3 C :   -0.725561
   4 C :   -0.807887
   5 C :    1.466236
   6 C :    0.765769
   7 O :   -0.956609
   8 C :   -0.588858
   9 H :    0.257059
  10 H :    0.257522
  11 H :    0.163608
  12 H :    0.194331
  13 H :    0.455011
  14 F :   -0.508452
  15 H :    0.435873
  16 H :    0.142305
Sum of atomic charges:    0.0000000

LOEWDIN ATOMIC CHARGES
----------------------
   0 C :    0.201195
   1 C :    0.208969
   2 C :   -0.543032
   3 C :    0.206098
   4 C :    0.187546
   5 C :   -0.137014
   6 C :   -0.552680
   7 O :    0.481637
   8 C :    0.571476
   9 H :   -0.157296
  10 H :   -0.157340
  11 H :   -0.177317
  12 H :   -0.183092
  13 H :   -0.166124
  14 F :    0.552706
  15 H :   -0.165090
  16 H :   -0.170641

  Mayer bond orders larger than 0.100000
B(  0-C ,  1-C ) :   0.8450 B(  0-C ,  2-C ) :  -0.2263 B(  0-C ,  3-C ) :  -0.1646
B(  0-C ,  4-C ) :  -0.3164 B(  0-C ,  5-C ) :   0.4480 B(  0-C ,  6-C ) :   0.1074
B(  0-C , 16-H ) :   1.1991 B(  1-C ,  2-C ) :   1.3305 B(  1-C ,  3-C ) :   0.2803
B(  1-C , 14-F ) :   0.1905 B(  1-C , 15-H ) :   0.5311 B(  2-C ,  3-C ) :   1.3331
B(  2-C ,  4-C ) :  -0.3014 B(  2-C , 14-F ) :   0.3104 B(  3-C ,  4-C ) :   1.2752
B(  3-C , 13-H ) :   0.5080 B(  3-C , 14-F ) :   0.1770 B(  4-C ,  5-C ) :   0.2659
B(  4-C ,  6-C ) :   0.2253 B(  4-C , 12-H ) :   0.9684 B(  4-C , 16-H ) :   0.1085
B(  5-C ,  6-C ) :   0.3475 B(  5-C ,  7-O ) :   0.1231 B(  5-C ,  8-C ) :   0.1045
B(  5-C , 16-H ) :  -0.1365 B(  6-C ,  7-O ) :   0.8460 B(  6-C ,  8-C ) :   0.9223
B(  7-O , 12-H ) :   0.1233 B(  8-C ,  9-H ) :   0.9505 B(  8-C , 10-H ) :   0.9504
B(  8-C , 11-H ) :   0.9674 B( 12-H , 16-H ) :   0.1105 B( 13-H , 14-F ) :   0.1089

Dispersion correction           -0.005419747
FINAL SINGLE POINT ENERGY      -484.049548810558

DIPOLE MOMENT
-------------

Method             : SCF
Type of density    : Electron Density
Multiplicity       :   1
Irrep              :   0
Energy             :  -484.0441290638744931 Eh
Relativity type    :
Basis              : AO
                                X                 Y                 Z
Electronic contribution:      9.939113778      -2.940314298       0.000971247
Nuclear contribution   :     -9.565763920       4.278558097      -0.000557353
                        -----------------------------------------
Total Dipole Moment    :      0.373349857       1.338243799       0.000413894
                        -----------------------------------------
Magnitude (a.u.)       :      1.389347600
Magnitude (Debye)      :      3.531440951

Rotational constants in cm-1:             0.122785             0.025820             0.021420
Rotational constants in MHz :          3680.997761           774.054545           642.159761

                             ****ORCA TERMINATED NORMALLY****
TOTAL RUN TIME: 0 days 0 hours 4 minutes 57 seconds 530 msec
