                         Program Version 6.0.0  -   RELEASE  -
|  1> !r2SCAN aug-cc-pVTZ d3 TightSCF SlowConv RIJCOSX defgrid2
|  2>
|  3> %pal
|  4> nprocs 4
|  5> end
|  6>
|  7> %scf
|  8> MaxIter 1500
|  9> end
| 10>
| 11> %maxcore 3000
| 12>
| 13> !CPCM
| 14> %cpcm smd true
| 15> SMDsolvent "MeCN"
| 16> surfacetype gepol_ses
| 17> rsolv 2.19
| 18> end
| 19>
| 20> * xyz 1 2
| 21> C           0.86770061929664     -1.42689432299132      0.00000897101558
| 22> C           2.10468085183811     -0.72689058389273     -0.00000825447661
| 23> C           2.18067581844409      0.67999913600521     -0.00001076122154
| 24> C           1.03283927538202      1.45145343690800      0.00000700381243
| 25> C          -0.22537653673213      0.77678989280940      0.00001343275561
| 26> C          -0.25105693451531     -0.64408759720608      0.00001506224490
| 27> O          -1.55281870061497     -1.07751154880539      0.00002630462179
| 28> C          -2.31401480280601     -0.00668804123383      0.00001929043081
| 29> C          -1.56234358562406      1.18487206630760      0.00001231970991
| 30> H          -1.97074260676972      2.19593761753153      0.00001018835187
| 31> H          -3.39348512015147     -0.17364143845796      0.00002005021122
| 32> H           1.07805269996545      2.54351477894486     -0.00000377489980
| 33> H           3.16218666325774      1.15998906195145     -0.00002790877216
| 34> H           3.03083245792013     -1.30967197800346     -0.00002115939682
| 35> H           0.82193140110952     -2.51820987986727      0.00000983561282
| 36> *
| 37>
| 38>                          ****END OF INPUT****

CARTESIAN COORDINATES (ANGSTROEM)
---------------------------------
  C      0.867701   -1.426894    0.000009
  C      2.104681   -0.726891   -0.000008
  C      2.180676    0.679999   -0.000011
  C      1.032839    1.451453    0.000007
  C     -0.225377    0.776790    0.000013
  C     -0.251057   -0.644088    0.000015
  O     -1.552819   -1.077512    0.000026
  C     -2.314015   -0.006688    0.000019
  C     -1.562344    1.184872    0.000012
  H     -1.970743    2.195938    0.000010
  H     -3.393485   -0.173641    0.000020
  H      1.078053    2.543515   -0.000004
  H      3.162187    1.159989   -0.000028
  H      3.030832   -1.309672   -0.000021
  H      0.821931   -2.518210    0.000010

 Total Charge           Charge          ....    1
 Multiplicity           Mult            ....    2
 Number of Electrons    NEL             ....   61
 Basis Dimension        Dim             ....  552

ORBITAL ENERGIES
----------------
                 SPIN UP ORBITALS
  NO   OCC          E(Eh)            E(eV)
   0   1.0000     -19.085803      -519.3511
   1   1.0000     -10.174096      -276.8512
   2   1.0000     -10.147484      -276.1271
   3   1.0000     -10.107350      -275.0350
   4   1.0000     -10.103596      -274.9328
   5   1.0000     -10.102413      -274.9006
   6   1.0000     -10.097207      -274.7590
   7   1.0000     -10.092841      -274.6402
   8   1.0000     -10.073367      -274.1103
   9   1.0000      -1.151067       -31.3221
  10   1.0000      -0.874273       -23.7902
  11   1.0000      -0.822005       -22.3679
  12   1.0000      -0.770338       -20.9620
  13   1.0000      -0.744579       -20.2610
  14   1.0000      -0.652618       -17.7586
  15   1.0000      -0.615180       -16.7399
  16   1.0000      -0.598351       -16.2820
  17   1.0000      -0.531518       -14.4633
  18   1.0000      -0.511608       -13.9216
  19   1.0000      -0.495329       -13.4786
  20   1.0000      -0.484302       -13.1785
  21   1.0000      -0.446247       -12.1430
  22   1.0000      -0.434960       -11.8359
  23   1.0000      -0.422120       -11.4865
  24   1.0000      -0.396675       -10.7941
  25   1.0000      -0.382259       -10.4018
  26   1.0000      -0.369485       -10.0542
  27   1.0000      -0.349867        -9.5204
  28   1.0000      -0.331695        -9.0259
  29   1.0000      -0.275958        -7.5092
  30   1.0000      -0.261758        -7.1228
  31   0.0000      -0.111827        -3.0430
  32   0.0000      -0.062076        -1.6892
  33   0.0000      -0.037714        -1.0262
  34   0.0000       0.005843         0.1590
  35   0.0000       0.018308         0.4982

                 SPIN DOWN ORBITALS
  NO   OCC          E(Eh)            E(eV)
   0   1.0000     -19.085126      -519.3327
   1   1.0000     -10.168078      -276.6875
   2   1.0000     -10.145755      -276.0800
   3   1.0000     -10.104393      -274.9545
   4   1.0000     -10.103335      -274.9257
   5   1.0000     -10.096954      -274.7521
   6   1.0000     -10.093164      -274.6490
   7   1.0000     -10.092997      -274.6444
   8   1.0000     -10.075609      -274.1713
   9   1.0000      -1.147830       -31.2340
  10   1.0000      -0.868921       -23.6445
  11   1.0000      -0.812987       -22.1225
  12   1.0000      -0.766634       -20.8612
  13   1.0000      -0.730728       -19.8841
  14   1.0000      -0.648216       -17.6388
  15   1.0000      -0.609232       -16.5780
  16   1.0000      -0.593250       -16.1432
  17   1.0000      -0.529521       -14.4090
  18   1.0000      -0.507242       -13.8028
  19   1.0000      -0.482471       -13.1287
  20   1.0000      -0.480492       -13.0749
  21   1.0000      -0.445006       -12.1092
  22   1.0000      -0.432759       -11.7760
  23   1.0000      -0.420614       -11.4455
  24   1.0000      -0.394230       -10.7275
  25   1.0000      -0.368124       -10.0172
  26   1.0000      -0.366850        -9.9825
  27   1.0000      -0.348724        -9.4893
  28   1.0000      -0.308894        -8.4054
  29   1.0000      -0.269494        -7.3333
  30   0.0000      -0.220173        -5.9912
  31   0.0000      -0.078614        -2.1392
  32   0.0000      -0.050164        -1.3650
  33   0.0000      -0.010903        -0.2967
  34   0.0000       0.007590         0.2065

MULLIKEN ATOMIC CHARGES AND SPIN POPULATIONS
--------------------------------------------
   0 C :   -0.834122   -0.015473
   1 C :   -0.103762    0.302449
   2 C :   -0.545510   -0.169220
   3 C :   -0.490989    0.255050
   4 C :    1.090608   -0.030592
   5 C :    0.425637    0.107456
   6 O :   -0.465270    0.011190
   7 C :   -0.360543    0.265214
   8 C :   -0.536497    0.208249
   9 H :    0.424171   -0.004535
  10 H :    0.613534    0.016817
  11 H :    0.172811    0.027639
  12 H :    0.619173    0.000983
  13 H :    0.377272    0.024024
  14 H :    0.613490    0.000750
Sum of atomic charges         :    1.0000000

LOEWDIN ATOMIC CHARGES AND SPIN POPULATIONS
-------------------------------------------
   0 C :    0.304200    0.050828
   1 C :    0.274518    0.152365
   2 C :    0.251966    0.016667
   3 C :    0.297093    0.116227
   4 C :   -0.104263    0.077940
   5 C :   -0.328876    0.055971
   6 O :    0.666690    0.057993
   7 C :    0.098004    0.215019
   8 C :    0.344350    0.151723
   9 H :   -0.122161    0.020908
  10 H :   -0.118310    0.035661
  11 H :   -0.134248    0.024373
  12 H :   -0.154660   -0.011563
  13 H :   -0.139062    0.035255
  14 H :   -0.135239    0.000633

  Mayer bond orders larger than 0.100000
B(  0-C ,  1-C ) :   1.0586 B(  0-C ,  2-C ) :   0.3866 B(  0-C ,  4-C ) :   0.1277
B(  0-C ,  5-C ) :   1.2468 B(  1-C ,  2-C ) :   1.0628 B(  1-C ,  3-C ) :  -0.3554
B(  1-C ,  5-C ) :  -0.6499 B(  1-C ,  7-C ) :   0.1071 B(  1-C ,  8-C ) :   0.1131
B(  1-C , 12-H ) :   0.1495 B(  1-C , 13-H ) :   0.7621 B(  1-C , 14-H ) :   0.1569
B(  2-C ,  3-C ) :   1.1103 B(  2-C ,  5-C ) :   0.1103 B(  2-C ,  8-C ) :   0.1937
B(  2-C , 12-H ) :   0.2338 B(  3-C ,  4-C ) :   0.6690 B(  3-C ,  5-C ) :  -0.6997
B(  3-C ,  9-H ) :   0.1297 B(  3-C , 11-H ) :   1.2586 B(  3-C , 14-H ) :   0.1051
B(  4-C ,  5-C ) :   1.2072 B(  4-C ,  7-C ) :  -0.3332 B(  4-C ,  8-C ) :   0.6122
B(  5-C ,  6-O ) :   0.4603 B(  5-C ,  8-C ) :   0.2886 B(  5-C , 11-H ) :   0.1562
B(  5-C , 13-H ) :   0.1096 B(  6-O ,  7-C ) :   1.3534 B(  7-C ,  8-C ) :   0.8792
B(  7-C , 10-H ) :   0.4982 B(  8-C ,  9-H ) :   0.7317 B(  8-C , 11-H ) :  -0.1005

Dispersion correction           -0.004572812
FINAL SINGLE POINT ENERGY      -383.397088553476

DIPOLE MOMENT
-------------

Method             : SCF
Type of density    : Electron Density
Multiplicity       :   2
Irrep              :   0
Energy             :  -383.3925157419553216 Eh
Relativity type    :
Basis              : AO
                                X                 Y                 Z
Electronic contribution:     -3.036530317      -1.180000153      -0.000424557
Nuclear contribution   :      2.540715655       1.757441244      -0.000063826
                        -----------------------------------------
Total Dipole Moment    :     -0.495814662       0.577441091      -0.000488383
                        -----------------------------------------
Magnitude (a.u.)       :      0.761098305
Magnitude (Debye)      :      1.934558150

Rotational constants in cm-1:             0.129539             0.055719             0.038960
Rotational constants in MHz :          3883.478039          1670.401185          1168.006371

                             ****ORCA TERMINATED NORMALLY****
TOTAL RUN TIME: 0 days 0 hours 3 minutes 14 seconds 910 msec
