                         Program Version 6.0.0  -   RELEASE  -
|  1> !PBE0 def2-SV(p) Opt Freq d3 TightSCF SlowConv RIJCOSX defgrid2
|  2>
|  3> %pal
|  4> nprocs 8
|  5> end
|  6>
|  7> %scf
|  8> MaxIter 1500
|  9> end
| 10>
| 11> %maxcore 3000
| 12>
| 13>
| 14>
| 15> * xyz 1 2
| 16> 6       -0.496338000      1.230443800      0.060038600
| 17> 6       -1.874018000      1.218153600      0.074799400
| 18> 6       -2.576433000      0.000132400     -0.018876400
| 19> 6       -1.875241400     -1.217972800     -0.120192400
| 20> 6       -0.497479200     -1.230430200     -0.120471600
| 21> 6        0.232730600     -0.000042800     -0.034205000
| 22> 7        1.585330800     -0.000077400     -0.041622200
| 23> 6        2.332825400      1.249219600     -0.245308000
| 24> 1        3.405043600      1.028799800     -0.757000600
| 25> 1        1.689558000      1.941455200     -0.962734000
| 26> 1        2.499234600      1.741989000      0.832489800
| 27> 6        2.335035000     -1.249332200      0.154216600
| 28> 1        3.412391800     -1.028857600      0.653916800
| 29> 1        1.699932600     -1.941119800      0.878597400
| 30> 1        2.489739400     -1.742496400     -0.924752800
| 31> 1        0.023904400     -2.187463800     -0.238443200
| 32> 1       -2.423655400     -2.163761200     -0.209900200
| 33> 1       -3.669890000      0.000200200     -0.012888200
| 34> 1       -2.421307800      2.163999200      0.170589000
| 35> 1        0.026463200      2.187397800      0.172386400
| 36> *
| 37>
| 38>                          ****END OF INPUT****
 Total Charge           Charge          ....    1
 Multiplicity           Mult            ....    2
 Number of Electrons    NEL             ....   65
Dispersion correction           -0.017556777
FINAL SINGLE POINT ENERGY      -365.218483988618
Dispersion correction             ... done (  0.1 sec)
Dispersion correction           -0.017583139
FINAL SINGLE POINT ENERGY      -365.245958388962
Dispersion correction             ... done (  0.1 sec)
Dispersion correction           -0.017628637
FINAL SINGLE POINT ENERGY      -365.250409169928
Dispersion correction             ... done (  0.1 sec)
FINAL SINGLE POINT ENERGY      -365.250818841312
Dispersion correction             ... done (  0.1 sec)
Dispersion correction           -0.017606650
FINAL SINGLE POINT ENERGY      -365.250856076561
Dispersion correction             ... done (  0.1 sec)
Dispersion correction           -0.017604732
FINAL SINGLE POINT ENERGY      -365.250868313709
Dispersion correction             ... done (  0.1 sec)
                    ***********************HURRAY********************

CARTESIAN COORDINATES (ANGSTROEM)
---------------------------------
  C     -0.511663    1.228127    0.042211
  C     -1.889526    1.215395    0.056174
  C     -2.591808    0.000131   -0.018807
  C     -1.890496   -1.215207   -0.101343
  C     -0.512560   -1.228095   -0.102276
  C      0.217314   -0.000016   -0.034004
  N      1.569955   -0.000051   -0.041408
  C      2.344335    1.219486   -0.204927
  H      3.314580    0.960264   -0.653024
  H      1.831353    1.928169   -0.868184
  H      2.527478    1.692938    0.777686
  C      2.346058   -1.219601    0.113653
  H      3.321060   -0.960380    0.551322
  H      1.840241   -1.928356    0.782306
  H      2.518627   -1.692965   -0.870909
  H      0.010652   -2.180402   -0.194865
  H     -2.438519   -2.158216   -0.172894
  H     -3.685239    0.000186   -0.012896
  H     -2.436640    2.158462    0.133672
  H      0.012627    2.180367    0.129154

 Multiplicity           Mult            ....    2
 Number of Electrons    NEL             ....   65
 Basis Dimension        Dim             ....  148

ORBITAL ENERGIES
----------------
                 SPIN UP ORBITALS
  NO   OCC          E(Eh)            E(eV)
   0   1.0000     -14.670495      -399.2045
   1   1.0000     -10.481618      -285.2193
   2   1.0000     -10.438067      -284.0342
   3   1.0000     -10.438017      -284.0329
   4   1.0000     -10.426166      -283.7104
   5   1.0000     -10.426157      -283.7102
   6   1.0000     -10.423211      -283.6300
   7   1.0000     -10.410555      -283.2856
   8   1.0000     -10.410549      -283.2854
   9   1.0000      -1.202311       -32.7166
  10   1.0000      -1.055008       -28.7082
  11   1.0000      -0.959589       -26.1117
  12   1.0000      -0.956968       -26.0404
  13   1.0000      -0.923721       -25.1357
  14   1.0000      -0.872709       -23.7476
  15   1.0000      -0.799095       -21.7445
  16   1.0000      -0.774258       -21.0686
  17   1.0000      -0.737323       -20.0636
  18   1.0000      -0.694876       -18.9085
  19   1.0000      -0.691100       -18.8058
  20   1.0000      -0.677080       -18.4243
  21   1.0000      -0.634911       -17.2768
  22   1.0000      -0.627818       -17.0838
  23   1.0000      -0.619812       -16.8659
  24   1.0000      -0.600727       -16.3466
  25   1.0000      -0.594623       -16.1805
  26   1.0000      -0.577897       -15.7254
  27   1.0000      -0.570281       -15.5181
  28   1.0000      -0.551529       -15.0079
  29   1.0000      -0.530218       -14.4280
  30   1.0000      -0.508577       -13.8391
  31   1.0000      -0.453124       -12.3301
  32   1.0000      -0.418756       -11.3949
  33   0.0000      -0.180660        -4.9160
  34   0.0000      -0.180547        -4.9129
  35   0.0000      -0.086647        -2.3578
  36   0.0000      -0.066204        -1.8015
  37   0.0000      -0.051191        -1.3930

                 SPIN DOWN ORBITALS
  NO   OCC          E(Eh)            E(eV)
   0   1.0000     -14.658911      -398.8893
   1   1.0000     -10.482538      -285.2444
   2   1.0000     -10.438617      -284.0492
   3   1.0000     -10.438566      -284.0478
   4   1.0000     -10.422667      -283.6152
   5   1.0000     -10.422656      -283.6149
   6   1.0000     -10.417633      -283.4782
   7   1.0000     -10.412511      -283.3388
   8   1.0000     -10.412506      -283.3387
   9   1.0000      -1.184134       -32.2219
  10   1.0000      -1.048097       -28.5202
  11   1.0000      -0.953670       -25.9507
  12   1.0000      -0.953201       -25.9379
  13   1.0000      -0.921998       -25.0888
  14   1.0000      -0.863193       -23.4887
  15   1.0000      -0.795842       -21.6560
  16   1.0000      -0.769015       -20.9260
  17   1.0000      -0.733303       -19.9542
  18   1.0000      -0.686912       -18.6918
  19   1.0000      -0.672421       -18.2975
  20   1.0000      -0.667368       -18.1600
  21   1.0000      -0.633899       -17.2493
  22   1.0000      -0.623953       -16.9786
  23   1.0000      -0.618857       -16.8399
  24   1.0000      -0.595679       -16.2092
  25   1.0000      -0.592673       -16.1275
  26   1.0000      -0.572244       -15.5715
  27   1.0000      -0.559497       -15.2247
  28   1.0000      -0.549317       -14.9477
  29   1.0000      -0.528481       -14.3807
  30   1.0000      -0.475842       -12.9483
  31   1.0000      -0.444106       -12.0847
  32   0.0000      -0.316695        -8.6177
  33   0.0000      -0.169724        -4.6184
  34   0.0000      -0.155546        -4.2326
  35   0.0000      -0.085007        -2.3132
  36   0.0000      -0.064246        -1.7482

MULLIKEN ATOMIC CHARGES AND SPIN POPULATIONS
--------------------------------------------
   0 C :   -0.118367    0.247264
   1 C :   -0.080879   -0.157162
   2 C :   -0.027577    0.390498
   3 C :   -0.080909   -0.157165
   4 C :   -0.118338    0.247266
   5 C :    0.203368   -0.049486
   6 N :   -0.250495    0.466710
   7 C :   -0.267135   -0.033497
   8 H :    0.202594    0.009769
   9 H :    0.203019    0.011304
  10 H :    0.209510    0.034509
  11 C :   -0.267111   -0.033494
  12 H :    0.202594    0.009775
  13 H :    0.203005    0.011298
  14 H :    0.209508    0.034507
  15 H :    0.144315   -0.012292
  16 H :    0.160614    0.005771
  17 H :    0.167357   -0.019052
  18 H :    0.160614    0.005771
  19 H :    0.144312   -0.012292
Sum of atomic charges         :    1.0000000

LOEWDIN ATOMIC CHARGES AND SPIN POPULATIONS
-------------------------------------------
   0 C :   -0.095583    0.194815
   1 C :   -0.087278   -0.087053
   2 C :   -0.032651    0.305318
   3 C :   -0.087279   -0.087056
   4 C :   -0.095581    0.194815
   5 C :    0.034739   -0.002285
   6 N :    0.094414    0.431564
   7 C :   -0.247330   -0.010885
   8 H :    0.159316    0.007807
   9 H :    0.155221    0.008280
  10 H :    0.163827    0.027861
  11 C :   -0.247321   -0.010883
  12 H :    0.159317    0.007812
  13 H :    0.155215    0.008276
  14 H :    0.163827    0.027860
  15 H :    0.158081   -0.006244
  16 H :    0.163284    0.002859
  17 H :    0.164419   -0.009474
  18 H :    0.163285    0.002859
  19 H :    0.158080   -0.006244

  Mayer bond orders larger than 0.100000
B(  0-C ,  1-C ) :   1.4983 B(  0-C ,  5-C ) :   1.2039 B(  0-C , 19-H ) :   0.9461
B(  1-C ,  2-C ) :   1.3028 B(  1-C , 18-H ) :   0.9497 B(  2-C ,  3-C ) :   1.3028
B(  2-C , 17-H ) :   0.9514 B(  3-C ,  4-C ) :   1.4983 B(  3-C , 16-H ) :   0.9497
B(  4-C ,  5-C ) :   1.2039 B(  4-C , 15-H ) :   0.9461 B(  5-C ,  6-N ) :   1.2826
B(  6-N ,  7-C ) :   0.9484 B(  6-N , 11-C ) :   0.9484 B(  7-C ,  8-H ) :   0.9298
B(  7-C ,  9-H ) :   0.9257 B(  7-C , 10-H ) :   0.9207 B( 11-C , 12-H ) :   0.9298
B( 11-C , 13-H ) :   0.9257 B( 11-C , 14-H ) :   0.9207

Dispersion correction           -0.017604489
FINAL SINGLE POINT ENERGY      -365.250870329277

DIPOLE MOMENT
-------------

Method             : SCF
Type of density    : Electron Density
Multiplicity       :   2
Irrep              :   0
Energy             :  -365.2332658405813959 Eh
Relativity type    :
Basis              : AO
                                X                 Y                 Z
Electronic contribution:     -5.560512373       0.000080171       0.030320819
Nuclear contribution   :      6.490918904      -0.000107030      -0.035404468
                        -----------------------------------------
Total Dipole Moment    :      0.930406530      -0.000026859      -0.005083649
                        -----------------------------------------
Magnitude (a.u.)       :      0.930420419
Magnitude (Debye)      :      2.364940760

VIBRATIONAL FREQUENCIES
-----------------------

Scaling factor for frequencies =  1.000000000  (already applied!)

     0:       0.00 cm**-1
     1:       0.00 cm**-1
     2:       0.00 cm**-1
     3:       0.00 cm**-1
     4:       0.00 cm**-1
     5:       0.00 cm**-1
     6:      68.13 cm**-1
     7:      83.80 cm**-1
     8:     128.39 cm**-1
     9:     134.07 cm**-1
    10:     281.97 cm**-1
    11:     346.22 cm**-1
    12:     391.26 cm**-1
    13:     421.30 cm**-1
    14:     482.65 cm**-1
    15:     514.29 cm**-1
    16:     542.71 cm**-1
    17:     600.80 cm**-1
    18:     662.16 cm**-1
    19:     752.41 cm**-1
    20:     804.37 cm**-1
    21:     809.67 cm**-1
    22:     946.40 cm**-1
    23:     970.00 cm**-1
    24:     994.27 cm**-1
    25:    1009.71 cm**-1
    26:    1034.42 cm**-1
    27:    1042.76 cm**-1
    28:    1076.62 cm**-1
    29:    1077.13 cm**-1
    30:    1130.79 cm**-1
    31:    1142.93 cm**-1
    32:    1179.59 cm**-1
    33:    1181.15 cm**-1
    34:    1217.62 cm**-1
    35:    1255.25 cm**-1
    36:    1358.13 cm**-1
    37:    1406.86 cm**-1
    38:    1424.55 cm**-1
    39:    1427.26 cm**-1
    40:    1444.27 cm**-1
    41:    1469.24 cm**-1
    42:    1482.49 cm**-1
    43:    1482.79 cm**-1
    44:    1501.46 cm**-1
    45:    1505.42 cm**-1
    46:    1541.08 cm**-1
    47:    1592.91 cm**-1
    48:    1651.52 cm**-1
    49:    3048.38 cm**-1
    50:    3052.07 cm**-1
    51:    3158.95 cm**-1
    52:    3162.18 cm**-1
    53:    3203.98 cm**-1
    54:    3205.46 cm**-1
    55:    3224.49 cm**-1
    56:    3232.16 cm**-1
    57:    3240.15 cm**-1
    58:    3253.24 cm**-1
    59:    3253.98 cm**-1

IR SPECTRUM
-----------

 Mode   freq       eps      Int      T**2         TX        TY        TZ
       cm**-1   L/(mol*cm) km/mol    a.u.
----------------------------------------------------------------------------
  6:     68.13   0.000005    0.02  0.000023  ( 0.000171 -0.004340  0.001910)
  7:     83.80   0.000050    0.25  0.000188  ( 0.013700  0.000030 -0.000095)
  8:    128.39   0.000043    0.22  0.000106  ( 0.010282  0.000008 -0.000076)
  9:    134.07   0.000498    2.52  0.001160  ( 0.000177 -0.000468  0.034056)
 10:    281.97   0.000200    1.01  0.000221  ( 0.000095  0.002375  0.014686)
 11:    346.22   0.000558    2.82  0.000503  ( 0.000116  0.000891  0.022404)
 12:    391.26   0.000096    0.48  0.000076  ( 0.008731 -0.000006 -0.000046)
 13:    421.30   0.000442    2.23  0.000327  (-0.018085 -0.000003  0.000096)
 14:    482.65   0.000406    2.05  0.000262  (-0.000019  0.015472 -0.004774)
 15:    514.29   0.000285    1.44  0.000173  ( 0.000038 -0.010439  0.007990)
 16:    542.71   0.000091    0.46  0.000053  ( 0.007248 -0.000017 -0.000034)
 17:    600.80   0.000188    0.95  0.000098  (-0.000007  0.009894 -0.000026)
 18:    662.16   0.008273   41.81  0.003899  (-0.000332  0.006359 -0.062114)
 19:    752.41   0.000278    1.40  0.000115  (-0.010731  0.000004  0.000057)
 20:    804.37   0.007230   36.54  0.002805  ( 0.000283 -0.002368  0.052907)
 21:    809.67   0.000081    0.41  0.000031  (-0.005597  0.000001  0.000037)
 22:    946.40   0.000554    2.80  0.000183  (-0.000075  0.001330 -0.013448)
 23:    970.00   0.001687    8.53  0.000543  (-0.023299  0.000005  0.000123)
 24:    994.27   0.000977    4.94  0.000307  ( 0.017515  0.000002 -0.000097)
 25:   1009.71   0.000015    0.08  0.000005  ( 0.002169  0.000002 -0.000014)
 26:   1034.42   0.000101    0.51  0.000031  ( 0.000055 -0.001335  0.005367)
 27:   1042.76   0.002009   10.15  0.000601  (-0.024518  0.000002  0.000137)
 28:   1076.62   0.004111   20.78  0.001192  ( 0.034515  0.000487 -0.000286)
 29:   1077.13   0.001153    5.83  0.000334  (-0.000960  0.017895 -0.003609)
 30:   1130.79   0.000965    4.88  0.000266  (-0.000023 -0.015441 -0.005288)
 31:   1142.93   0.000037    0.19  0.000010  ( 0.000015  0.003159  0.000499)
 32:   1179.59   0.000607    3.07  0.000161  ( 0.012673 -0.000024 -0.000066)
 33:   1181.15   0.000294    1.49  0.000078  ( 0.000030  0.008659 -0.001673)
 34:   1217.62   0.000951    4.81  0.000244  (-0.015612  0.000005  0.000086)
 35:   1255.25   0.001445    7.30  0.000359  (-0.000009  0.018901 -0.001455)
 36:   1358.13   0.000209    1.05  0.000048  (-0.000036  0.000252 -0.006918)
 37:   1406.86   0.009356   47.28  0.002075  ( 0.045554 -0.000021 -0.000250)
 38:   1424.55   0.000204    1.03  0.000045  (-0.000044 -0.003157 -0.005901)
 39:   1427.26   0.003049   15.41  0.000667  ( 0.000053  0.025237  0.005458)
 40:   1444.27   0.003618   18.28  0.000782  (-0.027957  0.000021  0.000153)
 41:   1469.24   0.003029   15.31  0.000643  (-0.000066  0.018496 -0.017354)
 42:   1482.49   0.000613    3.10  0.000129  (-0.011361 -0.000070 -0.000163)
 43:   1482.79   0.006252   31.60  0.001316  ( 0.000116  0.008667  0.035224)
 44:   1501.46   0.001681    8.49  0.000349  ( 0.018691 -0.000092 -0.000052)
 45:   1505.42   0.002209   11.16  0.000458  (-0.000047 -0.020766  0.005161)
 46:   1541.08   0.000640    3.23  0.000129  (-0.011380 -0.000017  0.000059)
 47:   1592.91   0.000886    4.48  0.000173  (-0.000001 -0.013171  0.000044)
 48:   1651.52   0.021970  111.03  0.004151  ( 0.064430  0.000003 -0.000350)
 49:   3048.38   0.000204    1.03  0.000021  ( 0.000034  0.003991  0.002217)
 50:   3052.07   0.000603    3.05  0.000062  (-0.007850  0.000010  0.000045)
 51:   3158.95   0.000559    2.82  0.000055  (-0.000010 -0.006169 -0.004139)
 52:   3162.18   0.000271    1.37  0.000027  ( 0.005172  0.000016 -0.000016)
 53:   3203.98   0.000010    0.05  0.000001  ( 0.000009 -0.000717 -0.000646)
 54:   3205.46   0.000636    3.22  0.000062  ( 0.007871 -0.000004 -0.000038)
 55:   3224.49   0.000000    0.00  0.000000  ( 0.000188  0.000000 -0.000002)
 56:   3232.16   0.000138    0.70  0.000013  (-0.000002 -0.003651 -0.000177)
 57:   3240.15   0.000253    1.28  0.000024  (-0.004937  0.000003  0.000030)
 58:   3253.24   0.000769    3.89  0.000074  ( 0.000038  0.008492  0.001295)
 59:   3253.98   0.000066    0.33  0.000006  ( 0.002518 -0.000089 -0.000028)

--------------------------
THERMOCHEMISTRY AT 298.15K
--------------------------

Temperature         ...   298.15 K
Pressure            ...     1.00 atm
Total Mass          ...   121.18 AMU
Quasi RRHO          ...     True
Cut-Off Frequency   ...     1.00 cm^-1

Throughout the following assumptions are being made:
  (1) The electronic state is orbitally nondegenerate
      but the spin degeneracy is treated
  (2) There are no thermally accessible electronically excited states
  (3) Hindered rotations indicated by low frequency modes are not
      treated as such but are treated as vibrations and this may
      cause some error
  (4) All equations used are the standard statistical mechanics
      equations for an ideal gas
  (5) All vibrations are strictly harmonic

freq.      68.13  E(vib)   ...       0.50
freq.      83.80  E(vib)   ...       0.48
freq.     128.39  E(vib)   ...       0.43
freq.     134.07  E(vib)   ...       0.42
freq.     281.97  E(vib)   ...       0.28
freq.     346.22  E(vib)   ...       0.23
freq.     391.26  E(vib)   ...       0.20
freq.     421.30  E(vib)   ...       0.18
freq.     482.65  E(vib)   ...       0.15
freq.     514.29  E(vib)   ...       0.13
freq.     542.71  E(vib)   ...       0.12
freq.     600.80  E(vib)   ...       0.10
freq.     662.16  E(vib)   ...       0.08
freq.     752.41  E(vib)   ...       0.06
freq.     804.37  E(vib)   ...       0.05
freq.     809.67  E(vib)   ...       0.05
freq.     946.40  E(vib)   ...       0.03
freq.     970.00  E(vib)   ...       0.03
freq.     994.27  E(vib)   ...       0.02
freq.    1009.71  E(vib)   ...       0.02
freq.    1034.42  E(vib)   ...       0.02
freq.    1042.76  E(vib)   ...       0.02
freq.    1076.62  E(vib)   ...       0.02
freq.    1077.13  E(vib)   ...       0.02
freq.    1130.79  E(vib)   ...       0.01
freq.    1142.93  E(vib)   ...       0.01
freq.    1179.59  E(vib)   ...       0.01
freq.    1181.15  E(vib)   ...       0.01
freq.    1217.62  E(vib)   ...       0.01
freq.    1255.25  E(vib)   ...       0.01
freq.    1358.13  E(vib)   ...       0.01
freq.    1406.86  E(vib)   ...       0.00
freq.    1424.55  E(vib)   ...       0.00
freq.    1427.26  E(vib)   ...       0.00
freq.    1444.27  E(vib)   ...       0.00
freq.    1469.24  E(vib)   ...       0.00
freq.    1482.49  E(vib)   ...       0.00
freq.    1482.79  E(vib)   ...       0.00
freq.    1501.46  E(vib)   ...       0.00
freq.    1505.42  E(vib)   ...       0.00
freq.    1541.08  E(vib)   ...       0.00
freq.    1592.91  E(vib)   ...       0.00
freq.    1651.52  E(vib)   ...       0.00
freq.    3048.38  E(vib)   ...       0.00
freq.    3052.07  E(vib)   ...       0.00
freq.    3158.95  E(vib)   ...       0.00
freq.    3162.18  E(vib)   ...       0.00
freq.    3203.98  E(vib)   ...       0.00
freq.    3205.46  E(vib)   ...       0.00
freq.    3224.49  E(vib)   ...       0.00
freq.    3232.16  E(vib)   ...       0.00
freq.    3240.15  E(vib)   ...       0.00
freq.    3253.24  E(vib)   ...       0.00
freq.    3253.98  E(vib)   ...       0.00

------------
INNER ENERGY
------------

The inner energy is: U= E(el) + E(ZPE) + E(vib) + E(rot) + E(trans)
    E(el)   - is the total energy from the electronic structure calculation
              = E(kin-el) + E(nuc-el) + E(el-el) + E(nuc-nuc)
    E(ZPE)  - the the zero temperature vibrational energy from the frequency calculation
    E(vib)  - the the finite temperature correction to E(ZPE) due to population
              of excited vibrational states
    E(rot)  - is the rotational thermal energy
    E(trans)- is the translational thermal energy

Summary of contributions to the inner energy U:
Electronic energy                ...   -365.25087033 Eh
Zero point energy                ...      0.17452092 Eh     109.51 kcal/mol
Thermal vibrational correction   ...      0.00597054 Eh       3.75 kcal/mol
Thermal rotational correction    ...      0.00141627 Eh       0.89 kcal/mol
Thermal translational correction ...      0.00141627 Eh       0.89 kcal/mol
-----------------------------------------------------------------------
Total thermal energy                   -365.06754632 Eh

Summary of corrections to the electronic energy:
(perhaps to be used in another calculation)
Total thermal correction                  0.00880309 Eh       5.52 kcal/mol
Non-thermal (ZPE) correction              0.17452092 Eh     109.51 kcal/mol
-----------------------------------------------------------------------
Total correction                          0.18332401 Eh     115.04 kcal/mol

--------
ENTHALPY
--------

The enthalpy is H = U + kB*T
                kB is Boltzmann's constant
Total thermal energy              ...   -365.06754632 Eh
Thermal Enthalpy correction       ...      0.00094421 Eh       0.59 kcal/mol
-----------------------------------------------------------------------
Total Enthalpy                    ...   -365.06660211 Eh

Note: Only C1 symmetry has been detected, increase convergence thresholds
      if your molecule has a higher symmetry. Symmetry factor of 1.0 is
      used for the rotational entropy correction.

Note: Rotational entropy computed according to Herzberg
Infrared and Raman Spectra, Chapter V,1, Van Nostrand Reinhold, 1945
Point Group:  C1, Symmetry Number:   1
Rotational constants in cm-1:     0.115459     0.040921     0.030704

Vibrational entropy computed according to the QRRHO of S. Grimme
Chem.Eur.J. 2012 18 9955 using a reference frequency of 100.0 cm-1

-------
ENTROPY
-------

The entropy contributions are T*S = T*(S(el)+S(vib)+S(rot)+S(trans))
     S(el)   - electronic entropy
     S(vib)  - vibrational entropy
     S(rot)  - rotational entropy
     S(trans)- translational entropy
The entropies will be listed as multiplied by the temperature to get
units of energy

Electronic entropy                ...      0.00065446 Eh      0.41 kcal/mol
Vibrational entropy               ...      0.01019896 Eh      6.40 kcal/mol
Rotational entropy                ...      0.01368330 Eh      8.59 kcal/mol
Translational entropy             ...      0.01914335 Eh     12.01 kcal/mol
-----------------------------------------------------------------------
Final entropy term                ...      0.04368006 Eh     27.41 kcal/mol

In case the symmetry of your molecule has not been determined correctly
or in case you have a reason to use a different symmetry number we print
out the resulting rotational entropy values for sn=1,12:

 non-linear molecules -----------------------------------
|  sn= 1 | S(rot)=       0.01368330 Eh      8.59 kcal/mol|
|  sn= 2 | S(rot)=       0.01302884 Eh      8.18 kcal/mol|
|  sn= 3 | S(rot)=       0.01264601 Eh      7.94 kcal/mol|
|  sn= 4 | S(rot)=       0.01237438 Eh      7.77 kcal/mol|
|  sn= 5 | S(rot)=       0.01216369 Eh      7.63 kcal/mol|

                             ****ORCA TERMINATED NORMALLY****
TOTAL RUN TIME: 0 days 0 hours 8 minutes 44 seconds 518 msec
