                         Program Version 6.0.0  -   RELEASE  -
|  1> !TPSSh freq aug-cc-pVTZ d3 TightSCF SlowConv RIJCOSX defgrid2
|  2>
|  3> %pal
|  4> nprocs 12
|  5> end
|  6>
|  7> %scf
|  8> MaxIter 1500
|  9> end
| 10>
| 11> %maxcore 5000
| 12>
| 13> !CPCM
| 14> %cpcm smd true
| 15> SMDsolvent "MeCN"
| 16> surfacetype gepol_ses
| 17> rsolv 2.19
| 18> end
| 19>
| 20> * xyz 0 1
| 21>   C           0.69371420956988     -1.22348097045318      0.02810793354768
| 22>   C          -0.68924854216548     -1.21938082127577      0.06873493187393
| 23>   C          -1.34555744356325      0.00457423627743      0.00232979461865
| 24>   C          -0.66974061922913      1.21231811738225     -0.10088986148882
| 25>   C           0.71657944381852      1.18964773982197     -0.13840996588007
| 26>   C           1.40702120909690     -0.02435210826926     -0.07513538140868
| 27>   C           2.90492429041837     -0.08058480307764     -0.11466484949802
| 28>   O           3.47506675992870     -1.16120861987924     -0.06533526883860
| 29>   C           3.66880569379215      1.20981602043062     -0.21334876634279
| 30>   H           3.43413711337725      1.85700345218117      0.63577424229013
| 31>   H           4.73607740804726      0.99975798726855     -0.22817493764709
| 32>   H           3.38944352639982      1.75091222484972     -1.12111891498433
| 33>   H           1.25265247904241      2.12500223389734     -0.21815257058832
| 34>   H          -1.21703891281158      2.14189179452777     -0.14922766150305
| 35>   N          -2.81400208480937      0.02001214885610      0.04305389527914
| 36>   O          -3.38191127211458      1.10657287449556     -0.03304611408901
| 37>   O          -3.39836515710126     -1.05513001940106      0.15058960177462
| 38>   H          -1.25332538122658     -2.13673152938636      0.14953225706346
| 39>   H           1.23783207952997     -2.15686735824598      0.07636823582120
| 40>
| 41> *
| 42>
| 43>                          ****END OF INPUT****

CARTESIAN COORDINATES (ANGSTROEM)
---------------------------------
  C      0.693714   -1.223481    0.028108
  C     -0.689249   -1.219381    0.068735
  C     -1.345557    0.004574    0.002330
  C     -0.669741    1.212318   -0.100890
  C      0.716579    1.189648   -0.138410
  C      1.407021   -0.024352   -0.075135
  C      2.904924   -0.080585   -0.114665
  O      3.475067   -1.161209   -0.065335
  C      3.668806    1.209816   -0.213349
  H      3.434137    1.857003    0.635774
  H      4.736077    0.999758   -0.228175
  H      3.389444    1.750912   -1.121119
  H      1.252652    2.125002   -0.218153
  H     -1.217039    2.141892   -0.149228
  N     -2.814002    0.020012    0.043054
  O     -3.381911    1.106573   -0.033046
  O     -3.398365   -1.055130    0.150590
  H     -1.253325   -2.136732    0.149532
  H      1.237832   -2.156867    0.076368

 Total Charge           Charge          ....    0
 Multiplicity           Mult            ....    1
 Number of Electrons    NEL             ....   86
 Basis Dimension        Dim             ....  713

ORBITAL ENERGIES
----------------

  NO   OCC          E(Eh)            E(eV)
   0   2.0000     -19.097019      -519.6563
   1   2.0000     -19.096916      -519.6535
   2   2.0000     -19.050981      -518.4036
   3   2.0000     -14.490496      -394.3065
   4   2.0000     -10.209150      -277.8051
   5   2.0000     -10.184840      -277.1436
   6   2.0000     -10.145173      -276.0642
   7   2.0000     -10.143839      -276.0279
   8   2.0000     -10.143159      -276.0094
   9   2.0000     -10.140371      -275.9335
  10   2.0000     -10.137360      -275.8516
  11   2.0000     -10.110722      -275.1267
  12   2.0000      -1.210014       -32.9262
  13   2.0000      -1.037903       -28.2428
  14   2.0000      -1.024264       -27.8716
  15   2.0000      -0.874729       -23.8026
  16   2.0000      -0.798660       -21.7326
  17   2.0000      -0.756270       -20.5792
  18   2.0000      -0.731691       -19.9103
  19   2.0000      -0.688149       -18.7255
  20   2.0000      -0.614285       -16.7155
  21   2.0000      -0.595864       -16.2143
  22   2.0000      -0.552665       -15.0388
  23   2.0000      -0.540844       -14.7171
  24   2.0000      -0.524675       -14.2771
  25   2.0000      -0.506972       -13.7954
  26   2.0000      -0.472202       -12.8493
  27   2.0000      -0.461082       -12.5467
  28   2.0000      -0.447615       -12.1802
  29   2.0000      -0.430399       -11.7118
  30   2.0000      -0.428260       -11.6535
  31   2.0000      -0.408097       -11.1049
  32   2.0000      -0.399812       -10.8794
  33   2.0000      -0.379820       -10.3354
  34   2.0000      -0.365517        -9.9462
  35   2.0000      -0.348885        -9.4936
  36   2.0000      -0.347394        -9.4531
  37   2.0000      -0.312136        -8.4936
  38   2.0000      -0.304498        -8.2858
  39   2.0000      -0.286495        -7.7959
  40   2.0000      -0.274538        -7.4706
  41   2.0000      -0.268971        -7.3191
  42   2.0000      -0.245412        -6.6780
  43   0.0000      -0.122861        -3.3432
  44   0.0000      -0.064752        -1.7620
  45   0.0000      -0.043048        -1.1714
  46   0.0000      -0.005269        -0.1434
  47   0.0000       0.008174         0.2224

MULLIKEN ATOMIC CHARGES
-----------------------
   0 C :   -0.576356
   1 C :   -0.220101
   2 C :    0.256611
   3 C :   -0.477167
   4 C :   -0.202752
   5 C :    0.703771
   6 C :    0.873386
   7 O :   -1.007269
   8 C :   -0.203971
   9 H :    0.196819
  10 H :   -0.028754
  11 H :    0.195609
  12 H :    0.154886
  13 H :    0.383558
  14 N :    0.941055
  15 O :   -0.752620
  16 O :   -0.752024
  17 H :    0.455691
  18 H :    0.059629
Sum of atomic charges:   -0.0000000

LOEWDIN ATOMIC CHARGES
----------------------
   0 C :    0.226125
   1 C :    0.228201
   2 C :   -0.222699
   3 C :    0.233662
   4 C :    0.239707
   5 C :   -0.105399
   6 C :   -0.520507
   7 O :    0.492260
   8 C :    0.582488
   9 H :   -0.161185
  10 H :   -0.177389
  11 H :   -0.161356
  12 H :   -0.175816
  13 H :   -0.188294
  14 N :   -0.727978
  15 O :    0.405587
  16 O :    0.405854
  17 H :   -0.189791
  18 H :   -0.183471

  Mayer bond orders larger than 0.100000
B(  0-C ,  1-C ) :   1.4957 B(  0-C ,  2-C ) :  -0.3303 B(  0-C ,  4-C ) :  -0.2229
B(  0-C ,  5-C ) :   0.6789 B(  0-C ,  6-C ) :   0.1393 B(  0-C , 16-O ) :  -0.1061
B(  0-C , 18-H ) :   1.0072 B(  1-C ,  2-C ) :   1.1324 B(  1-C ,  7-O ) :  -0.1073
B(  1-C , 16-O ) :  -0.1121 B(  1-C , 17-H ) :   0.4612 B(  2-C ,  3-C ) :   1.0110
B(  2-C ,  4-C ) :  -0.2527 B(  2-C , 13-H ) :   0.1229 B(  2-C , 14-N ) :   1.1263
B(  2-C , 15-O ) :   0.5192 B(  2-C , 16-O ) :   0.5292 B(  2-C , 17-H ) :   0.1293
B(  3-C ,  4-C ) :   1.2178 B(  3-C ,  5-C ) :   0.1244 B(  3-C , 13-H ) :   0.5494
B(  3-C , 14-N ) :  -0.1620 B(  4-C ,  5-C ) :   0.7924 B(  4-C , 12-H ) :   1.0116
B(  4-C , 15-O ) :  -0.1037 B(  5-C ,  6-C ) :   0.4988 B(  5-C ,  7-O ) :   0.3469
B(  6-C ,  7-O ) :   0.4604 B(  6-C ,  8-C ) :   1.0597 B(  7-O , 18-H ) :   0.1900
B(  8-C ,  9-H ) :   0.9364 B(  8-C , 10-H ) :   1.0267 B(  8-C , 11-H ) :   0.9378
B( 14-N , 15-O ) :   0.6391 B( 14-N , 16-O ) :   0.6371 B( 15-O , 16-O ) :   0.2316

Dispersion correction           -0.024504390
FINAL SINGLE POINT ENERGY      -589.681226072888

DIPOLE MOMENT
-------------

Method             : SCF
Type of density    : Electron Density
Multiplicity       :   1
Irrep              :   0
Energy             :  -589.6567216829165545 Eh
Relativity type    :
Basis              : AO
                                X                 Y                 Z
Electronic contribution:     -9.363441941      -2.957816476       0.442351295
Nuclear contribution   :     10.811991773       4.282366891      -0.562776198
                        -----------------------------------------
Total Dipole Moment    :      1.448549832       1.324550415      -0.120424903
                        -----------------------------------------
Magnitude (a.u.)       :      1.966528051
Magnitude (Debye)      :      4.998517067

VIBRATIONAL FREQUENCIES
-----------------------

Scaling factor for frequencies =  1.000000000  (already applied!)

     0:       0.00 cm**-1
     1:       0.00 cm**-1
     2:       0.00 cm**-1
     3:       0.00 cm**-1
     4:       0.00 cm**-1
     5:       0.00 cm**-1
     6:       9.49 cm**-1
     7:      29.50 cm**-1
     8:      71.57 cm**-1
     9:     138.93 cm**-1
    10:     154.94 cm**-1
    11:     231.07 cm**-1
    12:     264.09 cm**-1
    13:     288.81 cm**-1
    14:     404.98 cm**-1
    15:     426.67 cm**-1
    16:     440.54 cm**-1
    17:     501.35 cm**-1
    18:     531.59 cm**-1
    19:     582.80 cm**-1
    20:     612.92 cm**-1
    21:     625.89 cm**-1
    22:     701.39 cm**-1
    23:     749.76 cm**-1
    24:     765.80 cm**-1
    25:     840.82 cm**-1
    26:     859.64 cm**-1
    27:     874.65 cm**-1
    28:     961.52 cm**-1
    29:     991.98 cm**-1
    30:    1006.44 cm**-1
    31:    1020.51 cm**-1
    32:    1037.82 cm**-1
    33:    1088.67 cm**-1
    34:    1109.92 cm**-1
    35:    1115.39 cm**-1
    36:    1181.43 cm**-1
    37:    1266.46 cm**-1
    38:    1315.19 cm**-1
    39:    1345.64 cm**-1
    40:    1370.59 cm**-1
    41:    1376.46 cm**-1
    42:    1427.08 cm**-1
    43:    1453.21 cm**-1
    44:    1459.31 cm**-1
    45:    1511.71 cm**-1
    46:    1529.29 cm**-1
    47:    1628.13 cm**-1
    48:    1632.56 cm**-1
    49:    1708.74 cm**-1
    50:    3033.00 cm**-1
    51:    3091.60 cm**-1
    52:    3141.65 cm**-1
    53:    3201.27 cm**-1
    54:    3202.51 cm**-1
    55:    3223.76 cm**-1
    56:    3225.43 cm**-1

IR SPECTRUM
-----------

 Mode   freq       eps      Int      T**2         TX        TY        TZ
       cm**-1   L/(mol*cm) km/mol    a.u.
----------------------------------------------------------------------------
  6:      9.49   0.000814    4.11  0.026775  ( 0.001871  0.009571  0.163340)
  7:     29.50   0.000342    1.73  0.003621  (-0.001773 -0.002499 -0.060095)
  8:     71.57   0.001434    7.25  0.006252  ( 0.002700  0.005099  0.078857)
  9:    138.93   0.000034    0.17  0.000075  ( 0.003601  0.002959  0.007323)
 10:    154.94   0.001805    9.12  0.003636  (-0.045582 -0.039280  0.003980)
 11:    231.07   0.000193    0.98  0.000261  ( 0.000648  0.001326  0.016079)
 12:    264.09   0.001140    5.76  0.001347  ( 0.031456 -0.018896  0.000044)
 13:    288.81   0.000040    0.20  0.000043  ( 0.001669  0.006318 -0.000628)
 14:    404.98   0.000001    0.01  0.000001  ( 0.000103  0.000907 -0.000447)
 15:    426.67   0.001074    5.43  0.000785  ( 0.017868  0.021469 -0.002242)
 16:    440.54   0.000704    3.56  0.000499  (-0.000428 -0.001264 -0.022299)
 17:    501.35   0.003771   19.06  0.002347  ( 0.048365  0.002012 -0.002012)
 18:    531.59   0.000809    4.09  0.000475  (-0.017251 -0.013270  0.000992)
 19:    582.80   0.003419   17.28  0.001831  ( 0.000647  0.002952  0.042680)
 20:    612.92   0.004836   24.44  0.002462  ( 0.045452  0.019824 -0.001868)
 21:    625.89   0.000059    0.30  0.000030  ( 0.001277  0.005285 -0.000216)
 22:    701.39   0.005840   29.51  0.002598  (-0.001425 -0.003807 -0.050812)
 23:    749.76   0.006053   30.59  0.002519  ( 0.050172  0.000796 -0.001213)
 24:    765.80   0.007345   37.12  0.002993  ( 0.001127  0.003905  0.054558)
 25:    840.82   0.000253    1.28  0.000094  (-0.001361 -0.000989 -0.009544)
 26:    859.64   0.011625   58.75  0.004220  (-0.064918 -0.001683  0.001691)
 27:    874.65   0.011686   59.05  0.004169  (-0.000910 -0.004088 -0.064434)
 28:    961.52   0.013101   66.21  0.004252  ( 0.059450  0.026594 -0.003252)
 29:    991.98   0.000007    0.04  0.000002  ( 0.001495  0.000241  0.000135)
 30:   1006.44   0.000031    0.15  0.000009  (-0.000425  0.000831  0.002934)
 31:   1020.51   0.003725   18.82  0.001139  ( 0.033602  0.002912 -0.001233)
 32:   1037.82   0.000411    2.08  0.000124  ( 0.000855  0.000741  0.011057)
 33:   1088.67   0.000862    4.36  0.000247  ( 0.012952  0.008864 -0.000917)
 34:   1109.92   0.013258   67.00  0.003728  ( 0.061023 -0.000983 -0.001722)
 35:   1115.39   0.003889   19.65  0.001088  ( 0.003416  0.032713 -0.002490)
 36:   1181.43   0.001893    9.57  0.000500  (-0.021983 -0.004014  0.000855)
 37:   1266.46   0.091035  460.05  0.022432  ( 0.148367  0.019751 -0.005350)
 38:   1315.19   0.002110   10.66  0.000501  ( 0.022167 -0.002992 -0.000525)
 39:   1345.64   0.103896  525.05  0.024094  ( 0.155117 -0.004028 -0.004086)
 40:   1370.59   0.022789  115.16  0.005189  (-0.000184  0.071848 -0.005151)
 41:   1376.46   0.007421   37.50  0.001682  ( 0.029404  0.028480 -0.002597)
 42:   1427.08   0.003945   19.94  0.000863  ( 0.028676  0.006293 -0.000817)
 43:   1453.21   0.006689   33.80  0.001436  (-0.025485  0.028022 -0.001260)
 44:   1459.31   0.003034   15.33  0.000649  (-0.000665 -0.002422 -0.025349)
 45:   1511.71   0.000849    4.29  0.000175  (-0.009238 -0.009432  0.001034)
 46:   1529.29   0.091416  461.98  0.018654  ( 0.009535  0.135734 -0.011814)
 47:   1628.13   0.003455   17.46  0.000662  ( 0.016897 -0.019389  0.000895)
 48:   1632.56   0.008013   40.49  0.001532  ( 0.016434 -0.035433  0.002471)
 49:   1708.74   0.069960  353.55  0.012777  (-0.067776  0.090395 -0.003443)
 50:   3033.00   0.000172    0.87  0.000018  ( 0.002926 -0.003016  0.000053)
 51:   3091.60   0.001178    5.95  0.000119  (-0.000319 -0.000438 -0.010892)
 52:   3141.65   0.005117   25.86  0.000508  (-0.022503  0.001287  0.000481)
 53:   3201.27   0.000479    2.42  0.000047  ( 0.004766  0.004861 -0.000561)
 54:   3202.51   0.000577    2.92  0.000056  (-0.002746 -0.006959  0.000495)
 55:   3223.76   0.000117    0.59  0.000011  ( 0.003054  0.001331 -0.000430)
 56:   3225.43   0.000313    1.58  0.000030  ( 0.005189 -0.001829  0.000029)

--------------------------
THERMOCHEMISTRY AT 298.15K
--------------------------

Temperature         ...   298.15 K
Pressure            ...     1.00 atm
Total Mass          ...   165.15 AMU
Quasi RRHO          ...     True
Cut-Off Frequency   ...     1.00 cm^-1

Throughout the following assumptions are being made:
  (1) The electronic state is orbitally nondegenerate
  (2) There are no thermally accessible electronically excited states
  (3) Hindered rotations indicated by low frequency modes are not
      treated as such but are treated as vibrations and this may
      cause some error
  (4) All equations used are the standard statistical mechanics
      equations for an ideal gas
  (5) All vibrations are strictly harmonic

freq.       9.49  E(vib)   ...       0.58
freq.      29.50  E(vib)   ...       0.55
freq.      71.57  E(vib)   ...       0.50
freq.     138.93  E(vib)   ...       0.42
freq.     154.94  E(vib)   ...       0.40
freq.     231.07  E(vib)   ...       0.32
freq.     264.09  E(vib)   ...       0.29
freq.     288.81  E(vib)   ...       0.27
freq.     404.98  E(vib)   ...       0.19
freq.     426.67  E(vib)   ...       0.18
freq.     440.54  E(vib)   ...       0.17
freq.     501.35  E(vib)   ...       0.14
freq.     531.59  E(vib)   ...       0.13
freq.     582.80  E(vib)   ...       0.11
freq.     612.92  E(vib)   ...       0.10
freq.     625.89  E(vib)   ...       0.09
freq.     701.39  E(vib)   ...       0.07
freq.     749.76  E(vib)   ...       0.06
freq.     765.80  E(vib)   ...       0.06
freq.     840.82  E(vib)   ...       0.04
freq.     859.64  E(vib)   ...       0.04
freq.     874.65  E(vib)   ...       0.04
freq.     961.52  E(vib)   ...       0.03
freq.     991.98  E(vib)   ...       0.02
freq.    1006.44  E(vib)   ...       0.02
freq.    1020.51  E(vib)   ...       0.02
freq.    1037.82  E(vib)   ...       0.02
freq.    1088.67  E(vib)   ...       0.02
freq.    1109.92  E(vib)   ...       0.02
freq.    1115.39  E(vib)   ...       0.01
freq.    1181.43  E(vib)   ...       0.01
freq.    1266.46  E(vib)   ...       0.01
freq.    1315.19  E(vib)   ...       0.01
freq.    1345.64  E(vib)   ...       0.01
freq.    1370.59  E(vib)   ...       0.01
freq.    1376.46  E(vib)   ...       0.01
freq.    1427.08  E(vib)   ...       0.00
freq.    1453.21  E(vib)   ...       0.00
freq.    1459.31  E(vib)   ...       0.00
freq.    1511.71  E(vib)   ...       0.00
freq.    1529.29  E(vib)   ...       0.00
freq.    1628.13  E(vib)   ...       0.00
freq.    1632.56  E(vib)   ...       0.00
freq.    1708.74  E(vib)   ...       0.00
freq.    3033.00  E(vib)   ...       0.00
freq.    3091.60  E(vib)   ...       0.00
freq.    3141.65  E(vib)   ...       0.00
freq.    3201.27  E(vib)   ...       0.00
freq.    3202.51  E(vib)   ...       0.00
freq.    3223.76  E(vib)   ...       0.00
freq.    3225.43  E(vib)   ...       0.00

------------
INNER ENERGY
------------

The inner energy is: U= E(el) + E(ZPE) + E(vib) + E(rot) + E(trans)
    E(el)   - is the total energy from the electronic structure calculation
              = E(kin-el) + E(nuc-el) + E(el-el) + E(nuc-nuc)
    E(ZPE)  - the the zero temperature vibrational energy from the frequency calculation
    E(vib)  - the the finite temperature correction to E(ZPE) due to population
              of excited vibrational states
    E(rot)  - is the rotational thermal energy
    E(trans)- is the translational thermal energy

Summary of contributions to the inner energy U:
Electronic energy                ...   -589.68122607 Eh
Zero point energy                ...      0.13843168 Eh      86.87 kcal/mol
Thermal vibrational correction   ...      0.00790266 Eh       4.96 kcal/mol
Thermal rotational correction    ...      0.00141627 Eh       0.89 kcal/mol
Thermal translational correction ...      0.00141627 Eh       0.89 kcal/mol
-----------------------------------------------------------------------
Total thermal energy                   -589.53205919 Eh

Summary of corrections to the electronic energy:
(perhaps to be used in another calculation)
Total thermal correction                  0.01073521 Eh       6.74 kcal/mol
Non-thermal (ZPE) correction              0.13843168 Eh      86.87 kcal/mol
-----------------------------------------------------------------------
Total correction                          0.14916689 Eh      93.60 kcal/mol

--------
ENTHALPY
--------

The enthalpy is H = U + kB*T
                kB is Boltzmann's constant
Total thermal energy              ...   -589.53205919 Eh
Thermal Enthalpy correction       ...      0.00094421 Eh       0.59 kcal/mol
-----------------------------------------------------------------------
Total Enthalpy                    ...   -589.53111498 Eh

Note: Only C1 symmetry has been detected, increase convergence thresholds
      if your molecule has a higher symmetry. Symmetry factor of 1.0 is
      used for the rotational entropy correction.

Note: Rotational entropy computed according to Herzberg
Infrared and Raman Spectra, Chapter V,1, Van Nostrand Reinhold, 1945
Point Group:  C1, Symmetry Number:   1
Rotational constants in cm-1:     0.096002     0.015931     0.013698

Vibrational entropy computed according to the QRRHO of S. Grimme
Chem.Eur.J. 2012 18 9955 using a reference frequency of 100.0 cm-1

-------
ENTROPY
-------

The entropy contributions are T*S = T*(S(el)+S(vib)+S(rot)+S(trans))
     S(el)   - electronic entropy
     S(vib)  - vibrational entropy
     S(rot)  - rotational entropy
     S(trans)- translational entropy
The entropies will be listed as multiplied by the temperature to get
units of energy

Electronic entropy                ...      0.00000000 Eh      0.00 kcal/mol
Vibrational entropy               ...      0.01443508 Eh      9.06 kcal/mol
Rotational entropy                ...      0.01459681 Eh      9.16 kcal/mol
Translational entropy             ...      0.01958175 Eh     12.29 kcal/mol
-----------------------------------------------------------------------
Final entropy term                ...      0.04861364 Eh     30.51 kcal/mol

In case the symmetry of your molecule has not been determined correctly
or in case you have a reason to use a different symmetry number we print
out the resulting rotational entropy values for sn=1,12:

 non-linear molecules -----------------------------------
|  sn= 1 | S(rot)=       0.01459681 Eh      9.16 kcal/mol|
|  sn= 2 | S(rot)=       0.01394236 Eh      8.75 kcal/mol|
|  sn= 3 | S(rot)=       0.01355952 Eh      8.51 kcal/mol|
|  sn= 4 | S(rot)=       0.01328790 Eh      8.34 kcal/mol|
|  sn= 5 | S(rot)=       0.01307721 Eh      8.21 kcal/mol|
|  sn= 6 | S(rot)=       0.01290507 Eh      8.10 kcal/mol|
|  sn= 7 | S(rot)=       0.01275952 Eh      8.01 kcal/mol|
|  sn= 8 | S(rot)=       0.01263344 Eh      7.93 kcal/mol|
|  sn= 9 | S(rot)=       0.01252224 Eh      7.86 kcal/mol|

                             ****ORCA TERMINATED NORMALLY****
TOTAL RUN TIME: 0 days 0 hours 51 minutes 39 seconds 327 msec
