                         Program Version 6.0.0  -   RELEASE  -
|  1> !r2SCANh freq aug-cc-pVTZ d3 TightSCF SlowConv RIJCOSX defgrid2
|  2>
|  3> %pal
|  4> nprocs 12
|  5> end
|  6>
|  7> %scf
|  8> MaxIter 1500
|  9> end
| 10>
| 11> %maxcore 5000
| 12>
| 13> !CPCM
| 14> %cpcm smd true
| 15> SMDsolvent "MeCN"
| 16> surfacetype gepol_ses
| 17> rsolv 2.19
| 18> end
| 19>
| 20> * xyz -1 2
| 21> C          -1.17013457603949     -1.24974204953921     -0.00052742111458
| 22> C          -2.51179811798633     -0.94472995780870     -0.00056145205774
| 23> C          -2.95613045357807      0.38491615548480     -0.00018724672558
| 24> C          -1.99583501959097      1.40730380623080      0.00031890250342
| 25> C          -0.64712770143191      1.12954972948871      0.00039453712511
| 26> C          -0.17499688078084     -0.21634597616530     -0.00004074744951
| 27> C           1.16824357151283     -0.62757066800441      0.00022036032381
| 28> O           1.68937321591770     -1.73064054751012      0.00013281466718
| 29> Cl          2.41875162728163      0.84577804009536      0.00035081674087
| 30> H           0.06695365386672      1.93918484405995      0.00109895797191
| 31> H          -2.31670506281423      2.44220109660614      0.00117817439652
| 32> H          -4.01223662164045      0.61612646437370     -0.00001217335860
| 33> H          -3.23463957246173     -1.75209465731976     -0.00094485257005
| 34> H          -0.84439536225483     -2.28092627999198     -0.00087517045275
| 35> *
| 36>
| 37>                          ****END OF INPUT****

CARTESIAN COORDINATES (ANGSTROEM)
---------------------------------
  C     -1.170135   -1.249742   -0.000527
  C     -2.511798   -0.944730   -0.000561
  C     -2.956130    0.384916   -0.000187
  C     -1.995835    1.407304    0.000319
  C     -0.647128    1.129550    0.000395
  C     -0.174997   -0.216346   -0.000041
  C      1.168244   -0.627571    0.000220
  O      1.689373   -1.730641    0.000133
  Cl     2.418752    0.845778    0.000351
  H      0.066954    1.939185    0.001099
  H     -2.316705    2.442201    0.001178
  H     -4.012237    0.616126   -0.000012
  H     -3.234640   -1.752095   -0.000945
  H     -0.844395   -2.280926   -0.000875

 Total Charge           Charge          ....   -1
 Multiplicity           Mult            ....    2
 Number of Electrons    NEL             ....   73
 Basis Dimension        Dim             ....  533

ORBITAL ENERGIES
----------------
                 SPIN UP ORBITALS
  NO   OCC          E(Eh)            E(eV)
   0   1.0000    -101.534074     -2762.8826
   1   1.0000     -19.080979      -519.2198
   2   1.0000     -10.230397      -278.3832
   3   1.0000     -10.149605      -276.1848
   4   1.0000     -10.141181      -275.9556
   5   1.0000     -10.140489      -275.9367
   6   1.0000     -10.140448      -275.9356
   7   1.0000     -10.139782      -275.9175
   8   1.0000     -10.135003      -275.7875
   9   1.0000      -9.445167      -257.0161
  10   1.0000      -7.162393      -194.8986
  11   1.0000      -7.156884      -194.7487
  12   1.0000      -7.156311      -194.7331
  13   1.0000      -1.021621       -27.7997
  14   1.0000      -0.841140       -22.8886
  15   1.0000      -0.781401       -21.2630
  16   1.0000      -0.738605       -20.0985
  17   1.0000      -0.730461       -19.8769
  18   1.0000      -0.625966       -17.0334
  19   1.0000      -0.578918       -15.7532
  20   1.0000      -0.529433       -14.4066
  21   1.0000      -0.479066       -13.0360
  22   1.0000      -0.438380       -11.9289
  23   1.0000      -0.429275       -11.6812
  24   1.0000      -0.404036       -10.9944
  25   1.0000      -0.399322       -10.8661
  26   1.0000      -0.393425       -10.7056
  27   1.0000      -0.382194       -10.4000
  28   1.0000      -0.345022        -9.3885
  29   1.0000      -0.331809        -9.0290
  30   1.0000      -0.305658        -8.3174
  31   1.0000      -0.280119        -7.6224
  32   1.0000      -0.277505        -7.5513
  33   1.0000      -0.247500        -6.7348
  34   1.0000      -0.246268        -6.7013
  35   1.0000      -0.242891        -6.6094
  36   1.0000      -0.107860        -2.9350
  37   0.0000      -0.009101        -0.2477
  38   0.0000       0.005280         0.1437
  39   0.0000       0.020945         0.5700
  40   0.0000       0.027238         0.7412
  41   0.0000       0.030128         0.8198

                 SPIN DOWN ORBITALS
  NO   OCC          E(Eh)            E(eV)
   0   1.0000    -101.534059     -2762.8822
   1   1.0000     -19.074575      -519.0456
   2   1.0000     -10.224534      -278.2237
   3   1.0000     -10.149638      -276.1857
   4   1.0000     -10.143200      -276.0105
   5   1.0000     -10.142391      -275.9885
   6   1.0000     -10.136751      -275.8350
   7   1.0000     -10.136266      -275.8218
   8   1.0000     -10.129534      -275.6386
   9   1.0000      -9.445157      -257.0158
  10   1.0000      -7.162623      -194.9049
  11   1.0000      -7.156586      -194.7406
  12   1.0000      -7.156320      -194.7334
  13   1.0000      -1.010981       -27.5102
  14   1.0000      -0.836563       -22.7640
  15   1.0000      -0.778352       -21.1800
  16   1.0000      -0.733071       -19.9479
  17   1.0000      -0.726861       -19.7789
  18   1.0000      -0.611714       -16.6456
  19   1.0000      -0.577713       -15.7204
  20   1.0000      -0.525298       -14.2941
  21   1.0000      -0.473524       -12.8852
  22   1.0000      -0.435976       -11.8635
  23   1.0000      -0.424447       -11.5498
  24   1.0000      -0.402550       -10.9539
  25   1.0000      -0.392640       -10.6843
  26   1.0000      -0.379125       -10.3165
  27   1.0000      -0.371845       -10.1184
  28   1.0000      -0.329451        -8.9648
  29   1.0000      -0.328561        -8.9406
  30   1.0000      -0.304787        -8.2937
  31   1.0000      -0.276821        -7.5327
  32   1.0000      -0.273490        -7.4420
  33   1.0000      -0.239387        -6.5141
  34   1.0000      -0.236439        -6.4338
  35   1.0000      -0.225687        -6.1412
  36   0.0000      -0.042224        -1.1490
  37   0.0000      -0.003705        -0.1008
  38   0.0000       0.008744         0.2379
  39   0.0000       0.025000         0.6803
  40   0.0000       0.028657         0.7798

MULLIKEN ATOMIC CHARGES AND SPIN POPULATIONS
--------------------------------------------
   0 C :   -0.943026    0.297811
   1 C :   -0.413829   -0.200298
   2 C :   -0.409285    0.384763
   3 C :   -0.646500   -0.185813
   4 C :   -0.999254    0.301637
   5 C :    1.743224   -0.018731
   6 C :    0.383530    0.277419
   7 O :   -0.849550    0.208694
   8 Cl:   -0.473979    0.006719
   9 H :    0.183374   -0.016996
  10 H :    0.450436   -0.014409
  11 H :    0.500236   -0.014249
  12 H :    0.392791   -0.006633
  13 H :    0.081832   -0.019913
Sum of atomic charges         :   -1.0000000

LOEWDIN ATOMIC CHARGES AND SPIN POPULATIONS
-------------------------------------------
   0 C :    0.141736    0.105150
   1 C :    0.142986    0.019140
   2 C :    0.154069    0.139203
   3 C :    0.140293    0.020032
   4 C :    0.104533    0.102054
   5 C :   -0.334540    0.114620
   6 C :   -1.124530    0.212987
   7 O :    0.287129    0.191960
   8 Cl:    0.573233    0.026642
   9 H :   -0.278813    0.023190
  10 H :   -0.194583   -0.009067
  11 H :   -0.207228    0.038877
  12 H :   -0.193549   -0.009627
  13 H :   -0.210735    0.024839

  Mayer bond orders larger than 0.100000
B(  0-C ,  1-C ) :   1.2080 B(  0-C ,  4-C ) :  -0.2057 B(  0-C ,  6-C ) :   0.2356
B(  0-C , 11-H ) :   0.1041 B(  0-C , 12-H ) :  -0.1378 B(  0-C , 13-H ) :   1.0707
B(  1-C ,  2-C ) :   0.9454 B(  1-C ,  4-C ) :  -0.1036 B(  1-C ,  5-C ) :   0.1151
B(  1-C , 12-H ) :   0.7703 B(  2-C ,  3-C ) :   0.9866 B(  2-C ,  5-C ) :  -0.1694
B(  2-C ,  6-C ) :   0.1373 B(  2-C , 11-H ) :   0.6212 B(  3-C ,  4-C ) :   1.2238
B(  3-C , 10-H ) :   0.6811 B(  4-C ,  5-C ) :  -0.1333 B(  4-C ,  6-C ) :   0.3852
B(  4-C ,  9-H ) :   1.3383 B(  4-C , 10-H ) :  -0.1466 B(  4-C , 13-H ) :   0.1195
B(  5-C ,  6-C ) :   0.6729 B(  5-C ,  7-O ) :   0.2158 B(  5-C , 13-H ) :  -0.1255
B(  6-C ,  7-O ) :   0.8109 B(  6-C ,  8-Cl) :   0.7083 B(  7-O , 13-H ) :   0.1518
B(  8-Cl,  9-H ) :  -0.1198

Dispersion correction           -0.004960145
FINAL SINGLE POINT ENERGY      -805.212148796929

DIPOLE MOMENT
-------------

Method             : SCF
Type of density    : Electron Density
Multiplicity       :   2
Irrep              :   0
Energy             :  -805.2071886518973542 Eh
Relativity type    :
Basis              : AO
                                X                 Y                 Z
Electronic contribution:     10.947048176       1.034847724       0.000561420
Nuclear contribution   :    -12.990470183      -0.300646275      -0.000300559
                        -----------------------------------------
Total Dipole Moment    :     -2.043422007       0.734201449       0.000260862
                        -----------------------------------------
Magnitude (a.u.)       :      2.171318800
Magnitude (Debye)      :      5.519053784

VIBRATIONAL FREQUENCIES
-----------------------

Scaling factor for frequencies =  1.000000000  (already applied!)

     0:       0.00 cm**-1
     1:       0.00 cm**-1
     2:       0.00 cm**-1
     3:       0.00 cm**-1
     4:       0.00 cm**-1
     5:       0.00 cm**-1
     6:      83.17 cm**-1
     7:     136.76 cm**-1
     8:     178.68 cm**-1
     9:     263.68 cm**-1
    10:     342.73 cm**-1
    11:     351.79 cm**-1
    12:     433.13 cm**-1
    13:     483.13 cm**-1
    14:     484.36 cm**-1
    15:     610.00 cm**-1
    16:     627.40 cm**-1
    17:     684.45 cm**-1
    18:     714.42 cm**-1
    19:     811.10 cm**-1
    20:     815.52 cm**-1
    21:     829.98 cm**-1
    22:     979.33 cm**-1
    23:     980.25 cm**-1
    24:     992.40 cm**-1
    25:    1020.67 cm**-1
    26:    1098.92 cm**-1
    27:    1151.04 cm**-1
    28:    1176.20 cm**-1
    29:    1238.30 cm**-1
    30:    1312.83 cm**-1
    31:    1368.99 cm**-1
    32:    1450.48 cm**-1
    33:    1489.28 cm**-1
    34:    1536.44 cm**-1
    35:    1607.54 cm**-1
    36:    1743.36 cm**-1
    37:    3167.33 cm**-1
    38:    3171.03 cm**-1
    39:    3199.09 cm**-1
    40:    3205.42 cm**-1
    41:    3219.42 cm**-1

IR SPECTRUM
-----------

 Mode   freq       eps      Int      T**2         TX        TY        TZ
       cm**-1   L/(mol*cm) km/mol    a.u.
----------------------------------------------------------------------------
  6:     83.17   0.000064    0.32  0.000240  (-0.000304 -0.000504 -0.015467)
  7:    136.76   0.000076    0.38  0.000174  (-0.000386 -0.000519  0.013159)
  8:    178.68   0.001018    5.15  0.001778  ( 0.032047  0.027410  0.000129)
  9:    263.68   0.025038  126.53  0.029632  ( 0.125554  0.117762  0.000112)
 10:    342.73   0.000237    1.20  0.000216  (-0.000290  0.000166 -0.014680)
 11:    351.79   0.004090   20.67  0.003628  ( 0.029535  0.052493 -0.000075)
 12:    433.13   0.000103    0.52  0.000074  ( 0.000132  0.000053 -0.008604)
 13:    483.13   0.007128   36.02  0.004604  (-0.065571 -0.017407  0.001174)
 14:    484.36   0.006452   32.61  0.004157  ( 0.000818  0.000299  0.064470)
 15:    610.00   0.050707  256.25  0.025941  (-0.125056 -0.101499 -0.000043)
 16:    627.40   0.002010   10.16  0.001000  ( 0.027327  0.015907 -0.000318)
 17:    684.45   0.023953  121.05  0.010921  ( 0.000081  0.000221 -0.104504)
 18:    714.42   0.014578   73.67  0.006368  ( 0.000081 -0.000065  0.079798)
 19:    811.10   0.000020    0.10  0.000008  (-0.000219 -0.000358  0.002756)
 20:    815.52   0.034112  172.39  0.013053  (-0.069637 -0.090575 -0.000050)
 21:    829.98   0.003156   15.95  0.001186  ( 0.000041 -0.000143 -0.034444)
 22:    979.33   0.000001    0.00  0.000000  ( 0.000094  0.000301  0.000419)
 23:    980.25   0.000005    0.02  0.000002  ( 0.000298 -0.000495 -0.001094)
 24:    992.40   0.005789   29.26  0.001820  ( 0.031640 -0.028623  0.000080)
 25:   1020.67   0.017478   88.33  0.005344  (-0.069718  0.021979  0.000062)
 26:   1098.92   0.002547   12.87  0.000723  ( 0.018836 -0.019194  0.000003)
 27:   1151.04   0.001639    8.28  0.000444  ( 0.007965 -0.019516  0.000025)
 28:   1176.20   0.010918   55.18  0.002897  ( 0.028936 -0.045381  0.000012)
 29:   1238.30   0.028098  142.00  0.007081  (-0.014500 -0.082890 -0.000011)
 30:   1312.83   0.003184   16.09  0.000757  ( 0.027339  0.003081 -0.000020)
 31:   1368.99   0.008209   41.48  0.001871  (-0.021532 -0.037518 -0.000059)
 32:   1450.48   0.002394   12.10  0.000515  (-0.016060  0.016033  0.000023)
 33:   1489.28   0.012477   63.05  0.002614  (-0.037981  0.034232  0.000025)
 34:   1536.44   0.003010   15.21  0.000611  (-0.013973  0.020399 -0.000019)
 35:   1607.54   0.076089  384.52  0.014771  (-0.109718  0.052275  0.000043)
 36:   1743.36   0.195852  989.75  0.035058  (-0.129362  0.135364 -0.000014)
 37:   3167.33   0.002546   12.87  0.000251  (-0.015726 -0.001880 -0.000027)
 38:   3171.03   0.008026   40.56  0.000790  ( 0.002633  0.027981 -0.000078)
 39:   3199.09   0.005659   28.60  0.000552  ( 0.008572 -0.021876  0.000034)
 40:   3205.42   0.007250   36.64  0.000706  ( 0.024531  0.010201  0.000033)
 41:   3219.42   0.001942    9.81  0.000188  (-0.001327  0.013655  0.000039)

--------------------------
THERMOCHEMISTRY AT 298.15K
--------------------------

Temperature         ...   298.15 K
Pressure            ...     1.00 atm
Total Mass          ...   140.57 AMU
Quasi RRHO          ...     True
Cut-Off Frequency   ...     1.00 cm^-1

Throughout the following assumptions are being made:
  (1) The electronic state is orbitally nondegenerate
      but the spin degeneracy is treated
  (2) There are no thermally accessible electronically excited states
  (3) Hindered rotations indicated by low frequency modes are not
      treated as such but are treated as vibrations and this may
      cause some error
  (4) All equations used are the standard statistical mechanics
      equations for an ideal gas
  (5) All vibrations are strictly harmonic

freq.      83.17  E(vib)   ...       0.48
freq.     136.76  E(vib)   ...       0.42
freq.     178.68  E(vib)   ...       0.37
freq.     263.68  E(vib)   ...       0.29
freq.     342.73  E(vib)   ...       0.23
freq.     351.79  E(vib)   ...       0.23
freq.     433.13  E(vib)   ...       0.17
freq.     483.13  E(vib)   ...       0.15
freq.     484.36  E(vib)   ...       0.15
freq.     610.00  E(vib)   ...       0.10
freq.     627.40  E(vib)   ...       0.09
freq.     684.45  E(vib)   ...       0.07
freq.     714.42  E(vib)   ...       0.07
freq.     811.10  E(vib)   ...       0.05
freq.     815.52  E(vib)   ...       0.05
freq.     829.98  E(vib)   ...       0.04
freq.     979.33  E(vib)   ...       0.03
freq.     980.25  E(vib)   ...       0.02
freq.     992.40  E(vib)   ...       0.02
freq.    1020.67  E(vib)   ...       0.02
freq.    1098.92  E(vib)   ...       0.02
freq.    1151.04  E(vib)   ...       0.01
freq.    1176.20  E(vib)   ...       0.01
freq.    1238.30  E(vib)   ...       0.01
freq.    1312.83  E(vib)   ...       0.01
freq.    1368.99  E(vib)   ...       0.01
freq.    1450.48  E(vib)   ...       0.00
freq.    1489.28  E(vib)   ...       0.00
freq.    1536.44  E(vib)   ...       0.00
freq.    1607.54  E(vib)   ...       0.00
freq.    1743.36  E(vib)   ...       0.00
freq.    3167.33  E(vib)   ...       0.00
freq.    3171.03  E(vib)   ...       0.00
freq.    3199.09  E(vib)   ...       0.00
freq.    3205.42  E(vib)   ...       0.00
freq.    3219.42  E(vib)   ...       0.00

------------
INNER ENERGY
------------

The inner energy is: U= E(el) + E(ZPE) + E(vib) + E(rot) + E(trans)
    E(el)   - is the total energy from the electronic structure calculation
              = E(kin-el) + E(nuc-el) + E(el-el) + E(nuc-nuc)
    E(ZPE)  - the the zero temperature vibrational energy from the frequency calculation
    E(vib)  - the the finite temperature correction to E(ZPE) due to population
              of excited vibrational states
    E(rot)  - is the rotational thermal energy
    E(trans)- is the translational thermal energy

Summary of contributions to the inner energy U:
Electronic energy                ...   -805.21214880 Eh
Zero point energy                ...      0.09786688 Eh      61.41 kcal/mol
Thermal vibrational correction   ...      0.00499154 Eh       3.13 kcal/mol
Thermal rotational correction    ...      0.00141627 Eh       0.89 kcal/mol
Thermal translational correction ...      0.00141627 Eh       0.89 kcal/mol
-----------------------------------------------------------------------
Total thermal energy                   -805.10645783 Eh

Summary of corrections to the electronic energy:
(perhaps to be used in another calculation)
Total thermal correction                  0.00782408 Eh       4.91 kcal/mol
Non-thermal (ZPE) correction              0.09786688 Eh      61.41 kcal/mol
-----------------------------------------------------------------------
Total correction                          0.10569096 Eh      66.32 kcal/mol

--------
ENTHALPY
--------

The enthalpy is H = U + kB*T
                kB is Boltzmann's constant
Total thermal energy              ...   -805.10645783 Eh
Thermal Enthalpy correction       ...      0.00094421 Eh       0.59 kcal/mol
-----------------------------------------------------------------------
Total Enthalpy                    ...   -805.10551363 Eh

Note: Only C1 symmetry has been detected, increase convergence thresholds
      if your molecule has a higher symmetry. Symmetry factor of 1.0 is
      used for the rotational entropy correction.

Note: Rotational entropy computed according to Herzberg
Infrared and Raman Spectra, Chapter V,1, Van Nostrand Reinhold, 1945
Point Group:  C1, Symmetry Number:   1
Rotational constants in cm-1:     0.100750     0.030491     0.023407

Vibrational entropy computed according to the QRRHO of S. Grimme
Chem.Eur.J. 2012 18 9955 using a reference frequency of 100.0 cm-1

-------
ENTROPY
-------

The entropy contributions are T*S = T*(S(el)+S(vib)+S(rot)+S(trans))
     S(el)   - electronic entropy
     S(vib)  - vibrational entropy
     S(rot)  - rotational entropy
     S(trans)- translational entropy
The entropies will be listed as multiplied by the temperature to get
units of energy

Electronic entropy                ...      0.00065446 Eh      0.41 kcal/mol
Vibrational entropy               ...      0.00825393 Eh      5.18 kcal/mol
Rotational entropy                ...      0.01401461 Eh      8.79 kcal/mol
Translational entropy             ...      0.01935352 Eh     12.14 kcal/mol
-----------------------------------------------------------------------
Final entropy term                ...      0.04227652 Eh     26.53 kcal/mol

In case the symmetry of your molecule has not been determined correctly
or in case you have a reason to use a different symmetry number we print
out the resulting rotational entropy values for sn=1,12:

 non-linear molecules -----------------------------------
|  sn= 1 | S(rot)=       0.01401461 Eh      8.79 kcal/mol|
|  sn= 2 | S(rot)=       0.01336016 Eh      8.38 kcal/mol|
|  sn= 3 | S(rot)=       0.01297733 Eh      8.14 kcal/mol|
|  sn= 4 | S(rot)=       0.01270570 Eh      7.97 kcal/mol|
|  sn= 5 | S(rot)=       0.01249501 Eh      7.84 kcal/mol|
|  sn= 6 | S(rot)=       0.01232287 Eh      7.73 kcal/mol|
|  sn= 7 | S(rot)=       0.01217732 Eh      7.64 kcal/mol|
|  sn= 8 | S(rot)=       0.01205125 Eh      7.56 kcal/mol|
|  sn= 9 | S(rot)=       0.01194004 Eh      7.49 kcal/mol|
|  sn=10 | S(rot)=       0.01184056 Eh      7.43 kcal/mol|
|  sn=11 | S(rot)=       0.01175057 Eh      7.37 kcal/mol|
|  sn=12 | S(rot)=       0.01166841 Eh      7.32 kcal/mol|
 linear molecules ---------------------------------------
|  Dinfh | S(rot)=       0.00887093 Eh      5.57 kcal/mol|
|  Cinfv | S(rot)=       0.00952538 Eh      5.98 kcal/mol|
 --------------------------------------------------------

-------------------
GIBBS FREE ENERGY
-------------------

The Gibbs free energy is G = H - T*S

                             ****ORCA TERMINATED NORMALLY****
TOTAL RUN TIME: 0 days 1 hours 16 minutes 3 seconds 223 msec
