                         Program Version 6.0.0  -   RELEASE  -
|  1> !B3LYP aug-cc-pVTZ d3 TightSCF SlowConv RIJCOSX defgrid2
|  2>
|  3> %pal
|  4> nprocs 4
|  5> end
|  6>
|  7> %scf
|  8> MaxIter 1500
|  9> end
| 10>
| 11> %maxcore 3000
| 12>
| 13> !CPCM
| 14> %cpcm smd true
| 15> SMDsolvent "MeCN"
| 16> surfacetype gepol_ses
| 17> rsolv 2.19
| 18> end
| 19>
| 20> * xyz 0 1
| 21> C           0.89625463995169     -1.41558669005642      0.00000212581931
| 22> C           2.11505403593339     -0.74430991173074     -0.00000149555587
| 23> C           2.17542044953981      0.66118914619392      0.00000118790347
| 24> C           1.02073349490689      1.43411488081899      0.00000740816991
| 25> C          -0.21978579987357      0.78024255664200      0.00000882693723
| 26> C          -0.24734548849214     -0.62587635066739      0.00000530658827
| 27> O          -1.52601546021974     -1.07032389872869      0.00001342203642
| 28> C          -2.31826979056253      0.02952741578344      0.00002075604744
| 29> C          -1.60215379632981      1.18293934552638      0.00000260268759
| 30> H          -2.00251324968155      2.19537072670951     -0.00000431996804
| 31> H          -3.38877681335679     -0.16931307117016      0.00002936397660
| 32> H           1.07767380530056      2.52621447644394      0.00000712336235
| 33> H           3.15304280126425      1.15182904763925     -0.00000361572869
| 34> H           3.04441141911605     -1.32116718166862     -0.00000606251848
| 35> H           0.83131985250349     -2.50587419173540      0.00000217024247
| 36> *
| 37>
| 38>                          ****END OF INPUT****

CARTESIAN COORDINATES (ANGSTROEM)
---------------------------------
  C      0.896255   -1.415587    0.000002
  C      2.115054   -0.744310   -0.000001
  C      2.175420    0.661189    0.000001
  C      1.020733    1.434115    0.000007
  C     -0.219786    0.780243    0.000009
  C     -0.247345   -0.625876    0.000005
  O     -1.526015   -1.070324    0.000013
  C     -2.318270    0.029527    0.000021
  C     -1.602154    1.182939    0.000003
  H     -2.002513    2.195371   -0.000004
  H     -3.388777   -0.169313    0.000029
  H      1.077674    2.526214    0.000007
  H      3.153043    1.151829   -0.000004
  H      3.044411   -1.321167   -0.000006
  H      0.831320   -2.505874    0.000002

 Total Charge           Charge          ....    0
 Multiplicity           Mult            ....    1
 Number of Electrons    NEL             ....   62
 Basis Dimension        Dim             ....  552

ORBITAL ENERGIES
----------------

  NO   OCC          E(Eh)            E(eV)
   0   2.0000     -19.197497      -522.3905
   1   2.0000     -10.230629      -278.3896
   2   2.0000     -10.230537      -278.3871
   3   2.0000     -10.184408      -277.1318
   4   2.0000     -10.181247      -277.0458
   5   2.0000     -10.179488      -276.9980
   6   2.0000     -10.177547      -276.9451
   7   2.0000     -10.175668      -276.8940
   8   2.0000     -10.174175      -276.8534
   9   2.0000      -1.121919       -30.5290
  10   2.0000      -0.858271       -23.3547
  11   2.0000      -0.800300       -21.7773
  12   2.0000      -0.750905       -20.4332
  13   2.0000      -0.729121       -19.8404
  14   2.0000      -0.634598       -17.2683
  15   2.0000      -0.600672       -16.3451
  16   2.0000      -0.582728       -15.8568
  17   2.0000      -0.520263       -14.1571
  18   2.0000      -0.493604       -13.4316
  19   2.0000      -0.476814       -12.9748
  20   2.0000      -0.467419       -12.7191
  21   2.0000      -0.437214       -11.8972
  22   2.0000      -0.423575       -11.5261
  23   2.0000      -0.406528       -11.0622
  24   2.0000      -0.388970       -10.5844
  25   2.0000      -0.364382        -9.9154
  26   2.0000      -0.358863        -9.7652
  27   2.0000      -0.339079        -9.2268
  28   2.0000      -0.299929        -8.1615
  29   2.0000      -0.245606        -6.6833
  30   2.0000      -0.227052        -6.1784
  31   0.0000      -0.029904        -0.8137
  32   0.0000      -0.001445        -0.0393
  33   0.0000      -0.000505        -0.0137
  34   0.0000       0.009836         0.2677
  35   0.0000       0.014101         0.3837

MULLIKEN ATOMIC CHARGES
-----------------------
   0 C :   -1.080824
   1 C :   -0.157021
   2 C :   -0.524619
   3 C :   -0.622464
   4 C :    1.047257
   5 C :    0.404641
   6 O :   -0.549769
   7 C :   -0.486226
   8 C :   -0.680317
   9 H :    0.400532
  10 H :    0.640033
  11 H :    0.061783
  12 H :    0.605091
  13 H :    0.384075
  14 H :    0.557831
Sum of atomic charges:    0.0000000

LOEWDIN ATOMIC CHARGES
----------------------
   0 C :    0.217827
   1 C :    0.171694
   2 C :    0.173085
   3 C :    0.211844
   4 C :   -0.167760
   5 C :   -0.405567
   6 O :    0.614570
   7 C :   -0.022934
   8 C :    0.220416
   9 H :   -0.166443
  10 H :   -0.169998
  11 H :   -0.163344
  12 H :   -0.175856
  13 H :   -0.174014
  14 H :   -0.163521

  Mayer bond orders larger than 0.100000
B(  0-C ,  1-C ) :   1.3050 B(  0-C ,  2-C ) :   0.4092 B(  0-C ,  4-C ) :   0.1462
B(  0-C ,  5-C ) :   1.1706 B(  0-C ,  6-O ) :   0.1355 B(  0-C , 14-H ) :   0.2384
B(  1-C ,  2-C ) :   1.0732 B(  1-C ,  3-C ) :  -0.4186 B(  1-C ,  5-C ) :  -0.6420
B(  1-C ,  7-C ) :   0.1001 B(  1-C ,  8-C ) :   0.1103 B(  1-C , 12-H ) :   0.1441
B(  1-C , 13-H ) :   0.7628 B(  1-C , 14-H ) :   0.1481 B(  2-C ,  3-C ) :   1.0503
B(  2-C ,  5-C ) :   0.1773 B(  2-C ,  8-C ) :   0.1870 B(  2-C , 12-H ) :   0.3555
B(  2-C , 13-H ) :  -0.1450 B(  3-C ,  4-C ) :   0.8264 B(  3-C ,  5-C ) :  -0.7507
B(  3-C ,  8-C ) :   0.1430 B(  3-C ,  9-H ) :   0.1586 B(  3-C , 11-H ) :   1.4313
B(  3-C , 12-H ) :  -0.1111 B(  3-C , 14-H ) :   0.1167 B(  4-C ,  5-C ) :   1.2076
B(  4-C ,  7-C ) :  -0.2922 B(  4-C ,  8-C ) :   0.5191 B(  4-C , 11-H ) :  -0.1633
B(  4-C , 13-H ) :  -0.1036 B(  5-C ,  6-O ) :   0.4912 B(  5-C ,  8-C ) :   0.2569
B(  5-C , 11-H ) :   0.1903 B(  5-C , 13-H ) :   0.1396 B(  6-O ,  7-C ) :   1.2313
B(  7-C ,  8-C ) :   1.2768 B(  7-C , 10-H ) :   0.4878 B(  8-C ,  9-H ) :   0.8255

Dispersion correction           -0.027247148
FINAL SINGLE POINT ENERGY      -383.621134026719

DIPOLE MOMENT
-------------

Method             : SCF
Type of density    : Electron Density
Multiplicity       :   1
Irrep              :   0
Energy             :  -383.5938868786051330 Eh
Relativity type    :
Basis              : AO
                                X                 Y                 Z
Electronic contribution:     -2.706586630      -1.396218790       0.000401390
Nuclear contribution   :      2.516077808       1.725635815      -0.000014921
                        -----------------------------------------
Total Dipole Moment    :     -0.190508822       0.329417025       0.000386468
                        -----------------------------------------
Magnitude (a.u.)       :      0.380538220
Magnitude (Debye)      :      0.967251286

Rotational constants in cm-1:             0.131103             0.055537             0.039011
Rotational constants in MHz :          3930.375234          1664.953413          1169.527667

                             ****ORCA TERMINATED NORMALLY****
TOTAL RUN TIME: 0 days 0 hours 3 minutes 33 seconds 186 msec
