                         Program Version 6.0.0  -   RELEASE  -
|  1> !PBE0 def2-SV(p) Opt Freq d3 TightSCF SlowConv RIJCOSX defgrid2
|  2>
|  3> %pal
|  4> nprocs 4
|  5> end
|  6>
|  7> %scf
|  8> MaxIter 1500
|  9> end
| 10>
| 11> %maxcore 3000
| 12>
| 13>
| 14>
| 15> * xyz 1 2
| 16> C     0.4284117    1.0877376   -0.0000144
| 17> C    -0.9169155    1.3074825   -0.0000439
| 18> C    -1.8335539    0.2221633   -0.0000537
| 19> C    -1.3254804   -1.0977063   -0.0000317
| 20> C     0.0256764   -1.3074359    0.0000114
| 21> C     0.9520498   -0.2316572    0.0000157
| 22> C     2.3424365   -0.5321533    0.0000936
| 23> C     3.3688800    0.3647775   -0.0000494
| 24> C     4.7811105   -0.0247413    0.0000856
| 25> H     5.2839901    0.4120780    0.8672262
| 26> H     5.2839553    0.4114192   -0.8674100
| 27> H     4.9191466   -1.1027529    0.0004771
| 28> H     3.1716787    1.4279429   -0.0003095
| 29> H     2.5966313   -1.5851775    0.0002731
| 30> H     0.4046127   -2.3182077    0.0000305
| 31> H    -1.9977531   -1.9406981   -0.0000442
| 32> O    -3.1071151    0.5483038   -0.0000782
| 33> C    -4.1261202   -0.4344674   -0.0000971
| 34> H    -4.0674654   -1.0601171    0.8936687
| 35> H    -4.0674208   -1.0601208   -0.8938554
| 36> H    -5.0635880    0.1175615   -0.0001239
| 37> H    -1.3258584    2.3053748   -0.0000550
| 38> H     1.0964818    1.9328544    0.0000091
| 39> *
| 40>
| 41>                          ****END OF INPUT****
 Total Charge           Charge          ....    1
 Multiplicity           Mult            ....    2
 Number of Electrons    NEL             ....   79
Dispersion correction           -0.019991016
FINAL SINGLE POINT ENERGY      -462.334907009615
Dispersion correction             ... done (  0.1 sec)
Dispersion correction           -0.019935320
FINAL SINGLE POINT ENERGY      -462.337208008523
Dispersion correction             ... done (  0.0 sec)
Dispersion correction           -0.019926810
FINAL SINGLE POINT ENERGY      -462.337295175960
Dispersion correction             ... done (  0.1 sec)
Dispersion correction           -0.019925476
FINAL SINGLE POINT ENERGY      -462.337317013109
Dispersion correction             ... done (  0.0 sec)
Dispersion correction           -0.019926477
FINAL SINGLE POINT ENERGY      -462.337319032926
Dispersion correction             ... done (  0.0 sec)
                    ***********************HURRAY********************

CARTESIAN COORDINATES (ANGSTROEM)
---------------------------------
  C      0.427669    1.092506   -0.000029
  C     -0.918039    1.321126   -0.000079
  C     -1.833595    0.226047   -0.000051
  C     -1.344035   -1.108130    0.000042
  C      0.010768   -1.321577    0.000100
  C      0.946955   -0.241474    0.000055
  C      2.334812   -0.549176    0.000085
  C      3.371518    0.356388    0.000031
  C      4.798679   -0.012123    0.000030
  H      5.304956    0.432274    0.879685
  H      5.304868    0.432006   -0.879812
  H      4.961935   -1.100710    0.000176
  H      3.145399    1.430121   -0.000045
  H      2.595931   -1.614362    0.000154
  H      0.392416   -2.346566    0.000172
  H     -2.030913   -1.956049    0.000074
  O     -3.096708    0.547421   -0.000130
  C     -4.127775   -0.434766   -0.000133
  H     -4.063212   -1.057731    0.907327
  H     -4.063071   -1.057870   -0.907485
  H     -5.070654    0.126797   -0.000250
  H     -1.332539    2.331892   -0.000142
  H      1.108424    1.946416   -0.000052

 Multiplicity           Mult            ....    2
 Number of Electrons    NEL             ....   79
 Basis Dimension        Dim             ....  178

ORBITAL ENERGIES
----------------
                 SPIN UP ORBITALS
  NO   OCC          E(Eh)            E(eV)
   0   1.0000     -19.438560      -528.9501
   1   1.0000     -10.496185      -285.6157
   2   1.0000     -10.437503      -284.0189
   3   1.0000     -10.432624      -283.8861
   4   1.0000     -10.429518      -283.8016
   5   1.0000     -10.421227      -283.5760
   6   1.0000     -10.416478      -283.4468
   7   1.0000     -10.415895      -283.4309
   8   1.0000     -10.412841      -283.3478
   9   1.0000     -10.408702      -283.2352
  10   1.0000     -10.370016      -282.1825
  11   1.0000      -1.290590       -35.1187
  12   1.0000      -1.061675       -28.8897
  13   1.0000      -0.999712       -27.2036
  14   1.0000      -0.955052       -25.9883
  15   1.0000      -0.943652       -25.6781
  16   1.0000      -0.900517       -24.5043
  17   1.0000      -0.846937       -23.0463
  18   1.0000      -0.805441       -21.9172
  19   1.0000      -0.782258       -21.2863
  20   1.0000      -0.738467       -20.0947
  21   1.0000      -0.723203       -19.6794
  22   1.0000      -0.683947       -18.6111
  23   1.0000      -0.677904       -18.4467
  24   1.0000      -0.665385       -18.1060
  25   1.0000      -0.630089       -17.1456
  26   1.0000      -0.612664       -16.6714
  27   1.0000      -0.610408       -16.6100
  28   1.0000      -0.590576       -16.0704
  29   1.0000      -0.585739       -15.9388
  30   1.0000      -0.581820       -15.8321
  31   1.0000      -0.571066       -15.5395
  32   1.0000      -0.545717       -14.8497
  33   1.0000      -0.541742       -14.7415
  34   1.0000      -0.533000       -14.5037
  35   1.0000      -0.524669       -14.2770
  36   1.0000      -0.505174       -13.7465
  37   1.0000      -0.466105       -12.6834
  38   1.0000      -0.449334       -12.2270
  39   1.0000      -0.395430       -10.7602
  40   0.0000      -0.215870        -5.8741
  41   0.0000      -0.176648        -4.8068
  42   0.0000      -0.116387        -3.1671
  43   0.0000      -0.066446        -1.8081
  44   0.0000      -0.062555        -1.7022

                 SPIN DOWN ORBITALS
  NO   OCC          E(Eh)            E(eV)
   0   1.0000     -19.434210      -528.8317
   1   1.0000     -10.493620      -285.5459
   2   1.0000     -10.433931      -283.9217
   3   1.0000     -10.429704      -283.8067
   4   1.0000     -10.426223      -283.7119
   5   1.0000     -10.420558      -283.5578
   6   1.0000     -10.416428      -283.4454
   7   1.0000     -10.416408      -283.4449
   8   1.0000     -10.412240      -283.3315
   9   1.0000     -10.407983      -283.2156
  10   1.0000     -10.370314      -282.1906
  11   1.0000      -1.282651       -34.9027
  12   1.0000      -1.055504       -28.7217
  13   1.0000      -0.990919       -26.9643
  14   1.0000      -0.950553       -25.8659
  15   1.0000      -0.937827       -25.5196
  16   1.0000      -0.898713       -24.4552
  17   1.0000      -0.841623       -22.9017
  18   1.0000      -0.802133       -21.8272
  19   1.0000      -0.777168       -21.1478
  20   1.0000      -0.734499       -19.9867
  21   1.0000      -0.720581       -19.6080
  22   1.0000      -0.681331       -18.5399
  23   1.0000      -0.674865       -18.3640
  24   1.0000      -0.650122       -17.6907
  25   1.0000      -0.627972       -17.0880
  26   1.0000      -0.611767       -16.6470
  27   1.0000      -0.608400       -16.5554
  28   1.0000      -0.588585       -16.0162
  29   1.0000      -0.580093       -15.7851
  30   1.0000      -0.571003       -15.5378
  31   1.0000      -0.559652       -15.2289
  32   1.0000      -0.543986       -14.8026
  33   1.0000      -0.539849       -14.6900
  34   1.0000      -0.522820       -14.2267
  35   1.0000      -0.516130       -14.0446
  36   1.0000      -0.502491       -13.6735
  37   1.0000      -0.446855       -12.1595
  38   1.0000      -0.438578       -11.9343
  39   0.0000      -0.314693        -8.5632
  40   0.0000      -0.187173        -5.0932
  41   0.0000      -0.164747        -4.4830
  42   0.0000      -0.094644        -2.5754
  43   0.0000      -0.065581        -1.7845

MULLIKEN ATOMIC CHARGES AND SPIN POPULATIONS
--------------------------------------------
   0 C :   -0.094816   -0.012776
   1 C :   -0.087061    0.041536
   2 C :    0.274113    0.166729
   3 C :   -0.165442    0.036755
   4 C :   -0.086879    0.035363
   5 C :    0.101826    0.239419
   6 C :   -0.108591   -0.052014
   7 C :   -0.100553    0.423611
   8 C :   -0.335519   -0.037947
   9 H :    0.196636    0.026400
  10 H :    0.196640    0.026406
  11 H :    0.175732    0.000329
  12 H :    0.169970   -0.020620
  13 H :    0.144607    0.001330
  14 H :    0.148196   -0.003004
  15 H :    0.146228   -0.003029
  16 O :   -0.240369    0.127870
  17 C :   -0.194741   -0.011226
  18 H :    0.179372    0.009327
  19 H :    0.179370    0.009327
  20 H :    0.202371   -0.000014
  21 H :    0.154603   -0.003189
  22 H :    0.144307   -0.000584
Sum of atomic charges         :    1.0000000

LOEWDIN ATOMIC CHARGES AND SPIN POPULATIONS
-------------------------------------------
   0 C :   -0.067787    0.012029
   1 C :   -0.099107    0.045963
   2 C :    0.106636    0.140720
   3 C :   -0.138880    0.045419
   4 C :   -0.049386    0.051239
   5 C :    0.002430    0.188216
   6 C :   -0.090566   -0.005024
   7 C :   -0.006424    0.352290
   8 C :   -0.336094   -0.002852
   9 H :    0.171879    0.023066
  10 H :    0.171883    0.023072
  11 H :    0.149004    0.000240
  12 H :    0.148537   -0.010266
  13 H :    0.153790    0.000405
  14 H :    0.159566   -0.001655
  15 H :    0.161184   -0.001637
  16 O :   -0.005019    0.132403
  17 C :   -0.191391   -0.004590
  18 H :    0.140508    0.006668
  19 H :    0.140507    0.006667
  20 H :    0.155423   -0.000035
  21 H :    0.168510   -0.001742
  22 H :    0.154797   -0.000595

  Mayer bond orders larger than 0.100000
B(  0-C ,  1-C ) :   1.5653 B(  0-C ,  5-C ) :   1.1896 B(  0-C , 22-H ) :   0.9425
B(  1-C ,  2-C ) :   1.2127 B(  1-C , 21-H ) :   0.9523 B(  2-C ,  3-C ) :   1.1852
B(  2-C , 16-O ) :   1.3018 B(  3-C ,  4-C ) :   1.5247 B(  3-C , 15-H ) :   0.9514
B(  4-C ,  5-C ) :   1.2039 B(  4-C , 14-H ) :   0.9534 B(  5-C ,  6-C ) :   1.2980
B(  6-C ,  7-C ) :   1.5720 B(  6-C , 13-H ) :   0.9292 B(  7-C ,  8-C ) :   1.1281
B(  7-C , 12-H ) :   0.9042 B(  8-C ,  9-H ) :   0.9028 B(  8-C , 10-H ) :   0.9028
B(  8-C , 11-H ) :   0.9447 B( 16-O , 17-C ) :   0.8756 B( 17-C , 18-H ) :   0.9356
B( 17-C , 19-H ) :   0.9356 B( 17-C , 20-H ) :   0.9439

Dispersion correction           -0.019927092
FINAL SINGLE POINT ENERGY      -462.337319364424

DIPOLE MOMENT
-------------

Method             : SCF
Type of density    : Electron Density
Multiplicity       :   2
Irrep              :   0
Energy             :  -462.3173922724696467 Eh
Relativity type    :
Basis              : AO
                                X                 Y                 Z
Electronic contribution:     -5.370997517       1.770327039       0.000045825
Nuclear contribution   :      5.760035760      -2.141608365      -0.000061222
                        -----------------------------------------
Total Dipole Moment    :      0.389038243      -0.371281325      -0.000015397
                        -----------------------------------------
Magnitude (a.u.)       :      0.537773723
Magnitude (Debye)      :      1.366912173

VIBRATIONAL FREQUENCIES
-----------------------

Scaling factor for frequencies =  1.000000000  (already applied!)

     0:       0.00 cm**-1
     1:       0.00 cm**-1
     2:       0.00 cm**-1
     3:       0.00 cm**-1
     4:       0.00 cm**-1
     5:       0.00 cm**-1
     6:      51.47 cm**-1
     7:     120.76 cm**-1
     8:     130.09 cm**-1
     9:     135.46 cm**-1
    10:     180.67 cm**-1
    11:     186.27 cm**-1
    12:     222.98 cm**-1
    13:     239.60 cm**-1
    14:     323.90 cm**-1
    15:     350.02 cm**-1
    16:     407.62 cm**-1
    17:     409.59 cm**-1
    18:     478.97 cm**-1
    19:     537.07 cm**-1
    20:     582.18 cm**-1
    21:     626.66 cm**-1
    22:     750.39 cm**-1
    23:     782.76 cm**-1
    24:     807.36 cm**-1
    25:     828.40 cm**-1
    26:     857.61 cm**-1
    27:     880.90 cm**-1
    28:     955.40 cm**-1
    29:     965.92 cm**-1
    30:    1000.83 cm**-1
    31:    1009.20 cm**-1
    32:    1013.13 cm**-1
    33:    1032.99 cm**-1
    34:    1064.74 cm**-1
    35:    1140.52 cm**-1
    36:    1164.58 cm**-1
    37:    1165.34 cm**-1
    38:    1201.66 cm**-1
    39:    1206.55 cm**-1
    40:    1267.27 cm**-1
    41:    1309.71 cm**-1
    42:    1328.85 cm**-1
    43:    1369.27 cm**-1
    44:    1381.91 cm**-1
    45:    1401.66 cm**-1
    46:    1409.58 cm**-1
    47:    1436.42 cm**-1
    48:    1464.49 cm**-1
    49:    1471.93 cm**-1
    50:    1484.78 cm**-1
    51:    1489.84 cm**-1
    52:    1544.98 cm**-1
    53:    1565.84 cm**-1
    54:    1583.83 cm**-1
    55:    1633.61 cm**-1
    56:    1716.92 cm**-1
    57:    3018.40 cm**-1
    58:    3059.95 cm**-1
    59:    3087.95 cm**-1
    60:    3163.50 cm**-1
    61:    3163.56 cm**-1
    62:    3182.10 cm**-1
    63:    3193.07 cm**-1
    64:    3215.82 cm**-1
    65:    3219.50 cm**-1
    66:    3231.68 cm**-1
    67:    3244.68 cm**-1
    68:    3247.80 cm**-1

IR SPECTRUM
-----------

 Mode   freq       eps      Int      T**2         TX        TY        TZ
       cm**-1   L/(mol*cm) km/mol    a.u.
----------------------------------------------------------------------------
  6:     51.47   0.000316    1.60  0.001915  ( 0.000003 -0.000006 -0.043761)
  7:    120.76   0.000064    0.32  0.000166  (-0.000006  0.000006  0.012883)
  8:    130.09   0.000123    0.62  0.000295  ( 0.014098 -0.009793  0.000029)
  9:    135.46   0.000285    1.44  0.000657  ( 0.000015 -0.000013 -0.025634)
 10:    180.67   0.000849    4.29  0.001466  (-0.000003  0.000007  0.038289)
 11:    186.27   0.000000    0.00  0.000000  (-0.000004 -0.000004  0.000326)
 12:    222.98   0.000179    0.90  0.000250  (-0.000003  0.000005 -0.015822)
 13:    239.60   0.001003    5.07  0.001306  (-0.035180  0.008289  0.000000)
 14:    323.90   0.000129    0.65  0.000124  ( 0.010770 -0.002838 -0.000000)
 15:    350.02   0.000273    1.38  0.000244  (-0.000002  0.000001  0.015605)
 16:    407.62   0.000031    0.16  0.000024  ( 0.000031 -0.000007 -0.004898)
 17:    409.59   0.000799    4.04  0.000609  ( 0.024082 -0.005381  0.000007)
 18:    478.97   0.001347    6.81  0.000878  ( 0.029599 -0.001261  0.000001)
 19:    537.07   0.002021   10.21  0.001174  ( 0.000003 -0.000005 -0.034270)
 20:    582.18   0.003289   16.62  0.001763  (-0.039586  0.013993  0.000001)
 21:    626.66   0.001258    6.36  0.000626  (-0.024888 -0.002659 -0.000001)
 22:    750.39   0.000231    1.17  0.000096  (-0.000003 -0.000001  0.009807)
 23:    782.76   0.001449    7.32  0.000578  (-0.021873  0.009955 -0.000002)
 24:    807.36   0.000271    1.37  0.000105  (-0.000006  0.000002  0.010239)
 25:    828.40   0.003842   19.42  0.001447  (-0.000008 -0.000002  0.038046)
 26:    857.61   0.005838   29.50  0.002124  ( 0.044455  0.012174  0.000002)
 27:    880.90   0.007747   39.15  0.002744  ( 0.000000 -0.000006 -0.052388)
 28:    955.40   0.006657   33.64  0.002174  (-0.041357 -0.021540  0.000010)
 29:    965.92   0.004699   23.75  0.001518  (-0.000006 -0.000007 -0.038962)
 30:   1000.83   0.005119   25.87  0.001596  (-0.039903  0.002003 -0.000001)
 31:   1009.20   0.000230    1.16  0.000071  (-0.000007 -0.000006 -0.008432)
 32:   1013.13   0.000001    0.01  0.000000  ( 0.000004  0.000001 -0.000579)
 33:   1032.99   0.000698    3.53  0.000211  ( 0.000016 -0.000003 -0.014523)
 34:   1064.74   0.014714   74.36  0.004313  (-0.057675 -0.031404 -0.000001)
 35:   1140.52   0.001195    6.04  0.000327  ( 0.002772 -0.017868  0.000003)
 36:   1164.58   0.000788    3.98  0.000211  ( 0.009735 -0.010786  0.000008)
 37:   1165.34   0.000088    0.45  0.000024  (-0.000014  0.000021  0.004860)
 38:   1201.66   0.009048   45.73  0.002350  (-0.047881 -0.007563 -0.000001)
 39:   1206.55   0.000342    1.73  0.000088  (-0.007359  0.005847 -0.000001)
 40:   1267.27   0.000668    3.38  0.000165  (-0.010489 -0.007383  0.000001)
 41:   1309.71   0.024239  122.50  0.005775  ( 0.075780  0.005736 -0.000000)
 42:   1328.85   0.009938   50.22  0.002334  (-0.045033 -0.017490  0.000001)
 43:   1369.27   0.002179   11.01  0.000497  (-0.021178 -0.006933  0.000002)
 44:   1381.91   0.005921   29.92  0.001337  ( 0.036259  0.004727 -0.000005)
 45:   1401.66   0.041745  210.96  0.009294  ( 0.096289  0.004752  0.000001)
 46:   1409.58   0.040906  206.72  0.009056  (-0.094982 -0.005886 -0.000003)
 47:   1436.42   0.003833   19.37  0.000833  ( 0.000007 -0.000007 -0.028857)
 48:   1464.49   0.006345   32.06  0.001352  ( 0.016175 -0.033020  0.000008)
 49:   1471.93   0.008879   44.87  0.001883  ( 0.043372  0.001198  0.000005)
 50:   1484.78   0.004184   21.15  0.000879  (-0.000005  0.000002  0.029656)
 51:   1489.84   0.001248    6.31  0.000261  ( 0.015488 -0.004637 -0.000007)
 52:   1544.98   0.001591    8.04  0.000321  ( 0.004372  0.017386 -0.000001)
 53:   1565.84   0.001272    6.43  0.000253  ( 0.011883 -0.010595  0.000001)
 54:   1583.83   0.078076  394.56  0.015383  ( 0.123908 -0.005499  0.000005)
 55:   1633.61   0.147779  746.81  0.028230  ( 0.167610 -0.011681  0.000003)
 56:   1716.92   0.021664  109.48  0.003938  (-0.062743  0.000905 -0.000002)
 57:   3018.40   0.008276   41.83  0.000856  (-0.029145 -0.002497  0.000002)
 58:   3059.95   0.002746   13.88  0.000280  ( 0.015065  0.007286  0.000000)
 59:   3087.95   0.000508    2.57  0.000051  ( 0.000002 -0.000002 -0.007164)
 60:   3163.50   0.002855   14.43  0.000282  ( 0.016707 -0.001576  0.000001)
 61:   3163.56   0.000443    2.24  0.000044  ( 0.000000  0.000001  0.006608)
 62:   3182.10   0.000028    0.14  0.000003  ( 0.001639  0.000241  0.000000)
 63:   3193.07   0.000890    4.50  0.000087  ( 0.008790 -0.003110 -0.000000)
 64:   3215.82   0.000239    1.21  0.000023  ( 0.003933  0.002786 -0.000000)
 65:   3219.50   0.000034    0.17  0.000003  (-0.000752 -0.001665 -0.000000)
 66:   3231.68   0.000303    1.53  0.000029  ( 0.002861 -0.004588  0.000000)
 67:   3244.68   0.000853    4.31  0.000082  ( 0.000132 -0.009055  0.000000)
 68:   3247.80   0.000544    2.75  0.000052  ( 0.000512 -0.007214  0.000001)

--------------------------
THERMOCHEMISTRY AT 298.15K
--------------------------

Temperature         ...   298.15 K
Pressure            ...     1.00 atm
Total Mass          ...   148.21 AMU
Quasi RRHO          ...     True
Cut-Off Frequency   ...     1.00 cm^-1

Throughout the following assumptions are being made:
  (1) The electronic state is orbitally nondegenerate
      but the spin degeneracy is treated
  (2) There are no thermally accessible electronically excited states
  (3) Hindered rotations indicated by low frequency modes are not
      treated as such but are treated as vibrations and this may
      cause some error
  (4) All equations used are the standard statistical mechanics
      equations for an ideal gas
  (5) All vibrations are strictly harmonic

freq.      51.47  E(vib)   ...       0.52
freq.     120.76  E(vib)   ...       0.44
freq.     130.09  E(vib)   ...       0.43
freq.     135.46  E(vib)   ...       0.42
freq.     180.67  E(vib)   ...       0.37
freq.     186.27  E(vib)   ...       0.37
freq.     222.98  E(vib)   ...       0.33
freq.     239.60  E(vib)   ...       0.31
freq.     323.90  E(vib)   ...       0.25
freq.     350.02  E(vib)   ...       0.23
freq.     407.62  E(vib)   ...       0.19
freq.     409.59  E(vib)   ...       0.19
freq.     478.97  E(vib)   ...       0.15
freq.     537.07  E(vib)   ...       0.12
freq.     582.18  E(vib)   ...       0.11
freq.     626.66  E(vib)   ...       0.09
freq.     750.39  E(vib)   ...       0.06
freq.     782.76  E(vib)   ...       0.05
freq.     807.36  E(vib)   ...       0.05
freq.     828.40  E(vib)   ...       0.04
freq.     857.61  E(vib)   ...       0.04
freq.     880.90  E(vib)   ...       0.04
freq.     955.40  E(vib)   ...       0.03
freq.     965.92  E(vib)   ...       0.03
freq.    1000.83  E(vib)   ...       0.02
freq.    1009.20  E(vib)   ...       0.02
freq.    1013.13  E(vib)   ...       0.02
freq.    1032.99  E(vib)   ...       0.02
freq.    1064.74  E(vib)   ...       0.02
freq.    1140.52  E(vib)   ...       0.01
freq.    1164.58  E(vib)   ...       0.01
freq.    1165.34  E(vib)   ...       0.01
freq.    1201.66  E(vib)   ...       0.01
freq.    1206.55  E(vib)   ...       0.01
freq.    1267.27  E(vib)   ...       0.01
freq.    1309.71  E(vib)   ...       0.01
freq.    1328.85  E(vib)   ...       0.01
freq.    1369.27  E(vib)   ...       0.01
freq.    1381.91  E(vib)   ...       0.01
freq.    1401.66  E(vib)   ...       0.00
freq.    1409.58  E(vib)   ...       0.00
freq.    1436.42  E(vib)   ...       0.00
freq.    1464.49  E(vib)   ...       0.00
freq.    1471.93  E(vib)   ...       0.00
freq.    1484.78  E(vib)   ...       0.00
freq.    1489.84  E(vib)   ...       0.00
freq.    1544.98  E(vib)   ...       0.00
freq.    1565.84  E(vib)   ...       0.00
freq.    1583.83  E(vib)   ...       0.00
freq.    1633.61  E(vib)   ...       0.00
freq.    1716.92  E(vib)   ...       0.00
freq.    3018.40  E(vib)   ...       0.00
freq.    3059.95  E(vib)   ...       0.00
freq.    3087.95  E(vib)   ...       0.00
freq.    3163.50  E(vib)   ...       0.00
freq.    3163.56  E(vib)   ...       0.00
freq.    3182.10  E(vib)   ...       0.00
freq.    3193.07  E(vib)   ...       0.00
freq.    3215.82  E(vib)   ...       0.00
freq.    3219.50  E(vib)   ...       0.00
freq.    3231.68  E(vib)   ...       0.00
freq.    3244.68  E(vib)   ...       0.00
freq.    3247.80  E(vib)   ...       0.00

------------
INNER ENERGY
------------

The inner energy is: U= E(el) + E(ZPE) + E(vib) + E(rot) + E(trans)
    E(el)   - is the total energy from the electronic structure calculation
              = E(kin-el) + E(nuc-el) + E(el-el) + E(nuc-nuc)
    E(ZPE)  - the the zero temperature vibrational energy from the frequency calculation
    E(vib)  - the the finite temperature correction to E(ZPE) due to population
              of excited vibrational states
    E(rot)  - is the rotational thermal energy
    E(trans)- is the translational thermal energy

Summary of contributions to the inner energy U:
Electronic energy                ...   -462.33731936 Eh
Zero point energy                ...      0.19523996 Eh     122.51 kcal/mol
Thermal vibrational correction   ...      0.00808631 Eh       5.07 kcal/mol
Thermal rotational correction    ...      0.00141627 Eh       0.89 kcal/mol
Thermal translational correction ...      0.00141627 Eh       0.89 kcal/mol
-----------------------------------------------------------------------
Total thermal energy                   -462.13116054 Eh

Summary of corrections to the electronic energy:
(perhaps to be used in another calculation)
Total thermal correction                  0.01091886 Eh       6.85 kcal/mol
Non-thermal (ZPE) correction              0.19523996 Eh     122.51 kcal/mol
-----------------------------------------------------------------------
Total correction                          0.20615882 Eh     129.37 kcal/mol

--------
ENTHALPY
--------

The enthalpy is H = U + kB*T
                kB is Boltzmann's constant
Total thermal energy              ...   -462.13116054 Eh
Thermal Enthalpy correction       ...      0.00094421 Eh       0.59 kcal/mol
-----------------------------------------------------------------------
Total Enthalpy                    ...   -462.13021634 Eh

Note: Only C1 symmetry has been detected, increase convergence thresholds
      if your molecule has a higher symmetry. Symmetry factor of 1.0 is
      used for the rotational entropy correction.

Note: Rotational entropy computed according to Herzberg
Infrared and Raman Spectra, Chapter V,1, Van Nostrand Reinhold, 1945
Point Group:  C1, Symmetry Number:   1
Rotational constants in cm-1:     0.146577     0.015467     0.014066

Vibrational entropy computed according to the QRRHO of S. Grimme
Chem.Eur.J. 2012 18 9955 using a reference frequency of 100.0 cm-1

-------
ENTROPY
-------

The entropy contributions are T*S = T*(S(el)+S(vib)+S(rot)+S(trans))
     S(el)   - electronic entropy
     S(vib)  - vibrational entropy
     S(rot)  - rotational entropy
     S(trans)- translational entropy
The entropies will be listed as multiplied by the temperature to get
units of energy

Electronic entropy                ...      0.00065446 Eh      0.41 kcal/mol
Vibrational entropy               ...      0.01394453 Eh      8.75 kcal/mol
Rotational entropy                ...      0.01439849 Eh      9.04 kcal/mol
Translational entropy             ...      0.01942844 Eh     12.19 kcal/mol
-----------------------------------------------------------------------
Final entropy term                ...      0.04842591 Eh     30.39 kcal/mol

In case the symmetry of your molecule has not been determined correctly

                             ****ORCA TERMINATED NORMALLY****
TOTAL RUN TIME: 0 days 0 hours 10 minutes 59 seconds 400 msec
