                         Program Version 6.0.0  -   RELEASE  -
|  1> !PBE0 def2-SV(p) Opt Freq d3 TightSCF SlowConv RIJCOSX defgrid2
|  2>
|  3> %pal
|  4> nprocs 4
|  5> end
|  6>
|  7> %scf
|  8> MaxIter 1500
|  9> end
| 10>
| 11> %maxcore 3000
| 12>
| 13>
| 14>
| 15> * xyz 1 2
| 16> C    -0.0881488   -1.0427511    0.0049226
| 17> C    -1.4463884   -1.2046347    0.0080758
| 18> C    -2.3155459   -0.0932133    0.0098927
| 19> C    -1.7539853    1.1975733    0.0049310
| 20> C    -0.3960469    1.3706457    0.0018182
| 21> C     0.4863580    0.2563981    0.0022870
| 22> C     1.8859829    0.5006829   -0.0022742
| 23> C     2.8783302   -0.4410687   -0.0012993
| 24> C     4.3005507   -0.1091797   -0.0038673
| 25> H     4.7874695   -0.5691148    0.8617930
| 26> H     4.7858665   -0.5754118   -0.8670421
| 27> H     4.4861941    0.9616992   -0.0078480
| 28> H     2.6354866   -1.4950812    0.0022319
| 29> H     2.1834021    1.5425796   -0.0064548
| 30> H     0.0207865    2.3662896   -0.0004359
| 31> H    -2.4090091    2.0553840    0.0047147
| 32> C    -3.7767596   -0.2939038    0.0003406
| 33> H    -4.3163735    0.6264079    0.2073960
| 34> H    -4.0839953   -0.6598317   -0.9840101
| 35> H    -4.0667925   -1.0678716    0.7117638
| 36> H    -1.8718086   -2.1967917    0.0097290
| 37> H     0.5462765   -1.9137306    0.0044259
| 38> *
| 39>
| 40>                          ****END OF INPUT****
 Total Charge           Charge          ....    1
 Multiplicity           Mult            ....    2
 Number of Electrons    NEL             ....   71
Dispersion correction           -0.019271555
FINAL SINGLE POINT ENERGY      -387.246786969695
Dispersion correction             ... done (  0.0 sec)
Dispersion correction           -0.019175785
FINAL SINGLE POINT ENERGY      -387.249179111526
Dispersion correction             ... done (  0.1 sec)
Dispersion correction           -0.019165674
FINAL SINGLE POINT ENERGY      -387.249229417096
Dispersion correction             ... done (  0.1 sec)
Dispersion correction           -0.019163991
FINAL SINGLE POINT ENERGY      -387.249243413247
Dispersion correction             ... done (  0.1 sec)
Dispersion correction           -0.019165343
FINAL SINGLE POINT ENERGY      -387.249245290531
Dispersion correction             ... done (  0.0 sec)
                    ***********************HURRAY********************

CARTESIAN COORDINATES (ANGSTROEM)
---------------------------------
  C     -0.082747   -1.043993    0.009542
  C     -1.443142   -1.212243    0.014641
  C     -2.322577   -0.094872    0.012749
  C     -1.764753    1.207615    0.007803
  C     -0.402732    1.387613    0.002994
  C      0.487231    0.269234    0.003399
  C      1.883611    0.519971   -0.001367
  C      2.886093   -0.432520   -0.002114
  C      4.323713   -0.124031   -0.007161
  H      4.811995   -0.592639    0.871086
  H      4.807047   -0.597717   -0.885397
  H      4.537245    0.955621   -0.010814
  H      2.613161   -1.495257    0.001271
  H      2.190605    1.572953   -0.005152
  H      0.017421    2.397403    0.000107
  H     -2.431688    2.074003    0.009748
  C     -3.792062   -0.302289   -0.005649
  H     -4.349409    0.621970    0.207715
  H     -4.101897   -0.664149   -1.006979
  H     -4.092841   -1.086663    0.711189
  H     -1.866306   -2.220737    0.021729
  H      0.563881   -1.924197    0.011753

 Multiplicity           Mult            ....    2
 Number of Electrons    NEL             ....   71
 Basis Dimension        Dim             ....  164

ORBITAL ENERGIES
----------------
                 SPIN UP ORBITALS
  NO   OCC          E(Eh)            E(eV)
   0   1.0000     -10.451173      -284.3909
   1   1.0000     -10.445690      -284.2417
   2   1.0000     -10.444822      -284.2180
   3   1.0000     -10.433491      -283.9097
   4   1.0000     -10.423122      -283.6276
   5   1.0000     -10.421722      -283.5895
   6   1.0000     -10.409491      -283.2567
   7   1.0000     -10.408446      -283.2282
   8   1.0000     -10.382663      -282.5266
   9   1.0000     -10.373400      -282.2746
  10   1.0000      -1.068899       -29.0862
  11   1.0000      -1.015441       -27.6315
  12   1.0000      -0.965956       -26.2850
  13   1.0000      -0.944348       -25.6970
  14   1.0000      -0.899135       -24.4667
  15   1.0000      -0.842614       -22.9287
  16   1.0000      -0.806532       -21.9468
  17   1.0000      -0.778255       -21.1774
  18   1.0000      -0.744788       -20.2667
  19   1.0000      -0.702334       -19.1115
  20   1.0000      -0.667856       -18.1733
  21   1.0000      -0.642941       -17.4953
  22   1.0000      -0.619444       -16.8559
  23   1.0000      -0.611152       -16.6303
  24   1.0000      -0.605283       -16.4706
  25   1.0000      -0.602146       -16.3852
  26   1.0000      -0.592449       -16.1214
  27   1.0000      -0.565630       -15.3916
  28   1.0000      -0.557821       -15.1791
  29   1.0000      -0.552148       -15.0247
  30   1.0000      -0.542110       -14.7516
  31   1.0000      -0.535455       -14.5705
  32   1.0000      -0.518267       -14.1028
  33   1.0000      -0.486346       -13.2341
  34   1.0000      -0.448655       -12.2085
  35   1.0000      -0.414742       -11.2857
  36   0.0000      -0.233589        -6.3563
  37   0.0000      -0.177137        -4.8201
  38   0.0000      -0.131130        -3.5682
  39   0.0000      -0.071437        -1.9439
  40   0.0000      -0.063039        -1.7154

                 SPIN DOWN ORBITALS
  NO   OCC          E(Eh)            E(eV)
   0   1.0000     -10.444560      -284.2109
   1   1.0000     -10.443045      -284.1697
   2   1.0000     -10.440276      -284.0943
   3   1.0000     -10.433167      -283.9009
   4   1.0000     -10.421693      -283.5887
   5   1.0000     -10.420306      -283.5509
   6   1.0000     -10.410114      -283.2736
   7   1.0000     -10.409000      -283.2433
   8   1.0000     -10.382934      -282.5340
   9   1.0000     -10.373540      -282.2784
  10   1.0000      -1.062162       -28.9029
  11   1.0000      -1.005423       -27.3589
  12   1.0000      -0.955575       -26.0025
  13   1.0000      -0.942648       -25.6508
  14   1.0000      -0.897428       -24.4202
  15   1.0000      -0.836432       -22.7605
  16   1.0000      -0.803085       -21.8531
  17   1.0000      -0.772855       -21.0305
  18   1.0000      -0.740028       -20.1372
  19   1.0000      -0.699651       -19.0385
  20   1.0000      -0.665283       -18.1033
  21   1.0000      -0.640320       -17.4240
  22   1.0000      -0.616871       -16.7859
  23   1.0000      -0.610345       -16.6083
  24   1.0000      -0.602779       -16.4025
  25   1.0000      -0.587132       -15.9767
  26   1.0000      -0.578549       -15.7431
  27   1.0000      -0.562642       -15.3103
  28   1.0000      -0.551119       -14.9967
  29   1.0000      -0.543709       -14.7951
  30   1.0000      -0.541008       -14.7216
  31   1.0000      -0.533661       -14.5217
  32   1.0000      -0.516261       -14.0482
  33   1.0000      -0.462027       -12.5724
  34   1.0000      -0.444450       -12.0941
  35   0.0000      -0.330599        -8.9961
  36   0.0000      -0.201394        -5.4802
  37   0.0000      -0.166733        -4.5370
  38   0.0000      -0.108336        -2.9480
  39   0.0000      -0.069971        -1.9040

MULLIKEN ATOMIC CHARGES AND SPIN POPULATIONS
--------------------------------------------
   0 C :   -0.085140    0.088429
   1 C :   -0.079848   -0.060248
   2 C :    0.005043    0.311766
   3 C :   -0.084161   -0.054854
   4 C :   -0.081309    0.092670
   5 C :    0.093168    0.172414
   6 C :   -0.097750    0.009645
   7 C :   -0.088271    0.432575
   8 C :   -0.338648   -0.037964
   9 H :    0.204623    0.029215
  10 H :    0.204564    0.029213
  11 H :    0.182329    0.000197
  12 H :    0.178718   -0.020982
  13 H :    0.153722   -0.001553
  14 H :    0.147992   -0.005410
  15 H :    0.146364    0.001008
  16 C :   -0.314099   -0.022558
  17 H :    0.177376    0.001295
  18 H :    0.201971    0.025207
  19 H :    0.188745    0.013578
  20 H :    0.142376    0.001402
  21 H :    0.142236   -0.005047
Sum of atomic charges         :    1.0000000

LOEWDIN ATOMIC CHARGES AND SPIN POPULATIONS
-------------------------------------------
   0 C :   -0.060977    0.084530
   1 C :   -0.090025   -0.021121
   2 C :    0.060103    0.238985
   3 C :   -0.091855   -0.015697
   4 C :   -0.052054    0.088923
   5 C :    0.007828    0.148341
   6 C :   -0.068852    0.041291
   7 C :    0.012854    0.365237
   8 C :   -0.335507   -0.001084
   9 H :    0.177915    0.025470
  10 H :    0.177872    0.025456
  11 H :    0.152341    0.000162
  12 H :    0.152722   -0.010570
  13 H :    0.158153   -0.001026
  14 H :    0.159390   -0.002908
  15 H :    0.159983    0.000352
  16 C :   -0.324676    0.000925
  17 H :    0.152661    0.001215
  18 H :    0.175882    0.021985
  19 H :    0.164424    0.011842
  20 H :    0.158753    0.000507
  21 H :    0.153065   -0.002815

  Mayer bond orders larger than 0.100000
B(  0-C ,  1-C ) :   1.5488 B(  0-C ,  5-C ) :   1.1915 B(  0-C , 21-H ) :   0.9421
B(  1-C ,  2-C ) :   1.2453 B(  1-C , 20-H ) :   0.9552 B(  2-C ,  3-C ) :   1.2843
B(  2-C , 16-C ) :   1.1081 B(  3-C ,  4-C ) :   1.5032 B(  3-C , 15-H ) :   0.9519
B(  4-C ,  5-C ) :   1.1970 B(  4-C , 14-H ) :   0.9565 B(  5-C ,  6-C ) :   1.3174
B(  6-C ,  7-C ) :   1.5329 B(  6-C , 13-H ) :   0.9274 B(  7-C ,  8-C ) :   1.1381
B(  7-C , 12-H ) :   0.9017 B(  8-C ,  9-H ) :   0.8959 B(  8-C , 10-H ) :   0.8959
B(  8-C , 11-H ) :   0.9428 B( 16-C , 17-H ) :   0.9361 B( 16-C , 18-H ) :   0.8992
B( 16-C , 19-H ) :   0.9180

Dispersion correction           -0.019166183
FINAL SINGLE POINT ENERGY      -387.249245634411

DIPOLE MOMENT
-------------

Method             : SCF
Type of density    : Electron Density
Multiplicity       :   2
Irrep              :   0
Energy             :  -387.2300794514696918 Eh
Relativity type    :
Basis              : AO
                                X                 Y                 Z
Electronic contribution:     -1.868335711       0.808698227       0.062400533
Nuclear contribution   :      2.533197376      -0.996205714      -0.098486582
                        -----------------------------------------
Total Dipole Moment    :      0.664861665      -0.187507488      -0.036086049
                        -----------------------------------------
Magnitude (a.u.)       :      0.691738603
Magnitude (Debye)      :      1.758259797

VIBRATIONAL FREQUENCIES
-----------------------

Scaling factor for frequencies =  1.000000000  (already applied!)

     0:       0.00 cm**-1
     1:       0.00 cm**-1
     2:       0.00 cm**-1
     3:       0.00 cm**-1
     4:       0.00 cm**-1
     5:       0.00 cm**-1
     6:      17.67 cm**-1
     7:      63.32 cm**-1
     8:     123.40 cm**-1
     9:     142.10 cm**-1
    10:     162.72 cm**-1
    11:     191.72 cm**-1
    12:     313.13 cm**-1
    13:     325.86 cm**-1
    14:     344.16 cm**-1
    15:     391.53 cm**-1
    16:     420.23 cm**-1
    17:     513.37 cm**-1
    18:     563.06 cm**-1
    19:     619.56 cm**-1
    20:     715.15 cm**-1
    21:     778.38 cm**-1
    22:     804.63 cm**-1
    23:     826.00 cm**-1
    24:     855.09 cm**-1
    25:     862.30 cm**-1
    26:     952.79 cm**-1
    27:     961.74 cm**-1
    28:    1000.62 cm**-1
    29:    1008.96 cm**-1
    30:    1015.68 cm**-1
    31:    1018.79 cm**-1
    32:    1029.35 cm**-1
    33:    1040.14 cm**-1
    34:    1148.29 cm**-1
    35:    1170.90 cm**-1
    36:    1206.00 cm**-1
    37:    1259.28 cm**-1
    38:    1284.70 cm**-1
    39:    1309.40 cm**-1
    40:    1337.11 cm**-1
    41:    1367.53 cm**-1
    42:    1377.16 cm**-1
    43:    1379.26 cm**-1
    44:    1405.10 cm**-1
    45:    1430.48 cm**-1
    46:    1444.24 cm**-1
    47:    1463.76 cm**-1
    48:    1472.82 cm**-1
    49:    1511.96 cm**-1
    50:    1536.69 cm**-1
    51:    1554.08 cm**-1
    52:    1627.26 cm**-1
    53:    1716.05 cm**-1
    54:    3012.38 cm**-1
    55:    3023.14 cm**-1
    56:    3079.80 cm**-1
    57:    3109.22 cm**-1
    58:    3166.48 cm**-1
    59:    3173.17 cm**-1
    60:    3184.53 cm**-1
    61:    3196.51 cm**-1
    62:    3215.87 cm**-1
    63:    3217.35 cm**-1
    64:    3229.81 cm**-1
    65:    3237.24 cm**-1

IR SPECTRUM
-----------

 Mode   freq       eps      Int      T**2         TX        TY        TZ
       cm**-1   L/(mol*cm) km/mol    a.u.
----------------------------------------------------------------------------
  6:     17.67   0.000373    1.89  0.006594  ( 0.013963 -0.045752  0.065616)
  7:     63.32   0.000234    1.18  0.001154  ( 0.002090 -0.002532 -0.033813)
  8:    123.40   0.000154    0.78  0.000390  (-0.000961  0.001402 -0.019675)
  9:    142.10   0.000025    0.13  0.000056  ( 0.003353  0.006645  0.000569)
 10:    162.72   0.000048    0.24  0.000092  ( 0.000854 -0.000694  0.009537)
 11:    191.72   0.000353    1.78  0.000574  ( 0.000648 -0.001343 -0.023910)
 12:    313.13   0.000038    0.19  0.000038  (-0.001720 -0.000385 -0.005880)
 13:    325.86   0.000048    0.24  0.000046  (-0.006088 -0.002929 -0.000366)
 14:    344.16   0.000198    1.00  0.000179  ( 0.012989 -0.003217 -0.000235)
 15:    391.53   0.000003    0.02  0.000002  ( 0.000360 -0.001343 -0.000658)
 16:    420.23   0.000111    0.56  0.000082  ( 0.008740 -0.002253  0.000869)
 17:    513.37   0.002820   14.25  0.001714  (-0.005350 -0.000690 -0.041053)
 18:    563.06   0.000298    1.51  0.000165  (-0.012365 -0.002664  0.002308)
 19:    619.56   0.000255    1.29  0.000129  (-0.000416 -0.011330 -0.000051)
 20:    715.15   0.000356    1.80  0.000155  ( 0.008793  0.000526 -0.008812)
 21:    778.38   0.000334    1.69  0.000134  ( 0.010908 -0.002139 -0.003194)
 22:    804.63   0.004786   24.19  0.001856  ( 0.003406  0.000731 -0.042944)
 23:    826.00   0.000530    2.68  0.000200  (-0.000671 -0.000545  0.014122)
 24:    855.09   0.006594   33.32  0.002407  (-0.047925  0.010458 -0.000625)
 25:    862.30   0.001675    8.47  0.000606  ( 0.012229 -0.000789 -0.021358)
 26:    952.79   0.006104   30.85  0.001999  (-0.039428  0.021083  0.000075)
 27:    961.74   0.002744   13.87  0.000890  (-0.005005  0.000123  0.029416)
 28:   1000.62   0.005248   26.52  0.001637  (-0.039548 -0.002986 -0.007985)
 29:   1008.96   0.002020   10.21  0.000625  ( 0.011491  0.000683  0.022187)
 30:   1015.68   0.000408    2.06  0.000125  (-0.011191 -0.000145 -0.000493)
 31:   1018.79   0.000156    0.79  0.000048  (-0.003486  0.000226 -0.005956)
 32:   1029.35   0.001980   10.01  0.000600  ( 0.005560  0.000344  0.023859)
 33:   1040.14   0.002891   14.61  0.000867  ( 0.020625  0.001580  0.020966)
 34:   1148.29   0.001310    6.62  0.000356  (-0.011970 -0.014584  0.000002)
 35:   1170.90   0.001145    5.79  0.000305  (-0.013199 -0.011444 -0.000020)
 36:   1206.00   0.011106   56.12  0.002874  ( 0.053598 -0.000574  0.000752)
 37:   1259.28   0.000928    4.69  0.000230  (-0.012628 -0.008270 -0.001489)
 38:   1284.70   0.016148   81.60  0.003922  (-0.061988  0.008838 -0.001327)
 39:   1309.40   0.015599   78.83  0.003718  (-0.060676  0.006001 -0.000075)
 40:   1337.11   0.002659   13.44  0.000621  (-0.012852  0.021342  0.000151)
 41:   1367.53   0.025971  131.25  0.005926  ( 0.075866 -0.013067 -0.000354)
 42:   1377.16   0.020275  102.46  0.004594  ( 0.064682  0.018526  0.008212)
 43:   1379.26   0.000185    0.94  0.000042  (-0.000800 -0.005759 -0.002853)
 44:   1405.10   0.000582    2.94  0.000129  ( 0.004878 -0.003161  0.009768)
 45:   1430.48   0.004096   20.70  0.000894  ( 0.000046  0.000180  0.029891)
 46:   1444.24   0.003798   19.19  0.000821  (-0.008743  0.020022 -0.018528)
 47:   1463.76   0.004928   24.90  0.001051  ( 0.001612 -0.029471 -0.013396)
 48:   1472.82   0.002354   11.90  0.000499  ( 0.017385 -0.011584  0.007897)
 49:   1511.96   0.003722   18.81  0.000768  ( 0.004400  0.027361 -0.000526)
 50:   1536.69   0.007677   38.80  0.001559  ( 0.039477 -0.000661 -0.000218)
 51:   1554.08   0.002213   11.18  0.000444  (-0.005310  0.020401  0.000095)
 52:   1627.26   0.133352  673.90  0.025573  ( 0.159545  0.010893 -0.000184)
 53:   1716.05   0.011166   56.43  0.002031  (-0.044702 -0.005675 -0.000407)
 54:   3012.38   0.014359   72.57  0.001488  (-0.038392  0.003689 -0.000187)
 55:   3023.14   0.009229   46.64  0.000953  ( 0.030215  0.005011  0.003826)
 56:   3079.80   0.001052    5.32  0.000107  ( 0.000020  0.000030  0.010324)
 57:   3109.22   0.000784    3.96  0.000079  (-0.006634 -0.000046 -0.005886)
 58:   3166.48   0.003038   15.36  0.000299  (-0.017304  0.000159  0.000014)
 59:   3173.17   0.001908    9.64  0.000188  (-0.013654 -0.001082 -0.000294)
 60:   3184.53   0.000014    0.07  0.000001  (-0.000849  0.000834 -0.000014)
 61:   3196.51   0.001148    5.80  0.000112  (-0.010584 -0.000100  0.000025)
 62:   3215.87   0.000039    0.20  0.000004  (-0.001465  0.001278 -0.000035)
 63:   3217.35   0.000033    0.17  0.000003  ( 0.000127 -0.001791  0.000046)
 64:   3229.81   0.000200    1.01  0.000019  ( 0.000260  0.004387 -0.000004)
 65:   3237.24   0.000081    0.41  0.000008  ( 0.001691 -0.002235  0.000022)

--------------------------
THERMOCHEMISTRY AT 298.15K
--------------------------

Temperature         ...   298.15 K
Pressure            ...     1.00 atm
Total Mass          ...   132.21 AMU
Quasi RRHO          ...     True
Cut-Off Frequency   ...     1.00 cm^-1

Throughout the following assumptions are being made:
  (1) The electronic state is orbitally nondegenerate
      but the spin degeneracy is treated
  (2) There are no thermally accessible electronically excited states
  (3) Hindered rotations indicated by low frequency modes are not
      treated as such but are treated as vibrations and this may
      cause some error
  (4) All equations used are the standard statistical mechanics
      equations for an ideal gas
  (5) All vibrations are strictly harmonic

freq.      17.67  E(vib)   ...       0.57
freq.      63.32  E(vib)   ...       0.51
freq.     123.40  E(vib)   ...       0.43
freq.     142.10  E(vib)   ...       0.41
freq.     162.72  E(vib)   ...       0.39
freq.     191.72  E(vib)   ...       0.36
freq.     313.13  E(vib)   ...       0.25
freq.     325.86  E(vib)   ...       0.24
freq.     344.16  E(vib)   ...       0.23
freq.     391.53  E(vib)   ...       0.20
freq.     420.23  E(vib)   ...       0.18
freq.     513.37  E(vib)   ...       0.13
freq.     563.06  E(vib)   ...       0.11
freq.     619.56  E(vib)   ...       0.09
freq.     715.15  E(vib)   ...       0.07
freq.     778.38  E(vib)   ...       0.05
freq.     804.63  E(vib)   ...       0.05
freq.     826.00  E(vib)   ...       0.04
freq.     855.09  E(vib)   ...       0.04
freq.     862.30  E(vib)   ...       0.04
freq.     952.79  E(vib)   ...       0.03
freq.     961.74  E(vib)   ...       0.03
freq.    1000.62  E(vib)   ...       0.02
freq.    1008.96  E(vib)   ...       0.02
freq.    1015.68  E(vib)   ...       0.02
freq.    1018.79  E(vib)   ...       0.02
freq.    1029.35  E(vib)   ...       0.02
freq.    1040.14  E(vib)   ...       0.02
freq.    1148.29  E(vib)   ...       0.01
freq.    1170.90  E(vib)   ...       0.01
freq.    1206.00  E(vib)   ...       0.01
freq.    1259.28  E(vib)   ...       0.01
freq.    1284.70  E(vib)   ...       0.01
freq.    1309.40  E(vib)   ...       0.01
freq.    1337.11  E(vib)   ...       0.01
freq.    1367.53  E(vib)   ...       0.01
freq.    1377.16  E(vib)   ...       0.01
freq.    1379.26  E(vib)   ...       0.01
freq.    1405.10  E(vib)   ...       0.00
freq.    1430.48  E(vib)   ...       0.00
freq.    1444.24  E(vib)   ...       0.00
freq.    1463.76  E(vib)   ...       0.00
freq.    1472.82  E(vib)   ...       0.00
freq.    1511.96  E(vib)   ...       0.00
freq.    1536.69  E(vib)   ...       0.00
freq.    1554.08  E(vib)   ...       0.00
freq.    1627.26  E(vib)   ...       0.00
freq.    1716.05  E(vib)   ...       0.00
freq.    3012.38  E(vib)   ...       0.00
freq.    3023.14  E(vib)   ...       0.00
freq.    3079.80  E(vib)   ...       0.00
freq.    3109.22  E(vib)   ...       0.00
freq.    3166.48  E(vib)   ...       0.00
freq.    3173.17  E(vib)   ...       0.00
freq.    3184.53  E(vib)   ...       0.00
freq.    3196.51  E(vib)   ...       0.00
freq.    3215.87  E(vib)   ...       0.00
freq.    3217.35  E(vib)   ...       0.00
freq.    3229.81  E(vib)   ...       0.00
freq.    3237.24  E(vib)   ...       0.00

------------
INNER ENERGY
------------

The inner energy is: U= E(el) + E(ZPE) + E(vib) + E(rot) + E(trans)
    E(el)   - is the total energy from the electronic structure calculation
              = E(kin-el) + E(nuc-el) + E(el-el) + E(nuc-nuc)
    E(ZPE)  - the the zero temperature vibrational energy from the frequency calculation
    E(vib)  - the the finite temperature correction to E(ZPE) due to population
              of excited vibrational states
    E(rot)  - is the rotational thermal energy
    E(trans)- is the translational thermal energy

Summary of contributions to the inner energy U:
Electronic energy                ...   -387.24924563 Eh
Zero point energy                ...      0.18888067 Eh     118.52 kcal/mol
Thermal vibrational correction   ...      0.00750285 Eh       4.71 kcal/mol
Thermal rotational correction    ...      0.00141627 Eh       0.89 kcal/mol
Thermal translational correction ...      0.00141627 Eh       0.89 kcal/mol
-----------------------------------------------------------------------
Total thermal energy                   -387.05002957 Eh

Summary of corrections to the electronic energy:
(perhaps to be used in another calculation)
Total thermal correction                  0.01033539 Eh       6.49 kcal/mol
Non-thermal (ZPE) correction              0.18888067 Eh     118.52 kcal/mol
-----------------------------------------------------------------------
Total correction                          0.19921607 Eh     125.01 kcal/mol

--------
ENTHALPY
--------

The enthalpy is H = U + kB*T
                kB is Boltzmann's constant
Total thermal energy              ...   -387.05002957 Eh
Thermal Enthalpy correction       ...      0.00094421 Eh       0.59 kcal/mol
-----------------------------------------------------------------------
Total Enthalpy                    ...   -387.04908536 Eh

Note: Only C1 symmetry has been detected, increase convergence thresholds
      if your molecule has a higher symmetry. Symmetry factor of 1.0 is
      used for the rotational entropy correction.

Note: Rotational entropy computed according to Herzberg
Infrared and Raman Spectra, Chapter V,1, Van Nostrand Reinhold, 1945
Point Group:  C1, Symmetry Number:   1
Rotational constants in cm-1:     0.153944     0.020635     0.018320

Vibrational entropy computed according to the QRRHO of S. Grimme
Chem.Eur.J. 2012 18 9955 using a reference frequency of 100.0 cm-1

-------
ENTROPY
-------

The entropy contributions are T*S = T*(S(el)+S(vib)+S(rot)+S(trans))
     S(el)   - electronic entropy
     S(vib)  - vibrational entropy
     S(rot)  - rotational entropy
     S(trans)- translational entropy
The entropies will be listed as multiplied by the temperature to get
units of energy

Electronic entropy                ...      0.00065446 Eh      0.41 kcal/mol
Vibrational entropy               ...      0.01334002 Eh      8.37 kcal/mol
Rotational entropy                ...      0.01411451 Eh      8.86 kcal/mol
Translational entropy             ...      0.01926665 Eh     12.09 kcal/mol
-----------------------------------------------------------------------
Final entropy term                ...      0.04737564 Eh     29.73 kcal/mol

In case the symmetry of your molecule has not been determined correctly
or in case you have a reason to use a different symmetry number we print
out the resulting rotational entropy values for sn=1,12:

                             ****ORCA TERMINATED NORMALLY****
TOTAL RUN TIME: 0 days 0 hours 10 minutes 9 seconds 653 msec
