                         Program Version 6.0.0  -   RELEASE  -
|  1> !B3LYP aug-cc-pVTZ d3 TightSCF SlowConv RIJCOSX defgrid2
|  2>
|  3> %pal
|  4> nprocs 4
|  5> end
|  6>
|  7> %scf
|  8> MaxIter 1500
|  9> end
| 10>
| 11> %maxcore 3000
| 12>
| 13> !CPCM
| 14> %cpcm smd true
| 15> SMDsolvent "MeCN"
| 16> surfacetype gepol_ses
| 17> rsolv 2.19
| 18> end
| 19>
| 20> * xyz -1 2
| 21> C           1.11485619102810      1.23346524770146     -0.04246013453408
| 22> C          -0.25819562047262      1.22933924261312     -0.01684176169193
| 23> C          -0.98793269131212      0.01064750984396      0.05369590147558
| 24> C          -0.25058397748058     -1.19914135084411      0.08408385170358
| 25> C           1.12686728083616     -1.19737445120311      0.05863833511697
| 26> C           1.88049207762006      0.02114016337723     -0.00784905676085
| 27> C           3.31422748057564      0.08999258300288     -0.03795740062188
| 28> O           3.95234377580661      1.16292200275802     -0.09390298789975
| 29> C           4.09411941134499     -1.22295178548747      0.00021080612150
| 30> H           3.89267162008921     -1.80863657997959      0.91865553015964
| 31> H           3.85410305658271     -1.88234976738815     -0.85682984004010
| 32> H           5.16792059393726     -0.97680478465363     -0.03317483614463
| 33> H           1.65189479450597     -2.15740095025540      0.09479003543363
| 34> H          -0.78941773964287     -2.15112643070549      0.13915861506264
| 35> C          -2.45525752462587      0.00050473870139     -0.00850205506014
| 36> F          -2.97297788080586     -0.04926536736079     -1.27295539154986
| 37> F          -3.00617659842767     -1.06434755608644      0.61734313114911
| 38> F          -3.01722345304082      1.10181905294511      0.53770926863957
| 39> H          -0.80650005596301      2.17740366385070     -0.04085176525521
| 40> H           1.67725065944470      2.17036951917034     -0.08706394530380
| 41> *
| 42>
| 43>                          ****END OF INPUT****

CARTESIAN COORDINATES (ANGSTROEM)
---------------------------------
  C      1.114856    1.233465   -0.042460
  C     -0.258196    1.229339   -0.016842
  C     -0.987933    0.010648    0.053696
  C     -0.250584   -1.199141    0.084084
  C      1.126867   -1.197374    0.058638
  C      1.880492    0.021140   -0.007849
  C      3.314227    0.089993   -0.037957
  O      3.952344    1.162922   -0.093903
  C      4.094119   -1.222952    0.000211
  H      3.892672   -1.808637    0.918656
  H      3.854103   -1.882350   -0.856830
  H      5.167921   -0.976805   -0.033175
  H      1.651895   -2.157401    0.094790
  H     -0.789418   -2.151126    0.139159
  C     -2.455258    0.000505   -0.008502
  F     -2.972978   -0.049265   -1.272955
  F     -3.006177   -1.064348    0.617343
  F     -3.017223    1.101819    0.537709
  H     -0.806500    2.177404   -0.040852
  H      1.677251    2.170370   -0.087064

 Total Charge           Charge          ....   -1
 Multiplicity           Mult            ....    2
 Number of Electrons    NEL             ....   97
 Basis Dimension        Dim             ....  759

ORBITAL ENERGIES
----------------
                 SPIN UP ORBITALS
  NO   OCC          E(Eh)            E(eV)
   0   1.0000     -24.704806      -672.2519
   1   1.0000     -24.704677      -672.2484
   2   1.0000     -24.697098      -672.0422
   3   1.0000     -19.059855      -518.6450
   4   1.0000     -10.406500      -283.1753
   5   1.0000     -10.200386      -277.5666
   6   1.0000     -10.164406      -276.5875
   7   1.0000     -10.164303      -276.5848
   8   1.0000     -10.162957      -276.5481
   9   1.0000     -10.156763      -276.3796
  10   1.0000     -10.151923      -276.2479
  11   1.0000     -10.148236      -276.1475
  12   1.0000     -10.145278      -276.0670
  13   1.0000      -1.301853       -35.4252
  14   1.0000      -1.216817       -33.1113
  15   1.0000      -1.207505       -32.8579
  16   1.0000      -0.979645       -26.6575
  17   1.0000      -0.841429       -22.8964
  18   1.0000      -0.769290       -20.9335
  19   1.0000      -0.732082       -19.9210
  20   1.0000      -0.712035       -19.3755
  21   1.0000      -0.679982       -18.5033
  22   1.0000      -0.624520       -16.9941
  23   1.0000      -0.597230       -16.2515
  24   1.0000      -0.580158       -15.7869
  25   1.0000      -0.566744       -15.4219
  26   1.0000      -0.548429       -14.9235
  27   1.0000      -0.526041       -14.3143
  28   1.0000      -0.465747       -12.6736
  29   1.0000      -0.463700       -12.6179
  30   1.0000      -0.453995       -12.3538
  31   1.0000      -0.441970       -12.0266
  32   1.0000      -0.427726       -11.6390
  33   1.0000      -0.421133       -11.4596
  34   1.0000      -0.416841       -11.3428
  35   1.0000      -0.409894       -11.1538
  36   1.0000      -0.406379       -11.0581
  37   1.0000      -0.402789       -10.9604
  38   1.0000      -0.398883       -10.8542
  39   1.0000      -0.375621       -10.2212
  40   1.0000      -0.362328        -9.8594
  41   1.0000      -0.357092        -9.7170
  42   1.0000      -0.343626        -9.3505
  43   1.0000      -0.325955        -8.8697
  44   1.0000      -0.313000        -8.5172
  45   1.0000      -0.252120        -6.8605
  46   1.0000      -0.247342        -6.7305
  47   1.0000      -0.217217        -5.9108
  48   1.0000      -0.106083        -2.8867
  49   0.0000      -0.000868        -0.0236
  50   0.0000       0.001448         0.0394
  51   0.0000       0.012036         0.3275
  52   0.0000       0.016671         0.4536
  53   0.0000       0.025241         0.6869

                 SPIN DOWN ORBITALS
  NO   OCC          E(Eh)            E(eV)
   0   1.0000     -24.704578      -672.2458
   1   1.0000     -24.704458      -672.2425
   2   1.0000     -24.696382      -672.0227
   3   1.0000     -19.054635      -518.5030
   4   1.0000     -10.406434      -283.1735
   5   1.0000     -10.197553      -277.4895
   6   1.0000     -10.164738      -276.5966
   7   1.0000     -10.164599      -276.5928
   8   1.0000     -10.158868      -276.4368
   9   1.0000     -10.155302      -276.3398
  10   1.0000     -10.150375      -276.2058
  11   1.0000     -10.146050      -276.0881
  12   1.0000     -10.145518      -276.0736
  13   1.0000      -1.301068       -35.4039
  14   1.0000      -1.216355       -33.0987
  15   1.0000      -1.206147       -32.8209
  16   1.0000      -0.969956       -26.3938
  17   1.0000      -0.836688       -22.7674
  18   1.0000      -0.762372       -20.7452
  19   1.0000      -0.728683       -19.8285
  20   1.0000      -0.707989       -19.2654
  21   1.0000      -0.678581       -18.4651
  22   1.0000      -0.619089       -16.8463
  23   1.0000      -0.596218       -16.2239
  24   1.0000      -0.577806       -15.7229
  25   1.0000      -0.566142       -15.4055
  26   1.0000      -0.544569       -14.8185
  27   1.0000      -0.522269       -14.2117
  28   1.0000      -0.464799       -12.6478
  29   1.0000      -0.462424       -12.5832
  30   1.0000      -0.451100       -12.2751
  31   1.0000      -0.440108       -11.9759
  32   1.0000      -0.424962       -11.5638
  33   1.0000      -0.419589       -11.4176
  34   1.0000      -0.415788       -11.3142
  35   1.0000      -0.405136       -11.0243
  36   1.0000      -0.402050       -10.9403
  37   1.0000      -0.400223       -10.8906
  38   1.0000      -0.398090       -10.8326
  39   1.0000      -0.371788       -10.1169
  40   1.0000      -0.360626        -9.8131
  41   1.0000      -0.347564        -9.4577
  42   1.0000      -0.341042        -9.2802
  43   1.0000      -0.311719        -8.4823
  44   1.0000      -0.304681        -8.2908
  45   1.0000      -0.241824        -6.5804
  46   1.0000      -0.224042        -6.0965
  47   1.0000      -0.212439        -5.7808
  48   0.0000      -0.039276        -1.0688
  49   0.0000      -0.000871        -0.0237
  50   0.0000       0.004675         0.1272
  51   0.0000       0.011919         0.3243
  52   0.0000       0.016455         0.4478

MULLIKEN ATOMIC CHARGES AND SPIN POPULATIONS
--------------------------------------------
   0 C :   -1.188337    0.134411
   1 C :   -0.771987   -0.016882
   2 C :    0.783231    0.286961
   3 C :   -0.926518   -0.016922
   4 C :   -0.619985    0.139949
   5 C :    1.765896    0.160244
   6 C :    0.533910    0.147479
   7 O :   -1.059731    0.199017
   8 C :   -0.641304   -0.016307
   9 H :    0.227209    0.008600
  10 H :    0.224702    0.008381
  11 H :    0.153229   -0.000406
  12 H :   -0.059105   -0.018842
  13 H :    0.306555    0.000224
  14 C :    1.184077   -0.011245
  15 F :   -0.428954    0.011557
  16 F :   -0.423307    0.002395
  17 F :   -0.424001    0.002415
  18 H :    0.326018   -0.002276
  19 H :    0.038401   -0.018754
Sum of atomic charges         :   -1.0000000

LOEWDIN ATOMIC CHARGES AND SPIN POPULATIONS
-------------------------------------------
   0 C :    0.150075    0.077142
   1 C :    0.148054    0.043838
   2 C :   -0.225055    0.137799
   3 C :    0.149546    0.047118
   4 C :    0.163963    0.078542
   5 C :   -0.191696    0.132572
   6 C :   -0.655276    0.154665
   7 O :    0.364228    0.179609
   8 C :    0.502460    0.026682
   9 H :   -0.172953    0.006603
  10 H :   -0.173083    0.006589
  11 H :   -0.198150   -0.000583
  12 H :   -0.196294    0.013799
  13 H :   -0.187073    0.002186
  14 C :   -1.598772    0.046973
  15 F :    0.481991    0.017477
  16 F :    0.516681    0.006706
  17 F :    0.517102    0.006946
  18 H :   -0.188080    0.001304
  19 H :   -0.207668    0.014031

  Mayer bond orders larger than 0.100000
B(  0-C ,  1-C ) :   1.4878 B(  0-C ,  4-C ) :  -0.5178 B(  0-C ,  6-C ) :   0.3443
B(  0-C , 12-H ) :   0.1052 B(  0-C , 19-H ) :   1.3351 B(  1-C ,  2-C ) :   0.6168
B(  1-C , 18-H ) :   0.7939 B(  2-C ,  3-C ) :   0.5373 B(  2-C , 14-C ) :   1.1241
B(  2-C , 17-F ) :   0.1086 B(  3-C ,  4-C ) :   1.1495 B(  3-C ,  5-C ) :   0.1178
B(  3-C , 13-H ) :   0.8145 B(  4-C ,  5-C ) :   0.1446 B(  4-C ,  6-C ) :   0.2547
B(  4-C , 12-H ) :   1.6120 B(  5-C ,  6-C ) :   0.3298 B(  5-C ,  7-O ) :   0.2678
B(  5-C , 12-H ) :  -0.3062 B(  5-C , 19-H ) :  -0.1613 B(  6-C ,  7-O ) :   0.6030
B(  6-C ,  8-C ) :   0.9412 B(  7-O , 19-H ) :   0.1347 B(  8-C ,  9-H ) :   0.9738
B(  8-C , 10-H ) :   0.9732 B(  8-C , 11-H ) :   0.9830 B( 12-H , 19-H ) :   0.1105
B( 14-C , 15-F ) :   0.6342 B( 14-C , 16-F ) :   0.6516 B( 14-C , 17-F ) :   0.6392

Dispersion correction           -0.036395671
FINAL SINGLE POINT ENERGY      -722.000620510299

DIPOLE MOMENT
-------------

Method             : SCF
Type of density    : Electron Density
Multiplicity       :   2
Irrep              :   0
Energy             :  -721.9642248389908445 Eh
Relativity type    :
Basis              : AO
                                X                 Y                 Z
Electronic contribution:    -24.365421990       2.917864084      -0.162982559
Nuclear contribution   :     22.174393419      -4.340377650       0.286944378
                        -----------------------------------------
Total Dipole Moment    :     -2.191028572      -1.422513567       0.123961819
                        -----------------------------------------
Magnitude (a.u.)       :      2.615247136
Magnitude (Debye)      :      6.647429940

Rotational constants in cm-1:             0.074129             0.012365             0.011236
Rotational constants in MHz :          2222.330337           370.696975           336.858086

                             ****ORCA TERMINATED NORMALLY****
TOTAL RUN TIME: 0 days 0 hours 8 minutes 33 seconds 753 msec
