                         Program Version 6.0.0  -   RELEASE  -
|  1> !PBE0 def2-SV(p) Opt Freq d3 TightSCF SlowConv RIJCOSX defgrid2
|  2>
|  3> %pal
|  4> nprocs 15
|  5> end
|  6>
|  7> %scf
|  8> MaxIter 1500
|  9> end
| 10>
| 11> %maxcore 3500
| 12>
| 13>
| 14>
| 15> * xyz -1 2
| 16> C        0.000000000      0.000000000      0.000000000
| 17> C        0.000000000      1.373319056      0.090541189
| 18> C        0.000000000      2.005801373      1.358202556
| 19> C        0.000000000      1.252280933      2.509901250
| 20> C        0.000000000     -0.167564122      2.452067234
| 21> C        0.000000000     -0.807631659      1.169203086
| 22> C        0.000000000     -2.227476714      1.111369070
| 23> C        0.000000000     -2.980997154      2.263067764
| 24> C        0.000000000     -2.348514836      3.530729131
| 25> C        0.000000000     -0.975195780      3.621270320
| 26> H        0.000000000      1.978586921     -0.811248289
| 27> H        0.000000000     -0.487597890      4.592806506
| 28> H        0.000000000     -2.953782701      4.432518609
| 29> H        0.000000000     -4.065491075      2.204361841
| 30> H        0.000000000     -2.710489610      0.137545264
| 31> C        0.000000000      3.543550002      1.441444104
| 32> H       -1.020692000      3.941505213      1.471906292
| 33> H        0.518060000      3.894447577      2.341217560
| 34> H        0.502632000      3.990007252      0.575912090
| 35> O        0.000000000      1.892133153      3.799935799
| 36> O        0.000000000     -0.645926009     -1.287004115
| 37> *
| 38>
| 39>                          ****END OF INPUT****
 Total Charge           Charge          ....   -1
 Multiplicity           Mult            ....    2
 Number of Electrons    NEL             ....   91
Dispersion correction           -0.022725397
FINAL SINGLE POINT ENERGY      -573.368684963318
Dispersion correction             ... done (  0.1 sec)
Dispersion correction           -0.022819315
FINAL SINGLE POINT ENERGY      -573.413260557759
Dispersion correction             ... done (  0.1 sec)
Dispersion correction           -0.022871210
FINAL SINGLE POINT ENERGY      -573.428623744297
Dispersion correction             ... done (  0.1 sec)
FINAL SINGLE POINT ENERGY      -573.431409167259
FINAL SINGLE POINT ENERGY      -573.431967496966
FINAL SINGLE POINT ENERGY      -573.432052184850
FINAL SINGLE POINT ENERGY      -573.432181414649
FINAL SINGLE POINT ENERGY      -573.432299175993
FINAL SINGLE POINT ENERGY      -573.432401562930
FINAL SINGLE POINT ENERGY      -573.432450309563
FINAL SINGLE POINT ENERGY      -573.432462717949
Dispersion correction             ... done (  0.1 sec)
Dispersion correction           -0.022824652
FINAL SINGLE POINT ENERGY      -573.432465224666
Dispersion correction             ... done (  0.1 sec)
Dispersion correction           -0.022824587
FINAL SINGLE POINT ENERGY      -573.432465981917
Dispersion correction             ... done (  0.1 sec)
                    ***********************HURRAY********************

CARTESIAN COORDINATES (ANGSTROEM)
---------------------------------
  C      0.056768   -0.041264   -0.073795
  C      0.046761    1.386400    0.099486
  C      0.007323    2.026504    1.324363
  C     -0.028112    1.287560    2.567640
  C     -0.019504   -0.176715    2.442500
  C      0.021289   -0.817376    1.177943
  C      0.027663   -2.222749    1.120357
  C     -0.005258   -2.985098    2.275638
  C     -0.045966   -2.349346    3.532992
  C     -0.052697   -0.967188    3.607279
  H      0.073080    1.973544   -0.826919
  H     -0.083880   -0.436276    4.563483
  H     -0.072275   -2.950601    4.449371
  H      0.000097   -4.079697    2.215449
  H      0.059658   -2.674231    0.124155
  C     -0.001356    3.520125    1.442052
  H     -0.899479    3.867680    1.985952
  H      0.860290    3.873946    2.038441
  H      0.026739    4.004914    0.450474
  O     -0.063837    1.857613    3.682396
  O      0.092694   -0.596780   -1.193510

 Multiplicity           Mult            ....    2
 Number of Electrons    NEL             ....   91
 Basis Dimension        Dim             ....  198

ORBITAL ENERGIES
----------------
                 SPIN UP ORBITALS
  NO   OCC          E(Eh)            E(eV)
   0   1.0000     -19.011205      -517.3212
   1   1.0000     -19.008351      -517.2435
   2   1.0000     -10.128362      -275.6067
   3   1.0000     -10.127836      -275.5924
   4   1.0000     -10.104163      -274.9483
   5   1.0000     -10.103731      -274.9365
   6   1.0000     -10.095046      -274.7002
   7   1.0000     -10.094904      -274.6963
   8   1.0000     -10.091332      -274.5991
   9   1.0000     -10.089525      -274.5499
  10   1.0000     -10.088766      -274.5293
  11   1.0000     -10.087525      -274.4955
  12   1.0000     -10.073995      -274.1274
  13   1.0000      -0.864635       -23.5279
  14   1.0000      -0.860735       -23.4218
  15   1.0000      -0.735765       -20.0212
  16   1.0000      -0.684312       -18.6211
  17   1.0000      -0.631737       -17.1904
  18   1.0000      -0.625478       -17.0201
  19   1.0000      -0.574885       -15.6434
  20   1.0000      -0.530248       -14.4288
  21   1.0000      -0.489145       -13.3103
  22   1.0000      -0.468459       -12.7474
  23   1.0000      -0.428012       -11.6468
  24   1.0000      -0.383567       -10.4374
  25   1.0000      -0.368371       -10.0239
  26   1.0000      -0.336655        -9.1608
  27   1.0000      -0.325784        -8.8650
  28   1.0000      -0.303536        -8.2596
  29   1.0000      -0.299101        -8.1389
  30   1.0000      -0.291180        -7.9234
  31   1.0000      -0.276945        -7.5361
  32   1.0000      -0.271691        -7.3931
  33   1.0000      -0.261235        -7.1086
  34   1.0000      -0.257617        -7.0101
  35   1.0000      -0.245470        -6.6796
  36   1.0000      -0.238460        -6.4888
  37   1.0000      -0.222744        -6.0612
  38   1.0000      -0.218834        -5.9548
  39   1.0000      -0.207376        -5.6430
  40   1.0000      -0.137419        -3.7394
  41   1.0000      -0.129002        -3.5103
  42   1.0000      -0.118056        -3.2125
  43   1.0000      -0.100952        -2.7470
  44   1.0000      -0.091721        -2.4959
  45   1.0000      -0.008059        -0.2193
  46   0.0000       0.117315         3.1923
  47   0.0000       0.131354         3.5743
  48   0.0000       0.198044         5.3891
  49   0.0000       0.211855         5.7649
  50   0.0000       0.212499         5.7824

                 SPIN DOWN ORBITALS
  NO   OCC          E(Eh)            E(eV)
   0   1.0000     -19.003812      -517.1200
   1   1.0000     -19.000850      -517.0394
   2   1.0000     -10.127573      -275.5853
   3   1.0000     -10.126628      -275.5595
   4   1.0000     -10.103782      -274.9379
   5   1.0000     -10.103217      -274.9225
   6   1.0000     -10.095191      -274.7041
   7   1.0000     -10.095061      -274.7006
   8   1.0000     -10.091502      -274.6037
   9   1.0000     -10.088849      -274.5315
  10   1.0000     -10.087893      -274.5055
  11   1.0000     -10.085822      -274.4492
  12   1.0000     -10.072395      -274.0838
  13   1.0000      -0.852272       -23.1915
  14   1.0000      -0.847956       -23.0740
  15   1.0000      -0.733683       -19.9645
  16   1.0000      -0.678892       -18.4736
  17   1.0000      -0.629522       -17.1302
  18   1.0000      -0.623808       -16.9747
  19   1.0000      -0.571325       -15.5465
  20   1.0000      -0.522338       -14.2135
  21   1.0000      -0.487258       -13.2590
  22   1.0000      -0.465392       -12.6640
  23   1.0000      -0.425831       -11.5875
  24   1.0000      -0.381536       -10.3821
  25   1.0000      -0.365726        -9.9519
  26   1.0000      -0.334070        -9.0905
  27   1.0000      -0.324302        -8.8247
  28   1.0000      -0.298816        -8.1312
  29   1.0000      -0.295876        -8.0512
  30   1.0000      -0.288527        -7.8512
  31   1.0000      -0.273142        -7.4326
  32   1.0000      -0.263192        -7.1618
  33   1.0000      -0.259350        -7.0573
  34   1.0000      -0.252480        -6.8703
  35   1.0000      -0.243425        -6.6239
  36   1.0000      -0.217108        -5.9078
  37   1.0000      -0.212638        -5.7862
  38   1.0000      -0.206465        -5.6182
  39   1.0000      -0.205017        -5.5788
  40   1.0000      -0.121736        -3.3126
  41   1.0000      -0.112109        -3.0506
  42   1.0000      -0.099468        -2.7067
  43   1.0000      -0.094198        -2.5632
  44   1.0000      -0.085044        -2.3142
  45   0.0000       0.074814         2.0358
  46   0.0000       0.124618         3.3910
  47   0.0000       0.146678         3.9913
  48   0.0000       0.198313         5.3964
  49   0.0000       0.212369         5.7789

MULLIKEN ATOMIC CHARGES AND SPIN POPULATIONS
--------------------------------------------
   0 C :    0.201308    0.052384
   1 C :   -0.299705    0.116052
   2 C :   -0.059286    0.105977
   3 C :    0.123425    0.079222
   4 C :   -0.022421    0.044211
   5 C :   -0.061348    0.062993
   6 C :   -0.147899   -0.016869
   7 C :   -0.092489    0.037752
   8 C :   -0.092660    0.022571
   9 C :   -0.148566   -0.002556
  10 H :    0.023355   -0.008027
  11 H :    0.064164   -0.001142
  12 H :    0.050130   -0.001685
  13 H :    0.050192   -0.002466
  14 H :    0.062813   -0.000531
  15 C :   -0.270357   -0.014401
  16 H :    0.111358    0.005122
  17 H :    0.111282    0.005128
  18 H :    0.085764   -0.000160
  19 O :   -0.341878    0.256519
  20 O :   -0.347184    0.259903
Sum of atomic charges         :   -1.0000000

LOEWDIN ATOMIC CHARGES AND SPIN POPULATIONS
-------------------------------------------
   0 C :   -0.008933    0.066591
   1 C :   -0.188296    0.100924
   2 C :   -0.104810    0.099797
   3 C :   -0.004400    0.086865
   4 C :   -0.065277    0.044232
   5 C :   -0.066628    0.053030
   6 C :   -0.116684   -0.007712
   7 C :   -0.164279    0.032065
   8 C :   -0.162509    0.021655
   9 C :   -0.117607    0.001570
  10 H :    0.106792   -0.003646
  11 H :    0.122849   -0.000573
  12 H :    0.105680   -0.000791
  13 H :    0.105668   -0.001152
  14 H :    0.122900   -0.000276
  15 C :   -0.323868   -0.004020
  16 H :    0.119808    0.004541
  17 H :    0.119776    0.004547
  18 H :    0.104213   -0.000081
  19 O :   -0.292473    0.249869
  20 O :   -0.291923    0.252565

  Mayer bond orders larger than 0.100000
B(  0-C ,  1-C ) :   1.1790 B(  0-C ,  5-C ) :   1.0034 B(  0-C , 20-O ) :   1.8960
B(  1-C ,  2-C ) :   1.4573 B(  1-C , 10-H ) :   0.9572 B(  2-C ,  3-C ) :   1.1499
B(  2-C , 15-C ) :   1.0888 B(  3-C ,  4-C ) :   1.0345 B(  3-C , 19-O ) :   1.9552
B(  4-C ,  5-C ) :   1.2886 B(  4-C ,  9-C ) :   1.3618 B(  5-C ,  6-C ) :   1.3748
B(  6-C ,  7-C ) :   1.4076 B(  6-C , 14-H ) :   0.9483 B(  7-C ,  8-C ) :   1.2876
B(  7-C , 13-H ) :   0.9675 B(  8-C ,  9-C ) :   1.4110 B(  8-C , 12-H ) :   0.9674
B(  9-C , 11-H ) :   0.9506 B( 15-C , 16-H ) :   0.9382 B( 15-C , 17-H ) :   0.9383
B( 15-C , 18-H ) :   0.9514

Dispersion correction           -0.022824572
FINAL SINGLE POINT ENERGY      -573.432466081590

DIPOLE MOMENT
-------------

Method             : SCF
Type of density    : Electron Density
Multiplicity       :   2
Irrep              :   0
Energy             :  -573.4096415099747901 Eh
Relativity type    :
Basis              : AO
                                X                 Y                 Z
Electronic contribution:      0.040009862      -3.522792664      -0.898665333
Nuclear contribution   :     -0.055391570       3.039875839       1.447342045
                        -----------------------------------------
Total Dipole Moment    :     -0.015381708      -0.482916825       0.548676712
                        -----------------------------------------
Magnitude (a.u.)       :      0.731089181
Magnitude (Debye)      :      1.858281019

VIBRATIONAL FREQUENCIES
-----------------------

Scaling factor for frequencies =  1.000000000  (already applied!)

     0:       0.00 cm**-1
     1:       0.00 cm**-1
     2:       0.00 cm**-1
     3:       0.00 cm**-1
     4:       0.00 cm**-1
     5:       0.00 cm**-1
     6:      86.98 cm**-1
     7:     113.21 cm**-1
     8:     144.33 cm**-1
     9:     175.24 cm**-1
    10:     240.79 cm**-1
    11:     254.34 cm**-1
    12:     295.33 cm**-1
    13:     373.95 cm**-1
    14:     386.26 cm**-1
    15:     422.80 cm**-1
    16:     453.92 cm**-1
    17:     478.48 cm**-1
    18:     508.59 cm**-1
    19:     536.35 cm**-1
    20:     654.59 cm**-1
    21:     665.26 cm**-1
    22:     678.65 cm**-1
    23:     712.82 cm**-1
    24:     737.12 cm**-1
    25:     787.90 cm**-1
    26:     823.49 cm**-1
    27:     836.70 cm**-1
    28:     895.53 cm**-1
    29:     909.13 cm**-1
    30:     978.15 cm**-1
    31:     998.55 cm**-1
    32:    1013.51 cm**-1
    33:    1020.36 cm**-1
    34:    1049.06 cm**-1
    35:    1053.48 cm**-1
    36:    1101.88 cm**-1
    37:    1137.03 cm**-1
    38:    1156.09 cm**-1
    39:    1200.71 cm**-1
    40:    1243.16 cm**-1
    41:    1267.94 cm**-1
    42:    1303.75 cm**-1
    43:    1391.57 cm**-1
    44:    1425.81 cm**-1
    45:    1432.24 cm**-1
    46:    1450.89 cm**-1
    47:    1464.66 cm**-1
    48:    1496.85 cm**-1
    49:    1511.33 cm**-1
    50:    1589.05 cm**-1
    51:    1610.64 cm**-1
    52:    1618.96 cm**-1
    53:    1686.04 cm**-1
    54:    1704.87 cm**-1
    55:    3015.72 cm**-1
    56:    3088.91 cm**-1
    57:    3117.73 cm**-1
    58:    3158.32 cm**-1
    59:    3160.34 cm**-1
    60:    3178.19 cm**-1
    61:    3206.43 cm**-1
    62:    3209.08 cm**-1

IR SPECTRUM
-----------

 Mode   freq       eps      Int      T**2         TX        TY        TZ
       cm**-1   L/(mol*cm) km/mol    a.u.
----------------------------------------------------------------------------
  6:     86.98   0.001176    5.94  0.004218  ( 0.064913  0.000205  0.001992)
  7:    113.21   0.000027    0.13  0.000073  ( 0.008558  0.000017  0.000200)
  8:    144.33   0.000049    0.25  0.000105  ( 0.010237  0.000070  0.000270)
  9:    175.24   0.000307    1.55  0.000547  (-0.023368 -0.000112 -0.000714)
 10:    240.79   0.000014    0.07  0.000018  ( 0.004244  0.000056  0.000216)
 11:    254.34   0.000492    2.49  0.000604  (-0.000757  0.004560  0.024131)
 12:    295.33   0.000077    0.39  0.000081  ( 0.000080  0.007833 -0.004449)
 13:    373.95   0.001720    8.69  0.001435  ( 0.000328  0.034671 -0.015272)
 14:    386.26   0.000085    0.43  0.000069  (-0.008302 -0.000101 -0.000214)
 15:    422.80   0.000182    0.92  0.000134  (-0.000104 -0.010913  0.003909)
 16:    453.92   0.000079    0.40  0.000054  (-0.007377 -0.000006 -0.000224)
 17:    478.48   0.000166    0.84  0.000108  ( 0.000041 -0.010406 -0.000431)
 18:    508.59   0.000002    0.01  0.000001  (-0.001094 -0.000031 -0.000056)
 19:    536.35   0.000387    1.96  0.000225  ( 0.000316 -0.011586 -0.009541)
 20:    654.59   0.000964    4.87  0.000459  (-0.000656  0.003732  0.021098)
 21:    665.26   0.000774    3.91  0.000363  ( 0.000490  0.001120 -0.019012)
 22:    678.65   0.002005   10.13  0.000922  (-0.030350 -0.000100 -0.000934)
 23:    712.82   0.004999   25.26  0.002188  (-0.046758 -0.000180 -0.001457)
 24:    737.12   0.002002   10.12  0.000848  ( 0.000855 -0.010943 -0.026964)
 25:    787.90   0.004775   24.13  0.001891  ( 0.043467  0.000114  0.001335)
 26:    823.49   0.000603    3.05  0.000228  (-0.000406  0.005258  0.014166)
 27:    836.70   0.000126    0.64  0.000047  (-0.006858 -0.000009 -0.000216)
 28:    895.53   0.002279   11.51  0.000794  ( 0.028165  0.000082  0.000856)
 29:    909.13   0.000357    1.81  0.000123  (-0.011070 -0.000020 -0.000341)
 30:    978.15   0.004965   25.09  0.001584  ( 0.000240 -0.039641 -0.003527)
 31:    998.55   0.000133    0.67  0.000041  ( 0.006431 -0.000012  0.000230)
 32:   1013.51   0.000001    0.00  0.000000  ( 0.000390 -0.000042  0.000016)
 33:   1020.36   0.001127    5.70  0.000345  (-0.000117  0.018366  0.002724)
 34:   1049.06   0.004172   21.08  0.001241  ( 0.000395  0.031593 -0.015578)
 35:   1053.48   0.000488    2.47  0.000145  (-0.012021 -0.000038 -0.000386)
 36:   1101.88   0.001166    5.89  0.000330  (-0.000500  0.009595  0.015425)
 37:   1137.03   0.000630    3.18  0.000173  (-0.000163  0.012651  0.003588)
 38:   1156.09   0.001160    5.86  0.000313  (-0.000535  0.005532  0.016797)
 39:   1200.71   0.001171    5.92  0.000304  (-0.000495  0.008084  0.015448)
 40:   1243.16   0.002149   10.86  0.000539  (-0.000642  0.012412  0.019621)
 41:   1267.94   0.002455   12.41  0.000604  (-0.000335 -0.020745  0.013179)
 42:   1303.75   0.003139   15.86  0.000751  (-0.000105 -0.026699  0.006208)
 43:   1391.57   0.000782    3.95  0.000175  (-0.000384 -0.001171  0.013184)
 44:   1425.81   0.000557    2.81  0.000122  ( 0.000304 -0.005584 -0.009514)
 45:   1432.24   0.007126   36.01  0.001553  (-0.000171  0.039332  0.002364)
 46:   1450.89   0.000937    4.73  0.000201  (-0.014189  0.000077 -0.000379)
 47:   1464.66   0.001343    6.79  0.000286  (-0.000476 -0.002097  0.016781)
 48:   1496.85   0.008386   42.38  0.001748  (-0.000625 -0.034277  0.023936)
 49:   1511.33   0.003593   18.16  0.000742  ( 0.000824 -0.008018 -0.026019)
 50:   1589.05   0.001127    5.70  0.000221  ( 0.000158  0.013328 -0.006613)
 51:   1610.64   0.031012  156.72  0.006009  (-0.001757  0.057954  0.051448)
 52:   1618.96   0.060207  304.26  0.011605  ( 0.003267 -0.025997 -0.104493)
 53:   1686.04   0.004886   24.69  0.000904  (-0.000802  0.017311  0.024578)
 54:   1704.87   0.002311   11.68  0.000423  ( 0.000608 -0.007566 -0.019114)
 55:   3015.72   0.016027   80.99  0.001658  (-0.000047  0.040699 -0.001409)
 56:   3088.91   0.004164   21.04  0.000421  (-0.020497  0.000034 -0.000758)
 57:   3117.73   0.003873   19.57  0.000388  (-0.000639 -0.005668  0.018844)
 58:   3158.32   0.003781   19.11  0.000374  (-0.000583  0.005549  0.018507)
 59:   3160.34   0.006923   34.99  0.000684  ( 0.000608  0.014434 -0.021792)
 60:   3178.19   0.009294   46.97  0.000913  ( 0.000310  0.027221 -0.013095)
 61:   3206.43   0.002205   11.14  0.000215  (-0.000395  0.007299  0.012694)
 62:   3209.08   0.004622   23.36  0.000449  (-0.000229 -0.018977  0.009448)

--------------------------
THERMOCHEMISTRY AT 298.15K
--------------------------

Temperature         ...   298.15 K
Pressure            ...     1.00 atm
Total Mass          ...   172.18 AMU
Quasi RRHO          ...     True
Cut-Off Frequency   ...     1.00 cm^-1

Throughout the following assumptions are being made:
  (1) The electronic state is orbitally nondegenerate
      but the spin degeneracy is treated
  (2) There are no thermally accessible electronically excited states
  (3) Hindered rotations indicated by low frequency modes are not
      treated as such but are treated as vibrations and this may
      cause some error
  (4) All equations used are the standard statistical mechanics
      equations for an ideal gas
  (5) All vibrations are strictly harmonic

freq.      86.98  E(vib)   ...       0.48
freq.     113.21  E(vib)   ...       0.45
freq.     144.33  E(vib)   ...       0.41
freq.     175.24  E(vib)   ...       0.38
freq.     240.79  E(vib)   ...       0.31
freq.     254.34  E(vib)   ...       0.30
freq.     295.33  E(vib)   ...       0.27
freq.     373.95  E(vib)   ...       0.21
freq.     386.26  E(vib)   ...       0.20
freq.     422.80  E(vib)   ...       0.18
freq.     453.92  E(vib)   ...       0.16
freq.     478.48  E(vib)   ...       0.15
freq.     508.59  E(vib)   ...       0.14
freq.     536.35  E(vib)   ...       0.12
freq.     654.59  E(vib)   ...       0.08
freq.     665.26  E(vib)   ...       0.08
freq.     678.65  E(vib)   ...       0.08
freq.     712.82  E(vib)   ...       0.07
freq.     737.12  E(vib)   ...       0.06
freq.     787.90  E(vib)   ...       0.05
freq.     823.49  E(vib)   ...       0.05
freq.     836.70  E(vib)   ...       0.04
freq.     895.53  E(vib)   ...       0.03
freq.     909.13  E(vib)   ...       0.03
freq.     978.15  E(vib)   ...       0.03
freq.     998.55  E(vib)   ...       0.02
freq.    1013.51  E(vib)   ...       0.02
freq.    1020.36  E(vib)   ...       0.02
freq.    1049.06  E(vib)   ...       0.02
freq.    1053.48  E(vib)   ...       0.02
freq.    1101.88  E(vib)   ...       0.02
freq.    1137.03  E(vib)   ...       0.01
freq.    1156.09  E(vib)   ...       0.01
freq.    1200.71  E(vib)   ...       0.01
freq.    1243.16  E(vib)   ...       0.01
freq.    1267.94  E(vib)   ...       0.01
freq.    1303.75  E(vib)   ...       0.01
freq.    1391.57  E(vib)   ...       0.00
freq.    1425.81  E(vib)   ...       0.00
freq.    1432.24  E(vib)   ...       0.00
freq.    1450.89  E(vib)   ...       0.00
freq.    1464.66  E(vib)   ...       0.00
freq.    1496.85  E(vib)   ...       0.00
freq.    1511.33  E(vib)   ...       0.00
freq.    1589.05  E(vib)   ...       0.00
freq.    1610.64  E(vib)   ...       0.00
freq.    1618.96  E(vib)   ...       0.00
freq.    1686.04  E(vib)   ...       0.00
freq.    1704.87  E(vib)   ...       0.00
freq.    3015.72  E(vib)   ...       0.00
freq.    3088.91  E(vib)   ...       0.00
freq.    3117.73  E(vib)   ...       0.00
freq.    3158.32  E(vib)   ...       0.00
freq.    3160.34  E(vib)   ...       0.00
freq.    3178.19  E(vib)   ...       0.00
freq.    3206.43  E(vib)   ...       0.00
freq.    3209.08  E(vib)   ...       0.00

------------
INNER ENERGY
------------

The inner energy is: U= E(el) + E(ZPE) + E(vib) + E(rot) + E(trans)
    E(el)   - is the total energy from the electronic structure calculation
              = E(kin-el) + E(nuc-el) + E(el-el) + E(nuc-nuc)
    E(ZPE)  - the the zero temperature vibrational energy from the frequency calculation
    E(vib)  - the the finite temperature correction to E(ZPE) due to population
              of excited vibrational states
    E(rot)  - is the rotational thermal energy
    E(trans)- is the translational thermal energy

Summary of contributions to the inner energy U:
Electronic energy                ...   -573.43246608 Eh
Zero point energy                ...      0.15995714 Eh     100.37 kcal/mol
Thermal vibrational correction   ...      0.00729376 Eh       4.58 kcal/mol
Thermal rotational correction    ...      0.00141627 Eh       0.89 kcal/mol
Thermal translational correction ...      0.00141627 Eh       0.89 kcal/mol
-----------------------------------------------------------------------
Total thermal energy                   -573.26238263 Eh

Summary of corrections to the electronic energy:
(perhaps to be used in another calculation)
Total thermal correction                  0.01012631 Eh       6.35 kcal/mol
Non-thermal (ZPE) correction              0.15995714 Eh     100.37 kcal/mol
-----------------------------------------------------------------------
Total correction                          0.17008345 Eh     106.73 kcal/mol

--------
ENTHALPY
--------

The enthalpy is H = U + kB*T
                kB is Boltzmann's constant
Total thermal energy              ...   -573.26238263 Eh
Thermal Enthalpy correction       ...      0.00094421 Eh       0.59 kcal/mol
-----------------------------------------------------------------------
Total Enthalpy                    ...   -573.26143842 Eh

Note: Only C1 symmetry has been detected, increase convergence thresholds
      if your molecule has a higher symmetry. Symmetry factor of 1.0 is
      used for the rotational entropy correction.

Note: Rotational entropy computed according to Herzberg
Infrared and Raman Spectra, Chapter V,1, Van Nostrand Reinhold, 1945
Point Group:  C1, Symmetry Number:   1
Rotational constants in cm-1:     0.041924     0.026162     0.016157

Vibrational entropy computed according to the QRRHO of S. Grimme
Chem.Eur.J. 2012 18 9955 using a reference frequency of 100.0 cm-1

-------
ENTROPY
-------

The entropy contributions are T*S = T*(S(el)+S(vib)+S(rot)+S(trans))
     S(el)   - electronic entropy
     S(vib)  - vibrational entropy
     S(rot)  - rotational entropy
     S(trans)- translational entropy
The entropies will be listed as multiplied by the temperature to get
units of energy

Electronic entropy                ...      0.00065446 Eh      0.41 kcal/mol
Vibrational entropy               ...      0.01207808 Eh      7.58 kcal/mol
Rotational entropy                ...      0.01467583 Eh      9.21 kcal/mol
Translational entropy             ...      0.01964083 Eh     12.32 kcal/mol
-----------------------------------------------------------------------
Final entropy term                ...      0.04704919 Eh     29.52 kcal/mol

In case the symmetry of your molecule has not been determined correctly
or in case you have a reason to use a different symmetry number we print
out the resulting rotational entropy values for sn=1,12:

 non-linear molecules -----------------------------------
|  sn= 1 | S(rot)=       0.01467583 Eh      9.21 kcal/mol|
|  sn= 2 | S(rot)=       0.01402137 Eh      8.80 kcal/mol|

                             ****ORCA TERMINATED NORMALLY****
TOTAL RUN TIME: 0 days 0 hours 35 minutes 57 seconds 564 msec
