                         Program Version 6.0.0  -   RELEASE  -
|  1> !r2SCANh aug-cc-pVTZ d3 TightSCF SlowConv RIJCOSX defgrid2
|  2>
|  3> %pal
|  4> nprocs 15
|  5> end
|  6>
|  7> %scf
|  8> MaxIter 1500
|  9> end
| 10>
| 11> %maxcore 3500
| 12>
| 13> !CPCM
| 14> %cpcm smd true
| 15> SMDsolvent "WATER"
| 16> surfacetype gepol_ses
| 17> rsolv 1.40
| 18> end
| 19>
| 20> * xyz 1 1
| 21> O           1.78804094605451      3.57407180225234      1.26949194793146
| 22> N           2.67789422851893      2.80320165261973      1.24235605674492
| 23> C           3.71778316034813      2.91642565718559      0.16690169044367
| 24> C           4.00336272113038      1.49623261444906     -0.34502278805979
| 25> C           4.25766982671167      0.52191894036115      0.75815899662553
| 26> C           3.72478741138320      0.67902204568292      1.96909401147761
| 27> C           2.74959286644548      1.76027704323926      2.33487529589660
| 28> C           4.95479041346433      3.52595927403589      0.85716379705375
| 29> C           3.19004706306109      3.83072822434414     -0.92224433141749
| 30> C           3.15485574167612      2.51408579594002      3.61549894601635
| 31> C           1.33516544733407      1.17999753290778      2.47825951823241
| 32> H           4.87996183732221      1.57668875415100     -1.00999500614608
| 33> H           3.17021668262368      1.15296792938084     -0.98863220317568
| 34> H           4.90337590828949     -0.33836578770133      0.55566284253488
| 35> H           3.92357861346000     -0.03968109815672      2.77061581286109
| 36> H           4.70844618705422      4.48811332405391      1.33490279509444
| 37> H           5.40761709603610      2.84446172249759      1.59225247734595
| 38> H           5.69483505273624      3.71884274386665      0.06263108376658
| 39> H           3.04024511163629      4.86095117972371     -0.56406719285224
| 40> H           2.23933329941609      3.45894408996336     -1.33920228019874
| 41> H           3.93412607430717      3.85508376979621     -1.73438810478811
| 42> H           2.42690041381949      3.30933728300165      3.84390224235101
| 43> H           4.16701870887203      2.94082178104930      3.54605561909481
| 44> H           3.14478541414984      1.78516218068988      4.44194641182067
| 45> H           0.61276609896706      1.95074174596123      2.78900733696933
| 46> H           1.00104681299372      0.70960454278176      1.53898778688725
| 47> H           1.37065586218837      0.39927625592302      3.25432923748977
| 48> *
| 49>
| 50>                          ****END OF INPUT****

CARTESIAN COORDINATES (ANGSTROEM)
---------------------------------
  O      1.788041    3.574072    1.269492
  N      2.677894    2.803202    1.242356
  C      3.717783    2.916426    0.166902
  C      4.003363    1.496233   -0.345023
  C      4.257670    0.521919    0.758159
  C      3.724787    0.679022    1.969094
  C      2.749593    1.760277    2.334875
  C      4.954790    3.525959    0.857164
  C      3.190047    3.830728   -0.922244
  C      3.154856    2.514086    3.615499
  C      1.335165    1.179998    2.478260
  H      4.879962    1.576689   -1.009995
  H      3.170217    1.152968   -0.988632
  H      4.903376   -0.338366    0.555663
  H      3.923579   -0.039681    2.770616
  H      4.708446    4.488113    1.334903
  H      5.407617    2.844462    1.592252
  H      5.694835    3.718843    0.062631
  H      3.040245    4.860951   -0.564067
  H      2.239333    3.458944   -1.339202
  H      3.934126    3.855084   -1.734388
  H      2.426900    3.309337    3.843902
  H      4.167019    2.940822    3.546056
  H      3.144785    1.785162    4.441946
  H      0.612766    1.950742    2.789007
  H      1.001047    0.709605    1.538988
  H      1.370656    0.399276    3.254329

 Total Charge           Charge          ....    1
 Multiplicity           Mult            ....    1
 Number of Electrons    NEL             ....   84
 Basis Dimension        Dim             ....  874

ORBITAL ENERGIES
----------------

  NO   OCC          E(Eh)            E(eV)
   0   2.0000     -19.252661      -523.8915
   1   2.0000     -14.545609      -395.8062
   2   2.0000     -10.256967      -279.1063
   3   2.0000     -10.254552      -279.0405
   4   2.0000     -10.184948      -277.1465
   5   2.0000     -10.177863      -276.9537
   6   2.0000     -10.176417      -276.9144
   7   2.0000     -10.174398      -276.8594
   8   2.0000     -10.173618      -276.8382
   9   2.0000     -10.169162      -276.7170
  10   2.0000     -10.163473      -276.5622
  11   2.0000      -1.276866       -34.7453
  12   2.0000      -0.933656       -25.4061
  13   2.0000      -0.862793       -23.4778
  14   2.0000      -0.801455       -21.8087
  15   2.0000      -0.754513       -20.5313
  16   2.0000      -0.716292       -19.4913
  17   2.0000      -0.705365       -19.1940
  18   2.0000      -0.704169       -19.1614
  19   2.0000      -0.651943       -17.7403
  20   2.0000      -0.615372       -16.7451
  21   2.0000      -0.576281       -15.6814
  22   2.0000      -0.553844       -15.0709
  23   2.0000      -0.527693       -14.3593
  24   2.0000      -0.493475       -13.4281
  25   2.0000      -0.476508       -12.9664
  26   2.0000      -0.457559       -12.4508
  27   2.0000      -0.453086       -12.3291
  28   2.0000      -0.427511       -11.6332
  29   2.0000      -0.423434       -11.5222
  30   2.0000      -0.412778       -11.2322
  31   2.0000      -0.410516       -11.1707
  32   2.0000      -0.389367       -10.5952
  33   2.0000      -0.387435       -10.5426
  34   2.0000      -0.384866       -10.4727
  35   2.0000      -0.378737       -10.3059
  36   2.0000      -0.365366        -9.9421
  37   2.0000      -0.363446        -9.8899
  38   2.0000      -0.357328        -9.7234
  39   2.0000      -0.336148        -9.1471
  40   2.0000      -0.320702        -8.7267
  41   2.0000      -0.264969        -7.2102
  42   0.0000      -0.179991        -4.8978
  43   0.0000      -0.023835        -0.6486
  44   0.0000       0.009519         0.2590
  45   0.0000       0.019877         0.5409
  46   0.0000       0.023699         0.6449

MULLIKEN ATOMIC CHARGES
-----------------------
   0 O :   -0.925636
   1 N :    1.025700
   2 C :    1.921173
   3 C :   -0.280310
   4 C :   -0.656143
   5 C :   -0.588487
   6 C :    1.574022
   7 C :   -0.977012
   8 C :   -1.373667
   9 C :   -1.113122
  10 C :   -1.223603
  11 H :    0.108788
  12 H :    0.225353
  13 H :    0.746652
  14 H :    0.222156
  15 H :    0.205300
  16 H :    0.302504
  17 H :    0.115238
  18 H :    0.195081
  19 H :    0.171499
  20 H :    0.159393
  21 H :    0.145168
  22 H :    0.259581
  23 H :    0.173178
  24 H :    0.160220
  25 H :    0.235236
  26 H :    0.191739
Sum of atomic charges:    1.0000000

LOEWDIN ATOMIC CHARGES
----------------------
   0 O :    0.652088
   1 N :   -0.012244
   2 C :   -0.387402
   3 C :    0.311056
   4 C :    0.261856
   5 C :    0.240772
   6 C :   -0.406794
   7 C :    0.635065
   8 C :    0.598744
   9 C :    0.627923
  10 C :    0.612627
  11 H :   -0.111091
  12 H :   -0.105810
  13 H :   -0.142188
  14 H :   -0.136650
  15 H :   -0.124322
  16 H :   -0.154139
  17 H :   -0.119946
  18 H :   -0.145626
  19 H :   -0.136598
  20 H :   -0.130098
  21 H :   -0.138104
  22 H :   -0.147740
  23 H :   -0.127434
  24 H :   -0.151486
  25 H :   -0.130457
  26 H :   -0.131999

  Mayer bond orders larger than 0.100000
B(  0-O ,  1-N ) :   0.6428 B(  0-O ,  6-C ) :  -0.1423 B(  0-O ,  8-C ) :   0.1511
B(  1-N ,  2-C ) :   0.9578 B(  1-N ,  3-C ) :   0.2171 B(  1-N ,  4-C ) :   0.1233
B(  1-N ,  6-C ) :   0.8268 B(  1-N ,  7-C ) :   0.1339 B(  1-N ,  8-C ) :  -0.3021
B(  2-C ,  3-C ) :   0.3151 B(  2-C ,  4-C ) :   0.2665 B(  2-C ,  5-C ) :   0.1457
B(  2-C ,  7-C ) :   0.2444 B(  3-C ,  4-C ) :   0.5997 B(  3-C ,  7-C ) :   0.1342
B(  3-C , 11-H ) :   0.9561 B(  3-C , 12-H ) :   0.9623 B(  3-C , 13-H ) :   0.2183
B(  4-C ,  5-C ) :   1.4786 B(  5-C ,  6-C ) :   0.7576 B(  5-C ,  9-C ) :  -0.1150
B(  5-C , 14-H ) :   1.0541 B(  6-C ,  9-C ) :   0.3880 B(  6-C , 10-C ) :   0.2695
B(  6-C , 13-H ) :  -0.1042 B(  7-C ,  8-C ) :   0.1514 B(  7-C , 15-H ) :   0.9777
B(  7-C , 16-H ) :   0.8937 B(  7-C , 17-H ) :   1.1018 B(  8-C , 18-H ) :   1.0263
B(  8-C , 19-H ) :   1.1028 B(  8-C , 20-H ) :   1.1034 B(  9-C , 10-C ) :   0.2044
B(  9-C , 21-H ) :   1.0846 B(  9-C , 22-H ) :   0.9441 B(  9-C , 23-H ) :   1.0794
B( 10-C , 24-H ) :   1.0784 B( 10-C , 25-H ) :   0.9969 B( 10-C , 26-H ) :   1.0510

Dispersion correction           -0.009999845
FINAL SINGLE POINT ENERGY      -482.193260945253

DIPOLE MOMENT
-------------

Method             : SCF
Type of density    : Electron Density
Multiplicity       :   1
Irrep              :   0
Energy             :  -482.1832610998128530 Eh
Relativity type    :
Basis              : AO
                                X                 Y                 Z
Electronic contribution:     -2.676380132       0.027666916      -0.539491686
Nuclear contribution   :      3.088927410      -0.095134284       0.454097178
                        -----------------------------------------
Total Dipole Moment    :      0.412547278      -0.067467368      -0.085394509
                        -----------------------------------------
Magnitude (a.u.)       :      0.426660667
Magnitude (Debye)      :      1.084485229

Rotational constants in cm-1:             0.051995             0.036397             0.030146
Rotational constants in MHz :          1558.765882          1091.144705           903.756196

                             ****ORCA TERMINATED NORMALLY****
TOTAL RUN TIME: 0 days 0 hours 5 minutes 51 seconds 777 msec
