                         Program Version 6.0.0  -   RELEASE  -
|  1> !PBE0 aug-cc-pVTZ d3 TightSCF SlowConv RIJCOSX defgrid2
|  2>
|  3> %pal
|  4> nprocs 4
|  5> end
|  6>
|  7> %scf
|  8> MaxIter 1500
|  9> end
| 10>
| 11> %maxcore 3000
| 12>
| 13> !CPCM
| 14> %cpcm smd true
| 15> SMDsolvent "MeCN"
| 16> surfacetype gepol_ses
| 17> rsolv 2.19
| 18> end
| 19>
| 20> * xyz 0 1
| 21> C          -0.45962349392076      1.19930168964946      0.00062202556794
| 22> C           0.93187577371451      1.21292315738455      0.00021003045593
| 23> C           1.62461355579551      0.00264447710890     -0.00023259743760
| 24> C           0.94147031950354     -1.21572927971146     -0.00024754015947
| 25> C          -0.44629067380136     -1.21277951487668      0.00019404075702
| 26> C          -1.16457141606032     -0.01003943569872      0.00066278241731
| 27> C          -2.65943474979432     -0.08619562751851      0.00125896770752
| 28> O          -3.21849789447990     -1.16065283026292     -0.00068065256956
| 29> C          -3.44514706371262      1.20360842703596     -0.00042582391608
| 30> H          -3.20900994320141      1.81348807306859      0.88908099447108
| 31> H          -3.20722570566812      1.81245947226407     -0.89017014718689
| 32> H          -4.51791848417965      0.96213295731483     -0.00129821423503
| 33> H          -1.01178782473404     -2.14828242074604      0.00023169281017
| 34> H           1.50422972929259     -2.15194601130068     -0.00059587432262
| 35> Cl          3.35241439280556      0.01090662049481     -0.00078466924471
| 36> H           1.48532961925900      2.15441464352816      0.00021462148241
| 37> H          -0.99337054081820      2.15308200226567      0.00096246340259
| 38> *
| 39>
| 40>                          ****END OF INPUT****

CARTESIAN COORDINATES (ANGSTROEM)
---------------------------------
  C     -0.459623    1.199302    0.000622
  C      0.931876    1.212923    0.000210
  C      1.624614    0.002644   -0.000233
  C      0.941470   -1.215729   -0.000248
  C     -0.446291   -1.212780    0.000194
  C     -1.164571   -0.010039    0.000663
  C     -2.659435   -0.086196    0.001259
  O     -3.218498   -1.160653   -0.000681
  C     -3.445147    1.203608   -0.000426
  H     -3.209010    1.813488    0.889081
  H     -3.207226    1.812459   -0.890170
  H     -4.517918    0.962133   -0.001298
  H     -1.011788   -2.148282    0.000232
  H      1.504230   -2.151946   -0.000596
  Cl     3.352414    0.010907   -0.000785
  H      1.485330    2.154415    0.000215
  H     -0.993371    2.153082    0.000962

 Total Charge           Charge          ....    0
 Multiplicity           Mult            ....    1
 Number of Electrons    NEL             ....   80
 Basis Dimension        Dim             ....  625

ORBITAL ENERGIES
----------------

  NO   OCC          E(Eh)            E(eV)
   0   2.0000    -101.750466     -2768.7709
   1   2.0000     -19.201659      -522.5037
   2   2.0000     -10.320280      -280.8291
   3   2.0000     -10.305777      -280.4344
   4   2.0000     -10.250366      -278.9266
   5   2.0000     -10.248130      -278.8658
   6   2.0000     -10.247821      -278.8574
   7   2.0000     -10.247710      -278.8544
   8   2.0000     -10.246289      -278.8157
   9   2.0000     -10.220485      -278.1135
  10   2.0000      -9.552577      -259.9388
  11   2.0000      -7.287615      -198.3061
  12   2.0000      -7.279749      -198.0920
  13   2.0000      -7.279221      -198.0777
  14   2.0000      -1.080461       -29.4008
  15   2.0000      -0.930338       -25.3158
  16   2.0000      -0.875387       -23.8205
  17   2.0000      -0.792036       -21.5524
  18   2.0000      -0.784744       -21.3540
  19   2.0000      -0.745824       -20.2949
  20   2.0000      -0.647197       -17.6111
  21   2.0000      -0.640654       -17.4331
  22   2.0000      -0.576232       -15.6801
  23   2.0000      -0.527009       -14.3406
  24   2.0000      -0.501086       -13.6352
  25   2.0000      -0.482843       -13.1388
  26   2.0000      -0.465797       -12.6750
  27   2.0000      -0.458427       -12.4744
  28   2.0000      -0.447234       -12.1699
  29   2.0000      -0.442392       -12.0381
  30   2.0000      -0.421924       -11.4811
  31   2.0000      -0.407172       -11.0797
  32   2.0000      -0.385942       -10.5020
  33   2.0000      -0.381105       -10.3704
  34   2.0000      -0.370983       -10.0950
  35   2.0000      -0.354705        -9.6520
  36   2.0000      -0.335890        -9.1400
  37   2.0000      -0.284669        -7.7462
  38   2.0000      -0.273698        -7.4477
  39   2.0000      -0.268611        -7.3093
  40   0.0000      -0.064627        -1.7586
  41   0.0000      -0.024685        -0.6717
  42   0.0000       0.000139         0.0038
  43   0.0000       0.011475         0.3123
  44   0.0000       0.017314         0.4711

MULLIKEN ATOMIC CHARGES
-----------------------
   0 C :   -0.465161
   1 C :   -0.894769
   2 C :    0.368690
   3 C :   -0.715989
   4 C :   -0.911875
   5 C :    1.168425
   6 C :    0.656362
   7 O :   -0.888849
   8 C :   -0.640645
   9 H :    0.293069
  10 H :    0.293857
  11 H :    0.186598
  12 H :    0.400977
  13 H :    0.596391
  14 Cl:   -0.392559
  15 H :    0.551670
  16 H :    0.393809
Sum of atomic charges:   -0.0000000

LOEWDIN ATOMIC CHARGES
----------------------
   0 C :    0.200328
   1 C :    0.119744
   2 C :   -0.797085
   3 C :    0.117051
   4 C :    0.186217
   5 C :   -0.134367
   6 C :   -0.552247
   7 O :    0.490884
   8 C :    0.566959
   9 H :   -0.154519
  10 H :   -0.154466
  11 H :   -0.174163
  12 H :   -0.179758
  13 H :   -0.182162
  14 Cl:    0.995758
  15 H :   -0.181001
  16 H :   -0.167173

  Mayer bond orders larger than 0.100000
B(  0-C ,  1-C ) :   1.2286 B(  0-C ,  4-C ) :  -0.2730 B(  0-C ,  5-C ) :   0.6672
B(  0-C , 16-H ) :   0.7815 B(  1-C ,  2-C ) :   1.3650 B(  1-C ,  3-C ) :   0.1223
B(  1-C , 15-H ) :   0.4895 B(  2-C ,  3-C ) :   1.3566 B(  2-C ,  4-C ) :  -0.1217
B(  2-C , 14-Cl) :   0.5450 B(  3-C ,  4-C ) :   1.4917 B(  3-C ,  5-C ) :  -0.1200
B(  3-C , 13-H ) :   0.4500 B(  4-C ,  5-C ) :   0.6227 B(  4-C ,  6-C ) :   0.1817
B(  4-C , 12-H ) :   0.6721 B(  5-C ,  6-C ) :   0.4282 B(  5-C ,  7-O ) :   0.1358
B(  6-C ,  7-O ) :   0.9522 B(  6-C ,  8-C ) :   0.9784 B(  8-C ,  9-H ) :   0.9060
B(  8-C , 10-H ) :   0.9048 B(  8-C , 11-H ) :   0.9604

Dispersion correction           -0.017062587
FINAL SINGLE POINT ENERGY      -844.080209598066

DIPOLE MOMENT
-------------

Method             : SCF
Type of density    : Electron Density
Multiplicity       :   1
Irrep              :   0
Energy             :  -844.0631470105973904 Eh
Relativity type    :
Basis              : AO
                                X                 Y                 Z
Electronic contribution:     14.066081986      -2.954740343       0.001147189
Nuclear contribution   :    -13.920982286       4.293464133       0.000100521
                        -----------------------------------------
Total Dipole Moment    :      0.145099701       1.338723790       0.001247710
                        -----------------------------------------
Magnitude (a.u.)       :      1.346564839
Magnitude (Debye)      :      3.422695815

Rotational constants in cm-1:             0.122841             0.018421             0.016068
Rotational constants in MHz :          3682.693671           552.250394           481.695849

                             ****ORCA TERMINATED NORMALLY****
TOTAL RUN TIME: 0 days 0 hours 5 minutes 22 seconds 516 msec
