                         Program Version 6.0.0  -   RELEASE  -
|  1> !r2SCAN aug-cc-pVTZ d3 TightSCF SlowConv RIJCOSX defgrid2
|  2>
|  3> %pal
|  4> nprocs 4
|  5> end
|  6>
|  7> %scf
|  8> MaxIter 1500
|  9> end
| 10>
| 11> %maxcore 3000
| 12>
| 13> !CPCM
| 14> %cpcm smd true
| 15> SMDsolvent "MeCN"
| 16> surfacetype gepol_ses
| 17> rsolv 2.19
| 18> end
| 19>
| 20> * xyz 1 2
| 21> C          -0.22428548195010     -1.24213438922305     -0.03849982740281
| 22> C           1.14800811610277     -1.22870080724969      0.00227297677880
| 23> C           1.84566180598227     -0.00004019353139      0.02297012210753
| 24> C           1.14805042698559      1.22864411313713      0.00227054482980
| 25> C          -0.22424154749405      1.24212983950181     -0.03850931873892
| 26> C          -0.94084900168795      0.00001024661649     -0.05989305493678
| 27> N          -2.26985305582395      0.00003075135377     -0.09979281491323
| 28> H          -2.80165535396914      0.86997483968693     -0.11591197867223
| 29> H          -2.80167508667297     -0.86990117124685     -0.11590823438470
| 30> H          -0.77890173993705      2.18488554366972     -0.05504522287995
| 31> H           1.70373713208460      2.16980587419055      0.01885237386387
| 32> H           2.93889913121278     -0.00005967561260      0.05550059305168
| 33> H           1.70365895934134     -2.16988118368011      0.01885253182221
| 34> H          -0.77898600417414     -2.18486378761269     -0.05503389052528
| 35> *
| 36>
| 37>                          ****END OF INPUT****

CARTESIAN COORDINATES (ANGSTROEM)
---------------------------------
  C     -0.224285   -1.242134   -0.038500
  C      1.148008   -1.228701    0.002273
  C      1.845662   -0.000040    0.022970
  C      1.148050    1.228644    0.002271
  C     -0.224242    1.242130   -0.038509
  C     -0.940849    0.000010   -0.059893
  N     -2.269853    0.000031   -0.099793
  H     -2.801655    0.869975   -0.115912
  H     -2.801675   -0.869901   -0.115908
  H     -0.778902    2.184886   -0.055045
  H      1.703737    2.169806    0.018852
  H      2.938899   -0.000060    0.055501
  H      1.703659   -2.169881    0.018853
  H     -0.778986   -2.184864   -0.055034

 Total Charge           Charge          ....    1
 Multiplicity           Mult            ....    2
 Number of Electrons    NEL             ....   49
 Basis Dimension        Dim             ....  483

ORBITAL ENERGIES
----------------
                 SPIN UP ORBITALS
  NO   OCC          E(Eh)            E(eV)
   0   1.0000     -14.259798      -388.0288
   1   1.0000     -10.145411      -276.0707
   2   1.0000     -10.090120      -274.5661
   3   1.0000     -10.085959      -274.4529
   4   1.0000     -10.085954      -274.4528
   5   1.0000     -10.073730      -274.1201
   6   1.0000     -10.073728      -274.1201
   7   1.0000      -0.965079       -26.2611
   8   1.0000      -0.849037       -23.1035
   9   1.0000      -0.756631       -20.5890
  10   1.0000      -0.737599       -20.0711
  11   1.0000      -0.620403       -16.8820
  12   1.0000      -0.619096       -16.8465
  13   1.0000      -0.538448       -14.6519
  14   1.0000      -0.530730       -14.4419
  15   1.0000      -0.487437       -13.2638
  16   1.0000      -0.438178       -11.9234
  17   1.0000      -0.429521       -11.6879
  18   1.0000      -0.425545       -11.5797
  19   1.0000      -0.421828       -11.4785
  20   1.0000      -0.361286        -9.8311
  21   1.0000      -0.350870        -9.5477
  22   1.0000      -0.340836        -9.2746
  23   1.0000      -0.281026        -7.6471
  24   1.0000      -0.247191        -6.7264
  25   0.0000      -0.068560        -1.8656
  26   0.0000      -0.067888        -1.8473
  27   0.0000       0.004251         0.1157
  28   0.0000       0.017609         0.4792
  29   0.0000       0.024143         0.6570

                 SPIN DOWN ORBITALS
  NO   OCC          E(Eh)            E(eV)
   0   1.0000     -14.250043      -387.7634
   1   1.0000     -10.144990      -276.0592
   2   1.0000     -10.083163      -274.3768
   3   1.0000     -10.081874      -274.3417
   4   1.0000     -10.081870      -274.3416
   5   1.0000     -10.075949      -274.1805
   6   1.0000     -10.075946      -274.1804
   7   1.0000      -0.950816       -25.8730
   8   1.0000      -0.840362       -22.8674
   9   1.0000      -0.752765       -20.4838
  10   1.0000      -0.722460       -19.6591
  11   1.0000      -0.617667       -16.8076
  12   1.0000      -0.611499       -16.6397
  13   1.0000      -0.536477       -14.5983
  14   1.0000      -0.525537       -14.3006
  15   1.0000      -0.482603       -13.1323
  16   1.0000      -0.434959       -11.8358
  17   1.0000      -0.426964       -11.6183
  18   1.0000      -0.421456       -11.4684
  19   1.0000      -0.398769       -10.8511
  20   1.0000      -0.359366        -9.7788
  21   1.0000      -0.339251        -9.2315
  22   1.0000      -0.322937        -8.7876
  23   1.0000      -0.271419        -7.3857
  24   0.0000      -0.195941        -5.3318
  25   0.0000      -0.056914        -1.5487
  26   0.0000      -0.040829        -1.1110
  27   0.0000       0.006190         0.1684
  28   0.0000       0.020066         0.5460

MULLIKEN ATOMIC CHARGES AND SPIN POPULATIONS
--------------------------------------------
   0 C :   -0.654617    0.247319
   1 C :   -0.310970   -0.171907
   2 C :   -0.347275    0.429411
   3 C :   -0.310963   -0.171907
   4 C :   -0.654615    0.247318
   5 C :    1.148659    0.048441
   6 N :   -0.336204    0.411268
   7 H :    0.065189   -0.009429
   8 H :    0.065188   -0.009429
   9 H :    0.580182   -0.008139
  10 H :    0.331850   -0.010425
  11 H :    0.511540    0.016041
  12 H :    0.331854   -0.010426
  13 H :    0.580182   -0.008137
Sum of atomic charges         :    1.0000000

LOEWDIN ATOMIC CHARGES AND SPIN POPULATIONS
-------------------------------------------
   0 C :    0.279505    0.116621
   1 C :    0.243208    0.030778
   2 C :    0.261591    0.184734
   3 C :    0.243206    0.030778
   4 C :    0.279506    0.116620
   5 C :   -0.162738    0.130449
   6 N :    0.965981    0.255890
   7 H :   -0.192420    0.033248
   8 H :   -0.192422    0.033248
   9 H :   -0.139318    0.021891
  10 H :   -0.150708   -0.010513
  11 H :   -0.145360    0.044877
  12 H :   -0.150710   -0.010514
  13 H :   -0.139321    0.021892

  Mayer bond orders larger than 0.100000
B(  0-C ,  1-C ) :   1.3624 B(  0-C ,  2-C ) :   0.2621 B(  0-C ,  3-C ) :  -0.1542
B(  0-C ,  4-C ) :   0.3576 B(  0-C ,  5-C ) :   0.5325 B(  0-C ,  6-N ) :  -0.1299
B(  0-C , 13-H ) :   0.2208 B(  1-C ,  2-C ) :   0.9236 B(  1-C ,  3-C ) :  -0.1221
B(  1-C ,  4-C ) :  -0.1542 B(  1-C ,  5-C ) :  -0.2012 B(  1-C , 12-H ) :   0.8380
B(  2-C ,  3-C ) :   0.9236 B(  2-C ,  4-C ) :   0.2621 B(  2-C ,  5-C ) :  -0.1159
B(  2-C , 11-H ) :   0.5143 B(  3-C ,  4-C ) :   1.3624 B(  3-C ,  5-C ) :  -0.2012
B(  3-C , 10-H ) :   0.8380 B(  4-C ,  5-C ) :   0.5325 B(  4-C ,  6-N ) :  -0.1299
B(  4-C ,  9-H ) :   0.2208 B(  5-C ,  6-N ) :   0.9325 B(  6-N ,  7-H ) :   1.0981
B(  6-N ,  8-H ) :   1.0981

Dispersion correction           -0.003786564
FINAL SINGLE POINT ENERGY      -287.370076099914

DIPOLE MOMENT
-------------

Method             : SCF
Type of density    : Electron Density
Multiplicity       :   2
Irrep              :   0
Energy             :  -287.3662895355632827 Eh
Relativity type    :
Basis              : AO
                                X                 Y                 Z
Electronic contribution:     -0.963490538       0.000022073      -0.028852673
Nuclear contribution   :     -0.808315718       0.000012771      -0.024795382
                        -----------------------------------------
Total Dipole Moment    :     -1.771806256       0.000034844      -0.053648055
                        -----------------------------------------
Magnitude (a.u.)       :      1.772618268
Magnitude (Debye)      :      4.505637568

Rotational constants in cm-1:             0.179396             0.089500             0.059711
Rotational constants in MHz :          5378.149152          2683.142053          1790.077786

                             ****ORCA TERMINATED NORMALLY****
TOTAL RUN TIME: 0 days 0 hours 2 minutes 54 seconds 965 msec
