                         Program Version 6.0.0  -   RELEASE  -
|  1> !r2SCAN aug-cc-pVTZ d3 TightSCF SlowConv RIJCOSX defgrid2
|  2>
|  3> %pal
|  4> nprocs 4
|  5> end
|  6>
|  7> %scf
|  8> MaxIter 1500
|  9> end
| 10>
| 11> %maxcore 3000
| 12>
| 13> !CPCM
| 14> %cpcm smd true
| 15> SMDsolvent "MeCN"
| 16> surfacetype gepol_ses
| 17> rsolv 2.19
| 18> end
| 19>
| 20> * xyz 0 1
| 21> C           0.03260910228520      1.08137561321675     -0.00005519024681
| 22> C          -1.34067616416986      1.33940990966857     -0.00006277386150
| 23> C          -2.26505829948608      0.29987796591520     -0.00002637645918
| 24> C          -1.80355661628939     -1.01995706797392      0.00001567004565
| 25> C          -0.44212934457685     -1.29206473885913      0.00002194287208
| 26> C           0.48773718530999     -0.24207145865110     -0.00001289966776
| 27> O           1.78848371232752     -0.60054348212568     -0.00000734481067
| 28> C           2.76447200773818      0.40008618654603     -0.00000767276834
| 29> H           2.69619012376907      1.04049548625701     -0.90084775937446
| 30> H           2.69616289260516      1.04052094820081      0.90081198872589
| 31> H           3.73793416758510     -0.11300324243944      0.00001415192437
| 32> H          -0.06314832394927     -2.31720165011296      0.00005410336572
| 33> H          -2.51681541922482     -1.84998358326110      0.00004248911056
| 34> H          -3.33762461646730      0.51193314493410     -0.00003142013851
| 35> H          -1.68480228384705      2.37828066720121     -0.00009724328111
| 36> H           0.73383607639040      1.91798680148364     -0.00008576543595
| 37> *
| 38>
| 39>                          ****END OF INPUT****

CARTESIAN COORDINATES (ANGSTROEM)
---------------------------------
  C      0.032609    1.081376   -0.000055
  C     -1.340676    1.339410   -0.000063
  C     -2.265058    0.299878   -0.000026
  C     -1.803557   -1.019957    0.000016
  C     -0.442129   -1.292065    0.000022
  C      0.487737   -0.242071   -0.000013
  O      1.788484   -0.600543   -0.000007
  C      2.764472    0.400086   -0.000008
  H      2.696190    1.040495   -0.900848
  H      2.696163    1.040521    0.900812
  H      3.737934   -0.113003    0.000014
  H     -0.063148   -2.317202    0.000054
  H     -2.516815   -1.849984    0.000042
  H     -3.337625    0.511933   -0.000031
  H     -1.684802    2.378281   -0.000097
  H      0.733836    1.917987   -0.000086

 Total Charge           Charge          ....    0
 Multiplicity           Mult            ....    1
 Number of Electrons    NEL             ....   58
 Basis Dimension        Dim             ....  552

ORBITAL ENERGIES
----------------

  NO   OCC          E(Eh)            E(eV)
   0   2.0000     -18.991737      -516.7914
   1   2.0000     -10.100336      -274.8441
   2   2.0000     -10.078109      -274.2393
   3   2.0000     -10.041455      -273.2419
   4   2.0000     -10.041360      -273.2393
   5   2.0000     -10.037075      -273.1227
   6   2.0000     -10.035885      -273.0903
   7   2.0000     -10.032729      -273.0044
   8   2.0000      -1.041914       -28.3519
   9   2.0000      -0.818930       -22.2842
  10   2.0000      -0.724345       -19.7104
  11   2.0000      -0.713188       -19.4068
  12   2.0000      -0.656526       -17.8650
  13   2.0000      -0.576197       -15.6791
  14   2.0000      -0.554819       -15.0974
  15   2.0000      -0.502456       -13.6725
  16   2.0000      -0.451787       -12.2937
  17   2.0000      -0.445739       -12.1292
  18   2.0000      -0.434104       -11.8126
  19   2.0000      -0.408245       -11.1089
  20   2.0000      -0.387568       -10.5463
  21   2.0000      -0.376578       -10.2472
  22   2.0000      -0.352005        -9.5785
  23   2.0000      -0.330920        -9.0048
  24   2.0000      -0.321693        -8.7537
  25   2.0000      -0.295054        -8.0288
  26   2.0000      -0.291194        -7.9238
  27   2.0000      -0.240296        -6.5388
  28   2.0000      -0.205590        -5.5944
  29   0.0000      -0.038159        -1.0384
  30   0.0000      -0.022280        -0.6063
  31   0.0000       0.007799         0.2122
  32   0.0000       0.022924         0.6238
  33   0.0000       0.024833         0.6758

MULLIKEN ATOMIC CHARGES
-----------------------
   0 C :   -0.466827
   1 C :   -0.453089
   2 C :   -0.625140
   3 C :   -0.226030
   4 C :   -1.084554
   5 C :    1.225228
   6 O :   -0.675567
   7 C :   -0.653061
   8 H :    0.237830
   9 H :    0.238170
  10 H :    0.244404
  11 H :    0.564433
  12 H :    0.309646
  13 H :    0.497580
  14 H :    0.258986
  15 H :    0.607992
Sum of atomic charges:    0.0000000

LOEWDIN ATOMIC CHARGES
----------------------
   0 C :    0.192798
   1 C :    0.171109
   2 C :    0.168704
   3 C :    0.166542
   4 C :    0.187722
   5 C :   -0.412139
   6 O :    0.590557
   7 C :    0.320935
   8 H :   -0.161326
   9 H :   -0.161347
  10 H :   -0.169919
  11 H :   -0.175272
  12 H :   -0.172903
  13 H :   -0.180425
  14 H :   -0.171959
  15 H :   -0.193076

  Mayer bond orders larger than 0.100000
B(  0-C ,  1-C ) :   0.8750 B(  0-C ,  2-C ) :   0.3832 B(  0-C ,  3-C ) :  -0.1832
B(  0-C ,  4-C ) :   0.6983 B(  0-C ,  5-C ) :   0.7391 B(  0-C , 11-H ) :  -0.1245
B(  1-C ,  2-C ) :   1.0968 B(  1-C ,  3-C ) :  -0.3179 B(  1-C ,  4-C ) :  -0.1422
B(  1-C ,  5-C ) :  -0.5114 B(  1-C , 11-H ) :   0.1334 B(  1-C , 14-H ) :   0.9782
B(  1-C , 15-H ) :   0.2241 B(  2-C ,  3-C ) :   0.9816 B(  2-C ,  4-C ) :   0.5131
B(  2-C ,  5-C ) :  -0.1631 B(  2-C , 11-H ) :  -0.1007 B(  2-C , 13-H ) :   0.4663
B(  2-C , 15-H ) :  -0.1832 B(  3-C ,  4-C ) :   1.0943 B(  3-C ,  5-C ) :  -0.3849
B(  3-C , 11-H ) :   0.1246 B(  3-C , 12-H ) :   0.8953 B(  3-C , 15-H ) :   0.2387
B(  4-C ,  5-C ) :   0.4457 B(  4-C ,  6-O ) :   0.2616 B(  4-C , 11-H ) :   0.1501
B(  4-C , 15-H ) :  -0.1794 B(  5-C ,  6-O ) :   0.4681 B(  5-C , 11-H ) :   0.1217
B(  5-C , 15-H ) :   0.1109 B(  6-O ,  7-C ) :   1.0560 B(  7-C ,  8-H ) :   0.9338
B(  7-C ,  9-H ) :   0.9335 B(  7-C , 10-H ) :   0.9629 B(  7-C , 15-H ) :  -0.1342

Dispersion correction           -0.004379156
FINAL SINGLE POINT ENERGY      -346.712519534864

DIPOLE MOMENT
-------------

Method             : SCF
Type of density    : Electron Density
Multiplicity       :   1
Irrep              :   0
Energy             :  -346.7081403787253748 Eh
Relativity type    :
Basis              : AO
                                X                 Y                 Z
Electronic contribution:     -1.673609094      -1.905441085      -0.000005200
Nuclear contribution   :      2.143742692       2.450814428      -0.000006666
                        -----------------------------------------
Total Dipole Moment    :      0.470133598       0.545373343      -0.000011866
                        -----------------------------------------
Magnitude (a.u.)       :      0.720040057
Magnitude (Debye)      :      1.830196376

Rotational constants in cm-1:             0.168604             0.052375             0.040274
Rotational constants in MHz :          5054.615103          1570.170626          1207.382090

                             ****ORCA TERMINATED NORMALLY****
TOTAL RUN TIME: 0 days 0 hours 1 minutes 59 seconds 786 msec
