                         Program Version 6.0.0  -   RELEASE  -
|  1> !r2SCAN opt aug-cc-pVTZ d3 TightSCF SlowConv RIJCOSX defgrid2
|  2>
|  3> %pal
|  4> nprocs 8
|  5> end
|  6>
|  7> %scf
|  8> MaxIter 1500
|  9> end
| 10>
| 11> %maxcore 3500
| 12>
| 13> !CPCM
| 14> %cpcm smd true
| 15> SMDsolvent "MeCN"
| 16> surfacetype gepol_ses
| 17> rsolv 2.19
| 18> end
| 19>
| 20> * xyz 0 1
| 21>   C           1.35661311001034      0.08242353673381     -0.04830147992154
| 22>   C           0.72528734400678      1.33237499260851      0.02931980589731
| 23>   C          -0.65716684626784      1.42571283843268      0.04302512633637
| 24>   C          -1.44754625606451      0.26653460954742      0.00874339988909
| 25>   C          -0.82552870874395     -0.98502153376474     -0.04770168852446
| 26>   C           0.56772235704198     -1.06633130194090     -0.08313298846277
| 27>   H           1.05006188676245     -2.04577688056741     -0.14354433447971
| 28>   H          -1.41135553820799     -1.90566385705075     -0.07389044457674
| 29>   O          -2.78063858244739      0.45554290336633      0.03645550634804
| 30>   C          -3.62283453444167     -0.66142074230683      0.01078196288993
| 31>   H          -4.65283077190408     -0.27592428677814      0.04102787975267
| 32>   H          -3.48787720923621     -1.25466269618222     -0.91406269819965
| 33>   H          -3.45860421924221     -1.31813897835911      0.88673287617431
| 34>   H          -1.16047233306293      2.39441311771435      0.09515969980486
| 35>   H           1.33361129819119      2.23967992641979      0.08145593960365
| 36>   S           3.13145786803727     -0.06127748319567     -0.01892864657318
| 37>   H           3.36519883556877      0.49010163532289     -1.23773021595817
| 38> *
| 39>
| 40>                          ****END OF INPUT****
 Total Charge           Charge          ....    0
 Multiplicity           Mult            ....    1
 Number of Electrons    NEL             ....   74
Dispersion correction           -0.005438347
FINAL SINGLE POINT ENERGY      -744.898552113506
Dispersion correction             ... done (  0.1 sec)
Dispersion correction           -0.005444642
FINAL SINGLE POINT ENERGY      -744.899738414061
Dispersion correction             ... done (  0.1 sec)
Dispersion correction           -0.005446874
FINAL SINGLE POINT ENERGY      -744.900181849114
Dispersion correction             ... done (  0.1 sec)
FINAL SINGLE POINT ENERGY      -744.900667260529
FINAL SINGLE POINT ENERGY      -744.900913786522
FINAL SINGLE POINT ENERGY      -744.901118876143
FINAL SINGLE POINT ENERGY      -744.901185987385
FINAL SINGLE POINT ENERGY      -744.901197920900
Dispersion correction             ... done (  0.1 sec)
Dispersion correction           -0.005448004
FINAL SINGLE POINT ENERGY      -744.901199229497
Dispersion correction             ... done (  0.1 sec)
Dispersion correction           -0.005448019
FINAL SINGLE POINT ENERGY      -744.901199718834
Dispersion correction             ... done (  0.1 sec)
                    ***********************HURRAY********************

CARTESIAN COORDINATES (ANGSTROEM)
---------------------------------
  C      1.341211   -0.004953   -0.213430
  C      0.753436    1.262028   -0.161289
  C     -0.622030    1.389211   -0.068740
  C     -1.439268    0.255867   -0.029371
  C     -0.857184   -1.010892   -0.083620
  C      0.526862   -1.133088   -0.174072
  H      0.964031   -2.124460   -0.213260
  H     -1.460940   -1.907015   -0.055202
  O     -2.775796    0.485562    0.061094
  C     -3.632246   -0.655616    0.100513
  H     -4.644605   -0.264397    0.167669
  H     -3.531516   -1.254551   -0.808360
  H     -3.421896   -1.275712    0.975947
  H     -1.078962    2.370877   -0.026521
  H      1.369256    2.153165   -0.193286
  S      3.099276   -0.237967   -0.333620
  H      3.435466    1.064507   -0.279043

 Multiplicity           Mult            ....    1
 Number of Electrons    NEL             ....   74
 Basis Dimension        Dim             ....  602

ORBITAL ENERGIES
----------------

  NO   OCC          E(Eh)            E(eV)
   0   2.0000     -88.570211     -2410.1180
   1   2.0000     -18.989938      -516.7425
   2   2.0000     -10.098470      -274.7933
   3   2.0000     -10.075314      -274.1632
   4   2.0000     -10.074771      -274.1484
   5   2.0000     -10.045744      -273.3586
   6   2.0000     -10.045108      -273.3413
   7   2.0000     -10.039990      -273.2020
   8   2.0000     -10.039069      -273.1770
   9   2.0000      -7.863905      -213.9877
  10   2.0000      -5.810351      -158.1077
  11   2.0000      -5.806447      -158.0015
  12   2.0000      -5.801935      -157.8787
  13   2.0000      -1.031284       -28.0627
  14   2.0000      -0.833415       -22.6784
  15   2.0000      -0.754252       -20.5242
  16   2.0000      -0.723949       -19.6997
  17   2.0000      -0.688975       -18.7480
  18   2.0000      -0.643559       -17.5121
  19   2.0000      -0.585237       -15.9251
  20   2.0000      -0.553364       -15.0578
  21   2.0000      -0.501445       -13.6450
  22   2.0000      -0.462388       -12.5822
  23   2.0000      -0.438586       -11.9345
  24   2.0000      -0.431318       -11.7368
  25   2.0000      -0.415210       -11.2984
  26   2.0000      -0.394999       -10.7485
  27   2.0000      -0.386096       -10.5062
  28   2.0000      -0.363475        -9.8906
  29   2.0000      -0.361235        -9.8297
  30   2.0000      -0.329949        -8.9784
  31   2.0000      -0.315472        -8.5844
  32   2.0000      -0.312591        -8.5060
  33   2.0000      -0.296678        -8.0730
  34   2.0000      -0.251864        -6.8536
  35   2.0000      -0.244986        -6.6664
  36   2.0000      -0.187082        -5.0908
  37   0.0000      -0.043688        -1.1888
  38   0.0000      -0.025027        -0.6810
  39   0.0000      -0.010441        -0.2841
  40   0.0000       0.010039         0.2732
  41   0.0000       0.015475         0.4211

MULLIKEN ATOMIC CHARGES
-----------------------
   0 C :    0.958489
   1 C :   -0.715471
   2 C :   -0.905126
   3 C :    1.189398
   4 C :   -0.260985
   5 C :   -0.976873
   6 H :    0.387838
   7 H :    0.434828
   8 O :   -0.666639
   9 C :   -0.646186
  10 H :    0.241534
  11 H :    0.257311
  12 H :    0.256639
  13 H :    0.511788
  14 H :    0.262560
  15 S :   -0.454810
  16 H :    0.125706
Sum of atomic charges:   -0.0000000

LOEWDIN ATOMIC CHARGES
----------------------
   0 C :   -0.593074
   1 C :    0.113361
   2 C :    0.192510
   3 C :   -0.408998
   4 C :    0.194085
   5 C :    0.098124
   6 H :   -0.193239
   7 H :   -0.199086
   8 O :    0.592903
   9 C :    0.357829
  10 H :   -0.179146
  11 H :   -0.171625
  12 H :   -0.171093
  13 H :   -0.177497
  14 H :   -0.194849
  15 S :    1.301505
  16 H :   -0.561712

  Mayer bond orders larger than 0.100000
B(  0-C ,  1-C ) :   0.8723 B(  0-C ,  5-C ) :   1.0200 B(  0-C , 15-S ) :   0.2517
B(  1-C ,  2-C ) :   1.1900 B(  1-C ,  3-C ) :  -0.3289 B(  1-C , 14-H ) :   0.7984
B(  2-C ,  3-C ) :   0.6108 B(  2-C ,  4-C ) :   0.2225 B(  2-C ,  8-O ) :   0.3012
B(  2-C , 13-H ) :   0.3885 B(  3-C ,  4-C ) :   0.8815 B(  3-C ,  5-C ) :  -0.2962
B(  3-C ,  7-H ) :   0.1137 B(  3-C ,  8-O ) :   0.3403 B(  4-C ,  5-C ) :   0.8114
B(  4-C ,  7-H ) :   0.3973 B(  4-C ,  8-O ) :  -0.1186 B(  4-C ,  9-C ) :  -0.1187
B(  5-C ,  6-H ) :   0.6964 B(  5-C , 15-S ) :   0.1505 B(  8-O ,  9-C ) :   0.9926
B(  9-C , 10-H ) :   0.9788 B(  9-C , 11-H ) :   0.9172 B(  9-C , 12-H ) :   0.9177
B( 15-S , 16-H ) :   1.0667

Dispersion correction           -0.005447989
FINAL SINGLE POINT ENERGY      -744.901199146880

DIPOLE MOMENT
-------------

Method             : SCF
Type of density    : Electron Density
Multiplicity       :   1
Irrep              :   0
Energy             :  -744.8957511579526454 Eh
Relativity type    :
Basis              : AO
                                X                 Y                 Z
Electronic contribution:      7.099179958       1.001545630      -0.480805910
Nuclear contribution   :     -7.946346895      -1.153610244       0.552094833
                        -----------------------------------------
Total Dipole Moment    :     -0.847166937      -0.152064614       0.071288923
                        -----------------------------------------
Magnitude (a.u.)       :      0.863653621
Magnitude (Debye)      :      2.195233046

Rotational constants in cm-1:             0.158793             0.023135             0.020272
Rotational constants in MHz :          4760.480213           693.582042           607.731276

                             ****ORCA TERMINATED NORMALLY****
TOTAL RUN TIME: 0 days 0 hours 22 minutes 31 seconds 550 msec
