                         Program Version 6.0.0  -   RELEASE  -
|  1> !TPSSh aug-cc-pVTZ d3 TightSCF SlowConv RIJCOSX defgrid2
|  2>
|  3> %pal
|  4> nprocs 4
|  5> end
|  6>
|  7> %scf
|  8> MaxIter 1500
|  9> end
| 10>
| 11> %maxcore 3000
| 12>
| 13> !CPCM
| 14> %cpcm smd true
| 15> SMDsolvent "MeCN"
| 16> surfacetype gepol_ses
| 17> rsolv 2.19
| 18> end
| 19>
| 20> * xyz 1 2
| 21> C           1.56411298308256     -1.23948514477004     -0.10418100456342
| 22> C           2.94368174819201     -1.22399346873146     -0.08222881875616
| 23> C           3.62829509556698     -0.00527124649099      0.03533216996641
| 24> C           2.91690679987594      1.20436209520410      0.12189533623917
| 25> C           1.53837367111152      1.19695452226545      0.08354541546876
| 26> C           0.81270320076294     -0.02581622100353     -0.02471147709908
| 27> C          -0.62456099600129     -0.00774337256640     -0.04364594026659
| 28> C          -1.35469923195748     -1.19559169113903      0.09103295930174
| 29> C          -2.82277389645953     -1.26777692582385      0.16984319084975
| 30> C          -3.52145036714036      0.07542391320474      0.33030984445232
| 31> C          -2.84421744986526      1.11928751618814     -0.54346013749953
| 32> C          -1.37724631745571      1.28864519852577     -0.15684571320763
| 33> H          -0.86941817273049      1.94978262536238     -0.87811192857259
| 34> H          -1.30963007910482      1.80378079157142      0.82358949269975
| 35> H          -3.35155550657584      2.09318614428475     -0.45769951109418
| 36> H          -2.91426747189626      0.82232909406415     -1.60637738831724
| 37> H          -4.58799893909126     -0.02529210685066      0.07520987112053
| 38> H          -3.47978220021016      0.38792054597581      1.38967757724746
| 39> H          -3.14919539400669     -1.77633387981961     -0.76848551187315
| 40> H          -3.10223657823725     -1.99716471247534      0.95556557069623
| 41> H          -0.82292218871793     -2.14995476101911      0.14728310793351
| 42> H           1.00142564161039      2.14381086727947      0.15925446288599
| 43> H           3.45702786598241      2.14958081367639      0.21918826417843
| 44> H           4.72206867248084      0.00454899918573      0.05884230889501
| 45> H           3.50197914639113     -2.16035785555081     -0.15869714710684
| 46> H           1.05904956439360     -2.20048274054750     -0.21144959357865
| 47> *
| 48>
| 49>                          ****END OF INPUT****

CARTESIAN COORDINATES (ANGSTROEM)
---------------------------------
  C      1.564113   -1.239485   -0.104181
  C      2.943682   -1.223993   -0.082229
  C      3.628295   -0.005271    0.035332
  C      2.916907    1.204362    0.121895
  C      1.538374    1.196955    0.083545
  C      0.812703   -0.025816   -0.024711
  C     -0.624561   -0.007743   -0.043646
  C     -1.354699   -1.195592    0.091033
  C     -2.822774   -1.267777    0.169843
  C     -3.521450    0.075424    0.330310
  C     -2.844217    1.119288   -0.543460
  C     -1.377246    1.288645   -0.156846
  H     -0.869418    1.949783   -0.878112
  H     -1.309630    1.803781    0.823589
  H     -3.351556    2.093186   -0.457700
  H     -2.914267    0.822329   -1.606377
  H     -4.587999   -0.025292    0.075210
  H     -3.479782    0.387921    1.389678
  H     -3.149195   -1.776334   -0.768486
  H     -3.102237   -1.997165    0.955566
  H     -0.822922   -2.149955    0.147283
  H      1.001426    2.143811    0.159254
  H      3.457028    2.149581    0.219188
  H      4.722069    0.004549    0.058842
  H      3.501979   -2.160358   -0.158697
  H      1.059050   -2.200483   -0.211450

 Total Charge           Charge          ....    1
 Multiplicity           Mult            ....    2
 Number of Electrons    NEL             ....   85
 Basis Dimension        Dim             ....  874

ORBITAL ENERGIES
----------------
                 SPIN UP ORBITALS
  NO   OCC          E(Eh)            E(eV)
   0   1.0000     -10.186505      -277.1889
   1   1.0000     -10.185898      -277.1724
   2   1.0000     -10.171955      -276.7930
   3   1.0000     -10.158470      -276.4260
   4   1.0000     -10.156211      -276.3646
   5   1.0000     -10.151396      -276.2335
   6   1.0000     -10.143090      -276.0075
   7   1.0000     -10.141097      -275.9533
   8   1.0000     -10.135697      -275.8063
   9   1.0000     -10.132198      -275.7111
  10   1.0000     -10.116993      -275.2974
  11   1.0000     -10.116674      -275.2887
  12   1.0000      -0.881113       -23.9763
  13   1.0000      -0.847307       -23.0564
  14   1.0000      -0.784655       -21.3516
  15   1.0000      -0.761981       -20.7346
  16   1.0000      -0.749047       -20.3826
  17   1.0000      -0.727066       -19.7845
  18   1.0000      -0.640211       -17.4210
  19   1.0000      -0.633101       -17.2276
  20   1.0000      -0.596887       -16.2421
  21   1.0000      -0.586548       -15.9608
  22   1.0000      -0.535006       -14.5583
  23   1.0000      -0.519331       -14.1317
  24   1.0000      -0.485001       -13.1975
  25   1.0000      -0.465494       -12.6667
  26   1.0000      -0.462429       -12.5833
  27   1.0000      -0.439483       -11.9590
  28   1.0000      -0.429546       -11.6885
  29   1.0000      -0.428659       -11.6644
  30   1.0000      -0.418233       -11.3807
  31   1.0000      -0.402851       -10.9621
  32   1.0000      -0.401605       -10.9282
  33   1.0000      -0.388552       -10.5730
  34   1.0000      -0.377775       -10.2798
  35   1.0000      -0.358756        -9.7622
  36   1.0000      -0.348640        -9.4870
  37   1.0000      -0.323743        -8.8095
  38   1.0000      -0.319652        -8.6982
  39   1.0000      -0.313060        -8.5188
  40   1.0000      -0.308456        -8.3935
  41   1.0000      -0.276796        -7.5320
  42   1.0000      -0.251406        -6.8411
  43   0.0000      -0.101757        -2.7689
  44   0.0000      -0.047836        -1.3017
  45   0.0000      -0.013799        -0.3755
  46   0.0000      -0.007732        -0.2104
  47   0.0000       0.001777         0.0484

                 SPIN DOWN ORBITALS
  NO   OCC          E(Eh)            E(eV)
   0   1.0000     -10.184261      -277.1278
   1   1.0000     -10.179207      -276.9903
   2   1.0000     -10.171035      -276.7679
   3   1.0000     -10.155089      -276.3340
   4   1.0000     -10.154066      -276.3062
   5   1.0000     -10.149984      -276.1951
   6   1.0000     -10.143702      -276.0242
   7   1.0000     -10.142183      -275.9828
   8   1.0000     -10.135874      -275.8112
   9   1.0000     -10.132283      -275.7134
  10   1.0000     -10.116953      -275.2963
  11   1.0000     -10.116644      -275.2879
  12   1.0000      -0.875309       -23.8184
  13   1.0000      -0.840807       -22.8795
  14   1.0000      -0.781807       -21.2740
  15   1.0000      -0.759149       -20.6575
  16   1.0000      -0.745201       -20.2779
  17   1.0000      -0.719789       -19.5865
  18   1.0000      -0.637952       -17.3596
  19   1.0000      -0.629200       -17.1214
  20   1.0000      -0.592839       -16.1320
  21   1.0000      -0.584207       -15.8971
  22   1.0000      -0.533310       -14.5121
  23   1.0000      -0.515444       -14.0259
  24   1.0000      -0.482690       -13.1347
  25   1.0000      -0.463567       -12.6143
  26   1.0000      -0.458787       -12.4842
  27   1.0000      -0.435227       -11.8431
  28   1.0000      -0.429046       -11.6749
  29   1.0000      -0.423999       -11.5376
  30   1.0000      -0.415244       -11.2994
  31   1.0000      -0.400156       -10.8888
  32   1.0000      -0.393429       -10.7057
  33   1.0000      -0.385124       -10.4798
  34   1.0000      -0.368346       -10.0232
  35   1.0000      -0.357817        -9.7367
  36   1.0000      -0.347617        -9.4591
  37   1.0000      -0.321725        -8.7546
  38   1.0000      -0.318075        -8.6553
  39   1.0000      -0.311060        -8.4644
  40   1.0000      -0.290745        -7.9116
  41   1.0000      -0.272114        -7.4046
  42   0.0000      -0.196228        -5.3396
  43   0.0000      -0.074303        -2.0219
  44   0.0000      -0.040619        -1.1053
  45   0.0000      -0.008910        -0.2424
  46   0.0000       0.001447         0.0394

MULLIKEN ATOMIC CHARGES AND SPIN POPULATIONS
--------------------------------------------
   0 C :   -0.508656    0.116804
   1 C :   -0.674159   -0.072051
   2 C :   -0.046485    0.217447
   3 C :   -0.854552   -0.029265
   4 C :   -0.453376    0.067078
   5 C :    1.385324    0.125525
   6 C :    1.461133    0.163545
   7 C :   -0.845540    0.439291
   8 C :    0.118111   -0.089546
   9 C :    0.063439    0.003767
  10 C :   -0.077866   -0.003157
  11 C :    0.030317   -0.019110
  12 H :    0.075187    0.005430
  13 H :    0.139394    0.017725
  14 H :   -0.050786    0.000619
  15 H :    0.022730   -0.002244
  16 H :   -0.026040   -0.000745
  17 H :    0.062619    0.001864
  18 H :    0.127748    0.055257
  19 H :    0.077490    0.023199
  20 H :   -0.092151   -0.017330
  21 H :   -0.062483    0.002420
  22 H :    0.450755   -0.001853
  23 H :    0.333201    0.002042
  24 H :    0.446921   -0.004635
  25 H :   -0.102277   -0.002078
Sum of atomic charges         :    1.0000000

LOEWDIN ATOMIC CHARGES AND SPIN POPULATIONS
-------------------------------------------
   0 C :    0.264288    0.069592
   1 C :    0.249192    0.020115
   2 C :    0.253922    0.103468
   3 C :    0.251908    0.028883
   4 C :    0.259614    0.054588
   5 C :   -0.048276    0.084943
   6 C :    0.022693    0.152470
   7 C :    0.374471    0.245209
   8 C :    0.326169    0.077525
   9 C :    0.300208    0.004172
  10 C :    0.300763    0.003266
  11 C :    0.308389    0.027678
  12 H :   -0.129256    0.003717
  13 H :   -0.101796    0.008275
  14 H :   -0.121470    0.000338
  15 H :   -0.117693    0.000252
  16 H :   -0.123463   -0.000121
  17 H :   -0.121269    0.000764
  18 H :   -0.098704    0.025270
  19 H :   -0.108632    0.012978
  20 H :   -0.151464    0.039356
  21 H :   -0.166035    0.009373
  22 H :   -0.151943   -0.002067
  23 H :   -0.145309    0.023812
  24 H :   -0.153112   -0.005245
  25 H :   -0.173194    0.011388

  Mayer bond orders larger than 0.100000
B(  0-C ,  1-C ) :   1.4704 B(  0-C ,  4-C ) :  -0.5443 B(  0-C ,  5-C ) :   0.2784
B(  0-C ,  6-C ) :   0.1781 B(  0-C , 25-H ) :   1.4218 B(  1-C ,  2-C ) :   1.2677
B(  1-C ,  3-C ) :   0.2373 B(  1-C ,  5-C ) :  -0.1405 B(  1-C , 24-H ) :   0.4406
B(  2-C ,  3-C ) :   1.2649 B(  2-C ,  5-C ) :  -0.2497 B(  2-C ,  6-C ) :   0.2810
B(  2-C , 22-H ) :   0.1020 B(  2-C , 23-H ) :   0.6496 B(  3-C ,  4-C ) :   1.4618
B(  3-C , 22-H ) :   0.4078 B(  4-C ,  5-C ) :   0.5149 B(  4-C ,  6-C ) :   0.1360
B(  4-C ,  7-C ) :   0.1220 B(  4-C , 21-H ) :   1.3343 B(  5-C ,  6-C ) :   0.2768
B(  5-C , 21-H ) :   0.2282 B(  5-C , 25-H ) :   0.1429 B(  6-C ,  7-C ) :   0.2591
B(  6-C ,  9-C ) :  -0.1014 B(  6-C , 11-C ) :   0.9432 B(  6-C , 21-H ) :  -0.4260
B(  6-C , 22-H ) :   0.1299 B(  6-C , 23-H ) :  -0.1034 B(  6-C , 25-H ) :  -0.3202
B(  7-C ,  8-C ) :   0.9517 B(  7-C , 11-C ) :  -0.1399 B(  7-C , 20-H ) :   1.3237
B(  8-C ,  9-C ) :   1.1076 B(  8-C , 10-C ) :   0.1083 B(  8-C , 18-H ) :   0.8964
B(  8-C , 19-H ) :   0.8564 B(  9-C , 10-C ) :   1.0962 B(  9-C , 16-H ) :   0.9600
B(  9-C , 17-H ) :   0.9345 B( 10-C , 11-C ) :   1.1184 B( 10-C , 14-H ) :   0.9446
B( 10-C , 15-H ) :   0.9518 B( 11-C , 12-H ) :   0.9210 B( 11-C , 13-H ) :   0.8825
B( 11-C , 21-H ) :   0.1062 B( 21-H , 25-H ) :   0.1191

Dispersion correction           -0.034376583
FINAL SINGLE POINT ENERGY      -465.742556389752

DIPOLE MOMENT
-------------

Method             : SCF
Type of density    : Electron Density
Multiplicity       :   2
Irrep              :   0
Energy             :  -465.7081798070415175 Eh
Relativity type    :
Basis              : AO
                                X                 Y                 Z
Electronic contribution:      9.222421748      -1.538542206       0.143476223
Nuclear contribution   :     -9.269537752       0.974022475      -0.092780432
                        -----------------------------------------
Total Dipole Moment    :     -0.047116004      -0.564519731       0.050695790
                        -----------------------------------------
Magnitude (a.u.)       :      0.568746436
Magnitude (Debye)      :      1.445638553

Rotational constants in cm-1:             0.084417             0.017556             0.014881
Rotational constants in MHz :          2530.764914           526.301253           446.117666

                             ****ORCA TERMINATED NORMALLY****
TOTAL RUN TIME: 0 days 0 hours 17 minutes 38 seconds 339 msec
