                         Program Version 6.0.0  -   RELEASE  -
|  1> !B3LYP aug-cc-pVTZ d3 TightSCF SlowConv RIJCOSX defgrid2
|  2>
|  3> %pal
|  4> nprocs 4
|  5> end
|  6>
|  7> %scf
|  8> MaxIter 1500
|  9> end
| 10>
| 11> %maxcore 3000
| 12>
| 13> !CPCM
| 14> %cpcm smd true
| 15> SMDsolvent "MeCN"
| 16> surfacetype gepol_ses
| 17> rsolv 2.19
| 18> end
| 19>
| 20> * xyz 0 1
| 21> C           0.03260910228520      1.08137561321675     -0.00005519024681
| 22> C          -1.34067616416986      1.33940990966857     -0.00006277386150
| 23> C          -2.26505829948608      0.29987796591520     -0.00002637645918
| 24> C          -1.80355661628939     -1.01995706797392      0.00001567004565
| 25> C          -0.44212934457685     -1.29206473885913      0.00002194287208
| 26> C           0.48773718530999     -0.24207145865110     -0.00001289966776
| 27> O           1.78848371232752     -0.60054348212568     -0.00000734481067
| 28> C           2.76447200773818      0.40008618654603     -0.00000767276834
| 29> H           2.69619012376907      1.04049548625701     -0.90084775937446
| 30> H           2.69616289260516      1.04052094820081      0.90081198872589
| 31> H           3.73793416758510     -0.11300324243944      0.00001415192437
| 32> H          -0.06314832394927     -2.31720165011296      0.00005410336572
| 33> H          -2.51681541922482     -1.84998358326110      0.00004248911056
| 34> H          -3.33762461646730      0.51193314493410     -0.00003142013851
| 35> H          -1.68480228384705      2.37828066720121     -0.00009724328111
| 36> H           0.73383607639040      1.91798680148364     -0.00008576543595
| 37> *
| 38>
| 39>                          ****END OF INPUT****

CARTESIAN COORDINATES (ANGSTROEM)
---------------------------------
  C      0.032609    1.081376   -0.000055
  C     -1.340676    1.339410   -0.000063
  C     -2.265058    0.299878   -0.000026
  C     -1.803557   -1.019957    0.000016
  C     -0.442129   -1.292065    0.000022
  C      0.487737   -0.242071   -0.000013
  O      1.788484   -0.600543   -0.000007
  C      2.764472    0.400086   -0.000008
  H      2.696190    1.040495   -0.900848
  H      2.696163    1.040521    0.900812
  H      3.737934   -0.113003    0.000014
  H     -0.063148   -2.317202    0.000054
  H     -2.516815   -1.849984    0.000042
  H     -3.337625    0.511933   -0.000031
  H     -1.684802    2.378281   -0.000097
  H      0.733836    1.917987   -0.000086

 Total Charge           Charge          ....    0
 Multiplicity           Mult            ....    1
 Number of Electrons    NEL             ....   58
 Basis Dimension        Dim             ....  552

ORBITAL ENERGIES
----------------

  NO   OCC          E(Eh)            E(eV)
   0   2.0000     -19.160118      -521.3733
   1   2.0000     -10.235799      -278.5302
   2   2.0000     -10.214316      -277.9457
   3   2.0000     -10.176763      -276.9238
   4   2.0000     -10.176637      -276.9204
   5   2.0000     -10.172558      -276.8094
   6   2.0000     -10.171273      -276.7744
   7   2.0000     -10.168225      -276.6915
   8   2.0000      -1.075982       -29.2790
   9   2.0000      -0.851504       -23.1706
  10   2.0000      -0.756074       -20.5738
  11   2.0000      -0.744424       -20.2568
  12   2.0000      -0.688124       -18.7248
  13   2.0000      -0.607411       -16.5285
  14   2.0000      -0.585368       -15.9287
  15   2.0000      -0.533600       -14.5200
  16   2.0000      -0.482460       -13.1284
  17   2.0000      -0.478169       -13.0116
  18   2.0000      -0.466825       -12.7030
  19   2.0000      -0.439339       -11.9550
  20   2.0000      -0.419258       -11.4086
  21   2.0000      -0.408285       -11.1100
  22   2.0000      -0.377854       -10.2819
  23   2.0000      -0.362548        -9.8654
  24   2.0000      -0.354010        -9.6331
  25   2.0000      -0.323735        -8.8093
  26   2.0000      -0.322428        -8.7737
  27   2.0000      -0.257848        -7.0164
  28   2.0000      -0.225550        -6.1375
  29   0.0000      -0.015213        -0.4140
  30   0.0000      -0.003051        -0.0830
  31   0.0000      -0.000551        -0.0150
  32   0.0000       0.009241         0.2515
  33   0.0000       0.013436         0.3656

MULLIKEN ATOMIC CHARGES
-----------------------
   0 C :   -0.484882
   1 C :   -0.488820
   2 C :   -0.647156
   3 C :   -0.236644
   4 C :   -1.018986
   5 C :    1.184078
   6 O :   -0.706303
   7 C :   -0.676949
   8 H :    0.263555
   9 H :    0.263974
  10 H :    0.251263
  11 H :    0.536769
  12 H :    0.348338
  13 H :    0.506210
  14 H :    0.293097
  15 H :    0.612457
Sum of atomic charges:   -0.0000000

LOEWDIN ATOMIC CHARGES
----------------------
   0 C :    0.190998
   1 C :    0.169609
   2 C :    0.166642
   3 C :    0.164725
   4 C :    0.185118
   5 C :   -0.411233
   6 O :    0.590616
   7 C :    0.309640
   8 H :   -0.159102
   9 H :   -0.159122
  10 H :   -0.168699
  11 H :   -0.172529
  12 H :   -0.170163
  13 H :   -0.177568
  14 H :   -0.169135
  15 H :   -0.189798

  Mayer bond orders larger than 0.100000
B(  0-C ,  1-C ) :   0.9894 B(  0-C ,  2-C ) :   0.2948 B(  0-C ,  3-C ) :  -0.1079
B(  0-C ,  4-C ) :   0.5496 B(  0-C ,  5-C ) :   0.9120 B(  0-C , 15-H ) :   0.1590
B(  1-C ,  2-C ) :   1.2039 B(  1-C ,  3-C ) :  -0.2585 B(  1-C ,  5-C ) :  -0.4593
B(  1-C , 14-H ) :   0.9545 B(  1-C , 15-H ) :   0.1553 B(  2-C ,  3-C ) :   1.1051
B(  2-C ,  4-C ) :   0.4230 B(  2-C , 13-H ) :   0.5142 B(  2-C , 15-H ) :  -0.1359
B(  3-C ,  4-C ) :   1.1943 B(  3-C ,  5-C ) :  -0.3652 B(  3-C , 12-H ) :   0.8562
B(  3-C , 15-H ) :   0.1772 B(  4-C ,  5-C ) :   0.5853 B(  4-C ,  6-O ) :   0.2512
B(  4-C , 11-H ) :   0.3130 B(  4-C , 15-H ) :  -0.1400 B(  5-C ,  6-O ) :   0.4584
B(  6-O ,  7-C ) :   1.0399 B(  7-C ,  8-H ) :   0.9261 B(  7-C ,  9-H ) :   0.9260
B(  7-C , 10-H ) :   0.9664

Dispersion correction           -0.025680685
FINAL SINGLE POINT ENERGY      -346.724078105823

DIPOLE MOMENT
-------------

Method             : SCF
Type of density    : Electron Density
Multiplicity       :   1
Irrep              :   0
Energy             :  -346.6983974212803901 Eh
Relativity type    :
Basis              : AO
                                X                 Y                 Z
Electronic contribution:     -1.719620924      -1.881460188       0.000004845
Nuclear contribution   :      2.143742692       2.450814428      -0.000006666
                        -----------------------------------------
Total Dipole Moment    :      0.424121768       0.569354240      -0.000001821
                        -----------------------------------------
Magnitude (a.u.)       :      0.709960227
Magnitude (Debye)      :      1.804575486

Rotational constants in cm-1:             0.168604             0.052375             0.040274
Rotational constants in MHz :          5054.615103          1570.170626          1207.382090

                             ****ORCA TERMINATED NORMALLY****
TOTAL RUN TIME: 0 days 0 hours 3 minutes 31 seconds 417 msec
