                         Program Version 6.0.0  -   RELEASE  -
|  1> !r2SCAN aug-cc-pVTZ d3 TightSCF SlowConv RIJCOSX defgrid2
|  2>
|  3> %pal
|  4> nprocs 15
|  5> end
|  6>
|  7> %scf
|  8> MaxIter 1500
|  9> end
| 10>
| 11> %maxcore 3500
| 12>
| 13> !CPCM
| 14> %cpcm smd true
| 15> SMDsolvent "WATER"
| 16> surfacetype gepol_ses
| 17> rsolv 1.40
| 18> end
| 19>
| 20> * xyz 0 1
| 21> C          -0.00000020978988      0.00000073694249     -0.05069100410522
| 22> C          -1.20906788297771     -0.37099775736022      0.72498240348112
| 23> C           1.20906839531154      0.37099639744085      0.72498233629225
| 24> H          -2.08965714718270     -0.64109787483542      0.13413739306601
| 25> H           2.08965862753959      0.64109516807399      0.13413744999163
| 26> C          -1.20906829311347     -0.37099671339690      2.06767561532039
| 27> C           1.20906814538816      0.37099731197670      2.06767588420582
| 28> H          -2.08965863090342     -0.64109537543156      2.65852032753444
| 29> H           2.08965866999056      0.64109660483906      2.65852006555801
| 30> C          -0.00000017070001      0.00000032151215      2.84334909378969
| 31> O          -0.00000037912842     -0.00000048181393      4.05737768473263
| 32> O          -0.00000112443423      0.00000166205280     -1.26471924986679
| 33> *
| 34>
| 35>                          ****END OF INPUT****

CARTESIAN COORDINATES (ANGSTROEM)
---------------------------------
  C     -0.000000    0.000001   -0.050691
  C     -1.209068   -0.370998    0.724982
  C      1.209068    0.370996    0.724982
  H     -2.089657   -0.641098    0.134137
  H      2.089659    0.641095    0.134137
  C     -1.209068   -0.370997    2.067676
  C      1.209068    0.370997    2.067676
  H     -2.089659   -0.641095    2.658520
  H      2.089659    0.641097    2.658520
  C     -0.000000    0.000000    2.843349
  O     -0.000000   -0.000000    4.057378
  O     -0.000001    0.000002   -1.264719

 Total Charge           Charge          ....    0
 Multiplicity           Mult            ....    1
 Number of Electrons    NEL             ....   56
 Basis Dimension        Dim             ....  460

ORBITAL ENERGIES
----------------

  NO   OCC          E(Eh)            E(eV)
   0   2.0000     -18.975086      -516.3383
   1   2.0000     -18.975082      -516.3382
   2   2.0000     -10.147423      -276.1254
   3   2.0000     -10.147404      -276.1249
   4   2.0000     -10.071738      -274.0659
   5   2.0000     -10.071723      -274.0655
   6   2.0000     -10.071042      -274.0470
   7   2.0000     -10.071023      -274.0465
   8   2.0000      -1.037597       -28.2344
   9   2.0000      -1.036008       -28.1912
  10   2.0000      -0.821299       -22.3487
  11   2.0000      -0.750682       -20.4271
  12   2.0000      -0.673285       -18.3210
  13   2.0000      -0.601790       -16.3755
  14   2.0000      -0.567206       -15.4345
  15   2.0000      -0.480230       -13.0677
  16   2.0000      -0.476253       -12.9595
  17   2.0000      -0.452749       -12.3199
  18   2.0000      -0.420321       -11.4375
  19   2.0000      -0.417432       -11.3589
  20   2.0000      -0.409838       -11.1523
  21   2.0000      -0.394800       -10.7430
  22   2.0000      -0.390773       -10.6335
  23   2.0000      -0.363137        -9.8815
  24   2.0000      -0.292424        -7.9573
  25   2.0000      -0.276007        -7.5105
  26   2.0000      -0.255979        -6.9656
  27   2.0000      -0.243952        -6.6383
  28   0.0000      -0.160295        -4.3618
  29   0.0000      -0.052243        -1.4216
  30   0.0000      -0.023267        -0.6331
  31   0.0000       0.012252         0.3334
  32   0.0000       0.025867         0.7039

MULLIKEN ATOMIC CHARGES
-----------------------
   0 C :    1.168885
   1 C :   -0.527801
   2 C :   -0.527586
   3 H :    0.434010
   4 H :    0.434128
   5 C :   -0.527667
   6 C :   -0.527906
   7 H :    0.434099
   8 H :    0.434061
   9 C :    1.168984
  10 O :   -0.981607
  11 O :   -0.981601
Sum of atomic charges:    0.0000000

LOEWDIN ATOMIC CHARGES
----------------------
   0 C :   -0.577567
   1 C :    0.224870
   2 C :    0.224878
   3 H :   -0.166564
   4 H :   -0.166555
   5 C :    0.224878
   6 C :    0.224870
   7 H :   -0.166555
   8 H :   -0.166563
   9 C :   -0.577567
  10 O :    0.460937
  11 O :    0.460938

  Mayer bond orders larger than 0.100000
B(  0-C ,  1-C ) :   0.8600 B(  0-C ,  2-C ) :   0.8600 B(  0-C ,  9-C ) :   0.1220
B(  0-C , 11-O ) :   0.7130 B(  1-C ,  2-C ) :   0.3854 B(  1-C ,  3-H ) :   0.5157
B(  1-C ,  5-C ) :   1.7056 B(  1-C ,  6-C ) :  -0.1862 B(  1-C , 11-O ) :   0.1452
B(  2-C ,  4-H ) :   0.5156 B(  2-C ,  5-C ) :  -0.1863 B(  2-C ,  6-C ) :   1.7054
B(  2-C , 11-O ) :   0.1452 B(  5-C ,  6-C ) :   0.3855 B(  5-C ,  7-H ) :   0.5156
B(  5-C ,  9-C ) :   0.8599 B(  5-C , 10-O ) :   0.1451 B(  6-C ,  8-H ) :   0.5157
B(  6-C ,  9-C ) :   0.8600 B(  6-C , 10-O ) :   0.1452 B(  9-C , 10-O ) :   0.7131

Dispersion correction           -0.003383481
FINAL SINGLE POINT ENERGY      -381.402980552544

DIPOLE MOMENT
-------------

Method             : SCF
Type of density    : Electron Density
Multiplicity       :   1
Irrep              :   0
Energy             :  -381.3995970714475447 Eh
Relativity type    :
Basis              : AO
                                X                 Y                 Z
Electronic contribution:     -0.000000414       0.000001537      -0.000000572
Nuclear contribution   :      0.000002198      -0.000002102      -0.000001065
                        -----------------------------------------
Total Dipole Moment    :      0.000001784      -0.000000565      -0.000001637
                        -----------------------------------------
Magnitude (a.u.)       :      0.000002487
Magnitude (Debye)      :      0.000006320

Rotational constants in cm-1:             0.175401             0.055278             0.042032
Rotational constants in MHz :          5258.386443          1657.201068          1260.081464

                             ****ORCA TERMINATED NORMALLY****
TOTAL RUN TIME: 0 days 0 hours 1 minutes 34 seconds 702 msec
