                         Program Version 6.0.0  -   RELEASE  -
|  1> !PBE0 opt aug-cc-pVTZ d3 TightSCF SlowConv RIJCOSX defgrid2
|  2>
|  3> %pal
|  4> nprocs 8
|  5> end
|  6>
|  7> %scf
|  8> MaxIter 1500
|  9> end
| 10>
| 11> %maxcore 3500
| 12>
| 13> !CPCM
| 14> %cpcm smd true
| 15> SMDsolvent "MeCN"
| 16> surfacetype gepol_ses
| 17> rsolv 2.19
| 18> end
| 19>
| 20> * xyz 1 2
| 21> C           2.44830417164420     -0.69527642473796      0.00000945881878
| 22> C           2.44832214826430      0.69521603339414      0.00001009734484
| 23> C           1.23352505326865      1.40025135317577      0.00000577718412
| 24> C           0.00001141556131      0.71453178803145      0.00000268426234
| 25> C          -1.23348320904465      1.40028329659239      0.00000107782236
| 26> C          -2.44830108548662      0.69527938835391      0.00000695148737
| 27> C          -2.44832067103510     -0.69521530453956      0.00000530486429
| 28> C          -1.23352061718470     -1.40025032772324     -0.00000393184308
| 29> C          -0.00000717114678     -0.71452684352053     -0.00000494703196
| 30> C           1.23348727294566     -1.40028215170085     -0.00000132918117
| 31> H           1.23935708532449     -2.49454817867840      0.00000050523970
| 32> H          -1.23942268133971     -2.49451730914708     -0.00000545360366
| 33> H          -3.39340211959580     -1.24489598698530      0.00000832828244
| 34> H          -3.39336678788360      1.24498332942293      0.00000859404642
| 35> H          -1.23935478912557      2.49455128204595      0.00000167009943
| 36> H           1.23942795953164      2.49451607920762      0.00000299068588
| 37> H           3.39340268697296      1.24489500413589      0.00001313139295
| 38> H           3.39337233832933     -1.24497302732713      0.00001569012894
| 39> *
| 40>
| 41>                          ****END OF INPUT****
 Total Charge           Charge          ....    1
 Multiplicity           Mult            ....    2
 Number of Electrons    NEL             ....   67
Dispersion correction           -0.018468744
FINAL SINGLE POINT ENERGY      -385.369624443144
Dispersion correction             ... done (  0.1 sec)
Dispersion correction           -0.018553309
FINAL SINGLE POINT ENERGY      -385.370949157810
Dispersion correction             ... done (  0.1 sec)
Dispersion correction           -0.018562837
FINAL SINGLE POINT ENERGY      -385.370958145908
Dispersion correction             ... done (  0.1 sec)
                    ***********************HURRAY********************

CARTESIAN COORDINATES (ANGSTROEM)
---------------------------------
  C      2.431183   -0.691068   -0.000115
  C      2.431203    0.691008   -0.000247
  C      1.224406    1.393535   -0.000287
  C      0.000013    0.710115   -0.000019
  C     -1.224364    1.393568    0.000261
  C     -2.431171    0.691068    0.000282
  C     -2.431201   -0.691007    0.000140
  C     -1.224401   -1.393532    0.000131
  C     -0.000009   -0.710115   -0.000021
  C      1.224368   -1.393558   -0.000154
  H      1.228127   -2.476576   -0.000101
  H     -1.228184   -2.476548    0.000065
  H     -3.365963   -1.235544   -0.000379
  H     -3.365916    1.235628   -0.000120
  H     -1.228151    2.476585    0.000280
  H      1.228212    2.476550   -0.000311
  H      3.365960    1.235565    0.000216
  H      3.365920   -1.235653    0.000453

 Multiplicity           Mult            ....    2
 Number of Electrons    NEL             ....   67
 Basis Dimension        Dim             ....  644

ORBITAL ENERGIES
----------------
                 SPIN UP ORBITALS
  NO   OCC          E(Eh)            E(eV)
   0   1.0000     -10.286190      -279.9015
   1   1.0000     -10.286169      -279.9009
   2   1.0000     -10.286151      -279.9004
   3   1.0000     -10.286137      -279.9000
   4   1.0000     -10.273652      -279.5603
   5   1.0000     -10.273123      -279.5459
   6   1.0000     -10.270404      -279.4719
   7   1.0000     -10.270403      -279.4719
   8   1.0000     -10.269718      -279.4532
   9   1.0000     -10.269704      -279.4528
  10   1.0000      -0.950892       -25.8751
  11   1.0000      -0.894330       -24.3360
  12   1.0000      -0.846144       -23.0248
  13   1.0000      -0.808180       -21.9917
  14   1.0000      -0.784968       -21.3601
  15   1.0000      -0.690566       -18.7913
  16   1.0000      -0.669714       -18.2238
  17   1.0000      -0.655717       -17.8430
  18   1.0000      -0.568388       -15.4666
  19   1.0000      -0.560697       -15.2573
  20   1.0000      -0.548532       -14.9263
  21   1.0000      -0.495290       -13.4775
  22   1.0000      -0.494319       -13.4511
  23   1.0000      -0.470550       -12.8043
  24   1.0000      -0.465981       -12.6800
  25   1.0000      -0.457055       -12.4371
  26   1.0000      -0.440078       -11.9751
  27   1.0000      -0.418855       -11.3976
  28   1.0000      -0.391188       -10.6448
  29   1.0000      -0.383692       -10.4408
  30   1.0000      -0.377999       -10.2859
  31   1.0000      -0.352318        -9.5870
  32   1.0000      -0.298919        -8.1340
  33   1.0000      -0.279386        -7.6025
  34   0.0000      -0.097007        -2.6397
  35   0.0000      -0.045780        -1.2457
  36   0.0000      -0.022719        -0.6182
  37   0.0000      -0.001009        -0.0275
  38   0.0000       0.010704         0.2913

                 SPIN DOWN ORBITALS
  NO   OCC          E(Eh)            E(eV)
   0   1.0000     -10.282242      -279.7940
   1   1.0000     -10.282209      -279.7931
   2   1.0000     -10.282205      -279.7930
   3   1.0000     -10.282180      -279.7924
   4   1.0000     -10.274789      -279.5912
   5   1.0000     -10.274264      -279.5769
   6   1.0000     -10.269822      -279.4561
   7   1.0000     -10.269821      -279.4560
   8   1.0000     -10.269122      -279.4370
   9   1.0000     -10.269108      -279.4366
  10   1.0000      -0.946190       -25.7471
  11   1.0000      -0.887331       -24.1455
  12   1.0000      -0.837016       -22.7764
  13   1.0000      -0.807621       -21.9765
  14   1.0000      -0.771601       -20.9963
  15   1.0000      -0.685768       -18.6607
  16   1.0000      -0.665951       -18.1215
  17   1.0000      -0.651077       -17.7167
  18   1.0000      -0.565374       -15.3846
  19   1.0000      -0.556396       -15.1403
  20   1.0000      -0.546463       -14.8700
  21   1.0000      -0.493723       -13.4349
  22   1.0000      -0.492846       -13.4110
  23   1.0000      -0.468223       -12.7410
  24   1.0000      -0.462921       -12.5967
  25   1.0000      -0.442796       -12.0491
  26   1.0000      -0.437352       -11.9010
  27   1.0000      -0.417775       -11.3682
  28   1.0000      -0.381247       -10.3743
  29   1.0000      -0.377191       -10.2639
  30   1.0000      -0.369378       -10.0513
  31   1.0000      -0.320437        -8.7195
  32   1.0000      -0.298656        -8.1269
  33   0.0000      -0.196576        -5.3491
  34   0.0000      -0.068941        -1.8760
  35   0.0000      -0.036402        -0.9905
  36   0.0000      -0.005765        -0.1569
  37   0.0000      -0.000174        -0.0047

MULLIKEN ATOMIC CHARGES AND SPIN POPULATIONS
--------------------------------------------
   0 C :   -0.438847    0.033624
   1 C :   -0.430718    0.033584
   2 C :   -1.060395    0.247022
   3 C :    1.396992   -0.051083
   4 C :   -1.050542    0.247023
   5 C :   -0.439082    0.033593
   6 C :   -0.439679    0.033700
   7 C :   -1.053799    0.246874
   8 C :    1.398015   -0.051102
   9 C :   -1.050167    0.247038
  10 H :    0.264322   -0.006300
  11 H :    0.266537   -0.006266
  12 H :    0.769839    0.001193
  13 H :    0.783903    0.001253
  14 H :    0.269248   -0.006359
  15 H :    0.256195   -0.006247
  16 H :    0.783822    0.001220
  17 H :    0.774355    0.001233
Sum of atomic charges         :    1.0000000

LOEWDIN ATOMIC CHARGES AND SPIN POPULATIONS
-------------------------------------------
   0 C :    0.278209    0.071970
   1 C :    0.278213    0.071967
   2 C :    0.300142    0.130836
   3 C :   -0.095564    0.029083
   4 C :    0.300155    0.130836
   5 C :    0.278206    0.071968
   6 C :    0.278217    0.071970
   7 C :    0.300156    0.130840
   8 C :   -0.095564    0.029084
   9 C :    0.300153    0.130838
  10 H :   -0.133193    0.025724
  11 H :   -0.133197    0.025725
  12 H :   -0.147388    0.006927
  13 H :   -0.147389    0.006927
  14 H :   -0.133189    0.025725
  15 H :   -0.133200    0.025725
  16 H :   -0.147380    0.006927
  17 H :   -0.147386    0.006928

  Mayer bond orders larger than 0.100000
B(  0-C ,  1-C ) :   1.3732 B(  0-C ,  3-C ) :  -0.2261 B(  0-C ,  7-C ) :   0.1006
B(  0-C ,  9-C ) :   1.2585 B(  0-C , 16-H ) :   0.1040 B(  0-C , 17-H ) :   0.1304
B(  1-C ,  2-C ) :   1.2483 B(  1-C ,  4-C ) :   0.1044 B(  1-C ,  8-C ) :  -0.2367
B(  1-C , 16-H ) :   0.1157 B(  1-C , 17-H ) :   0.1062 B(  2-C ,  3-C ) :   0.2223
B(  2-C ,  4-C ) :   0.3246 B(  2-C ,  5-C ) :   0.1045 B(  2-C ,  8-C ) :  -0.3123
B(  2-C ,  9-C ) :   0.1190 B(  2-C , 15-H ) :   1.0711 B(  2-C , 16-H ) :  -0.1934
B(  3-C ,  4-C ) :   0.2192 B(  3-C ,  6-C ) :  -0.2306 B(  3-C ,  7-C ) :  -0.3061
B(  3-C ,  8-C ) :   1.3125 B(  3-C ,  9-C ) :  -0.3054 B(  4-C ,  5-C ) :   1.2559
B(  4-C ,  7-C ) :   0.1173 B(  4-C ,  8-C ) :  -0.3071 B(  4-C , 13-H ) :  -0.1904
B(  4-C , 14-H ) :   1.0443 B(  5-C ,  6-C ) :   1.3716 B(  5-C ,  8-C ) :  -0.2336
B(  5-C , 12-H ) :   0.1098 B(  5-C , 13-H ) :   0.1110 B(  6-C ,  7-C ) :   1.2543
B(  6-C ,  9-C ) :   0.1020 B(  6-C , 12-H ) :   0.1362 B(  6-C , 13-H ) :   0.1021
B(  7-C ,  8-C ) :   0.2343 B(  7-C ,  9-C ) :   0.3129 B(  7-C , 11-H ) :   1.0498
B(  7-C , 12-H ) :  -0.1870 B(  8-C ,  9-C ) :   0.2256 B(  9-C , 10-H ) :   1.0506
B(  9-C , 17-H ) :  -0.1901

Dispersion correction           -0.018563366
FINAL SINGLE POINT ENERGY      -385.370959858443

DIPOLE MOMENT
-------------

Method             : SCF
Type of density    : Electron Density
Multiplicity       :   2
Irrep              :   0
Energy             :  -385.3523964920348703 Eh
Relativity type    :
Basis              : AO
                                X                 Y                 Z
Electronic contribution:      0.000001692      -0.000021702      -0.000080804
Nuclear contribution   :     -0.000015001      -0.000004392       0.000110491
                        -----------------------------------------
Total Dipole Moment    :     -0.000013309      -0.000026094       0.000029686
                        -----------------------------------------
Magnitude (a.u.)       :      0.000041705
Magnitude (Debye)      :      0.000106005

Rotational constants in cm-1:             0.105862             0.041342             0.029731
Rotational constants in MHz :          3173.661050          1239.407007           891.320444

                             ****ORCA TERMINATED NORMALLY****
TOTAL RUN TIME: 0 days 0 hours 26 minutes 20 seconds 232 msec
