                         Program Version 6.0.0  -   RELEASE  -
|  1> !r2SCANh aug-cc-pVTZ d3 TightSCF SlowConv RIJCOSX defgrid2
|  2>
|  3> %pal
|  4> nprocs 15
|  5> end
|  6>
|  7> %scf
|  8> MaxIter 1500
|  9> end
| 10>
| 11> %maxcore 3500
| 12>
| 13> !CPCM
| 14> %cpcm smd true
| 15> SMDsolvent "WATER"
| 16> surfacetype gepol_ses
| 17> rsolv 1.40
| 18> end
| 19>
| 20> * xyz 0 2
| 21> O           1.86556239468452      3.66778063685740      1.41934048443660
| 22> N           2.63911006242494      2.68933162619386      1.23001507884931
| 23> C           3.73080247656957      2.90535757443730      0.24181063762861
| 24> C           4.36093762959910      1.55921653542741     -0.15336987209592
| 25> C           4.63172810194409      0.70262118274796      1.05667158740786
| 26> C           3.37344672734739      0.39530870243854      1.82691342143050
| 27> C           2.68993700964555      1.68066650325082      2.32342254966252
| 28> C           4.79147854810668      3.83582820328657      0.84153155747969
| 29> C           3.10645949127391      3.55822382808877     -0.98811835641252
| 30> C           3.44599743934561      2.26113926142754      3.52426459340538
| 31> C           1.24931104144319      1.37171748445294      2.72213530312512
| 32> H           5.29854507645140      1.73380073454675     -0.70282077300820
| 33> H           3.66072621433755      1.01505886466252     -0.81307937183032
| 34> H           3.61014563723972     -0.25605158453535      2.68210471533816
| 35> H           2.67928631607287     -0.14191365883771      1.15513451843579
| 36> H           4.29973116397687      4.72680814583179      1.26491139664203
| 37> H           5.37961996772319      3.34202382093710      1.63164483429192
| 38> H           5.49413089896826      4.16049866008557      0.05546712960242
| 39> H           2.69205521882801      4.54458266598734     -0.73348635939669
| 40> H           2.28924200187458      2.93262822416028     -1.38514477797188
| 41> H           3.87286307615791      3.67858497187703     -1.77227016899908
| 42> H           3.04871559772316      3.26304759444425      3.75501562998363
| 43> H           4.52927071669545      2.33887771005461      3.33785198450762
| 44> H           3.30430449817939      1.61369753756705      4.40621306394055
| 45> H           0.75896130686192      2.26873651212742      3.12797736173082
| 46> H           0.67080790712862      1.02777195958958      1.84800524786398
| 47> H           1.24122074344172      0.57661748497107      3.48643408439020
| 48> O           5.73186456195476      0.33572713792153      1.38978502456186
| 49> *
| 50>
| 51>                          ****END OF INPUT****

CARTESIAN COORDINATES (ANGSTROEM)
---------------------------------
  O      1.865562    3.667781    1.419340
  N      2.639110    2.689332    1.230015
  C      3.730802    2.905358    0.241811
  C      4.360938    1.559217   -0.153370
  C      4.631728    0.702621    1.056672
  C      3.373447    0.395309    1.826913
  C      2.689937    1.680667    2.323423
  C      4.791479    3.835828    0.841532
  C      3.106459    3.558224   -0.988118
  C      3.445997    2.261139    3.524265
  C      1.249311    1.371717    2.722135
  H      5.298545    1.733801   -0.702821
  H      3.660726    1.015059   -0.813079
  H      3.610146   -0.256052    2.682105
  H      2.679286   -0.141914    1.155135
  H      4.299731    4.726808    1.264911
  H      5.379620    3.342024    1.631645
  H      5.494131    4.160499    0.055467
  H      2.692055    4.544583   -0.733486
  H      2.289242    2.932628   -1.385145
  H      3.872863    3.678585   -1.772270
  H      3.048716    3.263048    3.755016
  H      4.529271    2.338878    3.337852
  H      3.304304    1.613698    4.406213
  H      0.758961    2.268737    3.127977
  H      0.670808    1.027772    1.848005
  H      1.241221    0.576617    3.486434
  O      5.731865    0.335727    1.389785

 Total Charge           Charge          ....    0
 Multiplicity           Mult            ....    2
 Number of Electrons    NEL             ....   93
 Basis Dimension        Dim             ....  920

ORBITAL ENERGIES
----------------
                 SPIN UP ORBITALS
  NO   OCC          E(Eh)            E(eV)
   0   1.0000     -19.127884      -520.4962
   1   1.0000     -19.124696      -520.4094
   2   1.0000     -14.410356      -392.1257
   3   1.0000     -10.257576      -279.1228
   4   1.0000     -10.219020      -278.0737
   5   1.0000     -10.219005      -278.0733
   6   1.0000     -10.164941      -276.6021
   7   1.0000     -10.164913      -276.6013
   8   1.0000     -10.148966      -276.1674
   9   1.0000     -10.148949      -276.1670
  10   1.0000     -10.145206      -276.0651
  11   1.0000     -10.145204      -276.0650
  12   1.0000      -1.124649       -30.6033
  13   1.0000      -1.068591       -29.0778
  14   1.0000      -0.881352       -23.9828
  15   1.0000      -0.830425       -22.5970
  16   1.0000      -0.756747       -20.5921
  17   1.0000      -0.724565       -19.7164
  18   1.0000      -0.695221       -18.9179
  19   1.0000      -0.693910       -18.8823
  20   1.0000      -0.684084       -18.6149
  21   1.0000      -0.600664       -16.3449
  22   1.0000      -0.560316       -15.2470
  23   1.0000      -0.519051       -14.1241
  24   1.0000      -0.497426       -13.5357
  25   1.0000      -0.490726       -13.3533
  26   1.0000      -0.477390       -12.9904
  27   1.0000      -0.458295       -12.4708
  28   1.0000      -0.456003       -12.4085
  29   1.0000      -0.443108       -12.0576
  30   1.0000      -0.424993       -11.5646
  31   1.0000      -0.408673       -11.1205
  32   1.0000      -0.396974       -10.8022
  33   1.0000      -0.387371       -10.5409
  34   1.0000      -0.385806       -10.4983
  35   1.0000      -0.379192       -10.3183
  36   1.0000      -0.365970        -9.9585
  37   1.0000      -0.363040        -9.8788
  38   1.0000      -0.360850        -9.8192
  39   1.0000      -0.359861        -9.7923
  40   1.0000      -0.337095        -9.1728
  41   1.0000      -0.334126        -9.0920
  42   1.0000      -0.330613        -8.9964
  43   1.0000      -0.327888        -8.9223
  44   1.0000      -0.262847        -7.1524
  45   1.0000      -0.249589        -6.7917
  46   1.0000      -0.200012        -5.4426
  47   0.0000      -0.049174        -1.3381
  48   0.0000       0.011385         0.3098
  49   0.0000       0.024438         0.6650
  50   0.0000       0.025060         0.6819
  51   0.0000       0.027160         0.7391

                 SPIN DOWN ORBITALS
  NO   OCC          E(Eh)            E(eV)
   0   1.0000     -19.124656      -520.4083
   1   1.0000     -19.112540      -520.0786
   2   1.0000     -14.395597      -391.7241
   3   1.0000     -10.257589      -279.1232
   4   1.0000     -10.219517      -278.0872
   5   1.0000     -10.219501      -278.0868
   6   1.0000     -10.164880      -276.6005
   7   1.0000     -10.164852      -276.5997
   8   1.0000     -10.148202      -276.1466
   9   1.0000     -10.148188      -276.1462
  10   1.0000     -10.144962      -276.0585
  11   1.0000     -10.144957      -276.0583
  12   1.0000      -1.101089       -29.9621
  13   1.0000      -1.068479       -29.0748
  14   1.0000      -0.871131       -23.7047
  15   1.0000      -0.829573       -22.5738
  16   1.0000      -0.750104       -20.4114
  17   1.0000      -0.710484       -19.3333
  18   1.0000      -0.694857       -18.9080
  19   1.0000      -0.691421       -18.8145
  20   1.0000      -0.682670       -18.5764
  21   1.0000      -0.597659       -16.2631
  22   1.0000      -0.558081       -15.1862
  23   1.0000      -0.509487       -13.8638
  24   1.0000      -0.495750       -13.4901
  25   1.0000      -0.483497       -13.1566
  26   1.0000      -0.458499       -12.4764
  27   1.0000      -0.455178       -12.3860
  28   1.0000      -0.447879       -12.1874
  29   1.0000      -0.437415       -11.9027
  30   1.0000      -0.424742       -11.5578
  31   1.0000      -0.398469       -10.8429
  32   1.0000      -0.394697       -10.7403
  33   1.0000      -0.384984       -10.4760
  34   1.0000      -0.383884       -10.4460
  35   1.0000      -0.378169       -10.2905
  36   1.0000      -0.361857        -9.8466
  37   1.0000      -0.361604        -9.8397
  38   1.0000      -0.358832        -9.7643
  39   1.0000      -0.348769        -9.4905
  40   1.0000      -0.333210        -9.0671
  41   1.0000      -0.332771        -9.0552
  42   1.0000      -0.326518        -8.8850
  43   1.0000      -0.310648        -8.4532
  44   1.0000      -0.254439        -6.9236
  45   1.0000      -0.246505        -6.7077
  46   0.0000      -0.079247        -2.1564
  47   0.0000      -0.047848        -1.3020
  48   0.0000       0.012469         0.3393
  49   0.0000       0.024811         0.6751
  50   0.0000       0.025925         0.7055

MULLIKEN ATOMIC CHARGES AND SPIN POPULATIONS
--------------------------------------------
   0 O :   -1.084785    0.502297
   1 N :    0.375967    0.517713
   2 C :    2.503265   -0.052636
   3 C :   -0.676394   -0.009333
   4 C :    1.247582   -0.000487
   5 C :   -0.680349   -0.009381
   6 C :    2.491360   -0.053420
   7 C :   -1.260268    0.044028
   8 C :   -1.492001    0.005446
   9 C :   -1.256171    0.044225
  10 C :   -1.495261    0.005347
  11 H :    0.160602   -0.001884
  12 H :    0.170096   -0.001279
  13 H :    0.153764   -0.001927
  14 H :    0.174710   -0.001511
  15 H :    0.176347   -0.002690
  16 H :    0.218176    0.001118
  17 H :    0.043456    0.005991
  18 H :    0.150938   -0.004037
  19 H :    0.199881    0.005669
  20 H :    0.171601   -0.000756
  21 H :    0.177742   -0.002458
  22 H :    0.210215    0.001079
  23 H :    0.048555    0.005941
  24 H :    0.147898   -0.003910
  25 H :    0.197848    0.005866
  26 H :    0.174645   -0.000688
  27 O :   -1.249416    0.001676
Sum of atomic charges         :   -0.0000000

LOEWDIN ATOMIC CHARGES AND SPIN POPULATIONS
-------------------------------------------
   0 O :    0.394466    0.440157
   1 N :   -0.109598    0.407137
   2 C :   -0.449594    0.039162
   3 C :    0.304888    0.002155
   4 C :   -0.520364    0.000541
   5 C :    0.305042    0.002127
   6 C :   -0.449120    0.039103
   7 C :    0.598947    0.020149
   8 C :    0.574664    0.003265
   9 C :    0.598690    0.020115
  10 C :    0.574546    0.003345
  11 H :   -0.125491   -0.000302
  12 H :   -0.117676    0.000954
  13 H :   -0.125157   -0.000304
  14 H :   -0.117887    0.000950
  15 H :   -0.147210    0.001670
  16 H :   -0.168228    0.001822
  17 H :   -0.135934    0.005925
  18 H :   -0.172756   -0.000293
  19 H :   -0.143478    0.000858
  20 H :   -0.139301    0.000250
  21 H :   -0.147962    0.001677
  22 H :   -0.167631    0.001829
  23 H :   -0.136067    0.005903
  24 H :   -0.172171   -0.000278
  25 H :   -0.143416    0.000869
  26 H :   -0.139685    0.000265
  27 O :    0.477484    0.000947

  Mayer bond orders larger than 0.100000
B(  0-O ,  1-N ) :   0.5741 B(  1-N ,  2-C ) :   0.5729 B(  1-N ,  3-C ) :   0.2775
B(  1-N ,  5-C ) :   0.2771 B(  1-N ,  6-C ) :   0.5685 B(  2-C ,  3-C ) :   0.2263
B(  2-C ,  4-C ) :   0.1463 B(  2-C ,  7-C ) :  -0.1680 B(  2-C ,  8-C ) :  -0.4072
B(  2-C , 17-H ) :  -0.1341 B(  2-C , 18-H ) :  -0.1107 B(  2-C , 19-H ) :  -0.1142
B(  3-C ,  4-C ) :   0.8740 B(  3-C ,  5-C ) :   0.1235 B(  3-C ,  7-C ) :   0.1650
B(  3-C , 11-H ) :   0.8733 B(  3-C , 12-H ) :   1.0374 B(  3-C , 27-O ) :   0.2134
B(  4-C ,  5-C ) :   0.8689 B(  4-C ,  6-C ) :   0.1465 B(  4-C , 27-O ) :   0.1452
B(  5-C ,  6-C ) :   0.2112 B(  5-C ,  9-C ) :   0.1679 B(  5-C , 13-H ) :   0.8834
B(  5-C , 14-H ) :   1.0348 B(  5-C , 27-O ) :   0.2139 B(  6-C ,  9-C ) :  -0.1556
B(  6-C , 10-C ) :  -0.4062 B(  6-C , 23-H ) :  -0.1338 B(  6-C , 24-H ) :  -0.1129
B(  6-C , 25-H ) :  -0.1146 B(  7-C ,  8-C ) :   0.2562 B(  7-C , 15-H ) :   1.0641
B(  7-C , 16-H ) :   1.0070 B(  7-C , 17-H ) :   1.2077 B(  8-C , 18-H ) :   1.1078
B(  8-C , 19-H ) :   1.0918 B(  8-C , 20-H ) :   1.0725 B(  9-C , 10-C ) :   0.2501
B(  9-C , 21-H ) :   1.0643 B(  9-C , 22-H ) :   1.0171 B(  9-C , 23-H ) :   1.2001
B( 10-C , 24-H ) :   1.1121 B( 10-C , 25-H ) :   1.0968 B( 10-C , 26-H ) :   1.0673

Dispersion correction           -0.010695751
FINAL SINGLE POINT ENERGY      -557.620753709208

DIPOLE MOMENT
-------------

Method             : SCF
Type of density    : Electron Density
Multiplicity       :   2
Irrep              :   0
Energy             :  -557.6100579578126144 Eh
Relativity type    :
Basis              : AO
                                X                 Y                 Z
Electronic contribution:      1.991827800      -3.537461552      -1.093042185
Nuclear contribution   :     -2.339550433       2.955416228       0.579005487
                        -----------------------------------------
Total Dipole Moment    :     -0.347722634      -0.582045324      -0.514036698
                        -----------------------------------------
Magnitude (a.u.)       :      0.850835775
Magnitude (Debye)      :      2.162652671

Rotational constants in cm-1:             0.036094             0.035779             0.023697
Rotational constants in MHz :          1082.069740          1072.621338           710.415750

                             ****ORCA TERMINATED NORMALLY****
TOTAL RUN TIME: 0 days 0 hours 9 minutes 20 seconds 385 msec
