                         Program Version 6.0.0  -   RELEASE  -
|  1> !TPSSh freq aug-cc-pVTZ d3 TightSCF SlowConv RIJCOSX defgrid2
|  2>
|  3> %pal
|  4> nprocs 12
|  5> end
|  6>
|  7> %scf
|  8> MaxIter 1500
|  9> end
| 10>
| 11> %maxcore 5000
| 12>
| 13> !CPCM
| 14> %cpcm smd true
| 15> SMDsolvent "MeCN"
| 16> surfacetype gepol_ses
| 17> rsolv 2.19
| 18> end
| 19>
| 20> * xyz 0 1
| 21> C           0.94009825330181     -1.26849252534168     -0.00015167285188
| 22> C           2.31079176479048     -1.03189422926425     -0.00033891543076
| 23> C           2.79135333465137      0.27361549745027     -0.00016271328393
| 24> C           1.89404753644224      1.34339762236094      0.00034308120661
| 25> C           0.52708009271380      1.11205935825631      0.00049585472188
| 26> C           0.03391666720126     -0.20151381173114      0.00012897958905
| 27> C          -1.39370455487745     -0.50840597438755      0.00019952660199
| 28> N          -2.27567893725877      0.41751546869732     -0.00125987508202
| 29> O          -3.57470377166118     -0.12235311829689     -0.00061261806418
| 30> H          -4.13780867708560      0.66753942412117     -0.00050439136075
| 31> H          -1.69161262019616     -1.55662129580922      0.00187305497849
| 32> H          -0.16668793680415      1.94316621854277      0.00101643186904
| 33> H           2.26628819296066      2.36080655245493      0.00008512755555
| 34> H           3.85831707944990      0.46054737107775     -0.00057109033256
| 35> H           3.00125964581448     -1.86646232530746     -0.00057216211469
| 36> H           0.56473833055730     -2.28550253282329      0.00023878199817
| 37> *
| 38>
| 39>                          ****END OF INPUT****

CARTESIAN COORDINATES (ANGSTROEM)
---------------------------------
  C      0.940098   -1.268493   -0.000152
  C      2.310792   -1.031894   -0.000339
  C      2.791353    0.273615   -0.000163
  C      1.894048    1.343398    0.000343
  C      0.527080    1.112059    0.000496
  C      0.033917   -0.201514    0.000129
  C     -1.393705   -0.508406    0.000200
  N     -2.275679    0.417515   -0.001260
  O     -3.574704   -0.122353   -0.000613
  H     -4.137809    0.667539   -0.000504
  H     -1.691613   -1.556621    0.001873
  H     -0.166688    1.943166    0.001016
  H      2.266288    2.360807    0.000085
  H      3.858317    0.460547   -0.000571
  H      3.001260   -1.866462   -0.000572
  H      0.564738   -2.285503    0.000239

 Total Charge           Charge          ....    0
 Multiplicity           Mult            ....    1
 Number of Electrons    NEL             ....   64
 Basis Dimension        Dim             ....  575

ORBITAL ENERGIES
----------------

  NO   OCC          E(Eh)            E(eV)
   0   2.0000     -19.099545      -519.7251
   1   2.0000     -14.305072      -389.2608
   2   2.0000     -10.151643      -276.2402
   3   2.0000     -10.133383      -275.7434
   4   2.0000     -10.121513      -275.4204
   5   2.0000     -10.120020      -275.3798
   6   2.0000     -10.119386      -275.3625
   7   2.0000     -10.118677      -275.3432
   8   2.0000     -10.118398      -275.3356
   9   2.0000      -1.060434       -28.8559
  10   2.0000      -0.863140       -23.4872
  11   2.0000      -0.829770       -22.5792
  12   2.0000      -0.738166       -20.0865
  13   2.0000      -0.731218       -19.8975
  14   2.0000      -0.622256       -16.9324
  15   2.0000      -0.592960       -16.1353
  16   2.0000      -0.550162       -14.9707
  17   2.0000      -0.513789       -13.9809
  18   2.0000      -0.494796       -13.4641
  19   2.0000      -0.451567       -12.2878
  20   2.0000      -0.439255       -11.9527
  21   2.0000      -0.417664       -11.3652
  22   2.0000      -0.405255       -11.0275
  23   2.0000      -0.404381       -11.0038
  24   2.0000      -0.395987       -10.7754
  25   2.0000      -0.363593        -9.8939
  26   2.0000      -0.334789        -9.1101
  27   2.0000      -0.327911        -8.9229
  28   2.0000      -0.287689        -7.8284
  29   2.0000      -0.273969        -7.4551
  30   2.0000      -0.251799        -6.8518
  31   2.0000      -0.224277        -6.1029
  32   0.0000      -0.065858        -1.7921
  33   0.0000      -0.027645        -0.7523
  34   0.0000      -0.003077        -0.0837
  35   0.0000       0.003347         0.0911
  36   0.0000       0.012619         0.3434

MULLIKEN ATOMIC CHARGES
-----------------------
   0 C :   -0.771586
   1 C :   -0.396354
   2 C :   -0.146197
   3 C :   -0.524125
   4 C :   -0.579488
   5 C :    1.383630
   6 C :    0.429659
   7 N :   -0.650474
   8 O :   -0.294874
   9 H :    0.164451
  10 H :    0.291345
  11 H :   -0.014138
  12 H :    0.417155
  13 H :    0.355375
  14 H :    0.444085
  15 H :   -0.108463
Sum of atomic charges:    0.0000000

LOEWDIN ATOMIC CHARGES
----------------------
   0 C :    0.202131
   1 C :    0.201721
   2 C :    0.198285
   3 C :    0.199933
   4 C :    0.197016
   5 C :   -0.174216
   6 C :   -0.025953
   7 N :    0.140571
   8 O :    0.662293
   9 H :   -0.519576
  10 H :   -0.185264
  11 H :   -0.190587
  12 H :   -0.177394
  13 H :   -0.178039
  14 H :   -0.177292
  15 H :   -0.173628

  Mayer bond orders larger than 0.100000
B(  0-C ,  1-C ) :   1.3368 B(  0-C ,  4-C ) :  -0.2510 B(  0-C ,  5-C ) :   0.4180
B(  0-C , 14-H ) :  -0.1593 B(  0-C , 15-H ) :   1.5498 B(  1-C ,  2-C ) :   1.4056
B(  1-C , 14-H ) :   0.5831 B(  1-C , 15-H ) :  -0.1036 B(  2-C ,  3-C ) :   1.2961
B(  2-C ,  5-C ) :  -0.1249 B(  2-C ,  6-C ) :   0.1324 B(  2-C , 12-H ) :   0.1017
B(  2-C , 13-H ) :   0.6612 B(  3-C ,  4-C ) :   1.3675 B(  3-C , 12-H ) :   0.6105
B(  4-C ,  5-C ) :   0.6286 B(  4-C ,  6-C ) :   0.2064 B(  4-C , 11-H ) :   1.1956
B(  5-C ,  6-C ) :   0.3222 B(  5-C , 12-H ) :   0.1277 B(  5-C , 14-H ) :   0.1520
B(  5-C , 15-H ) :  -0.1036 B(  6-C ,  7-N ) :   0.7092 B(  6-C , 10-H ) :   0.7150
B(  6-C , 15-H ) :  -0.1324 B(  7-N ,  8-O ) :   0.6449 B(  8-O ,  9-H ) :   0.9854
B( 11-H , 15-H ) :   0.1257

Dispersion correction           -0.018470603
FINAL SINGLE POINT ENERGY      -401.075461946669

DIPOLE MOMENT
-------------

Method             : SCF
Type of density    : Electron Density
Multiplicity       :   1
Irrep              :   0
Energy             :  -401.0569913438189360 Eh
Relativity type    :
Basis              : AO
                                X                 Y                 Z
Electronic contribution:     -2.939579853       0.145348019      -0.001075987
Nuclear contribution   :      3.401881191      -0.271664427       0.002523952
                        -----------------------------------------
Total Dipole Moment    :      0.462301338      -0.126316408       0.001447966
                        -----------------------------------------
Magnitude (a.u.)       :      0.479249891
Magnitude (Debye)      :      1.218156415

VIBRATIONAL FREQUENCIES
-----------------------

Scaling factor for frequencies =  1.000000000  (already applied!)

     0:       0.00 cm**-1
     1:       0.00 cm**-1
     2:       0.00 cm**-1
     3:       0.00 cm**-1
     4:       0.00 cm**-1
     5:       0.00 cm**-1
     6:      67.00 cm**-1
     7:     140.91 cm**-1
     8:     142.83 cm**-1
     9:     303.67 cm**-1
    10:     369.25 cm**-1
    11:     391.87 cm**-1
    12:     405.98 cm**-1
    13:     428.72 cm**-1
    14:     514.71 cm**-1
    15:     618.18 cm**-1
    16:     640.90 cm**-1
    17:     696.20 cm**-1
    18:     770.67 cm**-1
    19:     859.42 cm**-1
    20:     872.66 cm**-1
    21:     937.09 cm**-1
    22:     954.09 cm**-1
    23:     978.17 cm**-1
    24:     998.43 cm**-1
    25:    1010.94 cm**-1
    26:    1011.89 cm**-1
    27:    1040.90 cm**-1
    28:    1093.77 cm**-1
    29:    1162.58 cm**-1
    30:    1181.27 cm**-1
    31:    1231.88 cm**-1
    32:    1280.19 cm**-1
    33:    1338.36 cm**-1
    34:    1354.32 cm**-1
    35:    1429.35 cm**-1
    36:    1473.31 cm**-1
    37:    1523.56 cm**-1
    38:    1608.46 cm**-1
    39:    1633.19 cm**-1
    40:    1670.88 cm**-1
    41:    3100.94 cm**-1
    42:    3161.72 cm**-1
    43:    3167.57 cm**-1
    44:    3176.80 cm**-1
    45:    3186.54 cm**-1
    46:    3192.52 cm**-1
    47:    3680.81 cm**-1

IR SPECTRUM
-----------

 Mode   freq       eps      Int      T**2         TX        TY        TZ
       cm**-1   L/(mol*cm) km/mol    a.u.
----------------------------------------------------------------------------
  6:     67.00   0.000001    0.00  0.000003  (-0.000618  0.000212 -0.001465)
  7:    140.91   0.000488    2.47  0.001081  ( 0.028696 -0.006926 -0.014487)
  8:    142.83   0.000498    2.52  0.001088  (-0.024987  0.005752 -0.020751)
  9:    303.67   0.000245    1.24  0.000252  (-0.000315 -0.000002  0.015862)
 10:    369.25   0.000639    3.23  0.000540  (-0.018009 -0.008016  0.012296)
 11:    391.87   0.033546  169.53  0.026714  ( 0.000873 -0.000612  0.163441)
 12:    405.98   0.003244   16.39  0.002493  (-0.000545  0.000064 -0.049930)
 13:    428.72   0.001197    6.05  0.000871  ( 0.026220 -0.008312 -0.010715)
 14:    514.71   0.002909   14.70  0.001764  (-0.000086  0.000279 -0.041997)
 15:    618.18   0.000000    0.00  0.000000  ( 0.000398  0.000066 -0.000004)
 16:    640.90   0.013029   65.84  0.006344  (-0.079182 -0.008579 -0.000636)
 17:    696.20   0.014192   71.72  0.006362  (-0.000047 -0.000318  0.079759)
 18:    770.67   0.014300   72.26  0.005790  ( 0.000054 -0.000128  0.076094)
 19:    859.42   0.000000    0.00  0.000000  ( 0.000265  0.000074 -0.000300)
 20:    872.66   0.015204   76.83  0.005437  ( 0.073384  0.007190  0.000359)
 21:    937.09   0.000030    0.15  0.000010  (-0.000931  0.000388 -0.002969)
 22:    954.09   0.064548  326.20  0.021112  (-0.142524  0.028271 -0.000218)
 23:    978.17   0.005148   26.01  0.001642  (-0.000460 -0.000367  0.040520)
 24:    998.43   0.000009    0.05  0.000003  (-0.000041 -0.000408  0.001635)
 25:   1010.94   0.000006    0.03  0.000002  (-0.000470 -0.001255  0.000068)
 26:   1011.89   0.000157    0.79  0.000048  ( 0.000252 -0.000006 -0.006944)
 27:   1040.90   0.000887    4.48  0.000266  ( 0.015846  0.003865 -0.000055)
 28:   1093.77   0.002397   12.11  0.000684  (-0.009033 -0.024541 -0.000045)
 29:   1162.58   0.000073    0.37  0.000020  (-0.004171  0.001457 -0.000033)
 30:   1181.27   0.000210    1.06  0.000055  ( 0.007437  0.000236  0.000037)
 31:   1231.88   0.008198   41.43  0.002077  ( 0.045532 -0.001883  0.000051)
 32:   1280.19   0.020465  103.42  0.004989  ( 0.060951  0.035685  0.000438)
 33:   1338.36   0.000087    0.44  0.000020  ( 0.003939 -0.002183 -0.000049)
 34:   1354.32   0.000315    1.59  0.000073  (-0.000520  0.008509  0.000041)
 35:   1429.35   0.001362    6.88  0.000297  (-0.017165  0.001640 -0.000250)
 36:   1473.31   0.002783   14.07  0.000590  (-0.005582 -0.023630 -0.000056)
 37:   1523.56   0.002329   11.77  0.000477  ( 0.021835  0.000490  0.000049)
 38:   1608.46   0.000272    1.37  0.000053  ( 0.004666 -0.005567  0.000001)
 39:   1633.19   0.000047    0.24  0.000009  (-0.001450 -0.002631  0.000000)
 40:   1670.88   0.000218    1.10  0.000041  (-0.004298  0.004719 -0.000047)
 41:   3100.94   0.005796   29.29  0.000583  ( 0.014934  0.018980  0.000096)
 42:   3161.72   0.001408    7.12  0.000139  (-0.008468 -0.008203 -0.000101)
 43:   3167.57   0.000244    1.23  0.000024  (-0.004824 -0.000892  0.000002)
 44:   3176.80   0.005232   26.44  0.000514  ( 0.009693  0.020493  0.000116)
 45:   3186.54   0.006992   35.33  0.000685  ( 0.017049 -0.019851 -0.000018)
 46:   3192.52   0.003345   16.90  0.000327  (-0.016014 -0.008395 -0.000031)
 47:   3680.81   0.068013  343.71  0.005766  (-0.067195  0.035370 -0.000007)

--------------------------
THERMOCHEMISTRY AT 298.15K
--------------------------

Temperature         ...   298.15 K
Pressure            ...     1.00 atm
Total Mass          ...   121.14 AMU
Quasi RRHO          ...     True
Cut-Off Frequency   ...     1.00 cm^-1

Throughout the following assumptions are being made:
  (1) The electronic state is orbitally nondegenerate
  (2) There are no thermally accessible electronically excited states
  (3) Hindered rotations indicated by low frequency modes are not
      treated as such but are treated as vibrations and this may
      cause some error
  (4) All equations used are the standard statistical mechanics
      equations for an ideal gas
  (5) All vibrations are strictly harmonic

freq.      67.00  E(vib)   ...       0.50
freq.     140.91  E(vib)   ...       0.41
freq.     142.83  E(vib)   ...       0.41
freq.     303.67  E(vib)   ...       0.26
freq.     369.25  E(vib)   ...       0.21
freq.     391.87  E(vib)   ...       0.20
freq.     405.98  E(vib)   ...       0.19
freq.     428.72  E(vib)   ...       0.18
freq.     514.71  E(vib)   ...       0.13
freq.     618.18  E(vib)   ...       0.09
freq.     640.90  E(vib)   ...       0.09
freq.     696.20  E(vib)   ...       0.07
freq.     770.67  E(vib)   ...       0.05
freq.     859.42  E(vib)   ...       0.04
freq.     872.66  E(vib)   ...       0.04
freq.     937.09  E(vib)   ...       0.03
freq.     954.09  E(vib)   ...       0.03
freq.     978.17  E(vib)   ...       0.03
freq.     998.43  E(vib)   ...       0.02
freq.    1010.94  E(vib)   ...       0.02
freq.    1011.89  E(vib)   ...       0.02
freq.    1040.90  E(vib)   ...       0.02
freq.    1093.77  E(vib)   ...       0.02
freq.    1162.58  E(vib)   ...       0.01
freq.    1181.27  E(vib)   ...       0.01
freq.    1231.88  E(vib)   ...       0.01
freq.    1280.19  E(vib)   ...       0.01
freq.    1338.36  E(vib)   ...       0.01
freq.    1354.32  E(vib)   ...       0.01
freq.    1429.35  E(vib)   ...       0.00
freq.    1473.31  E(vib)   ...       0.00
freq.    1523.56  E(vib)   ...       0.00
freq.    1608.46  E(vib)   ...       0.00
freq.    1633.19  E(vib)   ...       0.00
freq.    1670.88  E(vib)   ...       0.00
freq.    3100.94  E(vib)   ...       0.00
freq.    3161.72  E(vib)   ...       0.00
freq.    3167.57  E(vib)   ...       0.00
freq.    3176.80  E(vib)   ...       0.00
freq.    3186.54  E(vib)   ...       0.00
freq.    3192.52  E(vib)   ...       0.00
freq.    3680.81  E(vib)   ...       0.00

------------
INNER ENERGY
------------

The inner energy is: U= E(el) + E(ZPE) + E(vib) + E(rot) + E(trans)
    E(el)   - is the total energy from the electronic structure calculation
              = E(kin-el) + E(nuc-el) + E(el-el) + E(nuc-nuc)
    E(ZPE)  - the the zero temperature vibrational energy from the frequency calculation
    E(vib)  - the the finite temperature correction to E(ZPE) due to population
              of excited vibrational states
    E(rot)  - is the rotational thermal energy
    E(trans)- is the translational thermal energy

Summary of contributions to the inner energy U:
Electronic energy                ...   -401.07546195 Eh
Zero point energy                ...      0.12484937 Eh      78.34 kcal/mol
Thermal vibrational correction   ...      0.00500466 Eh       3.14 kcal/mol
Thermal rotational correction    ...      0.00141627 Eh       0.89 kcal/mol
Thermal translational correction ...      0.00141627 Eh       0.89 kcal/mol
-----------------------------------------------------------------------
Total thermal energy                   -400.94277538 Eh

Summary of corrections to the electronic energy:
(perhaps to be used in another calculation)
Total thermal correction                  0.00783720 Eh       4.92 kcal/mol
Non-thermal (ZPE) correction              0.12484937 Eh      78.34 kcal/mol
-----------------------------------------------------------------------
Total correction                          0.13268657 Eh      83.26 kcal/mol

--------
ENTHALPY
--------

The enthalpy is H = U + kB*T
                kB is Boltzmann's constant
Total thermal energy              ...   -400.94277538 Eh
Thermal Enthalpy correction       ...      0.00094421 Eh       0.59 kcal/mol
-----------------------------------------------------------------------
Total Enthalpy                    ...   -400.94183117 Eh

Note: Only C1 symmetry has been detected, increase convergence thresholds
      if your molecule has a higher symmetry. Symmetry factor of 1.0 is
      used for the rotational entropy correction.

Note: Rotational entropy computed according to Herzberg
Infrared and Raman Spectra, Chapter V,1, Van Nostrand Reinhold, 1945
Point Group:  C1, Symmetry Number:   1
Rotational constants in cm-1:     0.173691     0.029841     0.025466

Vibrational entropy computed according to the QRRHO of S. Grimme
Chem.Eur.J. 2012 18 9955 using a reference frequency of 100.0 cm-1

-------
ENTROPY
-------

The entropy contributions are T*S = T*(S(el)+S(vib)+S(rot)+S(trans))
     S(el)   - electronic entropy
     S(vib)  - vibrational entropy
     S(rot)  - rotational entropy
     S(trans)- translational entropy
The entropies will be listed as multiplied by the temperature to get
units of energy

Electronic entropy                ...      0.00000000 Eh      0.00 kcal/mol
Vibrational entropy               ...      0.00829721 Eh      5.21 kcal/mol
Rotational entropy                ...      0.01372788 Eh      8.61 kcal/mol
Translational entropy             ...      0.01914284 Eh     12.01 kcal/mol
-----------------------------------------------------------------------
Final entropy term                ...      0.04116793 Eh     25.83 kcal/mol

In case the symmetry of your molecule has not been determined correctly
or in case you have a reason to use a different symmetry number we print
out the resulting rotational entropy values for sn=1,12:

 non-linear molecules -----------------------------------
|  sn= 1 | S(rot)=       0.01372788 Eh      8.61 kcal/mol|
|  sn= 2 | S(rot)=       0.01307342 Eh      8.20 kcal/mol|
|  sn= 3 | S(rot)=       0.01269059 Eh      7.96 kcal/mol|
|  sn= 4 | S(rot)=       0.01241896 Eh      7.79 kcal/mol|
|  sn= 5 | S(rot)=       0.01220828 Eh      7.66 kcal/mol|
|  sn= 6 | S(rot)=       0.01203613 Eh      7.55 kcal/mol|
|  sn= 7 | S(rot)=       0.01189059 Eh      7.46 kcal/mol|
|  sn= 8 | S(rot)=       0.01176451 Eh      7.38 kcal/mol|
|  sn= 9 | S(rot)=       0.01165330 Eh      7.31 kcal/mol|
|  sn=10 | S(rot)=       0.01155382 Eh      7.25 kcal/mol|
|  sn=11 | S(rot)=       0.01146383 Eh      7.19 kcal/mol|
|  sn=12 | S(rot)=       0.01138168 Eh      7.14 kcal/mol|
 linear molecules ---------------------------------------
|  Dinfh | S(rot)=       0.00879134 Eh      5.52 kcal/mol|
|  Cinfv | S(rot)=       0.00944580 Eh      5.93 kcal/mol|
 --------------------------------------------------------

                             ****ORCA TERMINATED NORMALLY****
TOTAL RUN TIME: 0 days 0 hours 27 minutes 49 seconds 103 msec
