                         Program Version 6.0.0  -   RELEASE  -
|  1> !r2SCAN aug-cc-pVTZ d3 TightSCF SlowConv RIJCOSX defgrid2
|  2>
|  3> %pal
|  4> nprocs 4
|  5> end
|  6>
|  7> %scf
|  8> MaxIter 1500
|  9> end
| 10>
| 11> %maxcore 3000
| 12>
| 13> !CPCM
| 14> %cpcm smd true
| 15> SMDsolvent "MeCN"
| 16> surfacetype gepol_ses
| 17> rsolv 2.19
| 18> end
| 19>
| 20> * xyz 0 1
| 21>   C           1.35661311001034      0.08242353673381     -0.04830147992154
| 22>   C           0.72528734400678      1.33237499260851      0.02931980589731
| 23>   C          -0.65716684626784      1.42571283843268      0.04302512633637
| 24>   C          -1.44754625606451      0.26653460954742      0.00874339988909
| 25>   C          -0.82552870874395     -0.98502153376474     -0.04770168852446
| 26>   C           0.56772235704198     -1.06633130194090     -0.08313298846277
| 27>   H           1.05006188676245     -2.04577688056741     -0.14354433447971
| 28>   H          -1.41135553820799     -1.90566385705075     -0.07389044457674
| 29>   O          -2.78063858244739      0.45554290336633      0.03645550634804
| 30>   C          -3.62283453444167     -0.66142074230683      0.01078196288993
| 31>   H          -4.65283077190408     -0.27592428677814      0.04102787975267
| 32>   H          -3.48787720923621     -1.25466269618222     -0.91406269819965
| 33>   H          -3.45860421924221     -1.31813897835911      0.88673287617431
| 34>   H          -1.16047233306293      2.39441311771435      0.09515969980486
| 35>   H           1.33361129819119      2.23967992641979      0.08145593960365
| 36>   S           3.13145786803727     -0.06127748319567     -0.01892864657318
| 37>   H           3.36519883556877      0.49010163532289     -1.23773021595817
| 38> *
| 39>
| 40>                          ****END OF INPUT****

CARTESIAN COORDINATES (ANGSTROEM)
---------------------------------
  C      1.356613    0.082424   -0.048301
  C      0.725287    1.332375    0.029320
  C     -0.657167    1.425713    0.043025
  C     -1.447546    0.266535    0.008743
  C     -0.825529   -0.985022   -0.047702
  C      0.567722   -1.066331   -0.083133
  H      1.050062   -2.045777   -0.143544
  H     -1.411356   -1.905664   -0.073890
  O     -2.780639    0.455543    0.036456
  C     -3.622835   -0.661421    0.010782
  H     -4.652831   -0.275924    0.041028
  H     -3.487877   -1.254663   -0.914063
  H     -3.458604   -1.318139    0.886733
  H     -1.160472    2.394413    0.095160
  H      1.333611    2.239680    0.081456
  S      3.131458   -0.061277   -0.018929
  H      3.365199    0.490102   -1.237730

 Total Charge           Charge          ....    0
 Multiplicity           Mult            ....    1
 Number of Electrons    NEL             ....   74
 Basis Dimension        Dim             ....  602

ORBITAL ENERGIES
----------------

  NO   OCC          E(Eh)            E(eV)
   0   2.0000     -88.564302     -2409.9572
   1   2.0000     -18.995817      -516.9025
   2   2.0000     -10.105706      -274.9903
   3   2.0000     -10.079699      -274.2826
   4   2.0000     -10.071037      -274.0468
   5   2.0000     -10.049029      -273.4480
   6   2.0000     -10.048912      -273.4448
   7   2.0000     -10.042565      -273.2721
   8   2.0000     -10.042111      -273.2597
   9   2.0000      -7.857707      -213.8191
  10   2.0000      -5.804071      -157.9368
  11   2.0000      -5.800598      -157.8423
  12   2.0000      -5.795498      -157.7035
  13   2.0000      -1.045977       -28.4625
  14   2.0000      -0.832095       -22.6425
  15   2.0000      -0.753168       -20.4947
  16   2.0000      -0.723124       -19.6772
  17   2.0000      -0.690895       -18.8002
  18   2.0000      -0.640808       -17.4373
  19   2.0000      -0.584281       -15.8991
  20   2.0000      -0.551478       -15.0065
  21   2.0000      -0.504940       -13.7401
  22   2.0000      -0.459433       -12.5018
  23   2.0000      -0.442831       -12.0500
  24   2.0000      -0.436879       -11.8881
  25   2.0000      -0.414134       -11.2692
  26   2.0000      -0.393429       -10.7057
  27   2.0000      -0.385679       -10.4949
  28   2.0000      -0.378877       -10.3098
  29   2.0000      -0.351780        -9.5724
  30   2.0000      -0.329972        -8.9790
  31   2.0000      -0.321331        -8.7439
  32   2.0000      -0.296205        -8.0601
  33   2.0000      -0.293684        -7.9916
  34   2.0000      -0.246184        -6.6990
  35   2.0000      -0.232545        -6.3279
  36   2.0000      -0.203381        -5.5343
  37   0.0000      -0.045148        -1.2285
  38   0.0000      -0.038291        -1.0419
  39   0.0000      -0.003900        -0.1061
  40   0.0000       0.013208         0.3594
  41   0.0000       0.015368         0.4182

MULLIKEN ATOMIC CHARGES
-----------------------
   0 C :    0.794514
   1 C :   -0.639241
   2 C :   -0.980442
   3 C :    1.152690
   4 C :   -0.339154
   5 C :   -0.823656
   6 H :    0.393429
   7 H :    0.469469
   8 O :   -0.645609
   9 C :   -0.650204
  10 H :    0.240619
  11 H :    0.252085
  12 H :    0.252644
  13 H :    0.492624
  14 H :    0.419224
  15 S :   -0.467835
  16 H :    0.078842
Sum of atomic charges:    0.0000000

LOEWDIN ATOMIC CHARGES
----------------------
   0 C :   -0.603708
   1 C :    0.102366
   2 C :    0.194216
   3 C :   -0.406830
   4 C :    0.197596
   5 C :    0.099824
   6 H :   -0.191810
   7 H :   -0.189100
   8 O :    0.594332
   9 C :    0.327192
  10 H :   -0.168868
  11 H :   -0.160367
  12 H :   -0.160154
  13 H :   -0.170755
  14 H :   -0.186378
  15 S :    1.266387
  16 H :   -0.543943

  Mayer bond orders larger than 0.100000
B(  0-C ,  1-C ) :   0.9574 B(  0-C ,  4-C ) :   0.1057 B(  0-C ,  5-C ) :   0.9383
B(  0-C ,  7-H ) :  -0.1047 B(  0-C , 15-S ) :   0.5895 B(  1-C ,  2-C ) :   1.1861
B(  1-C ,  3-C ) :  -0.3441 B(  1-C ,  5-C ) :  -0.1016 B(  1-C ,  7-H ) :   0.1055
B(  1-C , 14-H ) :   0.7467 B(  2-C ,  3-C ) :   0.6406 B(  2-C ,  4-C ) :   0.2660
B(  2-C ,  8-O ) :   0.3016 B(  2-C , 13-H ) :   0.3967 B(  3-C ,  4-C ) :   0.8994
B(  3-C ,  5-C ) :  -0.3242 B(  3-C ,  7-H ) :   0.1353 B(  3-C ,  8-O ) :   0.3275
B(  4-C ,  5-C ) :   0.9272 B(  4-C ,  7-H ) :   0.3119 B(  5-C ,  6-H ) :   0.7726
B(  5-C ,  7-H ) :   0.1209 B(  6-H , 15-S ) :  -0.1378 B(  8-O ,  9-C ) :   1.0266
B(  9-C , 10-H ) :   0.9702 B(  9-C , 11-H ) :   0.9177 B(  9-C , 12-H ) :   0.9175
B( 14-H , 15-S ) :  -0.1303 B( 15-S , 16-H ) :   1.1059

Dispersion correction           -0.005438347
FINAL SINGLE POINT ENERGY      -744.898552113667

DIPOLE MOMENT
-------------

Method             : SCF
Type of density    : Electron Density
Multiplicity       :   1
Irrep              :   0
Energy             :  -744.8931137671288525 Eh
Relativity type    :
Basis              : AO
                                X                 Y                 Z
Electronic contribution:      6.836636631       1.641447124       0.679740609
Nuclear contribution   :     -8.061833988      -2.011071937      -1.060175110
                        -----------------------------------------
Total Dipole Moment    :     -1.225197357      -0.369624813      -0.380434501
                        -----------------------------------------
Magnitude (a.u.)       :      1.335088565
Magnitude (Debye)      :      3.393525444

Rotational constants in cm-1:             0.159819             0.022967             0.020233
Rotational constants in MHz :          4791.258551           688.540294           606.561125

                             ****ORCA TERMINATED NORMALLY****
TOTAL RUN TIME: 0 days 0 hours 2 minutes 0 seconds 510 msec
