                         Program Version 6.0.0  -   RELEASE  -
|  1> !r2SCAN opt aug-cc-pVTZ d3 TightSCF SlowConv RIJCOSX defgrid2
|  2>
|  3> %pal
|  4> nprocs 8
|  5> end
|  6>
|  7> %scf
|  8> MaxIter 1500
|  9> end
| 10>
| 11> %maxcore 3500
| 12>
| 13> !CPCM
| 14> %cpcm smd true
| 15> SMDsolvent "MeCN"
| 16> surfacetype gepol_ses
| 17> rsolv 2.19
| 18> end
| 19>
| 20> * xyz 0 1
| 21> C          -0.72498712360752     -1.03199143591489     -0.00035587408950
| 22> C          -1.31725281953672      0.23700082940336     -0.00009216740947
| 23> C          -0.49927603036286      1.37741269983118     -0.00017815340748
| 24> C           0.87877130461947      1.25225114649976     -0.00046421372633
| 25> C           1.48912617012247     -0.01748708715836     -0.00062594889474
| 26> C           0.66252427774642     -1.14934366375667     -0.00064528665934
| 27> H           1.11889620163877     -2.14249327366435     -0.00083021648088
| 28> C           2.91104462440564     -0.14733894022628     -0.00063151415770
| 29> C           4.11990582812650     -0.25742637188868      0.00161358861277
| 30> H           5.19058139416864     -0.35415649223885      0.00097524906911
| 31> H           1.50779855780145      2.14601626186340     -0.00050473395896
| 32> H          -0.98017045333696      2.35860761783862      0.00000793066196
| 33> O          -2.64430351331883      0.45808400164866      0.00024605971359
| 34> C          -3.51534558275692     -0.63765175952228      0.00045178300619
| 35> H          -4.53490407246321     -0.22445155867607      0.00076695107216
| 36> H          -3.38161982455796     -1.26589006640153     -0.90098962915142
| 37> H          -3.38109122143507     -1.26596319208985      0.90176498266982
| 38> H          -1.33393961725331     -1.93771991554716     -0.00032660686979
| 39> *
| 40>
| 41>                          ****END OF INPUT****
 Total Charge           Charge          ....    0
 Multiplicity           Mult            ....    1
 Number of Electrons    NEL             ....   70
Dispersion correction           -0.005492836
FINAL SINGLE POINT ENERGY      -422.845739272695
Dispersion correction             ... done (  0.1 sec)
Dispersion correction           -0.005505453
FINAL SINGLE POINT ENERGY      -422.846886785173
Dispersion correction             ... done (  0.0 sec)
Dispersion correction           -0.005508647
FINAL SINGLE POINT ENERGY      -422.847026002161
Dispersion correction             ... done (  0.1 sec)
Dispersion correction           -0.005508830
FINAL SINGLE POINT ENERGY      -422.847064568610
Dispersion correction             ... done (  0.1 sec)
Dispersion correction           -0.005508284
FINAL SINGLE POINT ENERGY      -422.847111275018
Dispersion correction             ... done (  0.1 sec)
                    ***********************HURRAY********************

CARTESIAN COORDINATES (ANGSTROEM)
---------------------------------
  C     -0.728510   -1.024116    0.001034
  C     -1.308992    0.247283    0.000890
  C     -0.492583    1.385069    0.000312
  C      0.881032    1.255508   -0.000124
  C      1.481829   -0.016815    0.000090
  C      0.653662   -1.146587    0.000700
  H      1.099095   -2.133956    0.000425
  C      2.894611   -0.151159   -0.000859
  C      4.097458   -0.263786    0.000249
  H      5.158705   -0.362138   -0.001358
  H      1.505311    2.140555   -0.000837
  H     -0.956537    2.363989    0.000404
  O     -2.641744    0.476983    0.001279
  C     -3.508949   -0.660392   -0.000565
  H     -4.519345   -0.259424   -0.001157
  H     -3.354550   -1.267694   -0.895412
  H     -3.356514   -1.269495    0.893403
  H     -1.338222   -1.916366    0.001708

 Multiplicity           Mult            ....    1
 Number of Electrons    NEL             ....   70
 Basis Dimension        Dim             ....  644

ORBITAL ENERGIES
----------------

  NO   OCC          E(Eh)            E(eV)
   0   2.0000     -18.996399      -516.9183
   1   2.0000     -10.106862      -275.0217
   2   2.0000     -10.077595      -274.2253
   3   2.0000     -10.064750      -273.8758
   4   2.0000     -10.050615      -273.4911
   5   2.0000     -10.049889      -273.4714
   6   2.0000     -10.047209      -273.3985
   7   2.0000     -10.042098      -273.2594
   8   2.0000     -10.040887      -273.2264
   9   2.0000     -10.033632      -273.0290
  10   2.0000      -1.038174       -28.2501
  11   2.0000      -0.835353       -22.7311
  12   2.0000      -0.756940       -20.5974
  13   2.0000      -0.727354       -19.7923
  14   2.0000      -0.705813       -19.2062
  15   2.0000      -0.665225       -18.1017
  16   2.0000      -0.590506       -16.0685
  17   2.0000      -0.577964       -15.7272
  18   2.0000      -0.521055       -14.1786
  19   2.0000      -0.497372       -13.5342
  20   2.0000      -0.465504       -12.6670
  21   2.0000      -0.458893       -12.4871
  22   2.0000      -0.435369       -11.8470
  23   2.0000      -0.417160       -11.3515
  24   2.0000      -0.397119       -10.8062
  25   2.0000      -0.384497       -10.4627
  26   2.0000      -0.367348        -9.9960
  27   2.0000      -0.362308        -9.8589
  28   2.0000      -0.335051        -9.1172
  29   2.0000      -0.321784        -8.7562
  30   2.0000      -0.300208        -8.1691
  31   2.0000      -0.270025        -7.3478
  32   2.0000      -0.262411        -7.1406
  33   2.0000      -0.248562        -6.7637
  34   2.0000      -0.202757        -5.5173
  35   0.0000      -0.054862        -1.4929
  36   0.0000      -0.043342        -1.1794
  37   0.0000       0.006039         0.1643
  38   0.0000       0.009548         0.2598
  39   0.0000       0.018580         0.5056

MULLIKEN ATOMIC CHARGES
-----------------------
   0 C :   -0.137360
   1 C :    1.395001
   2 C :   -0.857549
   3 C :   -1.191589
   4 C :    1.730205
   5 C :   -1.369612
   6 H :   -0.407829
   7 C :    1.152025
   8 C :   -0.771523
   9 H :    0.299463
  10 H :   -0.357660
  11 H :    0.563759
  12 O :   -0.699669
  13 C :   -0.634946
  14 H :    0.230500
  15 H :    0.262924
  16 H :    0.262555
  17 H :    0.531304
Sum of atomic charges:    0.0000000

LOEWDIN ATOMIC CHARGES
----------------------
   0 C :    0.216652
   1 C :   -0.397774
   2 C :    0.210886
   3 C :    0.191391
   4 C :   -0.237068
   5 C :    0.197334
   6 H :   -0.167923
   7 C :   -0.029644
   8 C :    0.398417
   9 H :   -0.295637
  10 H :   -0.169165
  11 H :   -0.175059
  12 O :    0.601076
  13 C :    0.369829
  14 H :   -0.177518
  15 H :   -0.169737
  16 H :   -0.169702
  17 H :   -0.196359

  Mayer bond orders larger than 0.100000
B(  0-C ,  1-C ) :   0.8657 B(  0-C ,  2-C ) :   0.2211 B(  0-C ,  4-C ) :   0.8029
B(  0-C ,  5-C ) :   0.8798 B(  0-C ,  6-H ) :  -0.2517 B(  0-C ,  7-C ) :  -0.2192
B(  0-C ,  8-C ) :  -0.1354 B(  0-C , 10-H ) :  -0.1625 B(  0-C , 11-H ) :  -0.1297
B(  0-C , 17-H ) :   0.2402 B(  1-C ,  2-C ) :   0.6120 B(  1-C ,  3-C ) :  -0.6225
B(  1-C ,  5-C ) :  -0.5644 B(  1-C ,  7-C ) :   0.2503 B(  1-C ,  8-C ) :   0.1109
B(  1-C , 11-H ) :   0.1951 B(  1-C , 12-O ) :   0.2330 B(  1-C , 17-H ) :   0.2149
B(  2-C ,  3-C ) :   1.2618 B(  2-C ,  4-C ) :   0.6040 B(  2-C ,  7-C ) :  -0.1309
B(  2-C , 10-H ) :  -0.1049 B(  2-C , 11-H ) :   0.2259 B(  2-C , 12-O ) :   0.3346
B(  3-C ,  5-C ) :  -0.7292 B(  3-C ,  6-H ) :   0.2572 B(  3-C ,  7-C ) :   0.5282
B(  3-C , 10-H ) :   2.3290 B(  4-C ,  6-H ) :  -0.3115 B(  4-C ,  7-C ) :  -0.2227
B(  4-C ,  8-C ) :   0.8966 B(  4-C , 10-H ) :  -0.1476 B(  4-C , 12-O ) :   0.1294
B(  4-C , 17-H ) :  -0.1001 B(  5-C ,  6-H ) :   2.4860 B(  5-C ,  7-C ) :   0.4367
B(  5-C ,  8-C ) :  -0.1877 B(  5-C , 10-H ) :   0.2278 B(  6-H ,  7-C ) :  -0.3083
B(  6-H ,  8-C ) :  -0.4561 B(  6-H , 10-H ) :   0.5706 B(  6-H , 11-H ) :  -0.1120
B(  6-H , 17-H ) :  -0.1178 B(  7-C ,  8-C ) :   2.0687 B(  7-C ,  9-H ) :  -0.2334
B(  7-C , 10-H ) :  -0.3700 B(  7-C , 17-H ) :   0.1089 B(  8-C ,  9-H ) :   1.2160
B(  8-C , 10-H ) :  -0.4615 B(  8-C , 11-H ) :   0.1971 B(  8-C , 17-H ) :   0.2458
B( 10-H , 11-H ) :  -0.1152 B( 12-O , 13-C ) :   0.9900 B( 13-C , 14-H ) :   0.9912
B( 13-C , 15-H ) :   0.9117 B( 13-C , 16-H ) :   0.9119

Dispersion correction           -0.005508120
FINAL SINGLE POINT ENERGY      -422.847111866247

DIPOLE MOMENT
-------------

Method             : SCF
Type of density    : Electron Density
Multiplicity       :   1
Irrep              :   0
Energy             :  -422.8416037463271095 Eh
Relativity type    :
Basis              : AO
                                X                 Y                 Z
Electronic contribution:      4.293479878       1.955665749       0.003425186
Nuclear contribution   :     -5.422417527      -2.553089128      -0.004814270
                        -----------------------------------------
Total Dipole Moment    :     -1.128937649      -0.597423380      -0.001389084
                        -----------------------------------------
Magnitude (a.u.)       :      1.277269290
Magnitude (Debye)      :      3.246560527

Rotational constants in cm-1:             0.161027             0.023727             0.020762
Rotational constants in MHz :          4827.475716           711.314831           622.427679

                             ****ORCA TERMINATED NORMALLY****
TOTAL RUN TIME: 0 days 0 hours 10 minutes 34 seconds 648 msec
