                         Program Version 6.0.0  -   RELEASE  -
|  1> !r2SCANh aug-cc-pVTZ d3 TightSCF SlowConv RIJCOSX defgrid2
|  2>
|  3> %pal
|  4> nprocs 4
|  5> end
|  6>
|  7> %scf
|  8> MaxIter 1500
|  9> end
| 10>
| 11> %maxcore 3000
| 12>
| 13> !CPCM
| 14> %cpcm smd true
| 15> SMDsolvent "MeCN"
| 16> surfacetype gepol_ses
| 17> rsolv 2.19
| 18> end
| 19>
| 20> * xyz 1 2
| 21> C           1.23906097821424     -1.40551070901350     -0.00000531617187
| 22> C           2.45015803140750     -0.67322429285633     -0.00000921567554
| 23> C           2.42811091171597      0.71268482354482     -0.00001568112958
| 24> C           1.19571143634270      1.39424054969992     -0.00001075953318
| 25> C          -0.03981045812169      0.67829020396443      0.00000284784769
| 26> N          -1.17332230996389      1.38563715697618      0.00000321346217
| 27> C          -2.32918806881659      0.72347909408816      0.00002389103772
| 28> C          -2.42077579021744     -0.67559967987832      0.00002275899277
| 29> C          -1.24727430719380     -1.42666779167592      0.00001979178345
| 30> C          -0.01202551197153     -0.74717299874334      0.00001126438315
| 31> H          -1.27875276164831     -2.52070410881391      0.00003141451029
| 32> H          -3.39973883027065     -1.16186770315986      0.00002731924985
| 33> H          -3.23745148992936      1.33696404502357      0.00004224395057
| 34> H           1.14599213399064      2.48703198107260     -0.00001815853916
| 35> H           3.36241847162623      1.28070852836563     -0.00003089393792
| 36> H           3.40229793543149     -1.21093180244413     -0.00001262742469
| 37> H           1.27044702940448     -2.50010749615001     -0.00001669280572
| 38> *
| 39>
| 40>                          ****END OF INPUT****

CARTESIAN COORDINATES (ANGSTROEM)
---------------------------------
  C      1.239061   -1.405511   -0.000005
  C      2.450158   -0.673224   -0.000009
  C      2.428111    0.712685   -0.000016
  C      1.195711    1.394241   -0.000011
  C     -0.039810    0.678290    0.000003
  N     -1.173322    1.385637    0.000003
  C     -2.329188    0.723479    0.000024
  C     -2.420776   -0.675600    0.000023
  C     -1.247274   -1.426668    0.000020
  C     -0.012026   -0.747173    0.000011
  H     -1.278753   -2.520704    0.000031
  H     -3.399739   -1.161868    0.000027
  H     -3.237451    1.336964    0.000042
  H      1.145992    2.487032   -0.000018
  H      3.362418    1.280709   -0.000031
  H      3.402298   -1.210932   -0.000013
  H      1.270447   -2.500107   -0.000017

 Total Charge           Charge          ....    1
 Multiplicity           Mult            ....    2
 Number of Electrons    NEL             ....   67
 Basis Dimension        Dim             ....  621

ORBITAL ENERGIES
----------------
                 SPIN UP ORBITALS
  NO   OCC          E(Eh)            E(eV)
   0   1.0000     -14.350167      -390.4879
   1   1.0000     -10.242957      -278.7250
   2   1.0000     -10.240451      -278.6568
   3   1.0000     -10.237451      -278.5752
   4   1.0000     -10.231466      -278.4124
   5   1.0000     -10.223284      -278.1897
   6   1.0000     -10.219541      -278.0878
   7   1.0000     -10.216575      -278.0072
   8   1.0000     -10.215146      -277.9683
   9   1.0000     -10.205665      -277.7103
  10   1.0000      -0.995564       -27.0907
  11   1.0000      -0.901869       -24.5411
  12   1.0000      -0.850851       -23.1528
  13   1.0000      -0.795880       -21.6570
  14   1.0000      -0.788907       -21.4673
  15   1.0000      -0.684302       -18.6208
  16   1.0000      -0.665532       -18.1101
  17   1.0000      -0.640796       -17.4369
  18   1.0000      -0.559997       -15.2383
  19   1.0000      -0.544695       -14.8219
  20   1.0000      -0.535399       -14.5690
  21   1.0000      -0.482449       -13.1281
  22   1.0000      -0.470152       -12.7935
  23   1.0000      -0.458526       -12.4771
  24   1.0000      -0.456863       -12.4319
  25   1.0000      -0.429572       -11.6893
  26   1.0000      -0.424082       -11.5399
  27   1.0000      -0.390468       -10.6252
  28   1.0000      -0.390111       -10.6155
  29   1.0000      -0.374756       -10.1976
  30   1.0000      -0.354542        -9.6476
  31   1.0000      -0.290792        -7.9128
  32   1.0000      -0.290074        -7.8933
  33   1.0000      -0.289510        -7.8780
  34   0.0000      -0.129194        -3.5156
  35   0.0000      -0.068135        -1.8541
  36   0.0000      -0.054120        -1.4727
  37   0.0000       0.007573         0.2061
  38   0.0000       0.020767         0.5651

                 SPIN DOWN ORBITALS
  NO   OCC          E(Eh)            E(eV)
   0   1.0000     -14.346601      -390.3908
   1   1.0000     -10.241461      -278.6843
   2   1.0000     -10.236493      -278.5491
   3   1.0000     -10.231875      -278.4235
   4   1.0000     -10.230309      -278.3809
   5   1.0000     -10.221089      -278.1300
   6   1.0000     -10.218135      -278.0496
   7   1.0000     -10.217661      -278.0367
   8   1.0000     -10.215429      -277.9760
   9   1.0000     -10.204665      -277.6831
  10   1.0000      -0.990293       -26.9472
  11   1.0000      -0.891924       -24.2705
  12   1.0000      -0.843652       -22.9569
  13   1.0000      -0.794867       -21.6294
  14   1.0000      -0.771413       -20.9912
  15   1.0000      -0.679178       -18.4814
  16   1.0000      -0.662284       -18.0217
  17   1.0000      -0.634121       -17.2553
  18   1.0000      -0.555717       -15.1218
  19   1.0000      -0.542140       -14.7524
  20   1.0000      -0.533596       -14.5199
  21   1.0000      -0.482385       -13.1264
  22   1.0000      -0.467397       -12.7185
  23   1.0000      -0.456127       -12.4119
  24   1.0000      -0.443129       -12.0582
  25   1.0000      -0.427245       -11.6259
  26   1.0000      -0.423212       -11.5162
  27   1.0000      -0.388840       -10.5809
  28   1.0000      -0.372744       -10.1429
  29   1.0000      -0.366085        -9.9617
  30   1.0000      -0.327904        -8.9227
  31   1.0000      -0.291271        -7.9259
  32   1.0000      -0.287265        -7.8169
  33   0.0000      -0.222161        -6.0453
  34   0.0000      -0.098474        -2.6796
  35   0.0000      -0.061893        -1.6842
  36   0.0000      -0.028003        -0.7620
  37   0.0000       0.008728         0.2375

MULLIKEN ATOMIC CHARGES AND SPIN POPULATIONS
--------------------------------------------
   0 C :   -0.818463    0.327186
   1 C :   -0.405900    0.063520
   2 C :   -0.165137   -0.033453
   3 C :   -0.833664    0.371964
   4 C :    0.663543   -0.019101
   5 N :   -0.677324    0.146842
   6 C :   -0.453640   -0.042696
   7 C :   -0.250608    0.049407
   8 C :   -0.827900    0.130567
   9 C :    1.830611   -0.073285
  10 H :    0.437191    0.008386
  11 H :    0.255298    0.004301
  12 H :    0.555884    0.002979
  13 H :    0.491356    0.033607
  14 H :    0.470792   -0.008074
  15 H :    0.619346    0.000532
  16 H :    0.108614    0.037315
Sum of atomic charges         :    1.0000000

LOEWDIN ATOMIC CHARGES AND SPIN POPULATIONS
-------------------------------------------
   0 C :    0.328126    0.198753
   1 C :    0.299166    0.103355
   2 C :    0.291518    0.072473
   3 C :    0.315122    0.205741
   4 C :   -0.281274    0.043985
   5 N :    0.418682    0.090704
   6 C :    0.082782    0.019705
   7 C :    0.281706    0.049856
   8 C :    0.293372    0.070027
   9 C :   -0.080463    0.035010
  10 H :   -0.125125    0.011886
  11 H :   -0.144568    0.007370
  12 H :   -0.158112   -0.001564
  13 H :   -0.129844    0.041207
  14 H :   -0.138229    0.001472
  15 H :   -0.135682    0.011636
  16 H :   -0.117177    0.038382

  Mayer bond orders larger than 0.100000
B(  0-C ,  1-C ) :   1.0453 B(  0-C ,  2-C ) :  -0.1761 B(  0-C ,  4-C ) :  -0.6623
B(  0-C ,  7-C ) :   0.1011 B(  0-C ,  8-C ) :   0.2994 B(  0-C ,  9-C ) :   0.2740
B(  0-C , 15-H ) :  -0.1242 B(  0-C , 16-H ) :   1.3837 B(  1-C ,  2-C ) :   1.0627
B(  1-C ,  3-C ) :   0.1421 B(  1-C ,  4-C ) :  -0.1212 B(  1-C ,  9-C ) :   0.1578
B(  1-C , 15-H ) :   0.3558 B(  2-C ,  3-C ) :   1.1026 B(  2-C ,  4-C ) :  -0.1464
B(  2-C ,  7-C ) :   0.1124 B(  2-C ,  8-C ) :   0.1551 B(  2-C ,  9-C ) :  -0.2031
B(  2-C , 13-H ) :   0.1197 B(  2-C , 14-H ) :   0.6177 B(  3-C ,  4-C ) :   0.7188
B(  3-C ,  5-N ) :   0.2184 B(  3-C ,  9-C ) :   0.2662 B(  3-C , 13-H ) :   0.3381
B(  4-C ,  6-C ) :   0.2876 B(  4-C ,  8-C ) :   0.6635 B(  4-C ,  9-C ) :   0.6572
B(  4-C , 12-H ) :   0.1037 B(  4-C , 16-H ) :   0.1160 B(  5-N ,  6-C ) :   1.5616
B(  5-N , 13-H ) :   0.1259 B(  6-C ,  7-C ) :   0.8025 B(  6-C ,  8-C ) :   0.3523
B(  6-C ,  9-C ) :  -0.4978 B(  6-C , 12-H ) :   0.4412 B(  7-C ,  8-C ) :   1.0474
B(  7-C ,  9-C ) :  -0.3354 B(  7-C , 11-H ) :   1.0125 B(  8-C ,  9-C ) :  -0.2053
B(  8-C , 10-H ) :   0.6405 B(  8-C , 16-H ) :  -0.1102 B(  9-C , 10-H ) :   0.1308
B(  9-C , 12-H ) :   0.1206

Dispersion correction           -0.006145413
FINAL SINGLE POINT ENERGY      -401.607380316559

DIPOLE MOMENT
-------------

Method             : SCF
Type of density    : Electron Density
Multiplicity       :   2
Irrep              :   0
Energy             :  -401.6012349033925375 Eh
Relativity type    :
Basis              : AO
                                X                 Y                 Z
Electronic contribution:     -0.215016039       0.732720990      -0.000169202
Nuclear contribution   :      1.179405862      -2.142414994      -0.000006417
                        -----------------------------------------
Total Dipole Moment    :      0.964389824      -1.409694004      -0.000175620
                        -----------------------------------------
Magnitude (a.u.)       :      1.708006132
Magnitude (Debye)      :      4.341406570

Rotational constants in cm-1:             0.105894             0.041940             0.030042
Rotational constants in MHz :          3174.630600          1257.322564           900.626549

                             ****ORCA TERMINATED NORMALLY****
TOTAL RUN TIME: 0 days 0 hours 9 minutes 36 seconds 517 msec
