                         Program Version 6.0.0  -   RELEASE  -
|  1> !r2SCAN aug-cc-pVTZ d3 TightSCF SlowConv RIJCOSX defgrid2
|  2>
|  3> %pal
|  4> nprocs 4
|  5> end
|  6>
|  7> %scf
|  8> MaxIter 1500
|  9> end
| 10>
| 11> %maxcore 3000
| 12>
| 13> !CPCM
| 14> %cpcm smd true
| 15> SMDsolvent "MeCN"
| 16> surfacetype gepol_ses
| 17> rsolv 2.19
| 18> end
| 19>
| 20> * xyz 0 1
| 21> C          -1.26495799748714      1.18303865458515      0.05080403605519
| 22> C          -2.60642333061191      1.31935448376271     -0.29959738324645
| 23> C          -3.44041280440145      0.20926539307814     -0.40161517964085
| 24> C          -2.90144082973563     -1.04973716221060     -0.13432170008440
| 25> C          -1.56825148928729     -1.19660014660261      0.22866378768858
| 26> C          -0.70934318580896     -0.08154664486827      0.33051202673951
| 27> N           0.61300953805947     -0.24105226876837      0.73119077146847
| 28> C           1.39986976374892     -1.37999096255953      0.29877427512661
| 29> H           2.04607670863121     -1.70992958583228      1.13451664570021
| 30> H           0.75114664396039     -2.22334685848636      0.02620697927589
| 31> C           2.27342120561242     -0.99223084807636     -0.89055156639513
| 32> H           1.61932266943223     -0.77011165873748     -1.76181164136710
| 33> H           2.95180872338646     -1.81692724050040     -1.16544343627529
| 34> O           3.08315300113024      0.11581273484299     -0.59570720798542
| 35> C           2.32868138086657      1.23424748204123     -0.20294123693064
| 36> H           3.04807602292032      2.03579294537700      0.03304751449273
| 37> H           1.68319853015679      1.57652212178956     -1.04065762734244
| 38> C           1.46842283993869      0.89253788749959      1.00660143146740
| 39> H           0.87499689376841      1.75339469243703      1.34646905231102
| 40> H           2.14234577335657      0.61412921846987      1.83973084130833
| 41> H          -1.19667964735529     -2.19528020638703      0.46959053777193
| 42> H          -3.53417239713040     -1.94099462889459     -0.19414702188547
| 43> H          -4.49070441202665      0.32074363292367     -0.68354523209589
| 44> H          -2.99695664778230      2.31986039355180     -0.51119940816597
| 45> H          -0.64456005334168      2.08028887156514      0.08361514200918
| 46> *
| 47>
| 48>                          ****END OF INPUT****

CARTESIAN COORDINATES (ANGSTROEM)
---------------------------------
  C     -1.264958    1.183039    0.050804
  C     -2.606423    1.319354   -0.299597
  C     -3.440413    0.209265   -0.401615
  C     -2.901441   -1.049737   -0.134322
  C     -1.568251   -1.196600    0.228664
  C     -0.709343   -0.081547    0.330512
  N      0.613010   -0.241052    0.731191
  C      1.399870   -1.379991    0.298774
  H      2.046077   -1.709930    1.134517
  H      0.751147   -2.223347    0.026207
  C      2.273421   -0.992231   -0.890552
  H      1.619323   -0.770112   -1.761812
  H      2.951809   -1.816927   -1.165443
  O      3.083153    0.115813   -0.595707
  C      2.328681    1.234247   -0.202941
  H      3.048076    2.035793    0.033048
  H      1.683199    1.576522   -1.040658
  C      1.468423    0.892538    1.006601
  H      0.874997    1.753395    1.346469
  H      2.142346    0.614129    1.839731
  H     -1.196680   -2.195280    0.469591
  H     -3.534172   -1.940995   -0.194147
  H     -4.490704    0.320744   -0.683545
  H     -2.996957    2.319860   -0.511199
  H     -0.644560    2.080289    0.083615

 Total Charge           Charge          ....    0
 Multiplicity           Mult            ....    1
 Number of Electrons    NEL             ....   88
 Basis Dimension        Dim             ....  851

ORBITAL ENERGIES
----------------

  NO   OCC          E(Eh)            E(eV)
   0   2.0000     -18.961175      -515.9598
   1   2.0000     -14.180134      -385.8611
   2   2.0000     -10.080309      -274.2991
   3   2.0000     -10.075826      -274.1772
   4   2.0000     -10.075796      -274.1763
   5   2.0000     -10.060892      -273.7708
   6   2.0000     -10.060035      -273.7475
   7   2.0000     -10.036710      -273.1128
   8   2.0000     -10.036681      -273.1120
   9   2.0000     -10.031267      -272.9646
  10   2.0000     -10.031026      -272.9581
  11   2.0000     -10.026498      -272.8349
  12   2.0000      -1.012491       -27.5513
  13   2.0000      -0.914744       -24.8915
  14   2.0000      -0.810833       -22.0639
  15   2.0000      -0.739553       -20.1243
  16   2.0000      -0.718764       -19.5586
  17   2.0000      -0.708086       -19.2680
  18   2.0000      -0.646606       -17.5950
  19   2.0000      -0.626633       -17.0516
  20   2.0000      -0.576356       -15.6835
  21   2.0000      -0.563561       -15.3353
  22   2.0000      -0.528772       -14.3886
  23   2.0000      -0.496874       -13.5206
  24   2.0000      -0.456757       -12.4290
  25   2.0000      -0.447422       -12.1750
  26   2.0000      -0.441026       -12.0009
  27   2.0000      -0.432719       -11.7749
  28   2.0000      -0.426877       -11.6159
  29   2.0000      -0.403670       -10.9844
  30   2.0000      -0.396040       -10.7768
  31   2.0000      -0.383161       -10.4264
  32   2.0000      -0.373805       -10.1717
  33   2.0000      -0.357746        -9.7348
  34   2.0000      -0.343805        -9.3554
  35   2.0000      -0.331049        -9.0083
  36   2.0000      -0.321864        -8.7584
  37   2.0000      -0.319134        -8.6841
  38   2.0000      -0.297858        -8.1051
  39   2.0000      -0.290072        -7.8933
  40   2.0000      -0.263683        -7.1752
  41   2.0000      -0.235819        -6.4170
  42   2.0000      -0.232383        -6.3235
  43   2.0000      -0.168913        -4.5964
  44   0.0000      -0.034868        -0.9488
  45   0.0000      -0.020436        -0.5561
  46   0.0000       0.006305         0.1716
  47   0.0000       0.018966         0.5161
  48   0.0000       0.021295         0.5795

MULLIKEN ATOMIC CHARGES
-----------------------
   0 C :   -0.298981
   1 C :   -0.932810
   2 C :   -0.550611
   3 C :   -0.637855
   4 C :   -0.792916
   5 C :    1.870889
   6 N :    0.067653
   7 C :   -0.601182
   8 H :    0.175222
   9 H :    0.174851
  10 C :   -0.086913
  11 H :    0.183097
  12 H :    0.258700
  13 O :   -0.684598
  14 C :   -0.019859
  15 H :    0.286312
  16 H :    0.228994
  17 C :   -0.656668
  18 H :    0.073956
  19 H :    0.187507
  20 H :    0.279906
  21 H :    0.342496
  22 H :    0.565599
  23 H :    0.312306
  24 H :    0.254905
Sum of atomic charges:   -0.0000000

LOEWDIN ATOMIC CHARGES
----------------------
   0 C :    0.208100
   1 C :    0.170879
   2 C :    0.164508
   3 C :    0.169864
   4 C :    0.209131
   5 C :   -0.219502
   6 N :    0.274020
   7 C :    0.193143
   8 H :   -0.119835
   9 H :   -0.161342
  10 C :    0.038088
  11 H :   -0.133787
  12 H :   -0.141474
  13 O :    0.593597
  14 C :    0.035814
  15 H :   -0.140440
  16 H :   -0.137643
  17 C :    0.182144
  18 H :   -0.151888
  19 H :   -0.122841
  20 H :   -0.185376
  21 H :   -0.173201
  22 H :   -0.184099
  23 H :   -0.172934
  24 H :   -0.194926

  Mayer bond orders larger than 0.100000
B(  0-C ,  1-C ) :   0.9030 B(  0-C ,  2-C ) :   0.3845 B(  0-C ,  3-C ) :  -0.2246
B(  0-C ,  5-C ) :   0.2016 B(  0-C ,  6-N ) :  -0.3181 B(  0-C , 24-H ) :   0.7080
B(  1-C ,  2-C ) :   1.1586 B(  1-C ,  4-C ) :  -0.1842 B(  1-C ,  5-C ) :  -0.3026
B(  1-C , 23-H ) :   0.8216 B(  2-C ,  3-C ) :   1.0421 B(  2-C ,  4-C ) :   0.3267
B(  2-C ,  5-C ) :  -0.2733 B(  2-C , 22-H ) :   0.3786 B(  3-C ,  4-C ) :   1.0968
B(  3-C ,  5-C ) :  -0.2314 B(  3-C , 21-H ) :   0.7970 B(  4-C , 17-C ) :   0.1146
B(  4-C , 20-H ) :   0.7163 B(  5-C ,  6-N ) :   0.2220 B(  5-C ,  7-C ) :  -0.1551
B(  6-N ,  7-C ) :   1.0354 B(  6-N , 17-C ) :   1.0265 B(  7-C ,  8-H ) :   0.9962
B(  7-C ,  9-H ) :   0.9547 B(  7-C , 10-C ) :   0.8799 B(  7-C , 13-O ) :   0.1184
B(  7-C , 17-C ) :   0.2719 B( 10-C , 11-H ) :   0.9916 B( 10-C , 12-H ) :   0.9037
B( 10-C , 13-O ) :   0.8410 B( 13-O , 14-C ) :   0.7906 B( 13-O , 17-C ) :   0.1160
B( 14-C , 15-H ) :   0.8920 B( 14-C , 16-H ) :   0.9727 B( 14-C , 17-C ) :   0.7904
B( 17-C , 18-H ) :   1.1034 B( 17-C , 19-H ) :   0.8941 B( 18-H , 24-H ) :  -0.1028

Dispersion correction           -0.008807920
FINAL SINGLE POINT ENERGY      -518.756888089600

DIPOLE MOMENT
-------------

Method             : SCF
Type of density    : Electron Density
Multiplicity       :   1
Irrep              :   0
Energy             :  -518.7480801695966193 Eh
Relativity type    :
Basis              : AO
                                X                 Y                 Z
Electronic contribution:     -1.789132614      -0.106751551       0.527436968
Nuclear contribution   :      2.172114398       0.028135231      -0.411191187
                        -----------------------------------------
Total Dipole Moment    :      0.382981784      -0.078616319       0.116245781
                        -----------------------------------------
Magnitude (a.u.)       :      0.407883138
Magnitude (Debye)      :      1.036756545

Rotational constants in cm-1:             0.074060             0.019927             0.017479
Rotational constants in MHz :          2220.259535           597.392551           524.016525

                             ****ORCA TERMINATED NORMALLY****
TOTAL RUN TIME: 0 days 0 hours 5 minutes 40 seconds 971 msec
