                         Program Version 6.0.0  -   RELEASE  -
|  1> !PBE0 freq aug-cc-pVTZ d3 TightSCF SlowConv RIJCOSX defgrid2
|  2>
|  3> %pal
|  4> nprocs 12
|  5> end
|  6>
|  7> %scf
|  8> MaxIter 1500
|  9> end
| 10>
| 11> %maxcore 5000
| 12>
| 13> !CPCM
| 14> %cpcm smd true
| 15> SMDsolvent "MeCN"
| 16> surfacetype gepol_ses
| 17> rsolv 2.19
| 18> end
| 19>
| 20> * xyz 1 2
| 21> C           2.43118309452123     -0.69106805722987     -0.00011457885621
| 22> C           2.43120290486208      0.69100840935185     -0.00024712977830
| 23> C           1.22440640593661      1.39353541757872     -0.00028650150260
| 24> C           0.00001314396598      0.71011504345888     -0.00001933369054
| 25> C          -1.22436402953611      1.39356817185137      0.00026131486855
| 26> C          -2.43117121292936      0.69106783266602      0.00028243876521
| 27> C          -2.43120137841532     -0.69100668500383      0.00014036440015
| 28> C          -1.22440087928336     -1.39353192572191      0.00013074570147
| 29> C          -0.00000901683513     -0.71011471202673     -0.00002095471116
| 30> C           1.22436766929572     -1.39355849728095     -0.00015363109518
| 31> H           1.22812742219655     -2.47657605779297     -0.00010088798482
| 32> H          -1.22818377094241     -2.47654793434526      0.00006499329289
| 33> H          -3.36596320296497     -1.23554388146471     -0.00037872487664
| 34> H          -3.36591630884533      1.23562802242267     -0.00011982666244
| 35> H          -1.22815081250548      2.47658458346247      0.00027991309518
| 36> H           1.22821162911991      2.47655010866414     -0.00031062849417
| 37> H           3.36595980039014      1.23556473299548      0.00021607677854
| 38> H           3.36591954196923     -1.23565257158537      0.00045295075006
| 39> *
| 40>
| 41>                          ****END OF INPUT****

CARTESIAN COORDINATES (ANGSTROEM)
---------------------------------
  C      2.431183   -0.691068   -0.000115
  C      2.431203    0.691008   -0.000247
  C      1.224406    1.393535   -0.000287
  C      0.000013    0.710115   -0.000019
  C     -1.224364    1.393568    0.000261
  C     -2.431171    0.691068    0.000282
  C     -2.431201   -0.691007    0.000140
  C     -1.224401   -1.393532    0.000131
  C     -0.000009   -0.710115   -0.000021
  C      1.224368   -1.393558   -0.000154
  H      1.228127   -2.476576   -0.000101
  H     -1.228184   -2.476548    0.000065
  H     -3.365963   -1.235544   -0.000379
  H     -3.365916    1.235628   -0.000120
  H     -1.228151    2.476585    0.000280
  H      1.228212    2.476550   -0.000311
  H      3.365960    1.235565    0.000216
  H      3.365920   -1.235653    0.000453

 Total Charge           Charge          ....    1
 Multiplicity           Mult            ....    2
 Number of Electrons    NEL             ....   67
 Basis Dimension        Dim             ....  644

ORBITAL ENERGIES
----------------
                 SPIN UP ORBITALS
  NO   OCC          E(Eh)            E(eV)
   0   1.0000     -10.286202      -279.9018
   1   1.0000     -10.286181      -279.9012
   2   1.0000     -10.286163      -279.9007
   3   1.0000     -10.286150      -279.9004
   4   1.0000     -10.273614      -279.5592
   5   1.0000     -10.273085      -279.5449
   6   1.0000     -10.270398      -279.4717
   7   1.0000     -10.270397      -279.4717
   8   1.0000     -10.269711      -279.4531
   9   1.0000     -10.269697      -279.4527
  10   1.0000      -0.950883       -25.8748
  11   1.0000      -0.894327       -24.3359
  12   1.0000      -0.846141       -23.0247
  13   1.0000      -0.808172       -21.9915
  14   1.0000      -0.784969       -21.3601
  15   1.0000      -0.690562       -18.7911
  16   1.0000      -0.669711       -18.2238
  17   1.0000      -0.655711       -17.8428
  18   1.0000      -0.568387       -15.4666
  19   1.0000      -0.560694       -15.2573
  20   1.0000      -0.548530       -14.9263
  21   1.0000      -0.495291       -13.4776
  22   1.0000      -0.494311       -13.4509
  23   1.0000      -0.470547       -12.8042
  24   1.0000      -0.465981       -12.6800
  25   1.0000      -0.457049       -12.4369
  26   1.0000      -0.440077       -11.9751
  27   1.0000      -0.418853       -11.3976
  28   1.0000      -0.391187       -10.6447
  29   1.0000      -0.383689       -10.4407
  30   1.0000      -0.377994       -10.2857
  31   1.0000      -0.352315        -9.5870
  32   1.0000      -0.298911        -8.1338
  33   1.0000      -0.279387        -7.6025
  34   0.0000      -0.097007        -2.6397
  35   0.0000      -0.045774        -1.2456
  36   0.0000      -0.022715        -0.6181
  37   0.0000      -0.001009        -0.0275
  38   0.0000       0.010704         0.2913

                 SPIN DOWN ORBITALS
  NO   OCC          E(Eh)            E(eV)
   0   1.0000     -10.282254      -279.7944
   1   1.0000     -10.282221      -279.7935
   2   1.0000     -10.282218      -279.7934
   3   1.0000     -10.282193      -279.7927
   4   1.0000     -10.274752      -279.5902
   5   1.0000     -10.274226      -279.5759
   6   1.0000     -10.269816      -279.4559
   7   1.0000     -10.269815      -279.4559
   8   1.0000     -10.269115      -279.4368
   9   1.0000     -10.269102      -279.4365
  10   1.0000      -0.946180       -25.7469
  11   1.0000      -0.887328       -24.1454
  12   1.0000      -0.837013       -22.7763
  13   1.0000      -0.807613       -21.9763
  14   1.0000      -0.771602       -20.9963
  15   1.0000      -0.685764       -18.6606
  16   1.0000      -0.665948       -18.1214
  17   1.0000      -0.651072       -17.7166
  18   1.0000      -0.565373       -15.3846
  19   1.0000      -0.556393       -15.1402
  20   1.0000      -0.546460       -14.8699
  21   1.0000      -0.493716       -13.4347
  22   1.0000      -0.492847       -13.4111
  23   1.0000      -0.468219       -12.7409
  24   1.0000      -0.462921       -12.5967
  25   1.0000      -0.442788       -12.0489
  26   1.0000      -0.437351       -11.9009
  27   1.0000      -0.417774       -11.3682
  28   1.0000      -0.381244       -10.3742
  29   1.0000      -0.377185       -10.2637
  30   1.0000      -0.369376       -10.0512
  31   1.0000      -0.320433        -8.7194
  32   1.0000      -0.298649        -8.1267
  33   0.0000      -0.196576        -5.3491
  34   0.0000      -0.068941        -1.8760
  35   0.0000      -0.036396        -0.9904
  36   0.0000      -0.005761        -0.1568
  37   0.0000      -0.000174        -0.0047

MULLIKEN ATOMIC CHARGES AND SPIN POPULATIONS
--------------------------------------------
   0 C :   -0.438704    0.033623
   1 C :   -0.430807    0.033575
   2 C :   -1.060291    0.247031
   3 C :    1.396905   -0.051129
   4 C :   -1.050580    0.247036
   5 C :   -0.438866    0.033597
   6 C :   -0.439761    0.033708
   7 C :   -1.053770    0.246871
   8 C :    1.397963   -0.051118
   9 C :   -1.050271    0.247028
  10 H :    0.264331   -0.006274
  11 H :    0.266742   -0.006235
  12 H :    0.769713    0.001175
  13 H :    0.783911    0.001242
  14 H :    0.269019   -0.006338
  15 H :    0.256313   -0.006225
  16 H :    0.783814    0.001208
  17 H :    0.774337    0.001226
Sum of atomic charges         :    1.0000000

LOEWDIN ATOMIC CHARGES AND SPIN POPULATIONS
-------------------------------------------
   0 C :    0.278209    0.071970
   1 C :    0.278213    0.071968
   2 C :    0.300135    0.130836
   3 C :   -0.095542    0.029083
   4 C :    0.300148    0.130836
   5 C :    0.278206    0.071968
   6 C :    0.278217    0.071971
   7 C :    0.300149    0.130839
   8 C :   -0.095543    0.029085
   9 C :    0.300144    0.130837
  10 H :   -0.133196    0.025725
  11 H :   -0.133199    0.025725
  12 H :   -0.147389    0.006927
  13 H :   -0.147390    0.006927
  14 H :   -0.133192    0.025725
  15 H :   -0.133203    0.025725
  16 H :   -0.147381    0.006927
  17 H :   -0.147387    0.006927

  Mayer bond orders larger than 0.100000
B(  0-C ,  1-C ) :   1.3732 B(  0-C ,  3-C ) :  -0.2261 B(  0-C ,  7-C ) :   0.1006
B(  0-C ,  9-C ) :   1.2582 B(  0-C , 16-H ) :   0.1040 B(  0-C , 17-H ) :   0.1304
B(  1-C ,  2-C ) :   1.2484 B(  1-C ,  4-C ) :   0.1044 B(  1-C ,  8-C ) :  -0.2367
B(  1-C , 16-H ) :   0.1156 B(  1-C , 17-H ) :   0.1062 B(  2-C ,  3-C ) :   0.2224
B(  2-C ,  4-C ) :   0.3245 B(  2-C ,  5-C ) :   0.1045 B(  2-C ,  8-C ) :  -0.3121
B(  2-C ,  9-C ) :   0.1189 B(  2-C , 15-H ) :   1.0709 B(  2-C , 16-H ) :  -0.1934
B(  3-C ,  4-C ) :   0.2190 B(  3-C ,  6-C ) :  -0.2305 B(  3-C ,  7-C ) :  -0.3059
B(  3-C ,  8-C ) :   1.3124 B(  3-C ,  9-C ) :  -0.3053 B(  4-C ,  5-C ) :   1.2556
B(  4-C ,  7-C ) :   0.1172 B(  4-C ,  8-C ) :  -0.3070 B(  4-C , 13-H ) :  -0.1905
B(  4-C , 14-H ) :   1.0448 B(  5-C ,  6-C ) :   1.3715 B(  5-C ,  8-C ) :  -0.2335
B(  5-C , 12-H ) :   0.1098 B(  5-C , 13-H ) :   0.1111 B(  6-C ,  7-C ) :   1.2543
B(  6-C ,  9-C ) :   0.1020 B(  6-C , 12-H ) :   0.1364 B(  6-C , 13-H ) :   0.1021
B(  7-C ,  8-C ) :   0.2342 B(  7-C ,  9-C ) :   0.3131 B(  7-C , 11-H ) :   1.0493
B(  7-C , 12-H ) :  -0.1870 B(  8-C ,  9-C ) :   0.2255 B(  9-C , 10-H ) :   1.0506
B(  9-C , 17-H ) :  -0.1902

Dispersion correction           -0.018563366
FINAL SINGLE POINT ENERGY      -385.370959891671

DIPOLE MOMENT
-------------

Method             : SCF
Type of density    : Electron Density
Multiplicity       :   2
Irrep              :   0
Energy             :  -385.3523965252630319 Eh
Relativity type    :
Basis              : AO
                                X                 Y                 Z
Electronic contribution:     -0.000004827      -0.000018404      -0.000081246
Nuclear contribution   :     -0.000015001      -0.000004392       0.000110491
                        -----------------------------------------
Total Dipole Moment    :     -0.000019828      -0.000022796       0.000029245
                        -----------------------------------------
Magnitude (a.u.)       :      0.000042048
Magnitude (Debye)      :      0.000106878

VIBRATIONAL FREQUENCIES
-----------------------

Scaling factor for frequencies =  1.000000000  (already applied!)

     0:       0.00 cm**-1
     1:       0.00 cm**-1
     2:       0.00 cm**-1
     3:       0.00 cm**-1
     4:       0.00 cm**-1
     5:       0.00 cm**-1
     6:     144.08 cm**-1
     7:     160.09 cm**-1
     8:     322.56 cm**-1
     9:     367.58 cm**-1
    10:     406.71 cm**-1
    11:     418.80 cm**-1
    12:     440.17 cm**-1
    13:     459.48 cm**-1
    14:     510.03 cm**-1
    15:     584.15 cm**-1
    16:     735.57 cm**-1
    17:     741.95 cm**-1
    18:     760.32 cm**-1
    19:     778.59 cm**-1
    20:     803.91 cm**-1
    21:     864.82 cm**-1
    22:     926.25 cm**-1
    23:     937.23 cm**-1
    24:     977.86 cm**-1
    25:    1002.65 cm**-1
    26:    1018.91 cm**-1
    27:    1025.77 cm**-1
    28:    1026.11 cm**-1
    29:    1055.51 cm**-1
    30:    1100.30 cm**-1
    31:    1104.51 cm**-1
    32:    1158.53 cm**-1
    33:    1164.11 cm**-1
    34:    1202.19 cm**-1
    35:    1228.57 cm**-1
    36:    1288.36 cm**-1
    37:    1411.69 cm**-1
    38:    1437.31 cm**-1
    39:    1448.62 cm**-1
    40:    1451.06 cm**-1
    41:    1488.70 cm**-1
    42:    1516.66 cm**-1
    43:    1560.57 cm**-1
    44:    1564.46 cm**-1
    45:    1646.54 cm**-1
    46:    3200.10 cm**-1
    47:    3206.71 cm**-1
    48:    3209.63 cm**-1
    49:    3211.10 cm**-1
    50:    3219.84 cm**-1
    51:    3220.97 cm**-1
    52:    3231.40 cm**-1
    53:    3232.02 cm**-1

IR SPECTRUM
-----------

 Mode   freq       eps      Int      T**2         TX        TY        TZ
       cm**-1   L/(mol*cm) km/mol    a.u.
----------------------------------------------------------------------------
  6:    144.08   0.000854    4.32  0.001850  ( 0.001649 -0.000002  0.042978)
  7:    160.09   0.000000    0.00  0.000000  (-0.000007  0.000383 -0.000070)
  8:    322.56   0.000320    1.62  0.000309  ( 0.000121 -0.017586  0.000000)
  9:    367.58   0.000000    0.00  0.000000  ( 0.000034  0.000013 -0.000007)
 10:    406.71   0.008291   41.90  0.006362  (-0.000092  0.000001  0.079762)
 11:    418.80   0.000000    0.00  0.000000  ( 0.000226 -0.000004  0.000264)
 12:    440.17   0.000000    0.00  0.000000  ( 0.000012  0.000444  0.000054)
 13:    459.48   0.000000    0.00  0.000000  (-0.000024  0.000001 -0.000008)
 14:    510.03   0.000000    0.00  0.000000  (-0.000042 -0.000002 -0.000002)
 15:    584.15   0.007253   36.65  0.003875  (-0.062247 -0.000002 -0.000138)
 16:    735.57   0.000000    0.00  0.000000  ( 0.000009  0.000010 -0.000038)
 17:    741.95   0.000000    0.00  0.000000  (-0.000092  0.000001 -0.000102)
 18:    760.32   0.034029  171.97  0.013967  (-0.000224  0.000000 -0.118181)
 19:    778.59   0.000000    0.00  0.000000  (-0.000046 -0.000002 -0.000009)
 20:    803.91   0.000326    1.65  0.000126  ( 0.000013  0.011245 -0.000003)
 21:    864.82   0.000000    0.00  0.000000  ( 0.000007 -0.000281 -0.000010)
 22:    926.25   0.000000    0.00  0.000000  (-0.000037 -0.000000 -0.000008)
 23:    937.23   0.000000    0.00  0.000000  (-0.000057 -0.000002  0.000025)
 24:    977.86   0.000000    0.00  0.000000  ( 0.000027  0.000007 -0.000007)
 25:   1002.65   0.000828    4.19  0.000258  (-0.000656  0.000002  0.016042)
 26:   1018.91   0.000000    0.00  0.000000  ( 0.000002  0.000210  0.000029)
 27:   1025.77   0.000000    0.00  0.000000  ( 0.000029 -0.000003 -0.000039)
 28:   1026.11   0.000099    0.50  0.000030  (-0.005478 -0.000000 -0.000486)
 29:   1055.51   0.000000    0.00  0.000000  (-0.000118 -0.000003  0.000001)
 30:   1100.30   0.000000    0.00  0.000000  (-0.000209 -0.000049  0.000006)
 31:   1104.51   0.000697    3.52  0.000197  ( 0.000079 -0.014029 -0.000000)
 32:   1158.53   0.012347   62.40  0.003326  ( 0.057670 -0.000005 -0.000013)
 33:   1164.11   0.000000    0.00  0.000000  (-0.000095  0.000004  0.000000)
 34:   1202.19   0.128314  648.45  0.033308  (-0.182504 -0.000007 -0.000037)
 35:   1228.57   0.000000    0.00  0.000000  (-0.000284  0.000003 -0.000009)
 36:   1288.36   0.001365    6.90  0.000331  (-0.000052 -0.018186 -0.000000)
 37:   1411.69   0.015480   78.23  0.003422  ( 0.000030 -0.058497 -0.000000)
 38:   1437.31   0.012383   62.58  0.002688  ( 0.051850 -0.000018 -0.000095)
 39:   1448.62   0.000000    0.00  0.000000  ( 0.000037 -0.000001 -0.000000)
 40:   1451.06   0.000000    0.00  0.000000  ( 0.000039 -0.000021  0.000009)
 41:   1488.70   0.000000    0.00  0.000000  ( 0.000095  0.000038  0.000001)
 42:   1516.66   0.000000    0.00  0.000000  ( 0.000003  0.000012  0.000000)
 43:   1560.57   0.034223  172.95  0.006844  (-0.000185 -0.082725 -0.000000)
 44:   1564.46   0.052520  265.41  0.010476  (-0.102353  0.000114  0.000098)
 45:   1646.54   0.000000    0.00  0.000000  ( 0.000006 -0.000001 -0.000001)
 46:   3200.10   0.000000    0.00  0.000000  ( 0.000032  0.000001  0.000002)
 47:   3206.71   0.000113    0.57  0.000011  (-0.000035  0.003311 -0.000001)
 48:   3209.63   0.000778    3.93  0.000076  (-0.008695 -0.000018 -0.000042)
 49:   3211.10   0.000000    0.00  0.000000  (-0.000014  0.000000 -0.000000)
 50:   3219.84   0.000000    0.00  0.000000  ( 0.000002  0.000208 -0.000000)
 51:   3220.97   0.001081    5.46  0.000105  (-0.000009 -0.010233  0.000001)
 52:   3231.40   0.003293   16.64  0.000318  ( 0.017832 -0.000008 -0.000158)
 53:   3232.02   0.000007    0.03  0.000001  ( 0.000797  0.000005 -0.000007)

--------------------------
THERMOCHEMISTRY AT 298.15K
--------------------------

Temperature         ...   298.15 K
Pressure            ...     1.00 atm
Total Mass          ...   128.17 AMU
Quasi RRHO          ...     True
Cut-Off Frequency   ...     1.00 cm^-1

Throughout the following assumptions are being made:
  (1) The electronic state is orbitally nondegenerate
      but the spin degeneracy is treated
  (2) There are no thermally accessible electronically excited states
  (3) Hindered rotations indicated by low frequency modes are not
      treated as such but are treated as vibrations and this may
      cause some error
  (4) All equations used are the standard statistical mechanics
      equations for an ideal gas
  (5) All vibrations are strictly harmonic

freq.     144.08  E(vib)   ...       0.41
freq.     160.09  E(vib)   ...       0.39
freq.     322.56  E(vib)   ...       0.25
freq.     367.58  E(vib)   ...       0.21
freq.     406.71  E(vib)   ...       0.19
freq.     418.80  E(vib)   ...       0.18
freq.     440.17  E(vib)   ...       0.17
freq.     459.48  E(vib)   ...       0.16
freq.     510.03  E(vib)   ...       0.14
freq.     584.15  E(vib)   ...       0.11
freq.     735.57  E(vib)   ...       0.06
freq.     741.95  E(vib)   ...       0.06
freq.     760.32  E(vib)   ...       0.06
freq.     778.59  E(vib)   ...       0.05
freq.     803.91  E(vib)   ...       0.05
freq.     864.82  E(vib)   ...       0.04
freq.     926.25  E(vib)   ...       0.03
freq.     937.23  E(vib)   ...       0.03
freq.     977.86  E(vib)   ...       0.03
freq.    1002.65  E(vib)   ...       0.02
freq.    1018.91  E(vib)   ...       0.02
freq.    1025.77  E(vib)   ...       0.02
freq.    1026.11  E(vib)   ...       0.02
freq.    1055.51  E(vib)   ...       0.02
freq.    1100.30  E(vib)   ...       0.02
freq.    1104.51  E(vib)   ...       0.02
freq.    1158.53  E(vib)   ...       0.01
freq.    1164.11  E(vib)   ...       0.01
freq.    1202.19  E(vib)   ...       0.01
freq.    1228.57  E(vib)   ...       0.01
freq.    1288.36  E(vib)   ...       0.01
freq.    1411.69  E(vib)   ...       0.00
freq.    1437.31  E(vib)   ...       0.00
freq.    1448.62  E(vib)   ...       0.00
freq.    1451.06  E(vib)   ...       0.00
freq.    1488.70  E(vib)   ...       0.00
freq.    1516.66  E(vib)   ...       0.00
freq.    1560.57  E(vib)   ...       0.00
freq.    1564.46  E(vib)   ...       0.00
freq.    1646.54  E(vib)   ...       0.00
freq.    3200.10  E(vib)   ...       0.00
freq.    3206.71  E(vib)   ...       0.00
freq.    3209.63  E(vib)   ...       0.00
freq.    3211.10  E(vib)   ...       0.00
freq.    3219.84  E(vib)   ...       0.00
freq.    3220.97  E(vib)   ...       0.00
freq.    3231.40  E(vib)   ...       0.00
freq.    3232.02  E(vib)   ...       0.00

------------
INNER ENERGY
------------

The inner energy is: U= E(el) + E(ZPE) + E(vib) + E(rot) + E(trans)
    E(el)   - is the total energy from the electronic structure calculation
              = E(kin-el) + E(nuc-el) + E(el-el) + E(nuc-nuc)
    E(ZPE)  - the the zero temperature vibrational energy from the frequency calculation
    E(vib)  - the the finite temperature correction to E(ZPE) due to population
              of excited vibrational states
    E(rot)  - is the rotational thermal energy
    E(trans)- is the translational thermal energy

Summary of contributions to the inner energy U:
Electronic energy                ...   -385.37095989 Eh
Zero point energy                ...      0.14574121 Eh      91.45 kcal/mol
Thermal vibrational correction   ...      0.00451386 Eh       2.83 kcal/mol
Thermal rotational correction    ...      0.00141627 Eh       0.89 kcal/mol
Thermal translational correction ...      0.00141627 Eh       0.89 kcal/mol
-----------------------------------------------------------------------
Total thermal energy                   -385.21787228 Eh

Summary of corrections to the electronic energy:
(perhaps to be used in another calculation)
Total thermal correction                  0.00734640 Eh       4.61 kcal/mol
Non-thermal (ZPE) correction              0.14574121 Eh      91.45 kcal/mol
-----------------------------------------------------------------------
Total correction                          0.15308762 Eh      96.06 kcal/mol

--------
ENTHALPY
--------

The enthalpy is H = U + kB*T
                kB is Boltzmann's constant
Total thermal energy              ...   -385.21787228 Eh
Thermal Enthalpy correction       ...      0.00094421 Eh       0.59 kcal/mol
-----------------------------------------------------------------------
Total Enthalpy                    ...   -385.21692807 Eh

Note: Rotational entropy computed according to Herzberg
Infrared and Raman Spectra, Chapter V,1, Van Nostrand Reinhold, 1945
Point Group:  C2, Symmetry Number:   2
Rotational constants in cm-1:     0.105862     0.041342     0.029731

Vibrational entropy computed according to the QRRHO of S. Grimme
Chem.Eur.J. 2012 18 9955 using a reference frequency of 100.0 cm-1

-------
ENTROPY
-------

The entropy contributions are T*S = T*(S(el)+S(vib)+S(rot)+S(trans))
     S(el)   - electronic entropy
     S(vib)  - vibrational entropy
     S(rot)  - rotational entropy
     S(trans)- translational entropy
The entropies will be listed as multiplied by the temperature to get
units of energy

Electronic entropy                ...      0.00065446 Eh      0.41 kcal/mol
Vibrational entropy               ...      0.00700171 Eh      4.39 kcal/mol
Rotational entropy                ...      0.01308017 Eh      8.21 kcal/mol
Translational entropy             ...      0.01922279 Eh     12.06 kcal/mol
-----------------------------------------------------------------------
Final entropy term                ...      0.03995912 Eh     25.07 kcal/mol

In case the symmetry of your molecule has not been determined correctly
or in case you have a reason to use a different symmetry number we print
out the resulting rotational entropy values for sn=1,12:

 non-linear molecules -----------------------------------
|  sn= 1 | S(rot)=       0.01373463 Eh      8.62 kcal/mol|
|  sn= 2 | S(rot)=       0.01308017 Eh      8.21 kcal/mol|
|  sn= 3 | S(rot)=       0.01269734 Eh      7.97 kcal/mol|
|  sn= 4 | S(rot)=       0.01242571 Eh      7.80 kcal/mol|
|  sn= 5 | S(rot)=       0.01221503 Eh      7.67 kcal/mol|
|  sn= 6 | S(rot)=       0.01204288 Eh      7.56 kcal/mol|
|  sn= 7 | S(rot)=       0.01189734 Eh      7.47 kcal/mol|
|  sn= 8 | S(rot)=       0.01177126 Eh      7.39 kcal/mol|
|  sn= 9 | S(rot)=       0.01166005 Eh      7.32 kcal/mol|
|  sn=10 | S(rot)=       0.01156057 Eh      7.25 kcal/mol|
|  sn=11 | S(rot)=       0.01147058 Eh      7.20 kcal/mol|
|  sn=12 | S(rot)=       0.01138843 Eh      7.15 kcal/mol|
 linear molecules ---------------------------------------
|  Dinfh | S(rot)=       0.00864513 Eh      5.42 kcal/mol|
|  Cinfv | S(rot)=       0.00929958 Eh      5.84 kcal/mol|
 --------------------------------------------------------

                             ****ORCA TERMINATED NORMALLY****
TOTAL RUN TIME: 0 days 0 hours 53 minutes 51 seconds 242 msec
