                         Program Version 6.0.0  -   RELEASE  -
|  1> !PBE0 aug-cc-pVTZ d3 TightSCF SlowConv RIJCOSX defgrid2
|  2>
|  3> %pal
|  4> nprocs 4
|  5> end
|  6>
|  7> %scf
|  8> MaxIter 1500
|  9> end
| 10>
| 11> %maxcore 3000
| 12>
| 13> !CPCM
| 14> %cpcm smd true
| 15> SMDsolvent "MeCN"
| 16> surfacetype gepol_ses
| 17> rsolv 2.19
| 18> end
| 19>
| 20> * xyz 0 1
| 21>   C           1.35661311001034      0.08242353673381     -0.04830147992154
| 22>   C           0.72528734400678      1.33237499260851      0.02931980589731
| 23>   C          -0.65716684626784      1.42571283843268      0.04302512633637
| 24>   C          -1.44754625606451      0.26653460954742      0.00874339988909
| 25>   C          -0.82552870874395     -0.98502153376474     -0.04770168852446
| 26>   C           0.56772235704198     -1.06633130194090     -0.08313298846277
| 27>   H           1.05006188676245     -2.04577688056741     -0.14354433447971
| 28>   H          -1.41135553820799     -1.90566385705075     -0.07389044457674
| 29>   O          -2.78063858244739      0.45554290336633      0.03645550634804
| 30>   C          -3.62283453444167     -0.66142074230683      0.01078196288993
| 31>   H          -4.65283077190408     -0.27592428677814      0.04102787975267
| 32>   H          -3.48787720923621     -1.25466269618222     -0.91406269819965
| 33>   H          -3.45860421924221     -1.31813897835911      0.88673287617431
| 34>   H          -1.16047233306293      2.39441311771435      0.09515969980486
| 35>   H           1.33361129819119      2.23967992641979      0.08145593960365
| 36>   S           3.13145786803727     -0.06127748319567     -0.01892864657318
| 37>   H           3.36519883556877      0.49010163532289     -1.23773021595817
| 38> *
| 39>
| 40>                          ****END OF INPUT****

CARTESIAN COORDINATES (ANGSTROEM)
---------------------------------
  C      1.356613    0.082424   -0.048301
  C      0.725287    1.332375    0.029320
  C     -0.657167    1.425713    0.043025
  C     -1.447546    0.266535    0.008743
  C     -0.825529   -0.985022   -0.047702
  C      0.567722   -1.066331   -0.083133
  H      1.050062   -2.045777   -0.143544
  H     -1.411356   -1.905664   -0.073890
  O     -2.780639    0.455543    0.036456
  C     -3.622835   -0.661421    0.010782
  H     -4.652831   -0.275924    0.041028
  H     -3.487877   -1.254663   -0.914063
  H     -3.458604   -1.318139    0.886733
  H     -1.160472    2.394413    0.095160
  H      1.333611    2.239680    0.081456
  S      3.131458   -0.061277   -0.018929
  H      3.365199    0.490102   -1.237730

 Total Charge           Charge          ....    0
 Multiplicity           Mult            ....    1
 Number of Electrons    NEL             ....   74
 Basis Dimension        Dim             ....  602

ORBITAL ENERGIES
----------------

  NO   OCC          E(Eh)            E(eV)
   0   2.0000     -89.053695     -2423.2742
   1   2.0000     -19.248472      -523.7776
   2   2.0000     -10.296739      -280.1885
   3   2.0000     -10.267509      -279.3931
   4   2.0000     -10.262058      -279.2448
   5   2.0000     -10.240194      -278.6498
   6   2.0000     -10.239964      -278.6436
   7   2.0000     -10.233222      -278.4601
   8   2.0000     -10.232526      -278.4412
   9   2.0000      -8.011327      -217.9993
  10   2.0000      -5.948560      -161.8685
  11   2.0000      -5.945360      -161.7815
  12   2.0000      -5.940927      -161.6608
  13   2.0000      -1.111220       -30.2378
  14   2.0000      -0.892869       -24.2962
  15   2.0000      -0.810610       -22.0578
  16   2.0000      -0.779642       -21.2151
  17   2.0000      -0.746420       -20.3111
  18   2.0000      -0.694565       -18.9001
  19   2.0000      -0.636155       -17.3107
  20   2.0000      -0.601659       -16.3720
  21   2.0000      -0.553745       -15.0682
  22   2.0000      -0.508656       -13.8412
  23   2.0000      -0.487238       -13.2584
  24   2.0000      -0.485813       -13.2196
  25   2.0000      -0.459537       -12.5046
  26   2.0000      -0.438746       -11.9389
  27   2.0000      -0.430767       -11.7218
  28   2.0000      -0.420825       -11.4512
  29   2.0000      -0.392733       -10.6868
  30   2.0000      -0.374130       -10.1806
  31   2.0000      -0.360658        -9.8140
  32   2.0000      -0.340774        -9.2729
  33   2.0000      -0.334018        -9.0891
  34   2.0000      -0.276670        -7.5286
  35   2.0000      -0.269464        -7.3325
  36   2.0000      -0.235082        -6.3969
  37   0.0000      -0.019301        -0.5252
  38   0.0000      -0.015005        -0.4083
  39   0.0000      -0.000775        -0.0211
  40   0.0000       0.009487         0.2582
  41   0.0000       0.016651         0.4531

MULLIKEN ATOMIC CHARGES
-----------------------
   0 C :    0.505884
   1 C :   -0.647083
   2 C :   -0.896050
   3 C :    0.966230
   4 C :   -0.529888
   5 C :   -0.846575
   6 H :    0.535869
   7 H :    0.595340
   8 O :   -0.592558
   9 C :   -0.741318
  10 H :    0.257513
  11 H :    0.306514
  12 H :    0.305141
  13 H :    0.599014
  14 H :    0.540950
  15 S :   -0.457800
  16 H :    0.098817
Sum of atomic charges:    0.0000000

LOEWDIN ATOMIC CHARGES
----------------------
   0 C :   -0.602242
   1 C :    0.100307
   2 C :    0.191800
   3 C :   -0.411019
   4 C :    0.195367
   5 C :    0.098297
   6 H :   -0.187701
   7 H :   -0.185649
   8 O :    0.595457
   9 C :    0.316600
  10 H :   -0.166793
  11 H :   -0.158071
  12 H :   -0.157878
  13 H :   -0.167228
  14 H :   -0.182330
  15 S :    1.259877
  16 H :   -0.538795

  Mayer bond orders larger than 0.100000
B(  0-C ,  1-C ) :   1.1371 B(  0-C ,  5-C ) :   1.1282 B(  0-C , 15-S ) :   0.7934
B(  1-C ,  2-C ) :   1.3883 B(  1-C ,  3-C ) :  -0.3147 B(  1-C , 14-H ) :   0.6453
B(  2-C ,  3-C ) :   0.8340 B(  2-C ,  4-C ) :   0.1683 B(  2-C ,  8-O ) :   0.2668
B(  2-C , 13-H ) :   0.2826 B(  3-C ,  4-C ) :   1.0681 B(  3-C ,  5-C ) :  -0.2650
B(  3-C ,  7-H ) :   0.1083 B(  3-C ,  8-O ) :   0.4563 B(  4-C ,  5-C ) :   1.2503
B(  4-C ,  7-H ) :   0.2312 B(  5-C ,  6-H ) :   0.6294 B(  6-H , 15-S ) :  -0.1339
B(  8-O ,  9-C ) :   1.0363 B(  9-C , 10-H ) :   0.9665 B(  9-C , 11-H ) :   0.8796
B(  9-C , 12-H ) :   0.8823 B( 14-H , 15-S ) :  -0.1425 B( 15-S , 16-H ) :   1.0928

Dispersion correction           -0.015963584
FINAL SINGLE POINT ENERGY      -744.584168376887

DIPOLE MOMENT
-------------

Method             : SCF
Type of density    : Electron Density
Multiplicity       :   1
Irrep              :   0
Energy             :  -744.5682047932027672 Eh
Relativity type    :
Basis              : AO
                                X                 Y                 Z
Electronic contribution:      6.900584796       1.626277370       0.677582557
Nuclear contribution   :     -8.061833988      -2.011071937      -1.060175110
                        -----------------------------------------
Total Dipole Moment    :     -1.161249193      -0.384794567      -0.382592553
                        -----------------------------------------
Magnitude (a.u.)       :      1.281773618
Magnitude (Debye)      :      3.258009618

Rotational constants in cm-1:             0.159819             0.022967             0.020233
Rotational constants in MHz :          4791.258551           688.540294           606.561125

                             ****ORCA TERMINATED NORMALLY****
TOTAL RUN TIME: 0 days 0 hours 4 minutes 34 seconds 632 msec
