                         Program Version 6.0.0  -   RELEASE  -
|  1> !PBE0 opt aug-cc-pVTZ d3 TightSCF SlowConv RIJCOSX defgrid2
|  2>
|  3> %pal
|  4> nprocs 8
|  5> end
|  6>
|  7> %scf
|  8> MaxIter 1500
|  9> end
| 10>
| 11> %maxcore 3500
| 12>
| 13> !CPCM
| 14> %cpcm smd true
| 15> SMDsolvent "MeCN"
| 16> surfacetype gepol_ses
| 17> rsolv 2.19
| 18> end
| 19>
| 20> * xyz -1 2
| 21>   C          -1.16908364743389     -1.25106043112589     -0.00046711885945
| 22>   C          -2.51558895662628     -0.94805778331016     -0.00048970260602
| 23>   C          -2.96951415995677      0.38786935411419     -0.00003437372110
| 24>   C          -1.99949719417351      1.41257476413842      0.00046952009611
| 25>   C          -0.64650719425624      1.13368035065037      0.00050575201273
| 26>   C          -0.16707249946699     -0.21739071251225      0.00002200149285
| 27>   C           1.18771930240505     -0.62830725495849      0.00000084051024
| 28>   O           1.69166054938407     -1.73447405522234     -0.00027921149921
| 29>   Cl          2.41415222066200      0.84117378911090      0.00088007792741
| 30>   H           0.08783721642061      1.94210741862158      0.00088650713536
| 31>   H          -2.32239478311716      2.46171169296406      0.00083360203305
| 32>   H          -4.03893270236722      0.62157662484535     -0.00006413910783
| 33>   H          -3.24555265578784     -1.76825494852385     -0.00088549117391
| 34>   H          -0.82790279568582     -2.29013880879190     -0.00083276424023
| 35> *
| 36>
| 37>                          ****END OF INPUT****
 Total Charge           Charge          ....   -1
 Multiplicity           Mult            ....    2
 Number of Electrons    NEL             ....   73
Dispersion correction           -0.014092198
FINAL SINGLE POINT ENERGY      -804.902259250634
Dispersion correction             ... done (  0.0 sec)
Dispersion correction           -0.014142262
FINAL SINGLE POINT ENERGY      -804.903143528407
Dispersion correction             ... done (  0.0 sec)
Dispersion correction           -0.014149210
FINAL SINGLE POINT ENERGY      -804.903194426027
Dispersion correction             ... done (  0.0 sec)
FINAL SINGLE POINT ENERGY      -804.903208447911
Dispersion correction             ... done (  0.1 sec)
Dispersion correction           -0.014148181
FINAL SINGLE POINT ENERGY      -804.903211752748
Dispersion correction             ... done (  0.0 sec)
Dispersion correction           -0.014147984
FINAL SINGLE POINT ENERGY      -804.903213871334
Dispersion correction             ... done (  0.1 sec)
                    ***********************HURRAY********************

CARTESIAN COORDINATES (ANGSTROEM)
---------------------------------
  C     -1.166699   -1.246618   -0.000571
  C     -2.508535   -0.943500   -0.000578
  C     -2.954564    0.384414   -0.000169
  C     -1.995753    1.406658    0.000318
  C     -0.647347    1.129887    0.000342
  C     -0.173750   -0.214379   -0.000085
  C      1.174078   -0.617604    0.000225
  O      1.684043   -1.729148    0.000237
  Cl     2.402985    0.825509    0.000357
  H      0.066532    1.942264    0.001055
  H     -2.317612    2.443044    0.001217
  H     -4.012604    0.614686    0.000058
  H     -3.231462   -1.753011   -0.000957
  H     -0.839989   -2.279192   -0.000904

 Multiplicity           Mult            ....    2
 Number of Electrons    NEL             ....   73
 Basis Dimension        Dim             ....  533

ORBITAL ENERGIES
----------------
                 SPIN UP ORBITALS
  NO   OCC          E(Eh)            E(eV)
   0   1.0000    -101.692695     -2767.1989
   1   1.0000     -19.169823      -521.6374
   2   1.0000     -10.299129      -280.2536
   3   1.0000     -10.218312      -278.0544
   4   1.0000     -10.210849      -277.8513
   5   1.0000     -10.210294      -277.8362
   6   1.0000     -10.208632      -277.7910
   7   1.0000     -10.208546      -277.7886
   8   1.0000     -10.203038      -277.6388
   9   1.0000      -9.495019      -258.3726
  10   1.0000      -7.228553      -196.6989
  11   1.0000      -7.222968      -196.5469
  12   1.0000      -7.222405      -196.5316
  13   1.0000      -1.045224       -28.4420
  14   1.0000      -0.866676       -23.5835
  15   1.0000      -0.815312       -22.1858
  16   1.0000      -0.763059       -20.7639
  17   1.0000      -0.754164       -20.5219
  18   1.0000      -0.648395       -17.6437
  19   1.0000      -0.601913       -16.3789
  20   1.0000      -0.553092       -15.0504
  21   1.0000      -0.502798       -13.6818
  22   1.0000      -0.463131       -12.6024
  23   1.0000      -0.452533       -12.3141
  24   1.0000      -0.427486       -11.6325
  25   1.0000      -0.422477       -11.4962
  26   1.0000      -0.415670       -11.3110
  27   1.0000      -0.407496       -11.0885
  28   1.0000      -0.365921        -9.9572
  29   1.0000      -0.354160        -9.6372
  30   1.0000      -0.327768        -8.9190
  31   1.0000      -0.303867        -8.2686
  32   1.0000      -0.301273        -8.1981
  33   1.0000      -0.264286        -7.1916
  34   1.0000      -0.263156        -7.1608
  35   1.0000      -0.262780        -7.1506
  36   1.0000      -0.119854        -3.2614
  37   0.0000       0.001575         0.0429
  38   0.0000       0.004861         0.1323
  39   0.0000       0.016989         0.4623
  40   0.0000       0.019865         0.5405
  41   0.0000       0.033262         0.9051

                 SPIN DOWN ORBITALS
  NO   OCC          E(Eh)            E(eV)
   0   1.0000    -101.692685     -2767.1986
   1   1.0000     -19.164081      -521.4812
   2   1.0000     -10.294035      -280.1149
   3   1.0000     -10.218190      -278.0511
   4   1.0000     -10.212404      -277.8936
   5   1.0000     -10.211742      -277.8756
   6   1.0000     -10.205669      -277.7104
   7   1.0000     -10.205589      -277.7082
   8   1.0000     -10.198507      -277.5155
   9   1.0000      -9.495009      -258.3723
  10   1.0000      -7.228816      -196.7061
  11   1.0000      -7.222640      -196.5380
  12   1.0000      -7.222415      -196.5319
  13   1.0000      -1.034191       -28.1418
  14   1.0000      -0.862217       -23.4621
  15   1.0000      -0.812388       -22.1062
  16   1.0000      -0.757381       -20.6094
  17   1.0000      -0.750490       -20.4219
  18   1.0000      -0.635514       -17.2932
  19   1.0000      -0.600452       -16.3391
  20   1.0000      -0.549031       -14.9399
  21   1.0000      -0.497501       -13.5377
  22   1.0000      -0.460232       -12.5236
  23   1.0000      -0.447401       -12.1744
  24   1.0000      -0.425977       -11.5914
  25   1.0000      -0.414774       -11.2866
  26   1.0000      -0.404056       -10.9949
  27   1.0000      -0.395214       -10.7543
  28   1.0000      -0.351681        -9.5697
  29   1.0000      -0.349727        -9.5166
  30   1.0000      -0.326785        -8.8923
  31   1.0000      -0.300672        -8.1817
  32   1.0000      -0.295127        -8.0308
  33   1.0000      -0.259598        -7.0640
  34   1.0000      -0.252097        -6.8599
  35   1.0000      -0.240718        -6.5503
  36   0.0000      -0.030994        -0.8434
  37   0.0000       0.003657         0.0995
  38   0.0000       0.010150         0.2762
  39   0.0000       0.018658         0.5077
  40   0.0000       0.021486         0.5847

MULLIKEN ATOMIC CHARGES AND SPIN POPULATIONS
--------------------------------------------
   0 C :   -0.953653    0.220155
   1 C :   -0.509636   -0.086628
   2 C :   -0.517744    0.294508
   3 C :   -0.740150   -0.084262
   4 C :   -0.991382    0.212388
   5 C :    1.348212    0.041619
   6 C :    0.434826    0.244026
   7 O :   -0.810793    0.210835
   8 Cl:   -0.470283    0.004204
   9 H :    0.356017   -0.014196
  10 H :    0.572576   -0.004814
  11 H :    0.547655   -0.008572
  12 H :    0.537369   -0.006345
  13 H :    0.196986   -0.022920
Sum of atomic charges         :   -1.0000000

LOEWDIN ATOMIC CHARGES AND SPIN POPULATIONS
-------------------------------------------
   0 C :    0.136449    0.097623
   1 C :    0.136482    0.027219
   2 C :    0.146880    0.132915
   3 C :    0.134092    0.027990
   4 C :    0.100304    0.094694
   5 C :   -0.338058    0.113668
   6 C :   -1.166615    0.210063
   7 O :    0.285118    0.198695
   8 Cl:    0.629894    0.029367
   9 H :   -0.273022    0.020950
  10 H :   -0.189956   -0.006124
  11 H :   -0.204489    0.036853
  12 H :   -0.189111   -0.006656
  13 H :   -0.207968    0.022743

  Mayer bond orders larger than 0.100000
B(  0-C ,  1-C ) :   1.3711 B(  0-C ,  4-C ) :  -0.2028 B(  0-C ,  5-C ) :   0.4531
B(  0-C ,  6-C ) :   0.1490 B(  0-C , 12-H ) :  -0.1168 B(  0-C , 13-H ) :   0.9464
B(  1-C ,  2-C ) :   1.1944 B(  1-C , 12-H ) :   0.5474 B(  2-C ,  3-C ) :   1.2297
B(  2-C ,  5-C ) :  -0.1328 B(  2-C ,  6-C ) :   0.1079 B(  2-C , 11-H ) :   0.5500
B(  3-C ,  4-C ) :   1.3636 B(  3-C , 10-H ) :   0.4731 B(  4-C ,  5-C ) :   0.2815
B(  4-C ,  6-C ) :   0.3152 B(  4-C ,  9-H ) :   1.0454 B(  5-C ,  6-C ) :   0.8066
B(  5-C ,  7-O ) :   0.2312 B(  6-C ,  7-O ) :   0.8758 B(  6-C ,  8-Cl) :   0.6751
B(  7-O , 13-H ) :   0.1560 B(  8-Cl,  9-H ) :  -0.1112

Dispersion correction           -0.014148218
FINAL SINGLE POINT ENERGY      -804.903214012169

DIPOLE MOMENT
-------------

Method             : SCF
Type of density    : Electron Density
Multiplicity       :   2
Irrep              :   0
Energy             :  -804.8890657944724580 Eh
Relativity type    :
Basis              : AO
                                X                 Y                 Z
Electronic contribution:     11.061965214       1.101558053       0.000673331
Nuclear contribution   :    -12.952961270      -0.258227869      -0.000292722
                        -----------------------------------------
Total Dipole Moment    :     -1.890996056       0.843330184       0.000380610
                        -----------------------------------------
Magnitude (a.u.)       :      2.070524579
Magnitude (Debye)      :      5.262855233

Rotational constants in cm-1:             0.101660             0.030674             0.023564
Rotational constants in MHz :          3047.704329           919.590587           706.436078

                             ****ORCA TERMINATED NORMALLY****
TOTAL RUN TIME: 0 days 0 hours 33 minutes 55 seconds 437 msec
