                         Program Version 6.0.0  -   RELEASE  -
|  1> !PBE0 def2-SV(p) Opt Freq d3 TightSCF SlowConv RIJCOSX defgrid2
|  2>
|  3> %pal
|  4> nprocs 4
|  5> end
|  6>
|  7> %scf
|  8> MaxIter 1500
|  9> end
| 10>
| 11> %maxcore 3000
| 12>
| 13>
| 14>
| 15> * xyz 0 1
| 16> C     1.1312369    1.2159818    0.0026018
| 17> C    -0.2501786    1.2311881    0.0075494
| 18> C    -0.9374448    0.0241253    0.0172440
| 19> C    -0.2513562   -1.1856629    0.0179444
| 20> C     1.1310911   -1.1904965    0.0124383
| 21> C     1.8370075    0.0122990    0.0043926
| 22> C     3.3309117    0.0828070   -0.0026042
| 23> O     3.9002494    1.1553304    0.0010437
| 24> C     4.0806586   -1.2186378   -0.0147953
| 25> H     3.8315979   -1.7995472    0.8704403
| 26> H     3.8127812   -1.7947494   -0.8975908
| 27> H     5.1488930   -1.0172268   -0.0250903
| 28> H     1.6466296   -2.1361220    0.0144930
| 29> H    -0.8030384   -2.1131563    0.0261137
| 30> C    -2.4380064   -0.0037613    0.0016444
| 31> F    -2.9309854   -0.4073687   -1.1908144
| 32> F    -2.9520663   -0.8580575    0.9090273
| 33> F    -3.0048073    1.1871735    0.2488806
| 34> H    -0.7906706    2.1646861    0.0066516
| 35> H     1.6900021    2.1394898   -0.0036217
| 36> *
| 37>
| 38>                          ****END OF INPUT****
 Total Charge           Charge          ....    0
 Multiplicity           Mult            ....    1
 Number of Electrons    NEL             ....   96
Dispersion correction           -0.018755592
FINAL SINGLE POINT ENERGY      -720.642644862827
Dispersion correction             ... done (  0.0 sec)
Dispersion correction           -0.018699481
FINAL SINGLE POINT ENERGY      -720.644982553874
Dispersion correction             ... done (  0.0 sec)
Dispersion correction           -0.018682180
FINAL SINGLE POINT ENERGY      -720.645122033620
Dispersion correction             ... done (  0.0 sec)
FINAL SINGLE POINT ENERGY      -720.645140563801
Dispersion correction             ... done (  0.0 sec)
Dispersion correction           -0.018678061
FINAL SINGLE POINT ENERGY      -720.645136864372
Dispersion correction             ... done (  0.0 sec)
Dispersion correction           -0.018679396
FINAL SINGLE POINT ENERGY      -720.645145960770
Dispersion correction             ... done (  0.0 sec)
                    ***********************HURRAY********************

CARTESIAN COORDINATES (ANGSTROEM)
---------------------------------
  C      1.125359    1.221849    0.004455
  C     -0.264218    1.230820    0.013173
  C     -0.962864    0.022919    0.020719
  C     -0.271168   -1.189688    0.022336
  C      1.119280   -1.192746    0.011922
  C      1.830426    0.013610    0.002356
  C      3.330375    0.078124   -0.008305
  O      3.893351    1.149244   -0.012218
  C      4.105297   -1.216912   -0.014562
  H      3.871477   -1.821766    0.879093
  H      3.852756   -1.825196   -0.900715
  H      5.180184   -0.985452   -0.026008
  H      1.647702   -2.149192    0.013667
  H     -0.823225   -2.133168    0.035165
  C     -2.467610    0.001364   -0.003901
  F     -2.924755   -0.393808   -1.197136
  F     -2.956203   -0.851638    0.901715
  F     -2.991229    1.201810    0.246623
  H     -0.811460    2.176063    0.017532
  H      1.699030    2.152057    0.000037

 Multiplicity           Mult            ....    1
 Number of Electrons    NEL             ....   96
 Basis Dimension        Dim             ....  196

ORBITAL ENERGIES
----------------

  NO   OCC          E(Eh)            E(eV)
   0   2.0000     -24.813352      -675.2056
   1   2.0000     -24.809424      -675.0987
   2   2.0000     -24.806963      -675.0318
   3   2.0000     -19.211392      -522.7685
   4   2.0000     -10.485296      -285.3194
   5   2.0000     -10.335237      -281.2361
   6   2.0000     -10.279080      -279.7080
   7   2.0000     -10.269732      -279.4536
   8   2.0000     -10.269016      -279.4341
   9   2.0000     -10.267600      -279.3956
  10   2.0000     -10.266589      -279.3681
  11   2.0000     -10.261395      -279.2267
  12   2.0000     -10.242836      -278.7217
  13   2.0000      -1.342195       -36.5230
  14   2.0000      -1.248003       -33.9599
  15   2.0000      -1.242868       -33.8202
  16   2.0000      -1.074318       -29.2337
  17   2.0000      -0.912717       -24.8363
  18   2.0000      -0.829204       -22.5638
  19   2.0000      -0.794792       -21.6274
  20   2.0000      -0.771965       -21.0062
  21   2.0000      -0.728790       -19.8314
  22   2.0000      -0.670362       -18.2415
  23   2.0000      -0.656345       -17.8601
  24   2.0000      -0.618172       -16.8213
  25   2.0000      -0.614231       -16.7141
  26   2.0000      -0.601383       -16.3645
  27   2.0000      -0.587316       -15.9817
  28   2.0000      -0.519909       -14.1475
  29   2.0000      -0.507967       -13.8225
  30   2.0000      -0.495541       -13.4844
  31   2.0000      -0.491109       -13.3638
  32   2.0000      -0.481869       -13.1123
  33   2.0000      -0.474594       -12.9144
  34   2.0000      -0.466909       -12.7052
  35   2.0000      -0.458212       -12.4686
  36   2.0000      -0.455369       -12.3912
  37   2.0000      -0.451514       -12.2863
  38   2.0000      -0.443911       -12.0794
  39   2.0000      -0.430630       -11.7180
  40   2.0000      -0.414003       -11.2656
  41   2.0000      -0.412271       -11.2185
  42   2.0000      -0.389809       -10.6072
  43   2.0000      -0.385639       -10.4938
  44   2.0000      -0.382493       -10.4082
  45   2.0000      -0.299160        -8.1406
  46   2.0000      -0.294182        -8.0051
  47   2.0000      -0.279337        -7.6011
  48   0.0000      -0.075910        -2.0656
  49   0.0000      -0.030780        -0.8376
  50   0.0000       0.017886         0.4867
  51   0.0000       0.059461         1.6180
  52   0.0000       0.088568         2.4101

MULLIKEN ATOMIC CHARGES
-----------------------
   0 C :   -0.112169
   1 C :   -0.097090
   2 C :   -0.110589
   3 C :   -0.094432
   4 C :   -0.132486
   5 C :    0.009827
   6 C :    0.087839
   7 O :   -0.205368
   8 C :   -0.342620
   9 H :    0.155908
  10 H :    0.155891
  11 H :    0.156119
  12 H :    0.103864
  13 H :    0.113946
  14 C :    0.607939
  15 F :   -0.180256
  16 F :   -0.182183
  17 F :   -0.174214
  18 H :    0.116297
  19 H :    0.123777
Sum of atomic charges:   -0.0000000

LOEWDIN ATOMIC CHARGES
----------------------
   0 C :   -0.080998
   1 C :   -0.105983
   2 C :   -0.083727
   3 C :   -0.102365
   4 C :   -0.104848
   5 C :   -0.076561
   6 C :    0.071721
   7 O :   -0.142177
   8 C :   -0.368316
   9 H :    0.145362
  10 H :    0.145258
  11 H :    0.144689
  12 H :    0.135725
  13 H :    0.141395
  14 C :    0.165507
  15 F :   -0.062124
  16 F :   -0.059660
  17 F :   -0.052743
  18 H :    0.142519
  19 H :    0.147326

  Mayer bond orders larger than 0.100000
B(  0-C ,  1-C ) :   1.3623 B(  0-C ,  5-C ) :   1.3969 B(  0-C , 19-H ) :   0.9533
B(  1-C ,  2-C ) :   1.3908 B(  1-C , 18-H ) :   0.9635 B(  2-C ,  3-C ) :   1.3794
B(  2-C , 14-C ) :   0.9560 B(  3-C ,  4-C ) :   1.3992 B(  3-C , 13-H ) :   0.9598
B(  4-C ,  5-C ) :   1.3671 B(  4-C , 12-H ) :   0.9487 B(  5-C ,  6-C ) :   0.9169
B(  6-C ,  7-O ) :   2.1446 B(  6-C ,  8-C ) :   1.1014 B(  8-C ,  9-H ) :   0.9211
B(  8-C , 10-H ) :   0.9214 B(  8-C , 11-H ) :   0.9341 B( 14-C , 15-F ) :   1.1400
B( 14-C , 16-F ) :   1.1239 B( 14-C , 17-F ) :   1.1309

Dispersion correction           -0.018679590
FINAL SINGLE POINT ENERGY      -720.645146234281

DIPOLE MOMENT
-------------

Method             : SCF
Type of density    : Electron Density
Multiplicity       :   1
Irrep              :   0
Energy             :  -720.6264666441433064 Eh
Relativity type    :
Basis              : AO
                                X                 Y                 Z
Electronic contribution:    -21.680997158       3.397357621      -0.051965078
Nuclear contribution   :     22.009157676      -4.256883990       0.073247664
                        -----------------------------------------
Total Dipole Moment    :      0.328160518      -0.859526368       0.021282585
                        -----------------------------------------
Magnitude (a.u.)       :      0.920286832
Magnitude (Debye)      :      2.339183228

VIBRATIONAL FREQUENCIES
-----------------------

Scaling factor for frequencies =  1.000000000  (already applied!)

     0:       0.00 cm**-1
     1:       0.00 cm**-1
     2:       0.00 cm**-1
     3:       0.00 cm**-1
     4:       0.00 cm**-1
     5:       0.00 cm**-1
     6:       5.34 cm**-1
     7:      62.48 cm**-1
     8:      73.55 cm**-1
     9:     140.89 cm**-1
    10:     178.32 cm**-1
    11:     190.51 cm**-1
    12:     241.48 cm**-1
    13:     262.37 cm**-1
    14:     354.68 cm**-1
    15:     402.38 cm**-1
    16:     417.43 cm**-1
    17:     434.79 cm**-1
    18:     495.76 cm**-1
    19:     507.94 cm**-1
    20:     583.73 cm**-1
    21:     594.92 cm**-1
    22:     623.68 cm**-1
    23:     630.17 cm**-1
    24:     644.13 cm**-1
    25:     741.26 cm**-1
    26:     775.56 cm**-1
    27:     819.22 cm**-1
    28:     856.65 cm**-1
    29:     881.37 cm**-1
    30:     974.36 cm**-1
    31:     992.51 cm**-1
    32:    1022.09 cm**-1
    33:    1032.22 cm**-1
    34:    1054.11 cm**-1
    35:    1106.93 cm**-1
    36:    1113.27 cm**-1
    37:    1131.15 cm**-1
    38:    1198.07 cm**-1
    39:    1229.65 cm**-1
    40:    1253.83 cm**-1
    41:    1301.38 cm**-1
    42:    1322.16 cm**-1
    43:    1373.65 cm**-1
    44:    1389.23 cm**-1
    45:    1415.98 cm**-1
    46:    1451.69 cm**-1
    47:    1460.55 cm**-1
    48:    1462.06 cm**-1
    49:    1567.18 cm**-1
    50:    1668.35 cm**-1
    51:    1709.83 cm**-1
    52:    1844.28 cm**-1
    53:    3045.47 cm**-1
    54:    3133.52 cm**-1
    55:    3180.53 cm**-1
    56:    3213.67 cm**-1
    57:    3224.15 cm**-1
    58:    3228.97 cm**-1
    59:    3237.30 cm**-1

IR SPECTRUM
-----------

 Mode   freq       eps      Int      T**2         TX        TY        TZ
       cm**-1   L/(mol*cm) km/mol    a.u.
----------------------------------------------------------------------------
  6:      5.34   0.000171    0.86  0.010005  (-0.003585  0.012435 -0.099186)
  7:     62.48   0.000174    0.88  0.000868  (-0.000438 -0.000774 -0.029456)
  8:     73.55   0.000527    2.66  0.002237  ( 0.001043 -0.001262 -0.047272)
  9:    140.89   0.000634    3.20  0.001403  ( 0.027915 -0.024979  0.000110)
 10:    178.32   0.000086    0.44  0.000151  ( 0.000453  0.000153  0.012274)
 11:    190.51   0.000003    0.01  0.000004  ( 0.001390  0.000401  0.001532)
 12:    241.48   0.000466    2.36  0.000603  (-0.024368 -0.002954  0.000165)
 13:    262.37   0.000312    1.57  0.000371  ( 0.018758  0.004320  0.000072)
 14:    354.68   0.000082    0.41  0.000072  (-0.003546  0.000394 -0.007712)
 15:    402.38   0.000372    1.88  0.000289  ( 0.007292  0.015343  0.000165)
 16:    417.43   0.000004    0.02  0.000003  (-0.001275  0.000672 -0.001051)
 17:    434.79   0.001289    6.52  0.000925  (-0.029966  0.005226  0.000338)
 18:    495.76   0.000055    0.28  0.000034  ( 0.003819  0.000199 -0.004438)
 19:    507.94   0.002800   14.15  0.001720  ( 0.041067 -0.005777 -0.000330)
 20:    583.73   0.000016    0.08  0.000008  ( 0.000325  0.000127  0.002890)
 21:    594.92   0.000090    0.46  0.000047  (-0.003378  0.005971 -0.000474)
 22:    623.68   0.001627    8.22  0.000814  (-0.024913  0.013888 -0.000865)
 23:    630.17   0.004312   21.79  0.002135  (-0.004001  0.000949  0.046026)
 24:    644.13   0.000065    0.33  0.000031  (-0.005596 -0.000167  0.000129)
 25:    741.26   0.005302   26.79  0.002232  ( 0.047185 -0.002186  0.000940)
 26:    775.56   0.000103    0.52  0.000041  (-0.004536  0.000270  0.004548)
 27:    819.22   0.000007    0.03  0.000002  (-0.000419  0.001169 -0.000973)
 28:    856.65   0.004295   21.70  0.001564  (-0.002760 -0.001613 -0.039424)
 29:    881.37   0.005114   25.85  0.001811  ( 0.002608 -0.001140  0.042459)
 30:    974.36   0.004698   23.74  0.001505  (-0.036203  0.013932  0.000179)
 31:    992.51   0.000002    0.01  0.000001  ( 0.000107  0.000839 -0.000216)
 32:   1022.09   0.000019    0.10  0.000006  ( 0.001171  0.000506  0.002057)
 33:   1032.22   0.004781   24.16  0.001445  ( 0.037816 -0.003896  0.000331)
 34:   1054.11   0.000438    2.21  0.000130  (-0.000579  0.000223 -0.011366)
 35:   1106.93   0.000144    0.73  0.000041  ( 0.002648  0.005758  0.000729)
 36:   1113.27   0.017861   90.26  0.005007  ( 0.070380  0.007268  0.000656)
 37:   1131.15   0.005299   26.78  0.001462  (-0.016927  0.034283 -0.000324)
 38:   1198.07   0.000553    2.79  0.000144  ( 0.009350  0.000979 -0.007462)
 39:   1229.65   0.054581  275.83  0.013852  (-0.006656  0.004848 -0.117405)
 40:   1253.83   0.040309  203.71  0.010032  ( 0.014299  0.098996  0.005267)
 41:   1301.38   0.047818  241.65  0.011466  ( 0.106482 -0.010963 -0.002793)
 42:   1322.16   0.000973    4.92  0.000230  (-0.014168 -0.005372  0.000087)
 43:   1373.65   0.076334  385.76  0.017341  ( 0.129925 -0.021324 -0.002489)
 44:   1389.23   0.003436   17.36  0.000772  ( 0.015000  0.023370 -0.000768)
 45:   1415.98   0.000750    3.79  0.000165  (-0.009634  0.008519 -0.000001)
 46:   1451.69   0.002267   11.46  0.000487  (-0.010597 -0.019367  0.000019)
 47:   1460.55   0.008837   44.66  0.001888  (-0.019679  0.038733 -0.000716)
 48:   1462.06   0.002990   15.11  0.000638  (-0.000550  0.001331  0.025222)
 49:   1567.18   0.006885   34.80  0.001371  ( 0.036937 -0.002580 -0.000186)
 50:   1668.35   0.001420    7.18  0.000266  ( 0.012365  0.010614 -0.000127)
 51:   1709.83   0.000182    0.92  0.000033  (-0.004063 -0.004066 -0.000401)
 52:   1844.28   0.033991  171.77  0.005751  (-0.046004 -0.060290  0.000299)
 53:   3045.47   0.000180    0.91  0.000018  ( 0.003173  0.002901 -0.000041)
 54:   3133.52   0.000375    1.89  0.000037  (-0.000046 -0.000054 -0.006109)
 55:   3180.53   0.000727    3.67  0.000071  ( 0.008393 -0.000926 -0.000048)
 56:   3213.67   0.000275    1.39  0.000027  (-0.004936  0.001533 -0.000139)
 57:   3224.15   0.000171    0.87  0.000017  (-0.003654 -0.001799  0.000109)
 58:   3228.97   0.000418    2.11  0.000040  (-0.001973  0.006042  0.000099)
 59:   3237.30   0.000217    1.10  0.000021  ( 0.004575 -0.000111  0.000089)

--------------------------
THERMOCHEMISTRY AT 298.15K
--------------------------

Temperature         ...   298.15 K
Pressure            ...     1.00 atm
Total Mass          ...   188.15 AMU
Quasi RRHO          ...     True
Cut-Off Frequency   ...     1.00 cm^-1

Throughout the following assumptions are being made:
  (1) The electronic state is orbitally nondegenerate
  (2) There are no thermally accessible electronically excited states
  (3) Hindered rotations indicated by low frequency modes are not
      treated as such but are treated as vibrations and this may
      cause some error
  (4) All equations used are the standard statistical mechanics
      equations for an ideal gas
  (5) All vibrations are strictly harmonic

freq.       5.34  E(vib)   ...       0.58
freq.      62.48  E(vib)   ...       0.51
freq.      73.55  E(vib)   ...       0.49
freq.     140.89  E(vib)   ...       0.41
freq.     178.32  E(vib)   ...       0.37
freq.     190.51  E(vib)   ...       0.36
freq.     241.48  E(vib)   ...       0.31
freq.     262.37  E(vib)   ...       0.29
freq.     354.68  E(vib)   ...       0.22
freq.     402.38  E(vib)   ...       0.19
freq.     417.43  E(vib)   ...       0.18
freq.     434.79  E(vib)   ...       0.17
freq.     495.76  E(vib)   ...       0.14
freq.     507.94  E(vib)   ...       0.14
freq.     583.73  E(vib)   ...       0.11
freq.     594.92  E(vib)   ...       0.10
freq.     623.68  E(vib)   ...       0.09
freq.     630.17  E(vib)   ...       0.09
freq.     644.13  E(vib)   ...       0.09
freq.     741.26  E(vib)   ...       0.06
freq.     775.56  E(vib)   ...       0.05
freq.     819.22  E(vib)   ...       0.05
freq.     856.65  E(vib)   ...       0.04
freq.     881.37  E(vib)   ...       0.04
freq.     974.36  E(vib)   ...       0.03
freq.     992.51  E(vib)   ...       0.02
freq.    1022.09  E(vib)   ...       0.02
freq.    1032.22  E(vib)   ...       0.02
freq.    1054.11  E(vib)   ...       0.02
freq.    1106.93  E(vib)   ...       0.02
freq.    1113.27  E(vib)   ...       0.01
freq.    1131.15  E(vib)   ...       0.01
freq.    1198.07  E(vib)   ...       0.01
freq.    1229.65  E(vib)   ...       0.01
freq.    1253.83  E(vib)   ...       0.01
freq.    1301.38  E(vib)   ...       0.01
freq.    1322.16  E(vib)   ...       0.01
freq.    1373.65  E(vib)   ...       0.01
freq.    1389.23  E(vib)   ...       0.00
freq.    1415.98  E(vib)   ...       0.00
freq.    1451.69  E(vib)   ...       0.00
freq.    1460.55  E(vib)   ...       0.00
freq.    1462.06  E(vib)   ...       0.00
freq.    1567.18  E(vib)   ...       0.00
freq.    1668.35  E(vib)   ...       0.00
freq.    1709.83  E(vib)   ...       0.00
freq.    1844.28  E(vib)   ...       0.00
freq.    3045.47  E(vib)   ...       0.00
freq.    3133.52  E(vib)   ...       0.00
freq.    3180.53  E(vib)   ...       0.00
freq.    3213.67  E(vib)   ...       0.00
freq.    3224.15  E(vib)   ...       0.00
freq.    3228.97  E(vib)   ...       0.00
freq.    3237.30  E(vib)   ...       0.00

------------
INNER ENERGY
------------

The inner energy is: U= E(el) + E(ZPE) + E(vib) + E(rot) + E(trans)
    E(el)   - is the total energy from the electronic structure calculation
              = E(kin-el) + E(nuc-el) + E(el-el) + E(nuc-nuc)
    E(ZPE)  - the the zero temperature vibrational energy from the frequency calculation
    E(vib)  - the the finite temperature correction to E(ZPE) due to population
              of excited vibrational states
    E(rot)  - is the rotational thermal energy
    E(trans)- is the translational thermal energy

Summary of contributions to the inner energy U:
Electronic energy                ...   -720.64514623 Eh
Zero point energy                ...      0.14410948 Eh      90.43 kcal/mol
Thermal vibrational correction   ...      0.00850434 Eh       5.34 kcal/mol
Thermal rotational correction    ...      0.00141627 Eh       0.89 kcal/mol
Thermal translational correction ...      0.00141627 Eh       0.89 kcal/mol
-----------------------------------------------------------------------
Total thermal energy                   -720.48969987 Eh

Summary of corrections to the electronic energy:
(perhaps to be used in another calculation)
Total thermal correction                  0.01133688 Eh       7.11 kcal/mol
Non-thermal (ZPE) correction              0.14410948 Eh      90.43 kcal/mol
-----------------------------------------------------------------------
Total correction                          0.15544637 Eh      97.54 kcal/mol

--------
ENTHALPY
--------

The enthalpy is H = U + kB*T
                kB is Boltzmann's constant
Total thermal energy              ...   -720.48969987 Eh
Thermal Enthalpy correction       ...      0.00094421 Eh       0.59 kcal/mol
-----------------------------------------------------------------------
Total Enthalpy                    ...   -720.48875566 Eh

Note: Only C1 symmetry has been detected, increase convergence thresholds
      if your molecule has a higher symmetry. Symmetry factor of 1.0 is
      used for the rotational entropy correction.

Note: Rotational entropy computed according to Herzberg
Infrared and Raman Spectra, Chapter V,1, Van Nostrand Reinhold, 1945
Point Group:  C1, Symmetry Number:   1
Rotational constants in cm-1:     0.074861     0.012555     0.011413

Vibrational entropy computed according to the QRRHO of S. Grimme
Chem.Eur.J. 2012 18 9955 using a reference frequency of 100.0 cm-1

-------
ENTROPY
-------

The entropy contributions are T*S = T*(S(el)+S(vib)+S(rot)+S(trans))
     S(el)   - electronic entropy
     S(vib)  - vibrational entropy
     S(rot)  - rotational entropy
     S(trans)- translational entropy
The entropies will be listed as multiplied by the temperature to get
units of energy

Electronic entropy                ...      0.00000000 Eh      0.00 kcal/mol
Vibrational entropy               ...      0.01545398 Eh      9.70 kcal/mol
Rotational entropy                ...      0.01491283 Eh      9.36 kcal/mol
Translational entropy             ...      0.01976641 Eh     12.40 kcal/mol
-----------------------------------------------------------------------
Final entropy term                ...      0.05013322 Eh     31.46 kcal/mol

In case the symmetry of your molecule has not been determined correctly
or in case you have a reason to use a different symmetry number we print
out the resulting rotational entropy values for sn=1,12:

 non-linear molecules -----------------------------------
|  sn= 1 | S(rot)=       0.01491283 Eh      9.36 kcal/mol|
|  sn= 2 | S(rot)=       0.01425838 Eh      8.95 kcal/mol|
|  sn= 3 | S(rot)=       0.01387554 Eh      8.71 kcal/mol|
|  sn= 4 | S(rot)=       0.01360392 Eh      8.54 kcal/mol|
|  sn= 5 | S(rot)=       0.01339323 Eh      8.40 kcal/mol|
|  sn= 6 | S(rot)=       0.01322109 Eh      8.30 kcal/mol|

                             ****ORCA TERMINATED NORMALLY****
TOTAL RUN TIME: 0 days 0 hours 9 minutes 17 seconds 365 msec
