                         Program Version 6.0.0  -   RELEASE  -
|  1> !TPSSh freq aug-cc-pVTZ d3 TightSCF SlowConv RIJCOSX defgrid2
|  2>
|  3> %pal
|  4> nprocs 12
|  5> end
|  6>
|  7> %scf
|  8> MaxIter 1500
|  9> end
| 10>
| 11> %maxcore 5000
| 12>
| 13> !CPCM
| 14> %cpcm smd true
| 15> SMDsolvent "MeCN"
| 16> surfacetype gepol_ses
| 17> rsolv 2.19
| 18> end
| 19>
| 20> * xyz 0 1
| 21> C          -0.23023851584578     -1.20626774573684      0.00368362424169
| 22> C           1.15935889031916     -1.19988338142918      0.00056665259456
| 23> C           1.86884246493981     -0.00003004937572      0.00041279325657
| 24> C           1.15938833853710      1.19984079460543      0.00056461724926
| 25> C          -0.23020870927182      1.20625854766754      0.00368195061778
| 26> C          -0.94671697255823      0.00000416158719      0.00669594249518
| 27> N          -2.33632047017907      0.00002071690809      0.07592912345347
| 28> H          -2.78443301990863      0.83646042410644     -0.27135687150830
| 29> H          -2.78445240256524     -0.83640679668637     -0.27136105982421
| 30> H          -0.77082853423124      2.14648768570440      0.00276185515455
| 31> H           1.69120353968672      2.14449375861552     -0.00444463272981
| 32> H           2.95170624718390     -0.00004427447730     -0.00333035625996
| 33> H           1.69114988647899     -2.14455066922790     -0.00444055849781
| 34> H          -0.77088114258567     -2.14648417226131      0.00276061975702
| 35> *
| 36>
| 37>                          ****END OF INPUT****

CARTESIAN COORDINATES (ANGSTROEM)
---------------------------------
  C     -0.230239   -1.206268    0.003684
  C      1.159359   -1.199883    0.000567
  C      1.868842   -0.000030    0.000413
  C      1.159388    1.199841    0.000565
  C     -0.230209    1.206259    0.003682
  C     -0.946717    0.000004    0.006696
  N     -2.336320    0.000021    0.075929
  H     -2.784433    0.836460   -0.271357
  H     -2.784452   -0.836407   -0.271361
  H     -0.770829    2.146488    0.002762
  H      1.691204    2.144494   -0.004445
  H      2.951706   -0.000044   -0.003330
  H      1.691150   -2.144551   -0.004441
  H     -0.770881   -2.146484    0.002761

 Total Charge           Charge          ....    0
 Multiplicity           Mult            ....    1
 Number of Electrons    NEL             ....   50
 Basis Dimension        Dim             ....  483

ORBITAL ENERGIES
----------------

  NO   OCC          E(Eh)            E(eV)
   0   2.0000     -14.249170      -387.7396
   1   2.0000     -10.152377      -276.2602
   2   2.0000     -10.112224      -275.1676
   3   2.0000     -10.112209      -275.1672
   4   2.0000     -10.106498      -275.0118
   5   2.0000     -10.106494      -275.0117
   6   2.0000     -10.102638      -274.9068
   7   2.0000      -0.894289       -24.3349
   8   2.0000      -0.815084       -22.1796
   9   2.0000      -0.723378       -19.6841
  10   2.0000      -0.703332       -19.1386
  11   2.0000      -0.589908       -16.0522
  12   2.0000      -0.575618       -15.6634
  13   2.0000      -0.502460       -13.6726
  14   2.0000      -0.481270       -13.0960
  15   2.0000      -0.456009       -12.4086
  16   2.0000      -0.410432       -11.1684
  17   2.0000      -0.403314       -10.9747
  18   2.0000      -0.395698       -10.7675
  19   2.0000      -0.371172       -10.1001
  20   2.0000      -0.336702        -9.1621
  21   2.0000      -0.318728        -8.6730
  22   2.0000      -0.299691        -8.1550
  23   2.0000      -0.244003        -6.6397
  24   2.0000      -0.197661        -5.3786
  25   0.0000      -0.022015        -0.5991
  26   0.0000      -0.008162        -0.2221
  27   0.0000      -0.003202        -0.0871
  28   0.0000       0.009581         0.2607
  29   0.0000       0.014504         0.3947

MULLIKEN ATOMIC CHARGES
-----------------------
   0 C :   -0.694675
   1 C :   -0.233831
   2 C :   -0.468322
   3 C :   -0.233781
   4 C :   -0.694818
   5 C :    1.110441
   6 N :   -0.597390
   7 H :    0.021434
   8 H :    0.021001
   9 H :    0.383654
  10 H :    0.283291
  11 H :    0.436236
  12 H :    0.282962
  13 H :    0.383798
Sum of atomic charges:   -0.0000000

LOEWDIN ATOMIC CHARGES
----------------------
   0 C :    0.203899
   1 C :    0.167394
   2 C :    0.169248
   3 C :    0.167394
   4 C :    0.203900
   5 C :   -0.264805
   6 N :    0.856561
   7 H :   -0.292907
   8 H :   -0.292908
   9 H :   -0.178942
  10 H :   -0.183472
  11 H :   -0.192947
  12 H :   -0.183472
  13 H :   -0.178942

  Mayer bond orders larger than 0.100000
B(  0-C ,  1-C ) :   1.3883 B(  0-C ,  2-C ) :   0.2489 B(  0-C ,  4-C ) :   0.4122
B(  0-C ,  5-C ) :   0.8964 B(  0-C , 13-H ) :   0.4022 B(  1-C ,  2-C ) :   1.3199
B(  1-C ,  3-C ) :  -0.1138 B(  1-C ,  5-C ) :  -0.2578 B(  1-C , 12-H ) :   0.8253
B(  1-C , 13-H ) :   0.1017 B(  2-C ,  3-C ) :   1.3201 B(  2-C ,  4-C ) :   0.2488
B(  2-C , 11-H ) :   0.5012 B(  3-C ,  4-C ) :   1.3879 B(  3-C ,  5-C ) :  -0.2581
B(  3-C ,  9-H ) :   0.1016 B(  3-C , 10-H ) :   0.8255 B(  4-C ,  5-C ) :   0.8979
B(  4-C ,  9-H ) :   0.4025 B(  5-C ,  6-N ) :   0.3073 B(  5-C ,  9-H ) :   0.1510
B(  5-C , 13-H ) :   0.1511 B(  6-N ,  7-H ) :   1.0821 B(  6-N ,  8-H ) :   1.0828

Dispersion correction           -0.015302065
FINAL SINGLE POINT ENERGY      -287.756442684291

DIPOLE MOMENT
-------------

Method             : SCF
Type of density    : Electron Density
Multiplicity       :   1
Irrep              :   0
Energy             :  -287.7411406192945265 Eh
Relativity type    :
Basis              : AO
                                X                 Y                 Z
Electronic contribution:     -0.030019504       0.000004165       0.055644732
Nuclear contribution   :     -0.733495141       0.000007289      -0.564230430
                        -----------------------------------------
Total Dipole Moment    :     -0.763514645       0.000011454      -0.508585699
                        -----------------------------------------
Magnitude (a.u.)       :      0.917395240
Magnitude (Debye)      :      2.331833387

VIBRATIONAL FREQUENCIES
-----------------------

Scaling factor for frequencies =  1.000000000  (already applied!)

     0:       0.00 cm**-1
     1:       0.00 cm**-1
     2:       0.00 cm**-1
     3:       0.00 cm**-1
     4:       0.00 cm**-1
     5:       0.00 cm**-1
     6:     214.54 cm**-1
     7:     290.17 cm**-1
     8:     368.54 cm**-1
     9:     412.81 cm**-1
    10:     489.53 cm**-1
    11:     524.12 cm**-1
    12:     564.49 cm**-1
    13:     620.00 cm**-1
    14:     696.73 cm**-1
    15:     761.23 cm**-1
    16:     826.38 cm**-1
    17:     835.45 cm**-1
    18:     890.16 cm**-1
    19:     978.64 cm**-1
    20:     990.20 cm**-1
    21:    1005.59 cm**-1
    22:    1040.09 cm**-1
    23:    1053.58 cm**-1
    24:    1126.82 cm**-1
    25:    1158.04 cm**-1
    26:    1183.61 cm**-1
    27:    1293.56 cm**-1
    28:    1356.80 cm**-1
    29:    1360.98 cm**-1
    30:    1492.37 cm**-1
    31:    1521.95 cm**-1
    32:    1617.36 cm**-1
    33:    1625.11 cm**-1
    34:    1636.22 cm**-1
    35:    3151.50 cm**-1
    36:    3153.63 cm**-1
    37:    3166.03 cm**-1
    38:    3170.52 cm**-1
    39:    3186.59 cm**-1
    40:    3526.69 cm**-1
    41:    3622.77 cm**-1

IR SPECTRUM
-----------

 Mode   freq       eps      Int      T**2         TX        TY        TZ
       cm**-1   L/(mol*cm) km/mol    a.u.
----------------------------------------------------------------------------
  6:    214.54   0.002552   12.90  0.003713  (-0.036537 -0.000001  0.048763)
  7:    290.17   0.007896   39.90  0.008492  ( 0.000002  0.092151  0.000000)
  8:    368.54   0.000022    0.11  0.000018  (-0.000002 -0.004282 -0.000000)
  9:    412.81   0.000010    0.05  0.000007  (-0.000001 -0.002684  0.000001)
 10:    489.53   0.049116  248.21  0.031310  ( 0.115107 -0.000001 -0.134390)
 11:    524.12   0.002854   14.43  0.001700  (-0.040014  0.000002  0.009921)
 12:    564.49   0.075629  382.20  0.041809  (-0.182833  0.000002  0.091549)
 13:    620.00   0.000185    0.93  0.000093  ( 0.000000  0.009637 -0.000001)
 14:    696.73   0.009196   46.47  0.004119  ( 0.013393 -0.000000  0.062766)
 15:    761.23   0.026934  136.12  0.011042  (-0.019847  0.000001  0.103188)
 16:    826.38   0.001717    8.68  0.000648  (-0.021109  0.000001 -0.014244)
 17:    835.45   0.000014    0.07  0.000005  (-0.000001 -0.002323  0.000007)
 18:    890.16   0.003191   16.13  0.001119  ( 0.004581  0.000000 -0.033132)
 19:    978.64   0.000000    0.00  0.000000  (-0.000000  0.000341  0.000001)
 20:    990.20   0.000039    0.20  0.000012  (-0.000672 -0.000000  0.003425)
 21:   1005.59   0.001097    5.54  0.000340  ( 0.017715 -0.000018  0.005144)
 22:   1040.09   0.002605   13.17  0.000782  (-0.027958 -0.000032  0.000003)
 23:   1053.58   0.001241    6.27  0.000368  (-0.000022  0.019175  0.000003)
 24:   1126.82   0.002337   11.81  0.000647  ( 0.000000  0.025438  0.000001)
 25:   1158.04   0.000677    3.42  0.000182  ( 0.000002  0.013505  0.000000)
 26:   1183.61   0.004330   21.88  0.001142  ( 0.033762  0.000000  0.001291)
 27:   1293.56   0.031778  160.59  0.007666  (-0.087523 -0.000001 -0.002430)
 28:   1356.80   0.003544   17.91  0.000815  ( 0.000033 -0.028552  0.000002)
 29:   1360.98   0.000137    0.69  0.000032  (-0.000004 -0.005614  0.000000)
 30:   1492.37   0.000209    1.06  0.000044  (-0.000058 -0.006613  0.000001)
 31:   1521.95   0.027963  141.31  0.005734  ( 0.075714 -0.000001 -0.000972)
 32:   1617.36   0.002573   13.01  0.000497  (-0.000166 -0.022283  0.000029)
 33:   1625.11   0.002141   10.82  0.000411  (-0.003536 -0.000052 -0.019965)
 34:   1636.22   0.060141  303.93  0.011470  (-0.106493  0.000036 -0.011379)
 35:   3151.50   0.005133   25.94  0.000508  (-0.022545 -0.000002  0.000242)
 36:   3153.63   0.000256    1.29  0.000025  (-0.000015  0.005035  0.000000)
 37:   3166.03   0.002551   12.89  0.000251  ( 0.015857  0.000011 -0.000029)
 38:   3170.52   0.012659   63.97  0.001246  ( 0.000005 -0.035298  0.000000)
 39:   3186.59   0.004516   22.82  0.000442  (-0.021030 -0.000000 -0.000104)
 40:   3526.69   0.009677   48.91  0.000856  ( 0.027995 -0.000001  0.008521)
 41:   3622.77   0.008263   41.76  0.000712  (-0.000001 -0.026680 -0.000000)

--------------------------
THERMOCHEMISTRY AT 298.15K
--------------------------

Temperature         ...   298.15 K
Pressure            ...     1.00 atm
Total Mass          ...    93.13 AMU
Quasi RRHO          ...     True
Cut-Off Frequency   ...     1.00 cm^-1

Throughout the following assumptions are being made:
  (1) The electronic state is orbitally nondegenerate
  (2) There are no thermally accessible electronically excited states
  (3) Hindered rotations indicated by low frequency modes are not
      treated as such but are treated as vibrations and this may
      cause some error
  (4) All equations used are the standard statistical mechanics
      equations for an ideal gas
  (5) All vibrations are strictly harmonic

freq.     214.54  E(vib)   ...       0.34
freq.     290.17  E(vib)   ...       0.27
freq.     368.54  E(vib)   ...       0.21
freq.     412.81  E(vib)   ...       0.19
freq.     489.53  E(vib)   ...       0.15
freq.     524.12  E(vib)   ...       0.13
freq.     564.49  E(vib)   ...       0.11
freq.     620.00  E(vib)   ...       0.09
freq.     696.73  E(vib)   ...       0.07
freq.     761.23  E(vib)   ...       0.06
freq.     826.38  E(vib)   ...       0.04
freq.     835.45  E(vib)   ...       0.04
freq.     890.16  E(vib)   ...       0.04
freq.     978.64  E(vib)   ...       0.03
freq.     990.20  E(vib)   ...       0.02
freq.    1005.59  E(vib)   ...       0.02
freq.    1040.09  E(vib)   ...       0.02
freq.    1053.58  E(vib)   ...       0.02
freq.    1126.82  E(vib)   ...       0.01
freq.    1158.04  E(vib)   ...       0.01
freq.    1183.61  E(vib)   ...       0.01
freq.    1293.56  E(vib)   ...       0.01
freq.    1356.80  E(vib)   ...       0.01
freq.    1360.98  E(vib)   ...       0.01
freq.    1492.37  E(vib)   ...       0.00
freq.    1521.95  E(vib)   ...       0.00
freq.    1617.36  E(vib)   ...       0.00
freq.    1625.11  E(vib)   ...       0.00
freq.    1636.22  E(vib)   ...       0.00
freq.    3151.50  E(vib)   ...       0.00
freq.    3153.63  E(vib)   ...       0.00
freq.    3166.03  E(vib)   ...       0.00
freq.    3170.52  E(vib)   ...       0.00
freq.    3186.59  E(vib)   ...       0.00
freq.    3526.69  E(vib)   ...       0.00
freq.    3622.77  E(vib)   ...       0.00

------------
INNER ENERGY
------------

The inner energy is: U= E(el) + E(ZPE) + E(vib) + E(rot) + E(trans)
    E(el)   - is the total energy from the electronic structure calculation
              = E(kin-el) + E(nuc-el) + E(el-el) + E(nuc-nuc)
    E(ZPE)  - the the zero temperature vibrational energy from the frequency calculation
    E(vib)  - the the finite temperature correction to E(ZPE) due to population
              of excited vibrational states
    E(rot)  - is the rotational thermal energy
    E(trans)- is the translational thermal energy

Summary of contributions to the inner energy U:
Electronic energy                ...   -287.75644268 Eh
Zero point energy                ...      0.11598783 Eh      72.78 kcal/mol
Thermal vibrational correction   ...      0.00306169 Eh       1.92 kcal/mol
Thermal rotational correction    ...      0.00141627 Eh       0.89 kcal/mol
Thermal translational correction ...      0.00141627 Eh       0.89 kcal/mol
-----------------------------------------------------------------------
Total thermal energy                   -287.63456062 Eh

Summary of corrections to the electronic energy:
(perhaps to be used in another calculation)
Total thermal correction                  0.00589423 Eh       3.70 kcal/mol
Non-thermal (ZPE) correction              0.11598783 Eh      72.78 kcal/mol
-----------------------------------------------------------------------
Total correction                          0.12188206 Eh      76.48 kcal/mol

--------
ENTHALPY
--------

The enthalpy is H = U + kB*T
                kB is Boltzmann's constant
Total thermal energy              ...   -287.63456062 Eh
Thermal Enthalpy correction       ...      0.00094421 Eh       0.59 kcal/mol
-----------------------------------------------------------------------
Total Enthalpy                    ...   -287.63361641 Eh

Note: Rotational entropy computed according to Herzberg
Infrared and Raman Spectra, Chapter V,1, Van Nostrand Reinhold, 1945
Point Group:  Cs, Symmetry Number:   1
Rotational constants in cm-1:     0.187877     0.086746     0.059437

Vibrational entropy computed according to the QRRHO of S. Grimme
Chem.Eur.J. 2012 18 9955 using a reference frequency of 100.0 cm-1

-------
ENTROPY
-------

The entropy contributions are T*S = T*(S(el)+S(vib)+S(rot)+S(trans))
     S(el)   - electronic entropy
     S(vib)  - vibrational entropy
     S(rot)  - rotational entropy
     S(trans)- translational entropy
The entropies will be listed as multiplied by the temperature to get
units of energy

Electronic entropy                ...      0.00000000 Eh      0.00 kcal/mol
Vibrational entropy               ...      0.00450767 Eh      2.83 kcal/mol
Rotational entropy                ...      0.01278692 Eh      8.02 kcal/mol
Translational entropy             ...      0.01877043 Eh     11.78 kcal/mol
-----------------------------------------------------------------------
Final entropy term                ...      0.03606502 Eh     22.63 kcal/mol

In case the symmetry of your molecule has not been determined correctly
or in case you have a reason to use a different symmetry number we print
out the resulting rotational entropy values for sn=1,12:

 non-linear molecules -----------------------------------
|  sn= 1 | S(rot)=       0.01278692 Eh      8.02 kcal/mol|
|  sn= 2 | S(rot)=       0.01213246 Eh      7.61 kcal/mol|
|  sn= 3 | S(rot)=       0.01174963 Eh      7.37 kcal/mol|
|  sn= 4 | S(rot)=       0.01147801 Eh      7.20 kcal/mol|
|  sn= 5 | S(rot)=       0.01126732 Eh      7.07 kcal/mol|
|  sn= 6 | S(rot)=       0.01109517 Eh      6.96 kcal/mol|
|  sn= 7 | S(rot)=       0.01094963 Eh      6.87 kcal/mol|
|  sn= 8 | S(rot)=       0.01082355 Eh      6.79 kcal/mol|
|  sn= 9 | S(rot)=       0.01071234 Eh      6.72 kcal/mol|
|  sn=10 | S(rot)=       0.01061286 Eh      6.66 kcal/mol|
|  sn=11 | S(rot)=       0.01052287 Eh      6.60 kcal/mol|
|  sn=12 | S(rot)=       0.01044072 Eh      6.55 kcal/mol|
 linear molecules ---------------------------------------
|  Dinfh | S(rot)=       0.00799108 Eh      5.01 kcal/mol|
|  Cinfv | S(rot)=       0.00864553 Eh      5.43 kcal/mol|
 --------------------------------------------------------

-------------------
GIBBS FREE ENERGY
-------------------

The Gibbs free energy is G = H - T*S

Total enthalpy                    ...   -287.63361641 Eh
Total entropy correction          ...     -0.03606502 Eh    -22.63 kcal/mol
-----------------------------------------------------------------------
Final Gibbs free energy         ...   -287.66968143 Eh

                             ****ORCA TERMINATED NORMALLY****
TOTAL RUN TIME: 0 days 0 hours 20 minutes 26 seconds 511 msec
