                         Program Version 6.0.0  -   RELEASE  -
|  1> !r2SCANh aug-cc-pVTZ d3 TightSCF SlowConv RIJCOSX defgrid2
|  2>
|  3> %pal
|  4> nprocs 4
|  5> end
|  6>
|  7> %scf
|  8> MaxIter 1500
|  9> end
| 10>
| 11> %maxcore 3000
| 12>
| 13> !CPCM
| 14> %cpcm smd true
| 15> SMDsolvent "MeCN"
| 16> surfacetype gepol_ses
| 17> rsolv 2.19
| 18> end
| 19>
| 20> * xyz 0 1
| 21> C           2.55730705781469     -0.80272836948539      0.48102366137177
| 22> N           1.33294167009809     -1.43182229011705      0.05765766630002
| 23> C           0.34101911025700     -0.70024719108755     -0.29708224356517
| 24> N           0.31874552010949      0.68032432716300     -0.31461541058671
| 25> C          -0.89176882402801      1.43497112867922     -0.56114377570643
| 26> C          -1.99046257064471      1.26916813990179      0.49140268799889
| 27> C          -2.82765905468197      0.00715294881938      0.31516347050989
| 28> C          -2.04586918259982     -1.30153194326604      0.35164544445367
| 29> C          -0.92828974970724     -1.41500601198787     -0.69150138780777
| 30> H          -1.29203198403960     -1.06672742425397     -1.67656916039338
| 31> H          -0.63133731154972     -2.46745300434559     -0.80196281377539
| 32> H          -1.60570603630129     -1.45752170010282      1.35429556519630
| 33> H          -2.75596289666527     -2.13329897794767      0.19602041294681
| 34> H          -3.61539692476010     -0.01845840431235      1.08977014149609
| 35> H          -3.35605019663435      0.07487469231763     -0.65651142659301
| 36> H          -1.52340584005630      1.28855731350301      1.49408745577621
| 37> H          -2.66130549588890      2.14642124767486      0.44000200996492
| 38> H          -1.30052595544982      1.19153726692681     -1.56065100823810
| 39> H          -0.59215925219953      2.49412223128000     -0.60923298902630
| 40> C           1.46914234333312      1.40286101249685      0.18937626674719
| 41> C           2.73710761812345      0.60793735504758     -0.06280329082443
| 42> H           3.60249952280460      1.11378780244457      0.39882866501775
| 43> H           2.92030114355612      0.56196935074214     -1.15150232607945
| 44> H           1.52000693344937      2.38033435200841     -0.32184635939607
| 45> H           1.36269728052713      1.61326327329284      1.27517926988309
| 46> H           2.58886170713689     -0.78409197751190      1.58995809372292
| 47> H           3.40579976799671     -1.44067914787991      0.17257018060666
| 48> *
| 49>
| 50>                          ****END OF INPUT****

CARTESIAN COORDINATES (ANGSTROEM)
---------------------------------
  C      2.557307   -0.802728    0.481024
  N      1.332942   -1.431822    0.057658
  C      0.341019   -0.700247   -0.297082
  N      0.318746    0.680324   -0.314615
  C     -0.891769    1.434971   -0.561144
  C     -1.990463    1.269168    0.491403
  C     -2.827659    0.007153    0.315163
  C     -2.045869   -1.301532    0.351645
  C     -0.928290   -1.415006   -0.691501
  H     -1.292032   -1.066727   -1.676569
  H     -0.631337   -2.467453   -0.801963
  H     -1.605706   -1.457522    1.354296
  H     -2.755963   -2.133299    0.196020
  H     -3.615397   -0.018458    1.089770
  H     -3.356050    0.074875   -0.656511
  H     -1.523406    1.288557    1.494087
  H     -2.661305    2.146421    0.440002
  H     -1.300526    1.191537   -1.560651
  H     -0.592159    2.494122   -0.609233
  C      1.469142    1.402861    0.189376
  C      2.737108    0.607937   -0.062803
  H      3.602500    1.113788    0.398829
  H      2.920301    0.561969   -1.151502
  H      1.520007    2.380334   -0.321846
  H      1.362697    1.613263    1.275179
  H      2.588862   -0.784092    1.589958
  H      3.405800   -1.440679    0.172570

 Total Charge           Charge          ....    0
 Multiplicity           Mult            ....    1
 Number of Electrons    NEL             ....   84
 Basis Dimension        Dim             ....  874

ORBITAL ENERGIES
----------------

  NO   OCC          E(Eh)            E(eV)
   0   2.0000     -14.319457      -389.6522
   1   2.0000     -14.260230      -388.0406
   2   2.0000     -10.212992      -277.9096
   3   2.0000     -10.180028      -277.0126
   4   2.0000     -10.179829      -277.0072
   5   2.0000     -10.164938      -276.6020
   6   2.0000     -10.148646      -276.1587
   7   2.0000     -10.148123      -276.1445
   8   2.0000     -10.145569      -276.0750
   9   2.0000     -10.145259      -276.0665
  10   2.0000     -10.144361      -276.0421
  11   2.0000      -0.969430       -26.3795
  12   2.0000      -0.879697       -23.9378
  13   2.0000      -0.808117       -21.9900
  14   2.0000      -0.771181       -20.9849
  15   2.0000      -0.747068       -20.3288
  16   2.0000      -0.678282       -18.4570
  17   2.0000      -0.655713       -17.8429
  18   2.0000      -0.639388       -17.3986
  19   2.0000      -0.581177       -15.8146
  20   2.0000      -0.556455       -15.1419
  21   2.0000      -0.500796       -13.6273
  22   2.0000      -0.495175       -13.4744
  23   2.0000      -0.470957       -12.8154
  24   2.0000      -0.453010       -12.3270
  25   2.0000      -0.431789       -11.7496
  26   2.0000      -0.421980       -11.4827
  27   2.0000      -0.415945       -11.3185
  28   2.0000      -0.402763       -10.9597
  29   2.0000      -0.399917       -10.8823
  30   2.0000      -0.379283       -10.3208
  31   2.0000      -0.375354       -10.2139
  32   2.0000      -0.359406        -9.7799
  33   2.0000      -0.344918        -9.3857
  34   2.0000      -0.341190        -9.2842
  35   2.0000      -0.316587        -8.6148
  36   2.0000      -0.308778        -8.4023
  37   2.0000      -0.306915        -8.3516
  38   2.0000      -0.299739        -8.1563
  39   2.0000      -0.278422        -7.5763
  40   2.0000      -0.230069        -6.2605
  41   2.0000      -0.198116        -5.3910
  42   0.0000       0.007279         0.1981
  43   0.0000       0.020136         0.5479
  44   0.0000       0.022819         0.6209
  45   0.0000       0.023643         0.6433
  46   0.0000       0.024704         0.6722

MULLIKEN ATOMIC CHARGES
-----------------------
   0 C :   -0.386664
   1 N :   -0.881332
   2 C :    0.249551
   3 N :    0.320569
   4 C :   -0.412759
   5 C :   -0.221385
   6 C :   -0.228579
   7 C :   -0.344211
   8 C :    0.054421
   9 H :    0.120231
  10 H :    0.108034
  11 H :    0.080151
  12 H :    0.142604
  13 H :    0.226165
  14 H :    0.059473
  15 H :    0.076348
  16 H :    0.149498
  17 H :    0.171925
  18 H :    0.202221
  19 C :   -0.344311
  20 C :   -0.274045
  21 H :    0.243193
  22 H :    0.051695
  23 H :    0.224849
  24 H :    0.206006
  25 H :    0.176591
  26 H :    0.229763
Sum of atomic charges:    0.0000000

LOEWDIN ATOMIC CHARGES
----------------------
   0 C :    0.072449
   1 N :    0.387609
   2 C :   -0.410070
   3 N :    0.296903
   4 C :    0.199825
   5 C :    0.300380
   6 C :    0.273271
   7 C :    0.285562
   8 C :    0.275031
   9 H :   -0.134258
  10 H :   -0.166223
  11 H :   -0.129369
  12 H :   -0.131655
  13 H :   -0.131877
  14 H :   -0.131725
  15 H :   -0.126499
  16 H :   -0.129996
  17 H :   -0.126926
  18 H :   -0.138899
  19 C :    0.185913
  20 C :    0.278667
  21 H :   -0.125798
  22 H :   -0.130251
  23 H :   -0.130510
  24 H :   -0.107437
  25 H :   -0.145830
  26 H :   -0.158288

  Mayer bond orders larger than 0.100000
B(  0-C ,  1-N ) :   0.8906 B(  0-C , 20-C ) :   0.8779 B(  0-C , 25-H ) :   0.9599
B(  0-C , 26-H ) :   0.9563 B(  1-N ,  2-C ) :   0.5857 B(  1-N ,  7-C ) :   0.1042
B(  2-C ,  3-N ) :   0.8873 B(  2-C ,  8-C ) :   0.6358 B(  3-N ,  4-C ) :   0.9904
B(  3-N , 19-C ) :   0.6366 B(  4-C ,  5-C ) :   0.8762 B(  4-C , 17-H ) :   0.9451
B(  4-C , 18-H ) :   0.9384 B(  5-C ,  6-C ) :   0.8851 B(  5-C , 15-H ) :   1.0536
B(  5-C , 16-H ) :   0.9601 B(  6-C ,  7-C ) :   0.8458 B(  6-C , 13-H ) :   0.9181
B(  6-C , 14-H ) :   1.0940 B(  7-C ,  8-C ) :   0.9413 B(  7-C , 11-H ) :   1.0471
B(  7-C , 12-H ) :   1.0045 B(  8-C ,  9-H ) :   1.0237 B(  8-C , 10-H ) :   0.9335
B( 19-C , 20-C ) :   0.9192 B( 19-C , 23-H ) :   0.9818 B( 19-C , 24-H ) :   0.9440
B( 20-C , 21-H ) :   0.8713 B( 20-C , 22-H ) :   1.1068

Dispersion correction           -0.009530666
FINAL SINGLE POINT ENERGY      -461.989363269750

DIPOLE MOMENT
-------------

Method             : SCF
Type of density    : Electron Density
Multiplicity       :   1
Irrep              :   0
Energy             :  -461.9798326038832670 Eh
Relativity type    :
Basis              : AO
                                X                 Y                 Z
Electronic contribution:      3.027177709      -1.609064606      -1.166812758
Nuclear contribution   :     -3.701053963       3.371558610       1.131300425
                        -----------------------------------------
Total Dipole Moment    :     -0.673876254       1.762494004      -0.035512333
                        -----------------------------------------
Magnitude (a.u.)       :      1.887261361
Magnitude (Debye)      :      4.797037154

Rotational constants in cm-1:             0.068815             0.029698             0.022944
Rotational constants in MHz :          2063.025702           890.322329           687.841442

                             ****ORCA TERMINATED NORMALLY****
TOTAL RUN TIME: 0 days 0 hours 8 minutes 22 seconds 751 msec
