                         Program Version 6.0.0  -   RELEASE  -
|  1> !r2SCAN aug-cc-pVTZ d3 TightSCF SlowConv RIJCOSX defgrid2
|  2>
|  3> %pal
|  4> nprocs 4
|  5> end
|  6>
|  7> %scf
|  8> MaxIter 1500
|  9> end
| 10>
| 11> %maxcore 3000
| 12>
| 13> !CPCM
| 14> %cpcm smd true
| 15> SMDsolvent "MeCN"
| 16> surfacetype gepol_ses
| 17> rsolv 2.19
| 18> end
| 19>
| 20> * xyz 1 2
| 21> N          -0.13330630053238      0.06463805569502     -0.18304866803580
| 22> C          -1.32995968454461     -0.05705711923400      0.61490351827717
| 23> C          -2.57421309286138      0.33481234464037     -0.19256986810199
| 24> H          -3.45480969375926      0.22323852439894      0.46049095721574
| 25> H          -2.70531629638278     -0.32397925846158     -1.06629352870040
| 26> H          -2.52831512549297      1.38214059969960     -0.53226116106563
| 27> H          -1.40987553635449     -1.09741088656851      0.96495289752573
| 28> H          -1.21877257502732      0.60521085770950      1.49113445986830
| 29> C           0.43429422987933     -1.10866495137441     -0.80815428990417
| 30> C           1.14824192611518     -2.02637648462657      0.18904742798723
| 31> H           0.46485226728110     -2.40600168320464      0.96542777225008
| 32> H           1.54101253446494     -2.89222669399406     -0.36800716513612
| 33> H           1.99361403139429     -1.51333347667236      0.67360854639463
| 34> H          -0.40183357197737     -1.65464503658306     -1.28440413538018
| 35> H           1.12467869031116     -0.77476724100708     -1.59754076820295
| 36> C           0.46556546208798      1.36302303485303     -0.38848915911148
| 37> C           1.83969934059673      1.47885748883746      0.27662539319278
| 38> H           2.56824381802577      0.77442980736822     -0.15544421644798
| 39> H           1.77196599043451      1.31206045111972      1.36382157767815
| 40> H           2.21499768699688      2.50090234957054      0.10662332519206
| 41> H           0.56270404138467      1.51155401080161     -1.48061267604024
| 42> H          -0.22507674203997      2.12332900703226      0.00577186054505
| 43> *
| 44>
| 45>                          ****END OF INPUT****

CARTESIAN COORDINATES (ANGSTROEM)
---------------------------------
  N     -0.133306    0.064638   -0.183049
  C     -1.329960   -0.057057    0.614904
  C     -2.574213    0.334812   -0.192570
  H     -3.454810    0.223239    0.460491
  H     -2.705316   -0.323979   -1.066294
  H     -2.528315    1.382141   -0.532261
  H     -1.409876   -1.097411    0.964953
  H     -1.218773    0.605211    1.491134
  C      0.434294   -1.108665   -0.808154
  C      1.148242   -2.026376    0.189047
  H      0.464852   -2.406002    0.965428
  H      1.541013   -2.892227   -0.368007
  H      1.993614   -1.513333    0.673609
  H     -0.401834   -1.654645   -1.284404
  H      1.124679   -0.774767   -1.597541
  C      0.465565    1.363023   -0.388489
  C      1.839699    1.478857    0.276625
  H      2.568244    0.774430   -0.155444
  H      1.771966    1.312060    1.363822
  H      2.214998    2.500902    0.106623
  H      0.562704    1.511554   -1.480613
  H     -0.225077    2.123329    0.005772

 Total Charge           Charge          ....    1
 Multiplicity           Mult            ....    2
 Number of Electrons    NEL             ....   57
 Basis Dimension        Dim             ....  667

ORBITAL ENERGIES
----------------
                 SPIN UP ORBITALS
  NO   OCC          E(Eh)            E(eV)
   0   1.0000     -14.299888      -389.1197
   1   1.0000     -10.100669      -274.8532
   2   1.0000     -10.100185      -274.8400
   3   1.0000     -10.100091      -274.8375
   4   1.0000     -10.049354      -273.4568
   5   1.0000     -10.048744      -273.4402
   6   1.0000     -10.048287      -273.4278
   7   1.0000      -0.988791       -26.9064
   8   1.0000      -0.769831       -20.9482
   9   1.0000      -0.768200       -20.9038
  10   1.0000      -0.704020       -19.1573
  11   1.0000      -0.639242       -17.3947
  12   1.0000      -0.631896       -17.1948
  13   1.0000      -0.555632       -15.1195
  14   1.0000      -0.510986       -13.9046
  15   1.0000      -0.494394       -13.4532
  16   1.0000      -0.470299       -12.7975
  17   1.0000      -0.428656       -11.6643
  18   1.0000      -0.419252       -11.4084
  19   1.0000      -0.410980       -11.1833
  20   1.0000      -0.383291       -10.4299
  21   1.0000      -0.377879       -10.2826
  22   1.0000      -0.370898       -10.0927
  23   1.0000      -0.361339        -9.8325
  24   1.0000      -0.354903        -9.6574
  25   1.0000      -0.338612        -9.2141
  26   1.0000      -0.335023        -9.1164
  27   1.0000      -0.330633        -8.9970
  28   1.0000      -0.272240        -7.4080
  29   0.0000       0.004442         0.1209
  30   0.0000       0.018249         0.4966
  31   0.0000       0.022105         0.6015
  32   0.0000       0.024607         0.6696
  33   0.0000       0.040398         1.0993

                 SPIN DOWN ORBITALS
  NO   OCC          E(Eh)            E(eV)
   0   1.0000     -14.278642      -388.5416
   1   1.0000     -10.101170      -274.8668
   2   1.0000     -10.100678      -274.8534
   3   1.0000     -10.100563      -274.8503
   4   1.0000     -10.047702      -273.4119
   5   1.0000     -10.047294      -273.4008
   6   1.0000     -10.046863      -273.3891
   7   1.0000      -0.954855       -25.9829
   8   1.0000      -0.767050       -20.8725
   9   1.0000      -0.765659       -20.8346
  10   1.0000      -0.694540       -18.8994
  11   1.0000      -0.634378       -17.2623
  12   1.0000      -0.628626       -17.1058
  13   1.0000      -0.546737       -14.8775
  14   1.0000      -0.498740       -13.5714
  15   1.0000      -0.490033       -13.3345
  16   1.0000      -0.446651       -12.1540
  17   1.0000      -0.425646       -11.5824
  18   1.0000      -0.414774       -11.2866
  19   1.0000      -0.402337       -10.9482
  20   1.0000      -0.378869       -10.3096
  21   1.0000      -0.372671       -10.1409
  22   1.0000      -0.366630        -9.9765
  23   1.0000      -0.358601        -9.7580
  24   1.0000      -0.352499        -9.5920
  25   1.0000      -0.336527        -9.1574
  26   1.0000      -0.332787        -9.0556
  27   1.0000      -0.328298        -8.9334
  28   0.0000      -0.180014        -4.8984
  29   0.0000       0.005863         0.1595
  30   0.0000       0.019650         0.5347
  31   0.0000       0.023219         0.6318
  32   0.0000       0.025673         0.6986

MULLIKEN ATOMIC CHARGES AND SPIN POPULATIONS
--------------------------------------------
   0 N :    0.638825    0.829937
   1 C :   -0.188952   -0.066393
   2 C :   -0.650579    0.095634
   3 H :    0.170530    0.013059
   4 H :    0.188759    0.000823
   5 H :    0.208093    0.000543
   6 H :    0.222983   -0.000979
   7 H :    0.148036    0.021295
   8 C :   -0.131478   -0.069217
   9 C :   -0.636385    0.078393
  10 H :    0.191573   -0.000216
  11 H :    0.153612    0.010771
  12 H :    0.227871    0.002258
  13 H :    0.194073    0.032029
  14 H :    0.150929   -0.006602
  15 C :   -0.223148   -0.067304
  16 C :   -0.600720    0.074791
  17 H :    0.210158    0.000831
  18 H :    0.204465    0.003347
  19 H :    0.147733    0.010283
  20 H :    0.178673    0.038833
  21 H :    0.194951   -0.002118
Sum of atomic charges         :    1.0000000

LOEWDIN ATOMIC CHARGES AND SPIN POPULATIONS
-------------------------------------------
   0 N :    0.364358    0.519038
   1 C :    0.240357    0.086317
   2 C :    0.635230    0.040745
   3 H :   -0.142732    0.009312
   4 H :   -0.145943    0.003961
   5 H :   -0.149552    0.003429
   6 H :   -0.123657    0.004597
   7 H :   -0.100324    0.014002
   8 C :    0.242271    0.085461
   9 C :    0.630814    0.034941
  10 H :   -0.153073    0.002829
  11 H :   -0.141292    0.007555
  12 H :   -0.155283    0.004165
  13 H :   -0.099097    0.019730
  14 H :   -0.115207    0.002348
  15 C :    0.241034    0.087907
  16 C :    0.629353    0.035501
  17 H :   -0.155880    0.003143
  18 H :   -0.141701    0.003988
  19 H :   -0.141693    0.007942
  20 H :   -0.096270    0.021439
  21 H :   -0.121713    0.001651

  Mayer bond orders larger than 0.100000
B(  0-N ,  1-C ) :   0.8591 B(  0-N ,  8-C ) :   0.8852 B(  0-N , 15-C ) :   0.8529
B(  1-C ,  2-C ) :   0.7586 B(  1-C ,  6-H ) :   0.9116 B(  1-C ,  7-H ) :   0.9751
B(  2-C ,  3-H ) :   1.0318 B(  2-C ,  4-H ) :   0.9773 B(  2-C ,  5-H ) :   0.9712
B(  8-C ,  9-C ) :   0.7263 B(  8-C , 13-H ) :   0.8672 B(  8-C , 14-H ) :   1.0440
B(  9-C , 10-H ) :   0.9962 B(  9-C , 11-H ) :   1.0359 B(  9-C , 12-H ) :   0.9341
B( 15-C , 16-C ) :   0.7851 B( 15-C , 20-H ) :   0.9306 B( 15-C , 21-H ) :   0.9797
B( 16-C , 17-H ) :   0.9570 B( 16-C , 18-H ) :   0.9600 B( 16-C , 19-H ) :   1.0433

Dispersion correction           -0.005746817
FINAL SINGLE POINT ENERGY      -292.164909120510

DIPOLE MOMENT
-------------

Method             : SCF
Type of density    : Electron Density
Multiplicity       :   2
Irrep              :   0
Energy             :  -292.1591623034788654 Eh
Relativity type    :
Basis              : AO
                                X                 Y                 Z
Electronic contribution:     -0.702435272       0.365604965      -0.684565400
Nuclear contribution   :      0.524236393      -0.282986655       0.510171142
                        -----------------------------------------
Total Dipole Moment    :     -0.178198879       0.082618310      -0.174394257
                        -----------------------------------------
Magnitude (a.u.)       :      0.262667056
Magnitude (Debye)      :      0.667646599

Rotational constants in cm-1:             0.091790             0.068571             0.045776
Rotational constants in MHz :          2751.807698          2055.699126          1372.315040

                             ****ORCA TERMINATED NORMALLY****
TOTAL RUN TIME: 0 days 0 hours 4 minutes 6 seconds 544 msec
