                         Program Version 6.0.0  -   RELEASE  -
|  1> !r2SCANh aug-cc-pVTZ d3 TightSCF SlowConv RIJCOSX defgrid2
|  2>
|  3> %pal
|  4> nprocs 4
|  5> end
|  6>
|  7> %scf
|  8> MaxIter 1500
|  9> end
| 10>
| 11> %maxcore 3000
| 12>
| 13> !CPCM
| 14> %cpcm smd true
| 15> SMDsolvent "MeCN"
| 16> surfacetype gepol_ses
| 17> rsolv 2.19
| 18> end
| 19>
| 20> * xyz 1 2
| 21> C           1.38821397253669     -0.85710928094571      0.60741622632202
| 22> C           2.66653568645174     -1.38554775804107      0.62328529651635
| 23> C           3.74096697508373     -0.66019599701418      0.08285810563013
| 24> C           3.54023898785237      0.62233127623213     -0.45460571699329
| 25> C           2.27463505486006      1.17691753163962     -0.46404721541233
| 26> C           1.19493732351435      0.42049377974261      0.03782457404784
| 27> O          -0.00001161826735      1.03053434324458     -0.00007618077340
| 28> C          -1.19494650110222      0.42046263969238     -0.03791233087995
| 29> C          -2.27466316694698      1.17692889833622      0.46385316504035
| 30> C          -3.54025869091077      0.62232307991007      0.45446120210222
| 31> C          -3.74095306617908     -0.66026678297616     -0.08285951221376
| 32> C          -2.66650374430337     -1.38566766681220     -0.62318898600472
| 33> C          -1.38818943489976     -0.85721178830951     -0.60735323061330
| 34> H          -0.55743963132106     -1.38478510741341     -1.08197323083020
| 35> H          -2.84302940822415     -2.36075586477487     -1.08456370453300
| 36> H          -4.74708768097790     -1.08795510804427     -0.10418715284565
| 37> H          -4.38474494788350      1.18417342168211      0.86161853827017
| 38> H          -2.07820409834794      2.17105532289927      0.87220985478457
| 39> H           2.07815534201669      2.17098917949467     -0.87253031915770
| 40> H           4.38471105702739      1.18414197451138     -0.86184555829131
| 41> H           4.74710919235526     -1.08786907382573      0.10421696325696
| 42> H           2.84307759651065     -2.36058562840449      1.08475174308550
| 43> H           0.55748160115515     -1.38464569082344      1.08211306949251
| 44> *
| 45>
| 46>                          ****END OF INPUT****

CARTESIAN COORDINATES (ANGSTROEM)
---------------------------------
  C      1.388214   -0.857109    0.607416
  C      2.666536   -1.385548    0.623285
  C      3.740967   -0.660196    0.082858
  C      3.540239    0.622331   -0.454606
  C      2.274635    1.176918   -0.464047
  C      1.194937    0.420494    0.037825
  O     -0.000012    1.030534   -0.000076
  C     -1.194947    0.420463   -0.037912
  C     -2.274663    1.176929    0.463853
  C     -3.540259    0.622323    0.454461
  C     -3.740953   -0.660267   -0.082860
  C     -2.666504   -1.385668   -0.623189
  C     -1.388189   -0.857212   -0.607353
  H     -0.557440   -1.384785   -1.081973
  H     -2.843029   -2.360756   -1.084564
  H     -4.747088   -1.087955   -0.104187
  H     -4.384745    1.184173    0.861619
  H     -2.078204    2.171055    0.872210
  H      2.078155    2.170989   -0.872530
  H      4.384711    1.184142   -0.861846
  H      4.747109   -1.087869    0.104217
  H      2.843078   -2.360586    1.084752
  H      0.557482   -1.384646    1.082113

 Total Charge           Charge          ....    1
 Multiplicity           Mult            ....    2
 Number of Electrons    NEL             ....   89
 Basis Dimension        Dim             ....  828

ORBITAL ENERGIES
----------------
                 SPIN UP ORBITALS
  NO   OCC          E(Eh)            E(eV)
   0   1.0000     -19.254245      -523.9346
   1   1.0000     -10.280144      -279.7369
   2   1.0000     -10.280123      -279.7364
   3   1.0000     -10.204302      -277.6732
   4   1.0000     -10.204207      -277.6706
   5   1.0000     -10.202948      -277.6363
   6   1.0000     -10.202936      -277.6360
   7   1.0000     -10.200753      -277.5766
   8   1.0000     -10.200744      -277.5764
   9   1.0000     -10.193136      -277.3693
  10   1.0000     -10.193098      -277.3683
  11   1.0000     -10.192725      -277.3582
  12   1.0000     -10.192714      -277.3578
  13   1.0000      -1.180521       -32.1236
  14   1.0000      -0.907300       -24.6889
  15   1.0000      -0.887125       -24.1399
  16   1.0000      -0.814616       -22.1668
  17   1.0000      -0.789338       -21.4790
  18   1.0000      -0.782613       -21.2960
  19   1.0000      -0.760131       -20.6842
  20   1.0000      -0.687006       -18.6944
  21   1.0000      -0.652302       -17.7500
  22   1.0000      -0.632818       -17.2198
  23   1.0000      -0.607589       -16.5333
  24   1.0000      -0.577986       -15.7278
  25   1.0000      -0.531558       -14.4644
  26   1.0000      -0.519443       -14.1348
  27   1.0000      -0.517115       -14.0714
  28   1.0000      -0.508103       -13.8262
  29   1.0000      -0.465493       -12.6667
  30   1.0000      -0.461588       -12.5604
  31   1.0000      -0.448607       -12.2072
  32   1.0000      -0.446435       -12.1481
  33   1.0000      -0.438302       -11.9268
  34   1.0000      -0.432984       -11.7821
  35   1.0000      -0.400904       -10.9091
  36   1.0000      -0.386251       -10.5104
  37   1.0000      -0.384597       -10.4654
  38   1.0000      -0.376885       -10.2556
  39   1.0000      -0.359130        -9.7724
  40   1.0000      -0.356271        -9.6946
  41   1.0000      -0.295137        -8.0311
  42   1.0000      -0.290527        -7.9056
  43   1.0000      -0.286570        -7.7980
  44   1.0000      -0.263580        -7.1724
  45   0.0000      -0.072170        -1.9638
  46   0.0000      -0.058291        -1.5862
  47   0.0000      -0.052463        -1.4276
  48   0.0000      -0.044979        -1.2239
  49   0.0000       0.005491         0.1494

                 SPIN DOWN ORBITALS
  NO   OCC          E(Eh)            E(eV)
   0   1.0000     -19.245740      -523.7032
   1   1.0000     -10.279448      -279.7180
   2   1.0000     -10.279425      -279.7174
   3   1.0000     -10.201973      -277.6098
   4   1.0000     -10.201879      -277.6072
   5   1.0000     -10.198671      -277.5199
   6   1.0000     -10.198659      -277.5196
   7   1.0000     -10.198600      -277.5180
   8   1.0000     -10.198592      -277.5178
   9   1.0000     -10.194513      -277.4068
  10   1.0000     -10.194476      -277.4058
  11   1.0000     -10.194012      -277.3932
  12   1.0000     -10.194000      -277.3928
  13   1.0000      -1.167861       -31.7791
  14   1.0000      -0.902326       -24.5535
  15   1.0000      -0.881845       -23.9962
  16   1.0000      -0.809882       -22.0380
  17   1.0000      -0.786731       -21.4080
  18   1.0000      -0.780387       -21.2354
  19   1.0000      -0.749468       -20.3941
  20   1.0000      -0.680308       -18.5121
  21   1.0000      -0.650573       -17.7030
  22   1.0000      -0.629397       -17.1268
  23   1.0000      -0.604051       -16.4371
  24   1.0000      -0.576006       -15.6739
  25   1.0000      -0.528909       -14.3924
  26   1.0000      -0.514158       -13.9910
  27   1.0000      -0.507364       -13.8061
  28   1.0000      -0.498426       -13.5629
  29   1.0000      -0.460095       -12.5198
  30   1.0000      -0.459917       -12.5150
  31   1.0000      -0.445725       -12.1288
  32   1.0000      -0.445023       -12.1097
  33   1.0000      -0.434926       -11.8349
  34   1.0000      -0.426705       -11.6112
  35   1.0000      -0.390174       -10.6172
  36   1.0000      -0.384954       -10.4751
  37   1.0000      -0.376188       -10.2366
  38   1.0000      -0.369916       -10.0659
  39   1.0000      -0.353614        -9.6223
  40   1.0000      -0.353256        -9.6126
  41   1.0000      -0.286398        -7.7933
  42   1.0000      -0.282223        -7.6797
  43   1.0000      -0.270213        -7.3529
  44   0.0000      -0.211872        -5.7653
  45   0.0000      -0.057105        -1.5539
  46   0.0000      -0.050426        -1.3722
  47   0.0000      -0.043996        -1.1972
  48   0.0000      -0.025478        -0.6933

MULLIKEN ATOMIC CHARGES AND SPIN POPULATIONS
--------------------------------------------
   0 C :   -0.332409    0.134493
   1 C :   -0.628826   -0.105210
   2 C :   -0.441582    0.271386
   3 C :   -0.372326   -0.099737
   4 C :   -1.087695    0.119260
   5 C :    1.403407    0.056565
   6 O :   -0.737268    0.232142
   7 C :    1.403566    0.056364
   8 C :   -1.083382    0.119298
   9 C :   -0.379349   -0.099770
  10 C :   -0.443743    0.271387
  11 C :   -0.624750   -0.105284
  12 C :   -0.333545    0.134494
  13 H :    0.567902    0.007246
  14 H :    0.376785   -0.000207
  15 H :    0.508688    0.007509
  16 H :    0.381703   -0.001922
  17 H :    0.492819   -0.005199
  18 H :    0.493435   -0.005266
  19 H :    0.381808   -0.001923
  20 H :    0.509077    0.007427
  21 H :    0.375250   -0.000154
  22 H :    0.570435    0.007100
Sum of atomic charges         :    1.0000000

LOEWDIN ATOMIC CHARGES AND SPIN POPULATIONS
-------------------------------------------
   0 C :    0.245747    0.070647
   1 C :    0.243210    0.017355
   2 C :    0.249160    0.113955
   3 C :    0.236286    0.018544
   4 C :    0.255150    0.064573
   5 C :   -0.321647    0.081949
   6 O :    0.679335    0.185395
   7 C :   -0.321617    0.081899
   8 C :    0.255187    0.064591
   9 C :    0.236288    0.018517
  10 C :    0.249170    0.113945
  11 C :    0.243243    0.017357
  12 C :    0.245627    0.070656
  13 H :   -0.154014    0.013184
  14 H :   -0.149326   -0.006057
  15 H :   -0.147417    0.027594
  16 H :   -0.151129   -0.005869
  17 H :   -0.145762    0.011461
  18 H :   -0.145772    0.011453
  19 H :   -0.151140   -0.005861
  20 H :   -0.147419    0.027596
  21 H :   -0.149352   -0.006058
  22 H :   -0.153807    0.013174

  Mayer bond orders larger than 0.100000
B(  0-C ,  1-C ) :   1.1671 B(  0-C ,  2-C ) :   0.1188 B(  0-C ,  4-C ) :   0.2645
B(  0-C ,  5-C ) :   0.6976 B(  0-C , 12-C ) :   0.1600 B(  0-C , 13-H ) :  -0.1114
B(  0-C , 22-H ) :   0.4510 B(  1-C ,  2-C ) :   1.1632 B(  1-C ,  3-C ) :  -0.1285
B(  1-C ,  4-C ) :  -0.1610 B(  1-C ,  5-C ) :  -0.3164 B(  1-C , 21-H ) :   0.8053
B(  2-C ,  3-C ) :   1.0670 B(  2-C ,  4-C ) :   0.3747 B(  2-C ,  5-C ) :  -0.1389
B(  2-C , 20-H ) :   0.5560 B(  3-C ,  4-C ) :   1.3191 B(  3-C ,  5-C ) :  -0.3400
B(  3-C , 19-H ) :   0.7962 B(  4-C ,  5-C ) :   0.2323 B(  4-C ,  6-O ) :   0.2559
B(  4-C , 18-H ) :   0.3527 B(  5-C ,  6-O ) :   0.6090 B(  5-C ,  7-C ) :   0.1139
B(  6-O ,  7-C ) :   0.6020 B(  6-O ,  8-C ) :   0.2604 B(  7-C ,  8-C ) :   0.2326
B(  7-C ,  9-C ) :  -0.3438 B(  7-C , 10-C ) :  -0.1342 B(  7-C , 11-C ) :  -0.3140
B(  7-C , 12-C ) :   0.6992 B(  8-C ,  9-C ) :   1.3135 B(  8-C , 10-C ) :   0.3692
B(  8-C , 11-C ) :  -0.1627 B(  8-C , 12-C ) :   0.2628 B(  8-C , 17-H ) :   0.3525
B(  9-C , 10-C ) :   1.0691 B(  9-C , 11-C ) :  -0.1242 B(  9-C , 16-H ) :   0.7954
B( 10-C , 11-C ) :   1.1573 B( 10-C , 12-C ) :   0.1206 B( 10-C , 15-H ) :   0.5569
B( 11-C , 12-C ) :   1.1620 B( 11-C , 14-H ) :   0.8028 B( 12-C , 13-H ) :   0.4525
B( 12-C , 22-H ) :  -0.1091

Dispersion correction           -0.008586610
FINAL SINGLE POINT ENERGY      -538.176534212912

DIPOLE MOMENT
-------------

Method             : SCF
Type of density    : Electron Density
Multiplicity       :   2
Irrep              :   0
Energy             :  -538.1679476029182752 Eh
Relativity type    :
Basis              : AO
                                X                 Y                 Z
Electronic contribution:     -0.000876924       2.137615732       0.001705766
Nuclear contribution   :      0.000026820      -2.597809167       0.000076640
                        -----------------------------------------
Total Dipole Moment    :     -0.000850103      -0.460193435       0.001782406
                        -----------------------------------------
Magnitude (a.u.)       :      0.460197672
Magnitude (Debye)      :      1.169729521

Rotational constants in cm-1:             0.082583             0.014544             0.013062
Rotational constants in MHz :          2475.769648           436.018937           391.587616

                             ****ORCA TERMINATED NORMALLY****
TOTAL RUN TIME: 0 days 0 hours 16 minutes 48 seconds 424 msec
