                         Program Version 6.0.0  -   RELEASE  -
|  1> !B3LYP freq aug-cc-pVTZ d3 TightSCF SlowConv RIJCOSX defgrid2
|  2>
|  3> %pal
|  4> nprocs 12
|  5>
|  6> end
|  7>
|  8> %scf
|  9> MaxIter 1500
| 10> end
| 11>
| 12> %maxcore 5000
| 13>
| 14> !CPCM
| 15> %cpcm smd true
| 16> SMDsolvent "MeCN"
| 17> surfacetype gepol_ses
| 18> rsolv 2.19
| 19> end
| 20>
| 21> * xyz 1 2
| 22>   C           2.41854169219250     -0.92726160837037      0.56820888310700
| 23>   C           1.26024088201892     -0.38413210333615     -0.02947722878645
| 24>   C           1.35327186863304      0.86281717628352     -0.68656978511476
| 25>   C           2.55347995373758      1.54192345865411     -0.73111117529245
| 26>   C           3.68100027246348      1.00213387550276     -0.11349920829787
| 27>   C           3.60789793449056     -0.23182272907863      0.53794513872335
| 28>   H           4.48434520460034     -0.64026406742860      1.02012893620897
| 29>   H           4.62057594650354      1.53571488850862     -0.14846072462312
| 30>   H           2.62082828407954      2.48450926181798     -1.25487526504052
| 31>   H           0.49037814757442      1.26121115812821     -1.19809955057164
| 32>   C           0.00002774943811     -1.10004596398461      0.00017322992032
| 33>   C          -0.00016956737798     -2.48316886591781      0.00018250709513
| 34>   H          -0.92255444378876     -3.04340327697490     -0.02455851706101
| 35>   H           0.92198007993830     -3.04378080154190      0.02489633311349
| 36>   C          -1.26011483377307     -0.38396269860257      0.02964846943730
| 37>   C          -2.41820179322694     -0.92703179488040     -0.56846063859525
| 38>   C          -3.60765101003729     -0.23173858988108     -0.53823008825921
| 39>   C          -3.68097708436836      1.00221015749315      0.11317383952032
| 40>   C          -2.55368361154930      1.54196875539176      0.73121640248036
| 41>   C          -1.35344671561923      0.86287760678837      0.68694835425035
| 42>   H          -0.49082821479326      1.26135019052562      1.19891375878052
| 43>   H          -2.62121793872724      2.48450701165975      1.25505977294236
| 44>   H          -4.62053628698332      1.53586976373904      0.14773862812437
| 45>   H          -4.48396140640447     -0.64027643026338     -1.02053993002390
| 46>   H          -2.36247360931389     -1.87129382782402     -1.08905125339299
| 47>   H           2.36301590029280     -1.87170454640845      1.08842321135530
| 48> *
| 49>
| 50>                          ****END OF INPUT****

CARTESIAN COORDINATES (ANGSTROEM)
---------------------------------
  C      2.418542   -0.927262    0.568209
  C      1.260241   -0.384132   -0.029477
  C      1.353272    0.862817   -0.686570
  C      2.553480    1.541923   -0.731111
  C      3.681000    1.002134   -0.113499
  C      3.607898   -0.231823    0.537945
  H      4.484345   -0.640264    1.020129
  H      4.620576    1.535715   -0.148461
  H      2.620828    2.484509   -1.254875
  H      0.490378    1.261211   -1.198100
  C      0.000028   -1.100046    0.000173
  C     -0.000170   -2.483169    0.000183
  H     -0.922554   -3.043403   -0.024559
  H      0.921980   -3.043781    0.024896
  C     -1.260115   -0.383963    0.029648
  C     -2.418202   -0.927032   -0.568461
  C     -3.607651   -0.231739   -0.538230
  C     -3.680977    1.002210    0.113174
  C     -2.553684    1.541969    0.731216
  C     -1.353447    0.862878    0.686948
  H     -0.490828    1.261350    1.198914
  H     -2.621218    2.484507    1.255060
  H     -4.620536    1.535870    0.147739
  H     -4.483961   -0.640276   -1.020540
  H     -2.362474   -1.871294   -1.089051
  H      2.363016   -1.871705    1.088423

 Total Charge           Charge          ....    1
 Multiplicity           Mult            ....    2
 Number of Electrons    NEL             ....   95
 Basis Dimension        Dim             ....  920

ORBITAL ENERGIES
----------------
                 SPIN UP ORBITALS
  NO   OCC          E(Eh)            E(eV)
   0   1.0000     -10.249336      -278.8986
   1   1.0000     -10.237525      -278.5772
   2   1.0000     -10.224423      -278.2207
   3   1.0000     -10.224420      -278.2206
   4   1.0000     -10.206167      -277.7239
   5   1.0000     -10.206157      -277.7237
   6   1.0000     -10.205489      -277.7055
   7   1.0000     -10.205447      -277.7043
   8   1.0000     -10.204452      -277.6772
   9   1.0000     -10.204446      -277.6771
  10   1.0000     -10.194693      -277.4117
  11   1.0000     -10.194687      -277.4115
  12   1.0000     -10.194130      -277.3964
  13   1.0000     -10.194122      -277.3962
  14   1.0000      -0.909036       -24.7361
  15   1.0000      -0.883116       -24.0308
  16   1.0000      -0.845143       -22.9975
  17   1.0000      -0.778879       -21.1944
  18   1.0000      -0.777419       -21.1546
  19   1.0000      -0.769452       -20.9378
  20   1.0000      -0.754494       -20.5308
  21   1.0000      -0.671401       -18.2697
  22   1.0000      -0.638169       -17.3655
  23   1.0000      -0.627705       -17.0807
  24   1.0000      -0.621803       -16.9201
  25   1.0000      -0.580514       -15.7966
  26   1.0000      -0.551738       -15.0135
  27   1.0000      -0.530159       -14.4263
  28   1.0000      -0.494866       -13.4660
  29   1.0000      -0.494525       -13.4567
  30   1.0000      -0.475384       -12.9359
  31   1.0000      -0.466785       -12.7019
  32   1.0000      -0.464981       -12.6528
  33   1.0000      -0.445272       -12.1165
  34   1.0000      -0.445206       -12.1147
  35   1.0000      -0.444311       -12.0903
  36   1.0000      -0.415724       -11.3124
  37   1.0000      -0.406927       -11.0730
  38   1.0000      -0.398264       -10.8373
  39   1.0000      -0.381321       -10.3763
  40   1.0000      -0.371105       -10.0983
  41   1.0000      -0.364258        -9.9120
  42   1.0000      -0.361030        -9.8241
  43   1.0000      -0.346519        -9.4293
  44   1.0000      -0.286905        -7.8071
  45   1.0000      -0.284377        -7.7383
  46   1.0000      -0.279157        -7.5962
  47   1.0000      -0.264533        -7.1983
  48   0.0000      -0.096183        -2.6173
  49   0.0000      -0.048533        -1.3206
  50   0.0000      -0.039294        -1.0693
  51   0.0000      -0.025111        -0.6833
  52   0.0000      -0.007553        -0.2055

                 SPIN DOWN ORBITALS
  NO   OCC          E(Eh)            E(eV)
   0   1.0000     -10.249481      -278.9025
   1   1.0000     -10.229807      -278.3672
   2   1.0000     -10.223312      -278.1905
   3   1.0000     -10.223309      -278.1904
   4   1.0000     -10.204599      -277.6813
   5   1.0000     -10.204557      -277.6801
   6   1.0000     -10.204399      -277.6758
   7   1.0000     -10.204391      -277.6756
   8   1.0000     -10.203672      -277.6560
   9   1.0000     -10.203666      -277.6559
  10   1.0000     -10.195015      -277.4205
  11   1.0000     -10.195009      -277.4203
  12   1.0000     -10.194528      -277.4072
  13   1.0000     -10.194520      -277.4070
  14   1.0000      -0.905024       -24.6269
  15   1.0000      -0.880344       -23.9554
  16   1.0000      -0.839318       -22.8390
  17   1.0000      -0.776609       -21.1326
  18   1.0000      -0.774733       -21.0816
  19   1.0000      -0.766950       -20.8698
  20   1.0000      -0.743060       -20.2197
  21   1.0000      -0.666016       -18.1232
  22   1.0000      -0.636321       -17.3152
  23   1.0000      -0.624694       -16.9988
  24   1.0000      -0.620094       -16.8736
  25   1.0000      -0.577794       -15.7226
  26   1.0000      -0.550703       -14.9854
  27   1.0000      -0.527682       -14.3590
  28   1.0000      -0.492986       -13.4148
  29   1.0000      -0.492455       -13.4004
  30   1.0000      -0.473737       -12.8910
  31   1.0000      -0.463665       -12.6170
  32   1.0000      -0.463215       -12.6047
  33   1.0000      -0.444293       -12.0898
  34   1.0000      -0.444037       -12.0829
  35   1.0000      -0.442233       -12.0338
  36   1.0000      -0.412964       -11.2373
  37   1.0000      -0.398739       -10.8502
  38   1.0000      -0.391032       -10.6405
  39   1.0000      -0.380629       -10.3574
  40   1.0000      -0.370546       -10.0831
  41   1.0000      -0.361407        -9.8344
  42   1.0000      -0.359746        -9.7892
  43   1.0000      -0.327672        -8.9164
  44   1.0000      -0.283351        -7.7104
  45   1.0000      -0.276866        -7.5339
  46   1.0000      -0.269750        -7.3403
  47   0.0000      -0.195314        -5.3148
  48   0.0000      -0.071093        -1.9345
  49   0.0000      -0.041522        -1.1299
  50   0.0000      -0.035122        -0.9557
  51   0.0000      -0.020022        -0.5448

MULLIKEN ATOMIC CHARGES AND SPIN POPULATIONS
--------------------------------------------
   0 C :   -1.117074    0.032421
   1 C :    2.512527    0.111107
   2 C :   -0.651208    0.053522
   3 C :   -0.989751   -0.026303
   4 C :   -0.176335    0.124380
   5 C :   -0.799905   -0.019957
   6 H :    0.603459   -0.000364
   7 H :    0.479795    0.001323
   8 H :    0.507275    0.001410
   9 H :    0.084928   -0.005023
  10 C :    0.746468    0.010029
  11 C :   -1.058042    0.479614
  12 H :    0.287165   -0.004101
  13 H :    0.287103   -0.004032
  14 C :    2.523657    0.111098
  15 C :   -1.073749    0.032327
  16 C :   -0.770551   -0.020050
  17 C :   -0.158111    0.124272
  18 C :   -0.994259   -0.026225
  19 C :   -0.663167    0.053347
  20 H :    0.085419   -0.004791
  21 H :    0.505698    0.001450
  22 H :    0.499702    0.001135
  23 H :    0.480319   -0.000177
  24 H :   -0.063557   -0.013124
  25 H :   -0.087805   -0.013287
Sum of atomic charges         :    1.0000000

LOEWDIN ATOMIC CHARGES AND SPIN POPULATIONS
-------------------------------------------
   0 C :    0.253365    0.034644
   1 C :   -0.089640    0.057699
   2 C :    0.242838    0.038951
   3 C :    0.248378    0.015575
   4 C :    0.246941    0.059256
   5 C :    0.246396    0.016763
   6 H :   -0.161553   -0.001373
   7 H :   -0.156339    0.014116
   8 H :   -0.160791   -0.001726
   9 H :   -0.159539    0.006213
  10 C :   -0.052511    0.108602
  11 C :    0.692904    0.281595
  12 H :   -0.163770    0.059215
  13 H :   -0.163738    0.059215
  14 C :   -0.089659    0.057668
  15 C :    0.253359    0.034631
  16 C :    0.246389    0.016751
  17 C :    0.246924    0.059222
  18 C :    0.248363    0.015566
  19 C :    0.242788    0.038940
  20 H :   -0.159580    0.006209
  21 H :   -0.160775   -0.001726
  22 H :   -0.156328    0.014108
  23 H :   -0.161603   -0.001373
  24 H :   -0.166388    0.005630
  25 H :   -0.166431    0.005628

  Mayer bond orders larger than 0.100000
B(  0-C ,  1-C ) :  -0.1846 B(  0-C ,  2-C ) :  -0.7446 B(  0-C ,  3-C ) :   0.1423
B(  0-C ,  4-C ) :  -0.1896 B(  0-C ,  5-C ) :   1.4123 B(  0-C ,  6-H ) :  -0.1736
B(  0-C , 10-C ) :   0.4058 B(  0-C , 25-H ) :   1.8435 B(  1-C ,  2-C ) :   0.2767
B(  1-C ,  3-C ) :  -0.1371 B(  1-C ,  4-C ) :  -0.2070 B(  1-C , 11-C ) :  -0.2749
B(  1-C , 14-C ) :  -0.2640 B(  1-C , 25-H ) :  -0.1975 B(  2-C ,  3-C ) :   1.3616
B(  2-C ,  4-C ) :  -0.1007 B(  2-C ,  9-H ) :   1.5148 B(  2-C , 10-C ) :   0.3641
B(  2-C , 19-C ) :   0.1567 B(  3-C ,  4-C ) :   1.2920 B(  3-C ,  5-C ) :   0.3354
B(  3-C ,  8-H ) :   0.4227 B(  4-C ,  5-C ) :   1.1711 B(  4-C ,  6-H ) :   0.1027
B(  4-C ,  7-H ) :   0.6047 B(  4-C , 10-C ) :   0.2212 B(  5-C ,  6-H ) :   0.3493
B(  5-C ,  9-H ) :  -0.1395 B(  9-H , 10-C ) :  -0.1160 B(  9-H , 25-H ) :   0.1927
B( 10-C , 11-C ) :   0.5974 B( 10-C , 15-C ) :   0.4091 B( 10-C , 17-C ) :   0.2072
B( 10-C , 19-C ) :   0.3667 B( 10-C , 20-H ) :  -0.1164 B( 10-C , 24-H ) :  -0.1820
B( 10-C , 25-H ) :  -0.1851 B( 11-C , 12-H ) :   0.9496 B( 11-C , 13-H ) :   0.9467
B( 11-C , 14-C ) :  -0.2802 B( 14-C , 15-C ) :  -0.1754 B( 14-C , 17-C ) :  -0.2190
B( 14-C , 18-C ) :  -0.1359 B( 14-C , 19-C ) :   0.2599 B( 14-C , 24-H ) :  -0.1874
B( 15-C , 16-C ) :   1.3514 B( 15-C , 17-C ) :  -0.1687 B( 15-C , 18-C ) :   0.1286
B( 15-C , 19-C ) :  -0.7551 B( 15-C , 23-H ) :  -0.1900 B( 15-C , 24-H ) :   1.7974
B( 16-C , 17-C ) :   1.1498 B( 16-C , 18-C ) :   0.3168 B( 16-C , 20-H ) :  -0.1294
B( 16-C , 23-H ) :   0.5592 B( 17-C , 18-C ) :   1.2993 B( 17-C , 19-C ) :  -0.1022
B( 17-C , 22-H ) :   0.5842 B( 18-C , 19-C ) :   1.3711 B( 18-C , 21-H ) :   0.4355
B( 18-C , 24-H ) :  -0.1086 B( 19-C , 20-H ) :   1.5213 B( 20-H , 24-H ) :   0.1843

Dispersion correction           -0.056468229
FINAL SINGLE POINT ENERGY      -540.400817941420

DIPOLE MOMENT
-------------

Method             : SCF
Type of density    : Electron Density
Multiplicity       :   2
Irrep              :   0
Energy             :  -540.3443497122742656 Eh
Relativity type    :
Basis              : AO
                                X                 Y                 Z
Electronic contribution:      0.000497157      -0.322455846      -0.000210246
Nuclear contribution   :     -0.000554236      -0.587837288      -0.000483171
                        -----------------------------------------
Total Dipole Moment    :     -0.000057079      -0.910293134      -0.000693417
                        -----------------------------------------
Magnitude (a.u.)       :      0.910293400
Magnitude (Debye)      :      2.313781943

VIBRATIONAL FREQUENCIES
-----------------------

Scaling factor for frequencies =  1.000000000  (already applied!)

     0:       0.00 cm**-1
     1:       0.00 cm**-1
     2:       0.00 cm**-1
     3:       0.00 cm**-1
     4:       0.00 cm**-1
     5:       0.00 cm**-1
     6:     -18.76 cm**-1 ***imaginary mode***
     7:      37.35 cm**-1
     8:      74.02 cm**-1
     9:     112.23 cm**-1
    10:     205.84 cm**-1
    11:     242.45 cm**-1
    12:     300.43 cm**-1
    13:     337.93 cm**-1
    14:     390.70 cm**-1
    15:     404.19 cm**-1
    16:     422.00 cm**-1
    17:     427.73 cm**-1
    18:     494.97 cm**-1
    19:     560.94 cm**-1
    20:     590.60 cm**-1
    21:     610.56 cm**-1
    22:     614.21 cm**-1
    23:     617.42 cm**-1
    24:     675.37 cm**-1
    25:     680.28 cm**-1
    26:     733.57 cm**-1
    27:     792.25 cm**-1
    28:     798.92 cm**-1
    29:     837.24 cm**-1
    30:     837.64 cm**-1
    31:     845.39 cm**-1
    32:     952.53 cm**-1
    33:     960.31 cm**-1
    34:     968.48 cm**-1
    35:    1002.85 cm**-1
    36:    1004.98 cm**-1
    37:    1007.60 cm**-1
    38:    1012.99 cm**-1
    39:    1026.68 cm**-1
    40:    1028.03 cm**-1
    41:    1033.56 cm**-1
    42:    1036.31 cm**-1
    43:    1064.36 cm**-1
    44:    1107.43 cm**-1
    45:    1112.09 cm**-1
    46:    1165.47 cm**-1
    47:    1168.23 cm**-1
    48:    1172.66 cm**-1
    49:    1187.55 cm**-1
    50:    1201.21 cm**-1
    51:    1315.38 cm**-1
    52:    1321.50 cm**-1
    53:    1359.99 cm**-1
    54:    1363.48 cm**-1
    55:    1392.95 cm**-1
    56:    1396.20 cm**-1
    57:    1466.20 cm**-1
    58:    1467.65 cm**-1
    59:    1503.88 cm**-1
    60:    1507.36 cm**-1
    61:    1527.46 cm**-1
    62:    1570.08 cm**-1
    63:    1570.29 cm**-1
    64:    1586.79 cm**-1
    65:    1641.86 cm**-1
    66:    3166.30 cm**-1
    67:    3183.86 cm**-1
    68:    3184.09 cm**-1
    69:    3193.00 cm**-1
    70:    3193.51 cm**-1
    71:    3198.69 cm**-1
    72:    3199.52 cm**-1
    73:    3205.93 cm**-1
    74:    3207.11 cm**-1
    75:    3208.92 cm**-1
    76:    3210.95 cm**-1
    77:    3266.66 cm**-1

IR SPECTRUM
-----------

 Mode   freq       eps      Int      T**2         TX        TY        TZ
       cm**-1   L/(mol*cm) km/mol    a.u.
----------------------------------------------------------------------------
  7:     37.35   0.000016    0.08  0.000132  ( 0.000119  0.011468  0.000056)
  8:     74.02   0.000020    0.10  0.000086  ( 0.000189 -0.009290  0.000037)
  9:    112.23   0.003973   20.08  0.011047  ( 0.087812 -0.000042  0.057760)
 10:    205.84   0.000016    0.08  0.000024  ( 0.000610 -0.004880 -0.000034)
 11:    242.45   0.000648    3.27  0.000834  ( 0.021878  0.000020  0.018851)
 12:    300.43   0.000010    0.05  0.000010  ( 0.000162  0.003165  0.000003)
 13:    337.93   0.029490  149.03  0.027233  ( 0.164862 -0.000031 -0.007309)
 14:    390.70   0.016125   81.49  0.012879  ( 0.113461  0.000081 -0.002443)
 15:    404.19   0.000032    0.16  0.000025  (-0.001131  0.004875 -0.000008)
 16:    422.00   0.000405    2.05  0.000299  (-0.000863  0.017277 -0.000252)
 17:    427.73   0.011563   58.43  0.008436  ( 0.088582  0.000267  0.024269)
 18:    494.97   0.000248    1.26  0.000157  (-0.000135  0.012513 -0.000099)
 19:    560.94   0.003303   16.69  0.001838  (-0.000102 -0.042869 -0.000068)
 20:    590.60   0.029772  150.46  0.015731  ( 0.123841 -0.000034 -0.019863)
 21:    610.56   0.003195   16.15  0.001633  (-0.040206 -0.000227 -0.004042)
 22:    614.21   0.000013    0.06  0.000006  ( 0.000014  0.002531  0.000100)
 23:    617.42   0.012489   63.12  0.006312  (-0.077619 -0.000295  0.016962)
 24:    675.37   0.007237   36.57  0.003344  (-0.000469  0.057625 -0.004810)
 25:    680.28   0.026975  136.32  0.012374  ( 0.016317 -0.002603 -0.110006)
 26:    733.57   0.000019    0.10  0.000008  ( 0.000104  0.002850 -0.000090)
 27:    792.25   0.004405   22.26  0.001735  ( 0.003017  0.041462 -0.002601)
 28:    798.92   0.034432  174.01  0.013450  (-0.089768  0.001314  0.073413)
 29:    837.24   0.007466   37.73  0.002783  ( 0.052704 -0.001791 -0.001318)
 30:    837.64   0.000563    2.85  0.000210  ( 0.006844  0.012767 -0.000126)
 31:    845.39   0.022185  112.11  0.008189  (-0.090482 -0.000051  0.001476)
 32:    952.53   0.021262  107.45  0.006966  ( 0.069803  0.000104 -0.045753)
 33:    960.31   0.000269    1.36  0.000088  (-0.000995  0.009273  0.000732)
 34:    968.48   0.007451   37.66  0.002401  ( 0.043200  0.000109 -0.023125)
 35:   1002.85   0.025268  127.70  0.007863  ( 0.088660 -0.000998 -0.001154)
 36:   1004.98   0.001154    5.83  0.000358  ( 0.016645  0.009008  0.000061)
 37:   1007.60   0.031444  158.91  0.009739  (-0.098629  0.000574 -0.003264)
 38:   1012.99   0.000338    1.71  0.000104  (-0.000243 -0.010201  0.000003)
 39:   1026.68   0.000194    0.98  0.000059  (-0.001485  0.007098 -0.002500)
 40:   1028.03   0.000185    0.93  0.000056  ( 0.004481  0.003734  0.004695)
 41:   1033.56   0.004230   21.38  0.001277  ( 0.035734 -0.000194  0.000507)
 42:   1036.31   0.000003    0.02  0.000001  (-0.000363 -0.000942 -0.000030)
 43:   1064.36   0.049474  250.02  0.014506  (-0.120175 -0.000011  0.007966)
 44:   1107.43   0.001318    6.66  0.000371  (-0.000582 -0.019261 -0.000066)
 45:   1112.09   0.020060  101.37  0.005629  ( 0.072192 -0.000012  0.020427)
 46:   1165.47   0.004423   22.35  0.001184  ( 0.000241 -0.034414  0.000018)
 47:   1168.23   0.000363    1.84  0.000097  ( 0.006447  0.000041  0.007447)
 48:   1172.66   0.005139   25.97  0.001367  ( 0.000121  0.036979  0.000015)
 49:   1187.55   0.108079  546.19  0.028401  (-0.168423  0.000012  0.005882)
 50:   1201.21   0.000041    0.21  0.000011  (-0.000285  0.003266  0.000035)
 51:   1315.38   0.030020  151.71  0.007122  (-0.084391 -0.000026 -0.000447)
 52:   1321.50   0.000170    0.86  0.000040  (-0.000058  0.006328  0.000013)
 53:   1359.99   0.005272   26.64  0.001210  ( 0.000203 -0.034781 -0.000014)
 54:   1363.48   0.005253   26.55  0.001202  ( 0.025608 -0.000021  0.023377)
 55:   1392.95   0.148268  749.28  0.033216  (-0.181601  0.000048  0.015406)
 56:   1396.20   0.012321   62.26  0.002754  (-0.000472 -0.052475  0.000034)
 57:   1466.20   0.022621  114.32  0.004815  (-0.064889  0.000096 -0.024577)
 58:   1467.65   0.001872    9.46  0.000398  (-0.000778 -0.019933 -0.000109)
 59:   1503.88   0.005321   26.89  0.001104  (-0.000163  0.033228 -0.000001)
 60:   1507.36   0.125657  635.02  0.026014  ( 0.161285  0.000025 -0.001180)
 61:   1527.46   0.000161    0.81  0.000033  (-0.000051  0.005728 -0.000011)
 62:   1570.08   0.005387   27.22  0.001071  ( 0.032673 -0.000463  0.001685)
 63:   1570.29   0.000142    0.72  0.000028  ( 0.003742  0.003752  0.000212)
 64:   1586.79   0.526222  2659.31  0.103489  (-0.321572 -0.000013  0.008963)
 65:   1641.86   0.011076   55.97  0.002105  ( 0.000077  0.045882 -0.000012)
 66:   3166.30   0.000097    0.49  0.000010  ( 0.000051  0.003092  0.000002)
 67:   3183.86   0.000207    1.05  0.000020  ( 0.004455 -0.000545 -0.000363)
 68:   3184.09   0.000047    0.24  0.000005  (-0.001846 -0.001089  0.000186)
 69:   3193.00   0.000760    3.84  0.000074  (-0.007122 -0.000694 -0.004803)
 70:   3193.51   0.000730    3.69  0.000071  ( 0.000690 -0.008404  0.000418)
 71:   3198.69   0.001116    5.64  0.000109  (-0.010135  0.001415  0.002049)
 72:   3199.52   0.002183   11.03  0.000213  ( 0.001158  0.014543 -0.000185)
 73:   3205.93   0.003318   16.77  0.000323  ( 0.015793  0.000221  0.008576)
 74:   3207.11   0.000178    0.90  0.000017  (-0.000634  0.004085 -0.000430)
 75:   3208.92   0.021828  110.31  0.002123  ( 0.045948 -0.000167 -0.003386)
 76:   3210.95   0.000510    2.58  0.000050  (-0.000724 -0.007002  0.000094)
 77:   3266.66   0.000198    1.00  0.000019  ( 0.004279 -0.000005 -0.000777)

--------------------------
THERMOCHEMISTRY AT 298.15K
--------------------------

Temperature         ...   298.15 K
Pressure            ...     1.00 atm
Total Mass          ...   180.25 AMU
Quasi RRHO          ...     True
Cut-Off Frequency   ...     1.00 cm^-1

Throughout the following assumptions are being made:
  (1) The electronic state is orbitally nondegenerate
      but the spin degeneracy is treated
  (2) There are no thermally accessible electronically excited states
  (3) Hindered rotations indicated by low frequency modes are not
      treated as such but are treated as vibrations and this may
      cause some error
  (4) All equations used are the standard statistical mechanics
      equations for an ideal gas
  (5) All vibrations are strictly harmonic

freq.      37.35  E(vib)   ...       0.54
freq.      74.02  E(vib)   ...       0.49
freq.     112.23  E(vib)   ...       0.45
freq.     205.84  E(vib)   ...       0.35
freq.     242.45  E(vib)   ...       0.31
freq.     300.43  E(vib)   ...       0.26
freq.     337.93  E(vib)   ...       0.24
freq.     390.70  E(vib)   ...       0.20
freq.     404.19  E(vib)   ...       0.19
freq.     422.00  E(vib)   ...       0.18
freq.     427.73  E(vib)   ...       0.18
freq.     494.97  E(vib)   ...       0.14
freq.     560.94  E(vib)   ...       0.11
freq.     590.60  E(vib)   ...       0.10
freq.     610.56  E(vib)   ...       0.10
freq.     614.21  E(vib)   ...       0.10
freq.     617.42  E(vib)   ...       0.09
freq.     675.37  E(vib)   ...       0.08
freq.     680.28  E(vib)   ...       0.08
freq.     733.57  E(vib)   ...       0.06
freq.     792.25  E(vib)   ...       0.05
freq.     798.92  E(vib)   ...       0.05
freq.     837.24  E(vib)   ...       0.04
freq.     837.64  E(vib)   ...       0.04
freq.     845.39  E(vib)   ...       0.04
freq.     952.53  E(vib)   ...       0.03
freq.     960.31  E(vib)   ...       0.03
freq.     968.48  E(vib)   ...       0.03
freq.    1002.85  E(vib)   ...       0.02
freq.    1004.98  E(vib)   ...       0.02
freq.    1007.60  E(vib)   ...       0.02
freq.    1012.99  E(vib)   ...       0.02
freq.    1026.68  E(vib)   ...       0.02
freq.    1028.03  E(vib)   ...       0.02
freq.    1033.56  E(vib)   ...       0.02
freq.    1036.31  E(vib)   ...       0.02
freq.    1064.36  E(vib)   ...       0.02
freq.    1107.43  E(vib)   ...       0.02
freq.    1112.09  E(vib)   ...       0.01
freq.    1165.47  E(vib)   ...       0.01
freq.    1168.23  E(vib)   ...       0.01
freq.    1172.66  E(vib)   ...       0.01
freq.    1187.55  E(vib)   ...       0.01
freq.    1201.21  E(vib)   ...       0.01
freq.    1315.38  E(vib)   ...       0.01
freq.    1321.50  E(vib)   ...       0.01
freq.    1359.99  E(vib)   ...       0.01
freq.    1363.48  E(vib)   ...       0.01
freq.    1392.95  E(vib)   ...       0.00
freq.    1396.20  E(vib)   ...       0.00
freq.    1466.20  E(vib)   ...       0.00
freq.    1467.65  E(vib)   ...       0.00
freq.    1503.88  E(vib)   ...       0.00
freq.    1507.36  E(vib)   ...       0.00
freq.    1527.46  E(vib)   ...       0.00
freq.    1570.08  E(vib)   ...       0.00
freq.    1570.29  E(vib)   ...       0.00
freq.    1586.79  E(vib)   ...       0.00
freq.    1641.86  E(vib)   ...       0.00
freq.    3166.30  E(vib)   ...       0.00
freq.    3183.86  E(vib)   ...       0.00
freq.    3184.09  E(vib)   ...       0.00
freq.    3193.00  E(vib)   ...       0.00
freq.    3193.51  E(vib)   ...       0.00
freq.    3198.69  E(vib)   ...       0.00
freq.    3199.52  E(vib)   ...       0.00
freq.    3205.93  E(vib)   ...       0.00
freq.    3207.11  E(vib)   ...       0.00
freq.    3208.92  E(vib)   ...       0.00
freq.    3210.95  E(vib)   ...       0.00
freq.    3266.66  E(vib)   ...       0.00

------------
INNER ENERGY
------------

The inner energy is: U= E(el) + E(ZPE) + E(vib) + E(rot) + E(trans)
    E(el)   - is the total energy from the electronic structure calculation
              = E(kin-el) + E(nuc-el) + E(el-el) + E(nuc-nuc)
    E(ZPE)  - the the zero temperature vibrational energy from the frequency calculation
    E(vib)  - the the finite temperature correction to E(ZPE) due to population
              of excited vibrational states
    E(rot)  - is the rotational thermal energy
    E(trans)- is the translational thermal energy

Summary of contributions to the inner energy U:
Electronic energy                ...   -540.40081794 Eh
Zero point energy                ...      0.21247814 Eh     133.33 kcal/mol
Thermal vibrational correction   ...      0.00779980 Eh       4.89 kcal/mol
Thermal rotational correction    ...      0.00141627 Eh       0.89 kcal/mol
Thermal translational correction ...      0.00141627 Eh       0.89 kcal/mol
-----------------------------------------------------------------------
Total thermal energy                   -540.17770746 Eh

Summary of corrections to the electronic energy:
(perhaps to be used in another calculation)
Total thermal correction                  0.01063234 Eh       6.67 kcal/mol
Non-thermal (ZPE) correction              0.21247814 Eh     133.33 kcal/mol
-----------------------------------------------------------------------
Total correction                          0.22311048 Eh     140.00 kcal/mol

--------
ENTHALPY
--------

The enthalpy is H = U + kB*T
                kB is Boltzmann's constant
Total thermal energy              ...   -540.17770746 Eh
Thermal Enthalpy correction       ...      0.00094421 Eh       0.59 kcal/mol
-----------------------------------------------------------------------
Total Enthalpy                    ...   -540.17676325 Eh

Note: Only C1 symmetry has been detected, increase convergence thresholds
      if your molecule has a higher symmetry. Symmetry factor of 1.0 is
      used for the rotational entropy correction.

Note: Rotational entropy computed according to Herzberg
Infrared and Raman Spectra, Chapter V,1, Van Nostrand Reinhold, 1945
Point Group:  C1, Symmetry Number:   1
Rotational constants in cm-1:     0.054389     0.014309     0.012141

Vibrational entropy computed according to the QRRHO of S. Grimme
Chem.Eur.J. 2012 18 9955 using a reference frequency of 100.0 cm-1

-------
ENTROPY
-------

The entropy contributions are T*S = T*(S(el)+S(vib)+S(rot)+S(trans))
     S(el)   - electronic entropy
     S(vib)  - vibrational entropy
     S(rot)  - rotational entropy
     S(trans)- translational entropy
The entropies will be listed as multiplied by the temperature to get
units of energy

                             ****ORCA TERMINATED NORMALLY****
TOTAL RUN TIME: 0 days 3 hours 17 minutes 33 seconds 176 msec
