                         Program Version 6.0.0  -   RELEASE  -
|  1> !r2SCAN aug-cc-pVTZ d3 TightSCF SlowConv RIJCOSX defgrid2
|  2>
|  3> %pal
|  4> nprocs 15
|  5> end
|  6>
|  7> %scf
|  8> MaxIter 1500
|  9> end
| 10>
| 11> %maxcore 3500
| 12>
| 13> !CPCM
| 14> %cpcm smd true
| 15> SMDsolvent "WATER"
| 16> surfacetype gepol_ses
| 17> rsolv 1.40
| 18> end
| 19>
| 20> * xyz 0 1
| 21> C           0.05740703362366     -0.03818478987782     -0.05305252362433
| 22> C           0.04752787284548      1.43042672917474      0.09288134793546
| 23> C           0.00865823360556      2.06419843064535      1.28313969477442
| 24> C          -0.02631367755515      1.27331877582174      2.55115567713606
| 25> C          -0.01924382659142     -0.21029957823671      2.44828393846160
| 26> C           0.02139111377803     -0.84476466741681      1.19738932390815
| 27> C           0.02778920782920     -2.23769356254970      1.12126987378335
| 28> C          -0.00634981044020     -2.99663523812184      2.28791660064124
| 29> C          -0.04698344076028     -2.36584188207955      3.53454063211562
| 30> C          -0.05333228207351     -0.97623991811648      3.61522849103236
| 31> H           0.07423269005991      1.98647405476100     -0.84970518486997
| 32> H          -0.08462573760684     -0.45717520913165      4.57653406994510
| 33> H          -0.07388405763115     -2.96530465276422      4.44922462797787
| 34> H          -0.00147351819034     -4.08899982107002      2.22872595641621
| 35> H           0.05990452710164     -2.70205720690776      0.13238845062488
| 36> C          -0.00206079517557      3.54702899649423      1.43475658835013
| 37> H          -0.90223963443982      3.87118144099815      1.98551534688661
| 38> H           0.85990766484548      3.87826240212472      2.03977796655726
| 39> H           0.02634952855796      4.05066472850984      0.45627956358589
| 40> O          -0.05966185780097      1.83961965072649      3.62552534412724
| 41> O           0.09300076601833     -0.55701475298369     -1.15202852476517
| 42> *
| 43>
| 44>                          ****END OF INPUT****

CARTESIAN COORDINATES (ANGSTROEM)
---------------------------------
  C      0.057407   -0.038185   -0.053053
  C      0.047528    1.430427    0.092881
  C      0.008658    2.064198    1.283140
  C     -0.026314    1.273319    2.551156
  C     -0.019244   -0.210300    2.448284
  C      0.021391   -0.844765    1.197389
  C      0.027789   -2.237694    1.121270
  C     -0.006350   -2.996635    2.287917
  C     -0.046983   -2.365842    3.534541
  C     -0.053332   -0.976240    3.615228
  H      0.074233    1.986474   -0.849705
  H     -0.084626   -0.457175    4.576534
  H     -0.073884   -2.965305    4.449225
  H     -0.001474   -4.089000    2.228726
  H      0.059905   -2.702057    0.132388
  C     -0.002061    3.547029    1.434757
  H     -0.902240    3.871181    1.985515
  H      0.859908    3.878262    2.039778
  H      0.026350    4.050665    0.456280
  O     -0.059662    1.839620    3.625525
  O      0.093001   -0.557015   -1.152029

 Total Charge           Charge          ....    0
 Multiplicity           Mult            ....    1
 Number of Electrons    NEL             ....   90
 Basis Dimension        Dim             ....  782

ORBITAL ENERGIES
----------------

  NO   OCC          E(Eh)            E(eV)
   0   2.0000     -18.965747      -516.0842
   1   2.0000     -18.962909      -516.0070
   2   2.0000     -10.141449      -275.9628
   3   2.0000     -10.139636      -275.9135
   4   2.0000     -10.080316      -274.2993
   5   2.0000     -10.066658      -273.9277
   6   2.0000     -10.065809      -273.9046
   7   2.0000     -10.061149      -273.7778
   8   2.0000     -10.057981      -273.6916
   9   2.0000     -10.057832      -273.6875
  10   2.0000     -10.057396      -273.6756
  11   2.0000     -10.057136      -273.6686
  12   2.0000     -10.036499      -273.1070
  13   2.0000      -1.030867       -28.0513
  14   2.0000      -1.027333       -27.9551
  15   2.0000      -0.848702       -23.0944
  16   2.0000      -0.804520       -21.8921
  17   2.0000      -0.744125       -20.2487
  18   2.0000      -0.737679       -20.0733
  19   2.0000      -0.687927       -18.7194
  20   2.0000      -0.644136       -17.5278
  21   2.0000      -0.605946       -16.4886
  22   2.0000      -0.581328       -15.8187
  23   2.0000      -0.546917       -14.8824
  24   2.0000      -0.503742       -13.7075
  25   2.0000      -0.487456       -13.2644
  26   2.0000      -0.461377       -12.5547
  27   2.0000      -0.435563       -11.8523
  28   2.0000      -0.426796       -11.6137
  29   2.0000      -0.425640       -11.5823
  30   2.0000      -0.415221       -11.2987
  31   2.0000      -0.408169       -11.1068
  32   2.0000      -0.394776       -10.7424
  33   2.0000      -0.386639       -10.5210
  34   2.0000      -0.374981       -10.2038
  35   2.0000      -0.374818       -10.1993
  36   2.0000      -0.355123        -9.6634
  37   2.0000      -0.347700        -9.4614
  38   2.0000      -0.336759        -9.1637
  39   2.0000      -0.326003        -8.8710
  40   2.0000      -0.273963        -7.4549
  41   2.0000      -0.255303        -6.9472
  42   2.0000      -0.252649        -6.8749
  43   2.0000      -0.250950        -6.8287
  44   2.0000      -0.237424        -6.4606
  45   0.0000      -0.145146        -3.9496
  46   0.0000      -0.074195        -2.0189
  47   0.0000      -0.048897        -1.3306
  48   0.0000       0.005518         0.1501
  49   0.0000       0.005611         0.1527

MULLIKEN ATOMIC CHARGES
-----------------------
   0 C :    1.411640
   1 C :   -0.700516
   2 C :    0.365352
   3 C :    0.951827
   4 C :    1.506480
   5 C :    1.154211
   6 C :   -1.177878
   7 C :   -0.410572
   8 C :   -0.414414
   9 C :   -1.396987
  10 H :    0.119172
  11 H :    0.008100
  12 H :    0.610493
  13 H :    0.577993
  14 H :   -0.018343
  15 C :   -0.730552
  16 H :    0.210976
  17 H :    0.209512
  18 H :    0.158310
  19 O :   -1.216939
  20 O :   -1.217864
Sum of atomic charges:    0.0000000

LOEWDIN ATOMIC CHARGES
----------------------
   0 C :   -0.550139
   1 C :    0.251390
   2 C :   -0.100656
   3 C :   -0.517721
   4 C :   -0.116728
   5 C :   -0.123138
   6 C :    0.221248
   7 C :    0.228858
   8 C :    0.228953
   9 C :    0.222043
  10 H :   -0.164625
  11 H :   -0.173963
  12 H :   -0.159187
  13 H :   -0.158981
  14 H :   -0.173636
  15 C :    0.576600
  16 H :   -0.153259
  17 H :   -0.153402
  18 H :   -0.157918
  19 O :    0.503672
  20 O :    0.470590

  Mayer bond orders larger than 0.100000
B(  0-C ,  1-C ) :   0.4704 B(  0-C ,  5-C ) :   0.2534 B(  0-C ,  6-C ) :   0.5003
B(  0-C ,  8-C ) :   0.1241 B(  0-C ,  9-C ) :  -0.1634 B(  0-C , 10-H ) :  -0.2436
B(  0-C , 20-O ) :  -0.1613 B(  1-C ,  2-C ) :   1.4773 B(  1-C ,  4-C ) :  -0.2701
B(  1-C ,  5-C ) :   0.4197 B(  1-C , 10-H ) :   0.8559 B(  1-C , 15-C ) :  -0.3313
B(  1-C , 20-O ) :   0.2523 B(  2-C ,  3-C ) :   0.5331 B(  2-C ,  4-C ) :   0.5422
B(  2-C ,  5-C ) :  -0.2770 B(  2-C , 15-C ) :   0.5059 B(  2-C , 19-O ) :   0.1376
B(  2-C , 20-O ) :   0.1519 B(  3-C ,  4-C ) :   0.4462 B(  3-C ,  6-C ) :  -0.1794
B(  3-C ,  9-C ) :   0.6261 B(  3-C , 15-C ) :   0.2918 B(  3-C , 19-O ) :   0.1368
B(  4-C ,  5-C ) :   1.2223 B(  4-C ,  6-C ) :  -0.6804 B(  4-C ,  7-C ) :  -0.2765
B(  4-C ,  9-C ) :  -0.5144 B(  4-C , 11-H ) :  -0.1338 B(  5-C ,  8-C ) :  -0.1629
B(  5-C ,  9-C ) :  -0.4117 B(  5-C , 10-H ) :   0.1407 B(  5-C , 14-H ) :  -0.1160
B(  5-C , 20-O ) :   0.1698 B(  6-C ,  7-C ) :   1.0317 B(  6-C , 10-H ) :   0.1033
B(  6-C , 13-H ) :  -0.1285 B(  6-C , 14-H ) :   1.2205 B(  7-C ,  8-C ) :   1.0798
B(  7-C , 13-H ) :   0.3835 B(  8-C ,  9-C ) :   1.0872 B(  8-C , 12-H ) :   0.3273
B(  9-C , 11-H ) :   1.1383 B(  9-C , 12-H ) :  -0.1465 B( 10-H , 14-H ) :   0.1044
B( 10-H , 20-O ) :   0.1265 B( 11-H , 19-O ) :   0.2831 B( 14-H , 20-O ) :   0.2805
B( 15-C , 16-H ) :   0.9630 B( 15-C , 17-H ) :   0.9643 B( 15-C , 18-H ) :   1.0344

Dispersion correction           -0.007929288
FINAL SINGLE POINT ENERGY      -574.347467949491

DIPOLE MOMENT
-------------

Method             : SCF
Type of density    : Electron Density
Multiplicity       :   1
Irrep              :   0
Energy             :  -574.3395386615753750 Eh
Relativity type    :
Basis              : AO
                                X                 Y                 Z
Electronic contribution:      0.044516799      -3.287823140      -0.903341489
Nuclear contribution   :     -0.064708602       3.027549454       1.475829711
                        -----------------------------------------
Total Dipole Moment    :     -0.020191803      -0.260273686       0.572488221
                        -----------------------------------------
Magnitude (a.u.)       :      0.629200178
Magnitude (Debye)      :      1.599299755

Rotational constants in cm-1:             0.042977             0.025752             0.016151
Rotational constants in MHz :          1288.412736           772.037278           484.209235

                             ****ORCA TERMINATED NORMALLY****
TOTAL RUN TIME: 0 days 0 hours 3 minutes 1 seconds 345 msec
