                         Program Version 6.0.0  -   RELEASE  -
|  1> !PBE0 freq aug-cc-pVTZ d3 TightSCF SlowConv RIJCOSX defgrid2
|  2>
|  3> %pal
|  4> nprocs 12
|  5> end
|  6>
|  7> %scf
|  8> MaxIter 1500
|  9> end
| 10>
| 11> %maxcore 5000
| 12>
| 13> !CPCM
| 14> %cpcm smd true
| 15> SMDsolvent "MeCN"
| 16> surfacetype gepol_ses
| 17> rsolv 2.19
| 18> end
| 19>
| 20> * xyz 0 1
| 21> C           1.33687346385051     -0.00594223467620     -0.21662824443424
| 22> C           0.74941981187871      1.25669163531764     -0.16438923485625
| 23> C          -0.62247247008920      1.38458846508735     -0.07181865570800
| 24> C          -1.43900268206025      0.25500094948372     -0.03270766778270
| 25> C          -0.85695694360931     -1.00702803359564     -0.08745245461201
| 26> C           0.52374373560774     -1.12954593131682     -0.17705309976158
| 27> H           0.95946623438767     -2.12128145031427     -0.21552301695909
| 28> H          -1.46171488022604     -1.90239509313242     -0.05987967839541
| 29> O          -2.76895114643408      0.47872768544937      0.05785125080484
| 30> C          -3.62082250896471     -0.65000869581265      0.10338191594120
| 31> H          -4.63497656828207     -0.26198185314584      0.17218241960993
| 32> H          -3.52823069558617     -1.25593107342018     -0.80225122544026
| 33> H          -3.41324640727902     -1.27052975399831      0.97975563146246
| 34> H          -1.07800951948673      2.36649310369470     -0.02921347084329
| 35> H           1.36465496534221      2.14786322401531     -0.19676481882489
| 36> S           3.08867028640340     -0.23569070412884     -0.34029503892797
| 37> H           3.42665302454736      1.06353556049311     -0.25378491127273
| 38> *
| 39>
| 40>                          ****END OF INPUT****

CARTESIAN COORDINATES (ANGSTROEM)
---------------------------------
  C      1.336873   -0.005942   -0.216628
  C      0.749420    1.256692   -0.164389
  C     -0.622472    1.384588   -0.071819
  C     -1.439003    0.255001   -0.032708
  C     -0.856957   -1.007028   -0.087452
  C      0.523744   -1.129546   -0.177053
  H      0.959466   -2.121281   -0.215523
  H     -1.461715   -1.902395   -0.059880
  O     -2.768951    0.478728    0.057851
  C     -3.620823   -0.650009    0.103382
  H     -4.634977   -0.261982    0.172182
  H     -3.528231   -1.255931   -0.802251
  H     -3.413246   -1.270530    0.979756
  H     -1.078010    2.366493   -0.029213
  H      1.364655    2.147863   -0.196765
  S      3.088670   -0.235691   -0.340295
  H      3.426653    1.063536   -0.253785

 Total Charge           Charge          ....    0
 Multiplicity           Mult            ....    1
 Number of Electrons    NEL             ....   74
 Basis Dimension        Dim             ....  602

ORBITAL ENERGIES
----------------

  NO   OCC          E(Eh)            E(eV)
   0   2.0000     -89.058281     -2423.3990
   1   2.0000     -19.243406      -523.6397
   2   2.0000     -10.288345      -279.9601
   3   2.0000     -10.264267      -279.3049
   4   2.0000     -10.262820      -279.2655
   5   2.0000     -10.235448      -278.5207
   6   2.0000     -10.234902      -278.5058
   7   2.0000     -10.229372      -278.3554
   8   2.0000     -10.228492      -278.3314
   9   2.0000      -8.016451      -218.1387
  10   2.0000      -5.953745      -162.0096
  11   2.0000      -5.950182      -161.9127
  12   2.0000      -5.946195      -161.8042
  13   2.0000      -1.102266       -29.9942
  14   2.0000      -0.896314       -24.3899
  15   2.0000      -0.813692       -22.1417
  16   2.0000      -0.781324       -21.2609
  17   2.0000      -0.746246       -20.3064
  18   2.0000      -0.697654       -18.9841
  19   2.0000      -0.637799       -17.3554
  20   2.0000      -0.604161       -16.4401
  21   2.0000      -0.552654       -15.0385
  22   2.0000      -0.512403       -13.9432
  23   2.0000      -0.484318       -13.1790
  24   2.0000      -0.483206       -13.1487
  25   2.0000      -0.460765       -12.5381
  26   2.0000      -0.440440       -11.9850
  27   2.0000      -0.432241       -11.7619
  28   2.0000      -0.406434       -11.0596
  29   2.0000      -0.402470       -10.9518
  30   2.0000      -0.374183       -10.1820
  31   2.0000      -0.355361        -9.6699
  32   2.0000      -0.352858        -9.6018
  33   2.0000      -0.340543        -9.2666
  34   2.0000      -0.290235        -7.8977
  35   2.0000      -0.276167        -7.5149
  36   2.0000      -0.217602        -5.9213
  37   0.0000      -0.017154        -0.4668
  38   0.0000      -0.002261        -0.0615
  39   0.0000      -0.001071        -0.0291
  40   0.0000       0.009484         0.2581
  41   0.0000       0.016604         0.4518

MULLIKEN ATOMIC CHARGES
-----------------------
   0 C :    0.641938
   1 C :   -0.774695
   2 C :   -0.943686
   3 C :    1.032933
   4 C :   -0.494162
   5 C :   -0.957899
   6 H :    0.547093
   7 H :    0.590859
   8 O :   -0.626745
   9 C :   -0.754776
  10 H :    0.265241
  11 H :    0.314342
  12 H :    0.312136
  13 H :    0.625943
  14 H :    0.534014
  15 S :   -0.444390
  16 H :    0.131853
Sum of atomic charges:    0.0000000

LOEWDIN ATOMIC CHARGES
----------------------
   0 C :   -0.597924
   1 C :    0.109770
   2 C :    0.191129
   3 C :   -0.415830
   4 C :    0.191676
   5 C :    0.095827
   6 H :   -0.187673
   7 H :   -0.194149
   8 O :    0.598504
   9 C :    0.338644
  10 H :   -0.174928
  11 H :   -0.167693
  12 H :   -0.167008
  13 H :   -0.172264
  14 H :   -0.189775
  15 S :    1.298297
  16 H :   -0.556601

  Mayer bond orders larger than 0.100000
B(  0-C ,  1-C ) :   1.0762 B(  0-C ,  5-C ) :   1.2077 B(  0-C , 15-S ) :   0.5052
B(  1-C ,  2-C ) :   1.5264 B(  1-C ,  3-C ) :  -0.3002 B(  1-C , 14-H ) :   0.4856
B(  2-C ,  3-C ) :   0.7748 B(  2-C ,  4-C ) :   0.1638 B(  2-C ,  8-O ) :   0.2837
B(  2-C , 13-H ) :   0.2412 B(  3-C ,  4-C ) :   1.0680 B(  3-C ,  5-C ) :  -0.2487
B(  3-C ,  7-H ) :   0.1079 B(  3-C ,  8-O ) :   0.4255 B(  4-C ,  5-C ) :   1.1557
B(  4-C ,  7-H ) :   0.2562 B(  5-C ,  6-H ) :   0.5204 B(  8-O ,  9-C ) :   1.0187
B(  9-C , 10-H ) :   0.9684 B(  9-C , 11-H ) :   0.8773 B(  9-C , 12-H ) :   0.8795
B( 15-S , 16-H ) :   1.0565

Dispersion correction           -0.016043809
FINAL SINGLE POINT ENERGY      -744.586108564353

DIPOLE MOMENT
-------------

Method             : SCF
Type of density    : Electron Density
Multiplicity       :   1
Irrep              :   0
Energy             :  -744.5700647548561619 Eh
Relativity type    :
Basis              : AO
                                X                 Y                 Z
Electronic contribution:      7.110185879       0.999606591      -0.517275741
Nuclear contribution   :     -7.930295671      -1.149632116       0.600639699
                        -----------------------------------------
Total Dipole Moment    :     -0.820109792      -0.150025525       0.083363958
                        -----------------------------------------
Magnitude (a.u.)       :      0.837876649
Magnitude (Debye)      :      2.129713191

VIBRATIONAL FREQUENCIES
-----------------------

Scaling factor for frequencies =  1.000000000  (already applied!)

     0:       0.00 cm**-1
     1:       0.00 cm**-1
     2:       0.00 cm**-1
     3:       0.00 cm**-1
     4:       0.00 cm**-1
     5:       0.00 cm**-1
     6:      67.86 cm**-1
     7:      77.77 cm**-1
     8:     133.57 cm**-1
     9:     194.50 cm**-1
    10:     226.20 cm**-1
    11:     295.39 cm**-1
    12:     334.71 cm**-1
    13:     360.72 cm**-1
    14:     417.81 cm**-1
    15:     501.01 cm**-1
    16:     515.43 cm**-1
    17:     630.36 cm**-1
    18:     646.52 cm**-1
    19:     726.44 cm**-1
    20:     818.65 cm**-1
    21:     821.29 cm**-1
    22:     839.58 cm**-1
    23:     911.03 cm**-1
    24:     952.44 cm**-1
    25:     973.26 cm**-1
    26:    1019.69 cm**-1
    27:    1060.91 cm**-1
    28:    1122.94 cm**-1
    29:    1133.60 cm**-1
    30:    1168.53 cm**-1
    31:    1191.38 cm**-1
    32:    1204.05 cm**-1
    33:    1293.39 cm**-1
    34:    1321.54 cm**-1
    35:    1352.23 cm**-1
    36:    1448.74 cm**-1
    37:    1464.11 cm**-1
    38:    1467.62 cm**-1
    39:    1478.47 cm**-1
    40:    1531.51 cm**-1
    41:    1632.55 cm**-1
    42:    1660.49 cm**-1
    43:    2686.76 cm**-1
    44:    3029.20 cm**-1
    45:    3097.27 cm**-1
    46:    3156.04 cm**-1
    47:    3188.58 cm**-1
    48:    3189.53 cm**-1
    49:    3206.69 cm**-1
    50:    3225.98 cm**-1

IR SPECTRUM
-----------

 Mode   freq       eps      Int      T**2         TX        TY        TZ
       cm**-1   L/(mol*cm) km/mol    a.u.
----------------------------------------------------------------------------
  6:     67.86   0.000411    2.08  0.001892  (-0.008171 -0.004390  0.042496)
  7:     77.77   0.006642   33.56  0.026650  ( 0.005647  0.009345 -0.162883)
  8:    133.57   0.000096    0.48  0.000223  (-0.004495 -0.001203 -0.014207)
  9:    194.50   0.000843    4.26  0.001352  ( 0.034083 -0.013531 -0.002775)
 10:    226.20   0.000001    0.01  0.000002  ( 0.000711 -0.001019  0.000232)
 11:    295.39   0.000059    0.30  0.000062  ( 0.004016 -0.006797 -0.000031)
 12:    334.71   0.001277    6.45  0.001190  (-0.001368  0.000998 -0.034458)
 13:    360.72   0.000211    1.07  0.000183  ( 0.002052 -0.013357 -0.000360)
 14:    417.81   0.000071    0.36  0.000053  ( 0.000712 -0.000889  0.007172)
 15:    501.01   0.000294    1.48  0.000183  ( 0.013471  0.000283  0.001197)
 16:    515.43   0.008087   40.87  0.004896  ( 0.003646 -0.000724  0.069874)
 17:    630.36   0.002702   13.65  0.001338  ( 0.033849 -0.013568 -0.002793)
 18:    646.52   0.007821   39.53  0.003775  ( 0.060458 -0.010518 -0.003078)
 19:    726.44   0.000216    1.09  0.000093  ( 0.000207  0.000252  0.009621)
 20:    818.65   0.001215    6.14  0.000463  (-0.004463  0.002819 -0.020863)
 21:    821.29   0.000824    4.16  0.000313  ( 0.009625 -0.013028 -0.007126)
 22:    839.58   0.021790  110.12  0.008099  (-0.005397  0.000031 -0.089833)
 23:    911.03   0.001915    9.68  0.000656  ( 0.004806  0.025151 -0.000645)
 24:    952.44   0.000034    0.17  0.000011  (-0.000508  0.000094 -0.003287)
 25:    973.26   0.000026    0.13  0.000008  ( 0.000693  0.001263  0.002481)
 26:   1019.69   0.001054    5.33  0.000323  (-0.017840 -0.000322  0.002046)
 27:   1060.91   0.024157  122.08  0.007106  ( 0.064548  0.054072 -0.003918)
 28:   1122.94   0.006284   31.75  0.001746  ( 0.025558 -0.033028 -0.001465)
 29:   1133.60   0.003476   17.56  0.000957  ( 0.027302  0.014460 -0.001522)
 30:   1168.53   0.000195    0.98  0.000052  ( 0.001535 -0.000197  0.007046)
 31:   1191.38   0.004262   21.54  0.001116  ( 0.031588  0.010757 -0.001703)
 32:   1204.05   0.002983   15.07  0.000773  (-0.022962 -0.015635  0.001194)
 33:   1293.39   0.082211  415.46  0.019835  (-0.140203 -0.009774  0.009108)
 34:   1321.54   0.001222    6.17  0.000288  ( 0.005268 -0.016132 -0.000683)
 35:   1352.23   0.013044   65.92  0.003010  (-0.046920 -0.028343  0.002318)
 36:   1448.74   0.001692    8.55  0.000364  (-0.018731  0.003477  0.001248)
 37:   1464.11   0.006620   33.45  0.001411  ( 0.036117 -0.010316 -0.000201)
 38:   1467.62   0.003175   16.05  0.000675  ( 0.003303 -0.000879 -0.025758)
 39:   1478.47   0.005238   26.47  0.001106  (-0.033096  0.003008  0.001149)
 40:   1531.51   0.070799  357.79  0.014426  (-0.119821 -0.001943  0.008078)
 41:   1632.55   0.005020   25.37  0.000960  (-0.025273  0.017802  0.001996)
 42:   1660.49   0.009896   50.01  0.001860  ( 0.042666  0.005599 -0.002837)
 43:   2686.76   0.002294   11.59  0.000266  ( 0.009277  0.013411  0.000710)
 44:   3029.20   0.014776   74.67  0.001522  (-0.028344 -0.026758  0.001677)
 45:   3097.27   0.009409   47.55  0.000948  (-0.002380  0.000072 -0.030698)
 46:   3156.04   0.004890   24.71  0.000484  (-0.019738  0.009592  0.001385)
 47:   3188.58   0.001552    7.84  0.000152  ( 0.010305 -0.006730 -0.000613)
 48:   3189.53   0.001118    5.65  0.000109  (-0.009267 -0.004834  0.000378)
 49:   3206.69   0.001014    5.12  0.000099  (-0.003548  0.009273  0.000349)
 50:   3225.98   0.000654    3.31  0.000063  ( 0.006919  0.003890 -0.000540)

--------------------------
THERMOCHEMISTRY AT 298.15K
--------------------------

Temperature         ...   298.15 K
Pressure            ...     1.00 atm
Total Mass          ...   140.20 AMU
Quasi RRHO          ...     True
Cut-Off Frequency   ...     1.00 cm^-1

Throughout the following assumptions are being made:
  (1) The electronic state is orbitally nondegenerate
  (2) There are no thermally accessible electronically excited states
  (3) Hindered rotations indicated by low frequency modes are not
      treated as such but are treated as vibrations and this may
      cause some error
  (4) All equations used are the standard statistical mechanics
      equations for an ideal gas
  (5) All vibrations are strictly harmonic

freq.      67.86  E(vib)   ...       0.50
freq.      77.77  E(vib)   ...       0.49
freq.     133.57  E(vib)   ...       0.42
freq.     194.50  E(vib)   ...       0.36
freq.     226.20  E(vib)   ...       0.33
freq.     295.39  E(vib)   ...       0.27
freq.     334.71  E(vib)   ...       0.24
freq.     360.72  E(vib)   ...       0.22
freq.     417.81  E(vib)   ...       0.18
freq.     501.01  E(vib)   ...       0.14
freq.     515.43  E(vib)   ...       0.13
freq.     630.36  E(vib)   ...       0.09
freq.     646.52  E(vib)   ...       0.09
freq.     726.44  E(vib)   ...       0.06
freq.     818.65  E(vib)   ...       0.05
freq.     821.29  E(vib)   ...       0.05
freq.     839.58  E(vib)   ...       0.04
freq.     911.03  E(vib)   ...       0.03
freq.     952.44  E(vib)   ...       0.03
freq.     973.26  E(vib)   ...       0.03
freq.    1019.69  E(vib)   ...       0.02
freq.    1060.91  E(vib)   ...       0.02
freq.    1122.94  E(vib)   ...       0.01
freq.    1133.60  E(vib)   ...       0.01
freq.    1168.53  E(vib)   ...       0.01
freq.    1191.38  E(vib)   ...       0.01
freq.    1204.05  E(vib)   ...       0.01
freq.    1293.39  E(vib)   ...       0.01
freq.    1321.54  E(vib)   ...       0.01
freq.    1352.23  E(vib)   ...       0.01
freq.    1448.74  E(vib)   ...       0.00
freq.    1464.11  E(vib)   ...       0.00
freq.    1467.62  E(vib)   ...       0.00
freq.    1478.47  E(vib)   ...       0.00
freq.    1531.51  E(vib)   ...       0.00
freq.    1632.55  E(vib)   ...       0.00
freq.    1660.49  E(vib)   ...       0.00
freq.    2686.76  E(vib)   ...       0.00
freq.    3029.20  E(vib)   ...       0.00
freq.    3097.27  E(vib)   ...       0.00
freq.    3156.04  E(vib)   ...       0.00
freq.    3188.58  E(vib)   ...       0.00
freq.    3189.53  E(vib)   ...       0.00
freq.    3206.69  E(vib)   ...       0.00
freq.    3225.98  E(vib)   ...       0.00

------------
INNER ENERGY
------------

The inner energy is: U= E(el) + E(ZPE) + E(vib) + E(rot) + E(trans)
    E(el)   - is the total energy from the electronic structure calculation
              = E(kin-el) + E(nuc-el) + E(el-el) + E(nuc-nuc)
    E(ZPE)  - the the zero temperature vibrational energy from the frequency calculation
    E(vib)  - the the finite temperature correction to E(ZPE) due to population
              of excited vibrational states
    E(rot)  - is the rotational thermal energy
    E(trans)- is the translational thermal energy

Summary of contributions to the inner energy U:
Electronic energy                ...   -744.58610856 Eh
Zero point energy                ...      0.13162421 Eh      82.60 kcal/mol
Thermal vibrational correction   ...      0.00617848 Eh       3.88 kcal/mol
Thermal rotational correction    ...      0.00141627 Eh       0.89 kcal/mol
Thermal translational correction ...      0.00141627 Eh       0.89 kcal/mol
-----------------------------------------------------------------------
Total thermal energy                   -744.44547332 Eh

Summary of corrections to the electronic energy:
(perhaps to be used in another calculation)
Total thermal correction                  0.00901103 Eh       5.65 kcal/mol
Non-thermal (ZPE) correction              0.13162421 Eh      82.60 kcal/mol
-----------------------------------------------------------------------
Total correction                          0.14063524 Eh      88.25 kcal/mol

--------
ENTHALPY
--------

The enthalpy is H = U + kB*T
                kB is Boltzmann's constant
Total thermal energy              ...   -744.44547332 Eh
Thermal Enthalpy correction       ...      0.00094421 Eh       0.59 kcal/mol
-----------------------------------------------------------------------
Total Enthalpy                    ...   -744.44452911 Eh

Note: Only C1 symmetry has been detected, increase convergence thresholds
      if your molecule has a higher symmetry. Symmetry factor of 1.0 is
      used for the rotational entropy correction.

Note: Rotational entropy computed according to Herzberg
Infrared and Raman Spectra, Chapter V,1, Van Nostrand Reinhold, 1945
Point Group:  C1, Symmetry Number:   1
Rotational constants in cm-1:     0.160035     0.023268     0.020394

Vibrational entropy computed according to the QRRHO of S. Grimme
Chem.Eur.J. 2012 18 9955 using a reference frequency of 100.0 cm-1

-------
ENTROPY
-------

The entropy contributions are T*S = T*(S(el)+S(vib)+S(rot)+S(trans))
     S(el)   - electronic entropy
     S(vib)  - vibrational entropy
     S(rot)  - rotational entropy
     S(trans)- translational entropy
The entropies will be listed as multiplied by the temperature to get
units of energy

Electronic entropy                ...      0.00000000 Eh      0.00 kcal/mol
Vibrational entropy               ...      0.01053126 Eh      6.61 kcal/mol
Rotational entropy                ...      0.01398886 Eh      8.78 kcal/mol
Translational entropy             ...      0.01934980 Eh     12.14 kcal/mol
-----------------------------------------------------------------------
Final entropy term                ...      0.04386992 Eh     27.53 kcal/mol

In case the symmetry of your molecule has not been determined correctly
or in case you have a reason to use a different symmetry number we print
out the resulting rotational entropy values for sn=1,12:

 non-linear molecules -----------------------------------
|  sn= 1 | S(rot)=       0.01398886 Eh      8.78 kcal/mol|
|  sn= 2 | S(rot)=       0.01333440 Eh      8.37 kcal/mol|
|  sn= 3 | S(rot)=       0.01295157 Eh      8.13 kcal/mol|
|  sn= 4 | S(rot)=       0.01267995 Eh      7.96 kcal/mol|
|  sn= 5 | S(rot)=       0.01246926 Eh      7.82 kcal/mol|
|  sn= 6 | S(rot)=       0.01229712 Eh      7.72 kcal/mol|
|  sn= 7 | S(rot)=       0.01215157 Eh      7.63 kcal/mol|
|  sn= 8 | S(rot)=       0.01202549 Eh      7.55 kcal/mol|
|  sn= 9 | S(rot)=       0.01191428 Eh      7.48 kcal/mol|
|  sn=10 | S(rot)=       0.01181480 Eh      7.41 kcal/mol|
|  sn=11 | S(rot)=       0.01172481 Eh      7.36 kcal/mol|
|  sn=12 | S(rot)=       0.01164266 Eh      7.31 kcal/mol|
 linear molecules ---------------------------------------
|  Dinfh | S(rot)=       0.00900106 Eh      5.65 kcal/mol|
|  Cinfv | S(rot)=       0.00965552 Eh      6.06 kcal/mol|

                             ****ORCA TERMINATED NORMALLY****
TOTAL RUN TIME: 0 days 0 hours 31 minutes 24 seconds 804 msec
