                         Program Version 6.0.0  -   RELEASE  -
|  1> !PBE0 aug-cc-pVTZ d3 TightSCF SlowConv RIJCOSX defgrid2
|  2>
|  3> %pal
|  4> nprocs 4
|  5> end
|  6>
|  7> %scf
|  8> MaxIter 1500
|  9> end
| 10>
| 11> %maxcore 3000
| 12>
| 13> !CPCM
| 14> %cpcm smd true
| 15> SMDsolvent "MeCN"
| 16> surfacetype gepol_ses
| 17> rsolv 2.19
| 18> end
| 19>
| 20> * xyz 1 2
| 21> C          -0.69806914174773     -1.08130758385803      0.00000478073461
| 22> C          -1.29995911913199      0.21220975823502      0.00000712364871
| 23> C          -0.48713495449795      1.39007645246692     -0.00001560397811
| 24> C           0.87407248196079      1.28097563070640     -0.00003015609287
| 25> C           1.48961473063931     -0.00988444370075     -0.00003464832734
| 26> C           0.66713129411178     -1.18242862965134     -0.00001675195059
| 27> H           1.14787115207094     -2.16374838611022     -0.00001833432844
| 28> C           2.87923367476782     -0.13303827989769     -0.00003947759998
| 29> C           4.09817372516796     -0.24492334399421     -0.00000244744274
| 30> H           5.17420938419188     -0.34031758843355     -0.00000256865577
| 31> H           1.50568477881681      2.17231925078041     -0.00004562485067
| 32> H          -0.99220253079888      2.35905562684180     -0.00001378344560
| 33> O          -2.58101948918323      0.42008257874155      0.00003691245038
| 34> C          -3.53711041258472     -0.64087278516494      0.00007811011347
| 35> H          -4.51842922650600     -0.15013878054896      0.00011237958636
| 36> H          -3.42139067434806     -1.25399713854605     -0.90847216906212
| 37> H          -3.42131652654994     -1.25398175148381      0.90862972609483
| 38> H          -1.31361454637877     -1.98259848638256      0.00002453310588
| 39> *
| 40>
| 41>                          ****END OF INPUT****

CARTESIAN COORDINATES (ANGSTROEM)
---------------------------------
  C     -0.698069   -1.081308    0.000005
  C     -1.299959    0.212210    0.000007
  C     -0.487135    1.390076   -0.000016
  C      0.874072    1.280976   -0.000030
  C      1.489615   -0.009884   -0.000035
  C      0.667131   -1.182429   -0.000017
  H      1.147871   -2.163748   -0.000018
  C      2.879234   -0.133038   -0.000039
  C      4.098174   -0.244923   -0.000002
  H      5.174209   -0.340318   -0.000003
  H      1.505685    2.172319   -0.000046
  H     -0.992203    2.359056   -0.000014
  O     -2.581019    0.420083    0.000037
  C     -3.537110   -0.640873    0.000078
  H     -4.518429   -0.150139    0.000112
  H     -3.421391   -1.253997   -0.908472
  H     -3.421317   -1.253982    0.908630
  H     -1.313615   -1.982598    0.000025

 Total Charge           Charge          ....    1
 Multiplicity           Mult            ....    2
 Number of Electrons    NEL             ....   69
 Basis Dimension        Dim             ....  644

ORBITAL ENERGIES
----------------
                 SPIN UP ORBITALS
  NO   OCC          E(Eh)            E(eV)
   0   1.0000     -19.320514      -525.7379
   1   1.0000     -10.367109      -282.1034
   2   1.0000     -10.321810      -280.8707
   3   1.0000     -10.294514      -280.1280
   4   1.0000     -10.286970      -279.9227
   5   1.0000     -10.284258      -279.8489
   6   1.0000     -10.282003      -279.7875
   7   1.0000     -10.280061      -279.7347
   8   1.0000     -10.279946      -279.7315
   9   1.0000     -10.277064      -279.6531
  10   1.0000      -1.181867       -32.1602
  11   1.0000      -0.939420       -25.5629
  12   1.0000      -0.861220       -23.4350
  13   1.0000      -0.827083       -22.5061
  14   1.0000      -0.807150       -21.9637
  15   1.0000      -0.763169       -20.7669
  16   1.0000      -0.684146       -18.6165
  17   1.0000      -0.665282       -18.1032
  18   1.0000      -0.604999       -16.4628
  19   1.0000      -0.587912       -15.9979
  20   1.0000      -0.555410       -15.1135
  21   1.0000      -0.549868       -14.9627
  22   1.0000      -0.540780       -14.7154
  23   1.0000      -0.492170       -13.3926
  24   1.0000      -0.479690       -13.0530
  25   1.0000      -0.468853       -12.7581
  26   1.0000      -0.449813       -12.2400
  27   1.0000      -0.449420       -12.2293
  28   1.0000      -0.413774       -11.2594
  29   1.0000      -0.409937       -11.1549
  30   1.0000      -0.378459       -10.2984
  31   1.0000      -0.353993        -9.6326
  32   1.0000      -0.332487        -9.0474
  33   1.0000      -0.319665        -8.6985
  34   1.0000      -0.281248        -7.6531
  35   0.0000      -0.081425        -2.2157
  36   0.0000      -0.049360        -1.3431
  37   0.0000      -0.002623        -0.0714
  38   0.0000       0.002625         0.0714
  39   0.0000       0.008544         0.2325

                 SPIN DOWN ORBITALS
  NO   OCC          E(Eh)            E(eV)
   0   1.0000     -19.315140      -525.5917
   1   1.0000     -10.364816      -282.0410
   2   1.0000     -10.316520      -280.7268
   3   1.0000     -10.294696      -280.1329
   4   1.0000     -10.287381      -279.9339
   5   1.0000     -10.282991      -279.8144
   6   1.0000     -10.279968      -279.7321
   7   1.0000     -10.278694      -279.6975
   8   1.0000     -10.278103      -279.6814
   9   1.0000     -10.277616      -279.6681
  10   1.0000      -1.171788       -31.8860
  11   1.0000      -0.932137       -25.3647
  12   1.0000      -0.852886       -23.2082
  13   1.0000      -0.824949       -22.4480
  14   1.0000      -0.800114       -21.7722
  15   1.0000      -0.754508       -20.5312
  16   1.0000      -0.679543       -18.4913
  17   1.0000      -0.661280       -17.9943
  18   1.0000      -0.602020       -16.3818
  19   1.0000      -0.584257       -15.8985
  20   1.0000      -0.553177       -15.0527
  21   1.0000      -0.545835       -14.8529
  22   1.0000      -0.520506       -14.1637
  23   1.0000      -0.489735       -13.3264
  24   1.0000      -0.478668       -13.0252
  25   1.0000      -0.466930       -12.7058
  26   1.0000      -0.448708       -12.2100
  27   1.0000      -0.432445       -11.7674
  28   1.0000      -0.412307       -11.2194
  29   1.0000      -0.390804       -10.6343
  30   1.0000      -0.375437       -10.2162
  31   1.0000      -0.329107        -8.9555
  32   1.0000      -0.326211        -8.8766
  33   1.0000      -0.314858        -8.5677
  34   0.0000      -0.194161        -5.2834
  35   0.0000      -0.055502        -1.5103
  36   0.0000      -0.037485        -1.0200
  37   0.0000      -0.002005        -0.0546
  38   0.0000       0.003551         0.0966

MULLIKEN ATOMIC CHARGES AND SPIN POPULATIONS
--------------------------------------------
   0 C :   -0.338996    0.073683
   1 C :    1.182869    0.157445
   2 C :   -0.736004    0.091108
   3 C :   -1.077472   -0.073265
   4 C :    1.262533    0.364848
   5 C :   -1.136367   -0.033223
   6 H :   -0.031117   -0.003423
   7 C :    1.264561   -0.119913
   8 C :   -0.793986    0.364843
   9 H :    0.373937   -0.011208
  10 H :   -0.018976   -0.000947
  11 H :    0.697867    0.003631
  12 O :   -0.576665    0.172626
  13 C :   -0.686884   -0.013376
  14 H :    0.274063    0.001053
  15 H :    0.332045    0.008648
  16 H :    0.331857    0.008767
  17 H :    0.676734    0.008703
Sum of atomic charges         :    1.0000000

LOEWDIN ATOMIC CHARGES AND SPIN POPULATIONS
-------------------------------------------
   0 C :    0.282925    0.072679
   1 C :   -0.334502    0.130586
   2 C :    0.276710    0.078067
   3 C :    0.254395    0.029389
   4 C :   -0.158295    0.144823
   5 C :    0.262901    0.044819
   6 H :   -0.131684   -0.000822
   7 C :    0.050050    0.066881
   8 C :    0.502960    0.194985
   9 H :   -0.229884    0.045507
  10 H :   -0.134596   -0.004695
  11 H :   -0.138306    0.011626
  12 O :    0.659177    0.150663
  13 C :    0.427519    0.016697
  14 H :   -0.152690   -0.000347
  15 H :   -0.142218    0.004491
  16 H :   -0.142165    0.004491
  17 H :   -0.152298    0.010160

  Mayer bond orders larger than 0.100000
B(  0-C ,  1-C ) :   0.9655 B(  0-C ,  2-C ) :   0.1410 B(  0-C ,  4-C ) :   0.5673
B(  0-C ,  5-C ) :   1.3521 B(  0-C ,  7-C ) :  -0.2389 B(  0-C , 17-H ) :   0.1467
B(  1-C ,  2-C ) :   0.8161 B(  1-C ,  3-C ) :  -0.4505 B(  1-C ,  4-C ) :  -0.2229
B(  1-C ,  5-C ) :  -0.4362 B(  1-C ,  7-C ) :   0.3197 B(  1-C , 11-H ) :   0.1734
B(  1-C , 12-O ) :   0.5810 B(  1-C , 17-H ) :   0.1474 B(  2-C ,  3-C ) :   1.5456
B(  2-C ,  4-C ) :   0.4666 B(  2-C ,  7-C ) :  -0.1201 B(  2-C , 12-O ) :   0.2844
B(  3-C ,  4-C ) :   0.4378 B(  3-C ,  5-C ) :  -0.4235 B(  3-C ,  6-H ) :   0.1865
B(  3-C ,  7-C ) :   0.3173 B(  3-C , 10-H ) :   1.6128 B(  4-C ,  5-C ) :   0.4713
B(  4-C ,  7-C ) :   0.2450 B(  4-C ,  8-C ) :   0.5823 B(  4-C , 10-H ) :   0.1394
B(  4-C , 12-O ) :   0.1148 B(  5-C ,  6-H ) :   1.6811 B(  5-C ,  7-C ) :   0.2433
B(  5-C ,  8-C ) :  -0.1129 B(  5-C , 10-H ) :   0.1618 B(  6-H ,  7-C ) :  -0.2329
B(  6-H ,  8-C ) :  -0.2509 B(  6-H , 10-H ) :   0.3759 B(  7-C ,  8-C ) :   1.6117
B(  7-C ,  9-H ) :  -0.2638 B(  7-C , 10-H ) :  -0.3007 B(  8-C ,  9-H ) :   1.1667
B(  8-C , 10-H ) :  -0.2494 B(  8-C , 17-H ) :   0.1539 B( 12-O , 13-C ) :   0.9830
B( 13-C , 14-H ) :   0.9478 B( 13-C , 15-H ) :   0.8601 B( 13-C , 16-H ) :   0.8605

Dispersion correction           -0.015942827
FINAL SINGLE POINT ENERGY      -422.377323009251

DIPOLE MOMENT
-------------

Method             : SCF
Type of density    : Electron Density
Multiplicity       :   2
Irrep              :   0
Energy             :  -422.3613801826226677 Eh
Relativity type    :
Basis              : AO
                                X                 Y                 Z
Electronic contribution:      5.224630204       1.746960423       0.000015165
Nuclear contribution   :     -5.555943012      -2.398496713       0.000189114
                        -----------------------------------------
Total Dipole Moment    :     -0.331312808      -0.651536290       0.000204280
                        -----------------------------------------
Magnitude (a.u.)       :      0.730936219
Magnitude (Debye)      :      1.857892219

Rotational constants in cm-1:             0.157571             0.023827             0.020782
Rotational constants in MHz :          4723.848433           714.307245           623.028150

                             ****ORCA TERMINATED NORMALLY****
TOTAL RUN TIME: 0 days 0 hours 7 minutes 10 seconds 590 msec
