                         Program Version 6.0.0  -   RELEASE  -
|  1> !r2SCANh opt aug-cc-pVTZ d3 TightSCF SlowConv RIJCOSX defgrid2
|  2>
|  3> %pal
|  4> nprocs 8
|  5> end
|  6>
|  7> %scf
|  8> MaxIter 1500
|  9> end
| 10>
| 11> %maxcore 3500
| 12>
| 13> !CPCM
| 14> %cpcm smd true
| 15> SMDsolvent "MeCN"
| 16> surfacetype gepol_ses
| 17> rsolv 2.19
| 18> end
| 19>
| 20> * xyz 0 1
| 21> C          -0.22997754219743     -1.20609091856311     -0.00046087004095
| 22> C           1.16128384069195     -1.20031253591911      0.00041394587123
| 23> C           1.87254503831811     -0.00003037040882      0.00072012391754
| 24> C           1.16131377140118      1.20026930808148      0.00041360790641
| 25> C          -0.22994707632405      1.20608173416170     -0.00046177829750
| 26> C          -0.95218511536342      0.00000427823419     -0.00003761551285
| 27> N          -2.33340895991450      0.00002157595282      0.04653779431621
| 28> H          -2.79855452143895      0.84821355690402     -0.25483389378867
| 29> H          -2.79857532928795     -0.84816111010491     -0.25482834496791
| 30> H          -0.77344381556999      2.15676174884881      0.00298430668171
| 31> H           1.69817818740019      2.15419904894576     -0.00079679497611
| 32> H           2.96571339060225     -0.00004426352233      0.00028554339021
| 33> H           1.69812535441562     -2.15425546581862     -0.00079688995407
| 34> H          -0.77349762273302     -2.15675758679187      0.00298456545474
| 35> *
| 36>
| 37>                          ****END OF INPUT****
 Total Charge           Charge          ....    0
 Multiplicity           Mult            ....    1
 Number of Electrons    NEL             ....   50
Dispersion correction           -0.003921744
FINAL SINGLE POINT ENERGY      -287.546997449968
Dispersion correction             ... done (  0.1 sec)
Dispersion correction           -0.003930563
FINAL SINGLE POINT ENERGY      -287.547727549476
Dispersion correction             ... done (  0.0 sec)
Dispersion correction           -0.003931294
FINAL SINGLE POINT ENERGY      -287.547746570600
Dispersion correction             ... done (  0.1 sec)
FINAL SINGLE POINT ENERGY      -287.547760279685
Dispersion correction             ... done (  0.0 sec)
Dispersion correction           -0.003932153
FINAL SINGLE POINT ENERGY      -287.547762070584
Dispersion correction             ... done (  0.1 sec)
Dispersion correction           -0.003932024
FINAL SINGLE POINT ENERGY      -287.547762602157
Dispersion correction             ... done (  0.0 sec)
                    ***********************HURRAY********************

CARTESIAN COORDINATES (ANGSTROEM)
---------------------------------
  C     -0.230025   -1.203413    0.003109
  C      1.155746   -1.196847    0.000519
  C      1.863326   -0.000030    0.000276
  C      1.155776    1.196804    0.000519
  C     -0.229996    1.203404    0.003108
  C     -0.945043    0.000004    0.005376
  N     -2.326518    0.000021    0.068365
  H     -2.775889    0.835934   -0.266988
  H     -2.775910   -0.835880   -0.266991
  H     -0.771556    2.141406    0.002917
  H      1.687415    2.139744   -0.003851
  H      2.944491   -0.000044   -0.003304
  H      1.687362   -2.139801   -0.003852
  H     -0.771608   -2.141403    0.002922

 Multiplicity           Mult            ....    1
 Number of Electrons    NEL             ....   50
 Basis Dimension        Dim             ....  483

ORBITAL ENERGIES
----------------

  NO   OCC          E(Eh)            E(eV)
   0   2.0000     -14.302725      -389.1969
   1   2.0000     -10.197635      -277.4918
   2   2.0000     -10.155232      -276.3379
   3   2.0000     -10.155215      -276.3374
   4   2.0000     -10.148574      -276.1567
   5   2.0000     -10.148570      -276.1566
   6   2.0000     -10.144783      -276.0536
   7   2.0000      -0.920989       -25.0614
   8   2.0000      -0.838399       -22.8140
   9   2.0000      -0.743704       -20.2372
  10   2.0000      -0.722820       -19.6689
  11   2.0000      -0.605331       -16.4719
  12   2.0000      -0.590999       -16.0819
  13   2.0000      -0.514857       -14.0100
  14   2.0000      -0.493712       -13.4346
  15   2.0000      -0.465523       -12.6675
  16   2.0000      -0.418831       -11.3970
  17   2.0000      -0.413727       -11.2581
  18   2.0000      -0.403605       -10.9827
  19   2.0000      -0.382997       -10.4219
  20   2.0000      -0.343008        -9.3337
  21   2.0000      -0.323294        -8.7973
  22   2.0000      -0.309637        -8.4257
  23   2.0000      -0.251477        -6.8430
  24   2.0000      -0.203093        -5.5265
  25   0.0000      -0.021801        -0.5932
  26   0.0000      -0.005521        -0.1502
  27   0.0000       0.010739         0.2922
  28   0.0000       0.024044         0.6543
  29   0.0000       0.028534         0.7765

MULLIKEN ATOMIC CHARGES
-----------------------
   0 C :   -0.968949
   1 C :   -0.302118
   2 C :   -0.564449
   3 C :   -0.303002
   4 C :   -0.969367
   5 C :    1.357944
   6 N :   -0.610973
   7 H :    0.049341
   8 H :    0.049102
   9 H :    0.527499
  10 H :    0.333766
  11 H :    0.540185
  12 H :    0.333921
  13 H :    0.527100
Sum of atomic charges:   -0.0000000

LOEWDIN ATOMIC CHARGES
----------------------
   0 C :    0.204270
   1 C :    0.166192
   2 C :    0.167915
   3 C :    0.166191
   4 C :    0.204272
   5 C :   -0.270819
   6 N :    0.864199
   7 H :   -0.293730
   8 H :   -0.293731
   9 H :   -0.178191
  10 H :   -0.182734
  11 H :   -0.192908
  12 H :   -0.182734
  13 H :   -0.178192

  Mayer bond orders larger than 0.100000
B(  0-C ,  1-C ) :   1.1221 B(  0-C ,  2-C ) :   0.3523 B(  0-C ,  3-C ) :  -0.1701
B(  0-C ,  4-C ) :   0.5794 B(  0-C ,  5-C ) :   0.5507 B(  0-C , 13-H ) :   0.2584
B(  1-C ,  2-C ) :   1.0470 B(  1-C ,  3-C ) :  -0.1407 B(  1-C ,  4-C ) :  -0.1689
B(  1-C ,  5-C ) :  -0.2423 B(  1-C , 12-H ) :   0.8737 B(  2-C ,  3-C ) :   1.0473
B(  2-C ,  4-C ) :   0.3517 B(  2-C ,  5-C ) :  -0.1281 B(  2-C , 11-H ) :   0.4714
B(  3-C ,  4-C ) :   1.1227 B(  3-C ,  5-C ) :  -0.2422 B(  3-C , 10-H ) :   0.8739
B(  4-C ,  5-C ) :   0.5527 B(  4-C ,  9-H ) :   0.2579 B(  5-C ,  6-N ) :   0.4626
B(  5-C ,  9-H ) :   0.1569 B(  5-C , 13-H ) :   0.1568 B(  6-N ,  7-H ) :   1.0870
B(  6-N ,  8-H ) :   1.0875

Dispersion correction           -0.003931998
FINAL SINGLE POINT ENERGY      -287.547763279679

DIPOLE MOMENT
-------------

Method             : SCF
Type of density    : Electron Density
Multiplicity       :   1
Irrep              :   0
Energy             :  -287.5438312820269857 Eh
Relativity type    :
Basis              : AO
                                X                 Y                 Z
Electronic contribution:     -0.071620709       0.000006060       0.049624462
Nuclear contribution   :     -0.733382100       0.000008959      -0.545609117
                        -----------------------------------------
Total Dipole Moment    :     -0.805002810       0.000015019      -0.495984655
                        -----------------------------------------
Magnitude (a.u.)       :      0.945531756
Magnitude (Debye)      :      2.403350726

Rotational constants in cm-1:             0.188809             0.087334             0.059800
Rotational constants in MHz :          5660.356432          2618.219381          1792.746122

                             ****ORCA TERMINATED NORMALLY****
TOTAL RUN TIME: 0 days 0 hours 17 minutes 3 seconds 138 msec
