                         Program Version 6.0.0  -   RELEASE  -
|  1> !r2SCAN opt aug-cc-pVTZ d3 TightSCF SlowConv RIJCOSX defgrid2
|  2>
|  3> %pal
|  4> nprocs 8
|  5> end
|  6>
|  7> %scf
|  8> MaxIter 1500
|  9> end
| 10>
| 11> %maxcore 3500
| 12>
| 13> !CPCM
| 14> %cpcm smd true
| 15> SMDsolvent "MeCN"
| 16> surfacetype gepol_ses
| 17> rsolv 2.19
| 18> end
| 19>
| 20> * xyz 1 2
| 21> C           2.44830417164420     -0.69527642473796      0.00000945881878
| 22> C           2.44832214826430      0.69521603339414      0.00001009734484
| 23> C           1.23352505326865      1.40025135317577      0.00000577718412
| 24> C           0.00001141556131      0.71453178803145      0.00000268426234
| 25> C          -1.23348320904465      1.40028329659239      0.00000107782236
| 26> C          -2.44830108548662      0.69527938835391      0.00000695148737
| 27> C          -2.44832067103510     -0.69521530453956      0.00000530486429
| 28> C          -1.23352061718470     -1.40025032772324     -0.00000393184308
| 29> C          -0.00000717114678     -0.71452684352053     -0.00000494703196
| 30> C           1.23348727294566     -1.40028215170085     -0.00000132918117
| 31> H           1.23935708532449     -2.49454817867840      0.00000050523970
| 32> H          -1.23942268133971     -2.49451730914708     -0.00000545360366
| 33> H          -3.39340211959580     -1.24489598698530      0.00000832828244
| 34> H          -3.39336678788360      1.24498332942293      0.00000859404642
| 35> H          -1.23935478912557      2.49455128204595      0.00000167009943
| 36> H           1.23942795953164      2.49451607920762      0.00000299068588
| 37> H           3.39340268697296      1.24489500413589      0.00001313139295
| 38> H           3.39337233832933     -1.24497302732713      0.00001569012894
| 39> *
| 40>
| 41>                          ****END OF INPUT****
 Total Charge           Charge          ....    1
 Multiplicity           Mult            ....    2
 Number of Electrons    NEL             ....   67
Dispersion correction           -0.006291442
FINAL SINGLE POINT ENERGY      -385.604240219322
Dispersion correction             ... done (  0.1 sec)
Dispersion correction           -0.006307104
FINAL SINGLE POINT ENERGY      -385.605092811950
Dispersion correction             ... done (  0.1 sec)
Dispersion correction           -0.006308769
FINAL SINGLE POINT ENERGY      -385.605097285413
Dispersion correction             ... done (  0.1 sec)
                    ***********************HURRAY********************

CARTESIAN COORDINATES (ANGSTROEM)
---------------------------------
  C      2.437350   -0.692830   -0.000114
  C      2.437367    0.692770   -0.000258
  C      1.228255    1.397083   -0.000253
  C      0.000011    0.712609    0.000005
  C     -1.228215    1.397114    0.000264
  C     -2.437346    0.692832    0.000268
  C     -2.437364   -0.692767    0.000121
  C     -1.228251   -1.397080    0.000126
  C     -0.000007   -0.712607    0.000003
  C      1.228218   -1.397112   -0.000120
  H      1.232077   -2.480309   -0.000042
  H     -1.232138   -2.480277    0.000046
  H     -3.372300   -1.237291   -0.000401
  H     -3.372268    1.237380   -0.000131
  H     -1.232075    2.480311    0.000280
  H      1.232143    2.480280   -0.000266
  H      3.372303    1.237293    0.000142
  H      3.372272   -1.237376    0.000407

 Multiplicity           Mult            ....    2
 Number of Electrons    NEL             ....   67
 Basis Dimension        Dim             ....  644

ORBITAL ENERGIES
----------------
                 SPIN UP ORBITALS
  NO   OCC          E(Eh)            E(eV)
   0   1.0000     -10.095760      -274.7196
   1   1.0000     -10.095743      -274.7191
   2   1.0000     -10.095739      -274.7190
   3   1.0000     -10.095726      -274.7187
   4   1.0000     -10.085382      -274.4372
   5   1.0000     -10.085042      -274.4280
   6   1.0000     -10.080943      -274.3164
   7   1.0000     -10.080941      -274.3163
   8   1.0000     -10.080463      -274.3033
   9   1.0000     -10.080452      -274.3031
  10   1.0000      -0.887372       -24.1466
  11   1.0000      -0.833097       -22.6697
  12   1.0000      -0.787706       -21.4346
  13   1.0000      -0.750921       -20.4336
  14   1.0000      -0.729170       -19.8417
  15   1.0000      -0.638111       -17.3639
  16   1.0000      -0.616572       -16.7778
  17   1.0000      -0.603335       -16.4176
  18   1.0000      -0.517572       -14.0839
  19   1.0000      -0.513003       -13.9595
  20   1.0000      -0.498168       -13.5558
  21   1.0000      -0.448473       -12.2036
  22   1.0000      -0.446256       -12.1433
  23   1.0000      -0.423230       -11.5167
  24   1.0000      -0.419488       -11.4149
  25   1.0000      -0.414511       -11.2794
  26   1.0000      -0.395034       -10.7494
  27   1.0000      -0.373941       -10.1755
  28   1.0000      -0.353842        -9.6285
  29   1.0000      -0.339625        -9.2417
  30   1.0000      -0.334365        -9.0985
  31   1.0000      -0.319347        -8.6899
  32   1.0000      -0.271400        -7.3852
  33   1.0000      -0.254301        -6.9199
  34   0.0000      -0.124606        -3.3907
  35   0.0000      -0.071793        -1.9536
  36   0.0000      -0.052462        -1.4276
  37   0.0000       0.005020         0.1366
  38   0.0000       0.019094         0.5196

                 SPIN DOWN ORBITALS
  NO   OCC          E(Eh)            E(eV)
   0   1.0000     -10.091360      -274.5999
   1   1.0000     -10.091343      -274.5994
   2   1.0000     -10.091336      -274.5992
   3   1.0000     -10.091320      -274.5988
   4   1.0000     -10.086550      -274.4690
   5   1.0000     -10.086212      -274.4598
   6   1.0000     -10.080295      -274.2988
   7   1.0000     -10.080293      -274.2987
   8   1.0000     -10.079815      -274.2857
   9   1.0000     -10.079805      -274.2854
  10   1.0000      -0.882561       -24.0157
  11   1.0000      -0.826007       -22.4768
  12   1.0000      -0.777705       -21.1624
  13   1.0000      -0.750687       -20.4272
  14   1.0000      -0.715565       -19.4715
  15   1.0000      -0.631955       -17.1964
  16   1.0000      -0.613873       -16.7043
  17   1.0000      -0.597999       -16.2724
  18   1.0000      -0.515430       -14.0256
  19   1.0000      -0.508196       -13.8287
  20   1.0000      -0.496814       -13.5190
  21   1.0000      -0.446661       -12.1543
  22   1.0000      -0.446262       -12.1434
  23   1.0000      -0.421510       -11.4699
  24   1.0000      -0.417455       -11.3595
  25   1.0000      -0.401716       -10.9312
  26   1.0000      -0.392520       -10.6810
  27   1.0000      -0.373232       -10.1562
  28   1.0000      -0.337751        -9.1907
  29   1.0000      -0.335985        -9.1426
  30   1.0000      -0.333817        -9.0836
  31   1.0000      -0.292849        -7.9688
  32   1.0000      -0.270833        -7.3698
  33   0.0000      -0.217273        -5.9123
  34   0.0000      -0.094898        -2.5823
  35   0.0000      -0.066967        -1.8223
  36   0.0000      -0.029976        -0.8157
  37   0.0000       0.006303         0.1715

MULLIKEN ATOMIC CHARGES AND SPIN POPULATIONS
--------------------------------------------
   0 C :   -0.383521    0.015574
   1 C :   -0.383537    0.015567
   2 C :   -1.039094    0.253423
   3 C :    1.912211   -0.085712
   4 C :   -1.039087    0.253423
   5 C :   -0.383544    0.015567
   6 C :   -0.383536    0.015575
   7 C :   -1.039067    0.253420
   8 C :    1.912292   -0.085707
   9 C :   -1.039065    0.253420
  10 H :    0.070226    0.030461
  11 H :    0.070224    0.030460
  12 H :    0.646266   -0.006597
  13 H :    0.646267   -0.006595
  14 H :    0.070214    0.030456
  15 H :    0.070213    0.030460
  16 H :    0.646266   -0.006597
  17 H :    0.646272   -0.006597
Sum of atomic charges         :    1.0000000

LOEWDIN ATOMIC CHARGES AND SPIN POPULATIONS
-------------------------------------------
   0 C :    0.282502    0.070371
   1 C :    0.282500    0.070369
   2 C :    0.302630    0.132059
   3 C :   -0.089184    0.029412
   4 C :    0.302630    0.132058
   5 C :    0.282500    0.070369
   6 C :    0.282502    0.070371
   7 C :    0.302632    0.132060
   8 C :   -0.089183    0.029412
   9 C :    0.302633    0.132060
  10 H :   -0.138568    0.026277
  11 H :   -0.138569    0.026277
  12 H :   -0.151972    0.006588
  13 H :   -0.151973    0.006587
  14 H :   -0.138569    0.026277
  15 H :   -0.138569    0.026277
  16 H :   -0.151973    0.006587
  17 H :   -0.151972    0.006588

  Mayer bond orders larger than 0.100000
B(  0-C ,  1-C ) :   1.1107 B(  0-C ,  3-C ) :  -0.3828 B(  0-C ,  7-C ) :   0.1051
B(  0-C ,  9-C ) :   1.0826 B(  0-C , 17-H ) :   0.2589 B(  1-C ,  2-C ) :   1.0826
B(  1-C ,  4-C ) :   0.1051 B(  1-C ,  8-C ) :  -0.3829 B(  1-C , 16-H ) :   0.2590
B(  2-C ,  3-C ) :  -0.2370 B(  2-C ,  4-C ) :   0.3925 B(  2-C ,  5-C ) :   0.1051
B(  2-C ,  8-C ) :  -0.4448 B(  2-C , 15-H ) :   1.3396 B(  2-C , 16-H ) :  -0.1707
B(  3-C ,  4-C ) :  -0.2370 B(  3-C ,  6-C ) :  -0.3828 B(  3-C ,  7-C ) :  -0.4448
B(  3-C ,  8-C ) :   1.6200 B(  3-C ,  9-C ) :  -0.4448 B(  3-C , 14-H ) :  -0.1306
B(  3-C , 15-H ) :  -0.1306 B(  4-C ,  5-C ) :   1.0826 B(  4-C ,  8-C ) :  -0.4448
B(  4-C , 13-H ) :  -0.1707 B(  4-C , 14-H ) :   1.3396 B(  5-C ,  6-C ) :   1.1107
B(  5-C ,  8-C ) :  -0.3829 B(  5-C , 13-H ) :   0.2589 B(  6-C ,  7-C ) :   1.0826
B(  6-C ,  9-C ) :   0.1051 B(  6-C , 12-H ) :   0.2590 B(  7-C ,  8-C ) :  -0.2371
B(  7-C ,  9-C ) :   0.3925 B(  7-C , 11-H ) :   1.3396 B(  7-C , 12-H ) :  -0.1707
B(  8-C ,  9-C ) :  -0.2370 B(  8-C , 10-H ) :  -0.1305 B(  8-C , 11-H ) :  -0.1306
B(  9-C , 10-H ) :   1.3396 B(  9-C , 17-H ) :  -0.1707

Dispersion correction           -0.006309026
FINAL SINGLE POINT ENERGY      -385.605098197976

DIPOLE MOMENT
-------------

Method             : SCF
Type of density    : Electron Density
Multiplicity       :   2
Irrep              :   0
Energy             :  -385.5987891714937064 Eh
Relativity type    :
Basis              : AO
                                X                 Y                 Z
Electronic contribution:      0.000003627      -0.000024369       0.000000216
Nuclear contribution   :      0.000001607       0.000001119       0.000000508
                        -----------------------------------------
Total Dipole Moment    :      0.000005234      -0.000023250       0.000000724
                        -----------------------------------------
Magnitude (a.u.)       :      0.000023843
Magnitude (Debye)      :      0.000060605

Rotational constants in cm-1:             0.105352             0.041130             0.029581
Rotational constants in MHz :          3158.388377          1233.033370           886.819467

                             ****ORCA TERMINATED NORMALLY****
TOTAL RUN TIME: 0 days 0 hours 8 minutes 44 seconds 799 msec
