                         Program Version 6.0.0  -   RELEASE  -
|  1> !PBE0 freq def2-SV(p) d3 TightSCF SlowConv RIJCOSX defgrid2
|  2>
|  3> %pal
|  4> nprocs 12
|  5> end
|  6>
|  7> %scf
|  8> MaxIter 1500
|  9> end
| 10>
| 11> %maxcore 5000
| 12>
| 13> !CPCM
| 14> %cpcm smd true
| 15> SMDsolvent "MeCN"
| 16> surfacetype gepol_ses
| 17> rsolv 2.19
| 18> end
| 19>
| 20> * xyz 0 1
| 21> C           0.87092392588660     -1.20379250597718     -0.00029205897508
| 22> C           1.23818974834214      0.15058137794588     -0.00013637588909
| 23> C           0.20874939444694      1.10504862513686     -0.00002923428288
| 24> C          -1.14382134195346      0.75461316440370      0.00000263246604
| 25> C          -1.49613741810363     -0.61131545736800     -0.00008105862007
| 26> C          -0.47119313678242     -1.56706030195557     -0.00025196267573
| 27> H          -0.73715738689032     -2.62934815052200     -0.00001183863205
| 28> C          -2.93546256504061     -1.03239055227320     -0.00000585264293
| 29> H          -3.03031502704902     -2.13050353918477      0.00012803076260
| 30> H          -3.47244170732364     -0.64605247040787     -0.88598202986624
| 31> H          -3.47241426590431     -0.64591840881661      0.88590335274653
| 32> C          -2.20363606198878      1.81705053691734      0.00009340806784
| 33> H          -2.85927018088729      1.73776884939791      0.88676737313099
| 34> H          -2.86061547532433      1.73638015922427     -0.88542943993510
| 35> H          -1.75844964336551      2.82537353684038     -0.00111042315937
| 36> H           0.47757393856926      2.16727814886728     -0.00015310807574
| 37> C           2.63357700163583      0.61054450430933      0.00005678092476
| 38> C           3.73945842299540     -0.14811593110304      0.00009235583403
| 39> H           3.70668032419281     -1.24475021494540     -0.00006395600840
| 40> H           4.73288254957971      0.31511891594414      0.00041550662234
| 41> H           2.75447040597980      1.70194063266977      0.00007514849280
| 42> H           1.63563999898482     -1.98590331910323     -0.00046725028526
| 43> *
| 44>
| 45>                          ****END OF INPUT****

CARTESIAN COORDINATES (ANGSTROEM)
---------------------------------
  C      0.870924   -1.203793   -0.000292
  C      1.238190    0.150581   -0.000136
  C      0.208749    1.105049   -0.000029
  C     -1.143821    0.754613    0.000003
  C     -1.496137   -0.611315   -0.000081
  C     -0.471193   -1.567060   -0.000252
  H     -0.737157   -2.629348   -0.000012
  C     -2.935463   -1.032391   -0.000006
  H     -3.030315   -2.130504    0.000128
  H     -3.472442   -0.646052   -0.885982
  H     -3.472414   -0.645918    0.885903
  C     -2.203636    1.817051    0.000093
  H     -2.859270    1.737769    0.886767
  H     -2.860615    1.736380   -0.885429
  H     -1.758450    2.825374   -0.001110
  H      0.477574    2.167278   -0.000153
  C      2.633577    0.610545    0.000057
  C      3.739458   -0.148116    0.000092
  H      3.706680   -1.244750   -0.000064
  H      4.732883    0.315119    0.000416
  H      2.754470    1.701941    0.000075
  H      1.635640   -1.985903   -0.000467

 Total Charge           Charge          ....    0
 Multiplicity           Mult            ....    1
 Number of Electrons    NEL             ....   72
 Basis Dimension        Dim             ....  164

ORBITAL ENERGIES
----------------

  NO   OCC          E(Eh)            E(eV)
   0   2.0000     -10.244138      -278.7572
   1   2.0000     -10.243545      -278.7410
   2   2.0000     -10.243090      -278.7286
   3   2.0000     -10.238749      -278.6105
   4   2.0000     -10.232882      -278.4509
   5   2.0000     -10.232044      -278.4281
   6   2.0000     -10.231950      -278.4255
   7   2.0000     -10.226261      -278.2707
   8   2.0000     -10.219543      -278.0879
   9   2.0000     -10.219396      -278.0839
  10   2.0000      -0.884407       -24.0659
  11   2.0000      -0.818872       -22.2826
  12   2.0000      -0.780422       -21.2364
  13   2.0000      -0.761268       -20.7151
  14   2.0000      -0.709594       -19.3090
  15   2.0000      -0.681641       -18.5484
  16   2.0000      -0.615456       -16.7474
  17   2.0000      -0.610011       -16.5993
  18   2.0000      -0.552932       -15.0461
  19   2.0000      -0.511991       -13.9320
  20   2.0000      -0.495093       -13.4722
  21   2.0000      -0.460635       -12.5345
  22   2.0000      -0.445174       -12.1138
  23   2.0000      -0.441424       -12.0117
  24   2.0000      -0.426771       -11.6130
  25   2.0000      -0.420155       -11.4330
  26   2.0000      -0.404974       -11.0199
  27   2.0000      -0.392393       -10.6775
  28   2.0000      -0.391076       -10.6417
  29   2.0000      -0.380397       -10.3511
  30   2.0000      -0.370396       -10.0790
  31   2.0000      -0.348024        -9.4702
  32   2.0000      -0.341853        -9.3023
  33   2.0000      -0.308049        -8.3824
  34   2.0000      -0.261328        -7.1111
  35   2.0000      -0.233244        -6.3469
  36   0.0000      -0.035238        -0.9589
  37   0.0000      -0.000323        -0.0088
  38   0.0000       0.057263         1.5582
  39   0.0000       0.080371         2.1870
  40   0.0000       0.094089         2.5603

MULLIKEN ATOMIC CHARGES
-----------------------
   0 C :   -0.176514
   1 C :    0.092345
   2 C :   -0.249134
   3 C :   -0.041942
   4 C :   -0.061065
   5 C :   -0.176086
   6 H :    0.106798
   7 C :   -0.296879
   8 H :    0.144608
   9 H :    0.150432
  10 H :    0.150404
  11 C :   -0.296989
  12 H :    0.150101
  13 H :    0.150020
  14 H :    0.144840
  15 H :    0.103410
  16 C :   -0.146007
  17 C :   -0.296675
  18 H :    0.157621
  19 H :    0.155395
  20 H :    0.123649
  21 H :    0.111668
Sum of atomic charges:   -0.0000000

LOEWDIN ATOMIC CHARGES
----------------------
   0 C :   -0.132764
   1 C :   -0.068952
   2 C :   -0.129689
   3 C :   -0.055849
   4 C :   -0.054691
   5 C :   -0.136850
   6 H :    0.138473
   7 C :   -0.334105
   8 H :    0.134224
   9 H :    0.139446
  10 H :    0.139445
  11 C :   -0.333606
  12 H :    0.139119
  13 H :    0.139084
  14 H :    0.134162
  15 H :    0.137695
  16 C :   -0.139745
  17 C :   -0.266865
  18 H :    0.134038
  19 H :    0.139619
  20 H :    0.138823
  21 H :    0.138988

  Mayer bond orders larger than 0.100000
B(  0-C ,  1-C ) :   1.3443 B(  0-C ,  5-C ) :   1.3992 B(  0-C , 21-H ) :   0.9574
B(  1-C ,  2-C ) :   1.3250 B(  1-C , 16-C ) :   1.0816 B(  2-C ,  3-C ) :   1.4048
B(  2-C , 15-H ) :   0.9601 B(  3-C ,  4-C ) :   1.3896 B(  3-C , 11-C ) :   1.1112
B(  4-C ,  5-C ) :   1.3912 B(  4-C ,  7-C ) :   1.1142 B(  5-C ,  6-H ) :   0.9599
B(  7-C ,  8-H ) :   0.9395 B(  7-C ,  9-H ) :   0.9252 B(  7-C , 10-H ) :   0.9252
B( 11-C , 12-H ) :   0.9255 B( 11-C , 13-H ) :   0.9256 B( 11-C , 14-H ) :   0.9394
B( 16-C , 17-C ) :   1.9629 B( 16-C , 20-H ) :   0.9347 B( 17-C , 18-H ) :   0.9077
B( 17-C , 19-H ) :   0.9213

Dispersion correction           -0.020176289
FINAL SINGLE POINT ENERGY      -387.536258422406

DIPOLE MOMENT
-------------

Method             : SCF
Type of density    : Electron Density
Multiplicity       :   1
Irrep              :   0
Energy             :  -387.5160821335566652 Eh
Relativity type    :
Basis              : AO
                                X                 Y                 Z
Electronic contribution:      4.082896304      -1.072590763      -0.000414737
Nuclear contribution   :     -4.613025668       1.151670622       0.000624769
                        -----------------------------------------
Total Dipole Moment    :     -0.530129364       0.079079860       0.000210032
                        -----------------------------------------
Magnitude (a.u.)       :      0.535995160
Magnitude (Debye)      :      1.362391425

VIBRATIONAL FREQUENCIES
-----------------------

Scaling factor for frequencies =  1.000000000  (already applied!)

     0:       0.00 cm**-1
     1:       0.00 cm**-1
     2:       0.00 cm**-1
     3:       0.00 cm**-1
     4:       0.00 cm**-1
     5:       0.00 cm**-1
     6:      43.85 cm**-1
     7:     117.67 cm**-1
     8:     132.51 cm**-1
     9:     167.97 cm**-1
    10:     200.08 cm**-1
    11:     215.69 cm**-1
    12:     302.35 cm**-1
    13:     313.00 cm**-1
    14:     377.78 cm**-1
    15:     433.39 cm**-1
    16:     451.51 cm**-1
    17:     524.44 cm**-1
    18:     541.68 cm**-1
    19:     578.00 cm**-1
    20:     687.24 cm**-1
    21:     726.07 cm**-1
    22:     760.21 cm**-1
    23:     774.50 cm**-1
    24:     851.36 cm**-1
    25:     921.86 cm**-1
    26:     931.32 cm**-1
    27:     948.69 cm**-1
    28:     987.38 cm**-1
    29:    1009.54 cm**-1
    30:    1013.75 cm**-1
    31:    1036.09 cm**-1
    32:    1043.77 cm**-1
    33:    1056.08 cm**-1
    34:    1073.61 cm**-1
    35:    1146.10 cm**-1
    36:    1194.19 cm**-1
    37:    1241.16 cm**-1
    38:    1287.98 cm**-1
    39:    1314.36 cm**-1
    40:    1321.24 cm**-1
    41:    1380.18 cm**-1
    42:    1397.20 cm**-1
    43:    1403.81 cm**-1
    44:    1425.08 cm**-1
    45:    1441.41 cm**-1
    46:    1442.91 cm**-1
    47:    1451.70 cm**-1
    48:    1459.43 cm**-1
    49:    1484.37 cm**-1
    50:    1558.65 cm**-1
    51:    1648.49 cm**-1
    52:    1697.16 cm**-1
    53:    1725.34 cm**-1
    54:    3027.01 cm**-1
    55:    3029.27 cm**-1
    56:    3102.51 cm**-1
    57:    3107.61 cm**-1
    58:    3142.42 cm**-1
    59:    3142.58 cm**-1
    60:    3156.23 cm**-1
    61:    3164.39 cm**-1
    62:    3181.93 cm**-1
    63:    3189.94 cm**-1
    64:    3210.33 cm**-1
    65:    3245.32 cm**-1

IR SPECTRUM
-----------

 Mode   freq       eps      Int      T**2         TX        TY        TZ
       cm**-1   L/(mol*cm) km/mol    a.u.
----------------------------------------------------------------------------
  6:     43.85   0.000032    0.16  0.000230  ( 0.000090 -0.000008  0.015173)
  7:    117.67   0.000018    0.09  0.000047  ( 0.000260  0.000136 -0.006885)
  8:    132.51   0.000384    1.94  0.000904  ( 0.000060 -0.000114 -0.030067)
  9:    167.97   0.000293    1.48  0.000545  (-0.000052  0.000360  0.023335)
 10:    200.08   0.000208    1.05  0.000325  (-0.012727  0.012768  0.000406)
 11:    215.69   0.000925    4.67  0.001338  (-0.000083  0.000317 -0.036581)
 12:    302.35   0.000184    0.93  0.000190  ( 0.013656 -0.001785 -0.000021)
 13:    313.00   0.000086    0.44  0.000086  ( 0.000067  0.000055  0.009269)
 14:    377.78   0.000352    1.78  0.000290  (-0.012625 -0.011448  0.000010)
 15:    433.39   0.000553    2.79  0.000398  ( 0.019901 -0.001376  0.000103)
 16:    451.51   0.002443   12.35  0.001689  (-0.000152 -0.000136  0.041092)
 17:    524.44   0.001549    7.83  0.000922  (-0.000162  0.000056  0.030356)
 18:    541.68   0.000452    2.28  0.000260  (-0.012945  0.009620 -0.000175)
 19:    578.00   0.000355    1.79  0.000192  (-0.013243 -0.004043 -0.000062)
 20:    687.24   0.000077    0.39  0.000035  ( 0.000045 -0.000011  0.005909)
 21:    726.07   0.000146    0.74  0.000063  ( 0.007908 -0.000404  0.000069)
 22:    760.21   0.000762    3.85  0.000313  (-0.000182  0.000054  0.017689)
 23:    774.50   0.000072    0.37  0.000029  ( 0.005357  0.000685  0.000047)
 24:    851.36   0.006065   30.65  0.002223  ( 0.000081  0.000087 -0.047148)
 25:    921.86   0.009220   46.59  0.003121  (-0.000060 -0.000058  0.055867)
 26:    931.32   0.007183   36.30  0.002407  (-0.000130 -0.000049 -0.049058)
 27:    948.69   0.000098    0.50  0.000032  ( 0.002828 -0.004924 -0.000094)
 28:    987.38   0.000270    1.37  0.000085  (-0.000158  0.000326  0.009237)
 29:   1009.54   0.006340   32.04  0.001960  (-0.043894  0.005749  0.000284)
 30:   1013.75   0.001156    5.84  0.000356  (-0.017956  0.005779 -0.000221)
 31:   1036.09   0.004027   20.35  0.001213  ( 0.000058  0.000435 -0.034823)
 32:   1043.77   0.004589   23.19  0.001372  ( 0.000067 -0.000070  0.037040)
 33:   1056.08   0.000841    4.25  0.000249  ( 0.011206  0.011085  0.000246)
 34:   1073.61   0.000008    0.04  0.000002  (-0.000217  0.000071  0.001545)
 35:   1146.10   0.001899    9.60  0.000517  (-0.009688 -0.020571 -0.000023)
 36:   1194.19   0.000696    3.52  0.000182  ( 0.011662 -0.006767  0.000038)
 37:   1241.16   0.000237    1.20  0.000060  ( 0.007554 -0.001589  0.000044)
 38:   1287.98   0.001819    9.19  0.000441  (-0.020134  0.005948 -0.000020)
 39:   1314.36   0.002441   12.34  0.000580  (-0.024067  0.000563 -0.000003)
 40:   1321.24   0.000225    1.14  0.000053  ( 0.001849 -0.007054  0.000025)
 41:   1380.18   0.001682    8.50  0.000380  (-0.019488 -0.000790 -0.000018)
 42:   1397.20   0.000188    0.95  0.000042  (-0.004936 -0.004197 -0.000232)
 43:   1403.81   0.000160    0.81  0.000036  ( 0.000869 -0.005907  0.000008)
 44:   1425.08   0.000021    0.11  0.000005  ( 0.001548 -0.001494 -0.000227)
 45:   1441.41   0.000015    0.08  0.000003  (-0.000287 -0.001768 -0.000233)
 46:   1442.91   0.003211   16.23  0.000694  (-0.003925 -0.026058 -0.000222)
 47:   1451.70   0.006412   32.41  0.001378  ( 0.000008 -0.000458  0.037125)
 48:   1459.43   0.000667    3.37  0.000143  (-0.007288  0.009445  0.000590)
 49:   1484.37   0.004352   21.99  0.000915  (-0.011317 -0.028051  0.000010)
 50:   1558.65   0.010361   52.36  0.002074  ( 0.045327 -0.004464  0.000002)
 51:   1648.49   0.001530    7.73  0.000290  (-0.012855  0.011149  0.000001)
 52:   1697.16   0.001344    6.79  0.000247  ( 0.002027 -0.015591  0.000009)
 53:   1725.34   0.005191   26.23  0.000939  ( 0.030201 -0.005183 -0.000000)
 54:   3027.01   0.010838   54.77  0.001117  ( 0.033083 -0.004773  0.000018)
 55:   3029.27   0.002207   11.15  0.000227  (-0.001962  0.014951  0.000054)
 56:   3102.51   0.004928   24.91  0.000496  ( 0.000022  0.000003  0.022264)
 57:   3107.61   0.000113    0.57  0.000011  ( 0.000048 -0.000009  0.003375)
 58:   3142.42   0.000200    1.01  0.000020  (-0.003276  0.003016 -0.000003)
 59:   3142.58   0.006808   34.41  0.000676  (-0.007181 -0.024990 -0.000035)
 60:   3156.23   0.003070   15.51  0.000304  ( 0.003048  0.017153  0.000014)
 61:   3164.39   0.001698    8.58  0.000167  (-0.010211 -0.007952 -0.000020)
 62:   3181.93   0.005077   25.66  0.000498  (-0.005739 -0.021563 -0.000045)
 63:   3189.94   0.002513   12.70  0.000246  (-0.011548 -0.010608 -0.000051)
 64:   3210.33   0.002674   13.51  0.000260  ( 0.005969 -0.014977 -0.000018)
 65:   3245.32   0.001243    6.28  0.000119  ( 0.005518  0.009436 -0.000003)

--------------------------
THERMOCHEMISTRY AT 298.15K
--------------------------

Temperature         ...   298.15 K
Pressure            ...     1.00 atm
Total Mass          ...   132.21 AMU
Quasi RRHO          ...     True
Cut-Off Frequency   ...     1.00 cm^-1

Throughout the following assumptions are being made:
  (1) The electronic state is orbitally nondegenerate
  (2) There are no thermally accessible electronically excited states
  (3) Hindered rotations indicated by low frequency modes are not
      treated as such but are treated as vibrations and this may
      cause some error
  (4) All equations used are the standard statistical mechanics
      equations for an ideal gas
  (5) All vibrations are strictly harmonic

freq.      43.85  E(vib)   ...       0.53
freq.     117.67  E(vib)   ...       0.44
freq.     132.51  E(vib)   ...       0.42
freq.     167.97  E(vib)   ...       0.38
freq.     200.08  E(vib)   ...       0.35
freq.     215.69  E(vib)   ...       0.34
freq.     302.35  E(vib)   ...       0.26
freq.     313.00  E(vib)   ...       0.25
freq.     377.78  E(vib)   ...       0.21
freq.     433.39  E(vib)   ...       0.17
freq.     451.51  E(vib)   ...       0.16
freq.     524.44  E(vib)   ...       0.13
freq.     541.68  E(vib)   ...       0.12
freq.     578.00  E(vib)   ...       0.11
freq.     687.24  E(vib)   ...       0.07
freq.     726.07  E(vib)   ...       0.06
freq.     760.21  E(vib)   ...       0.06
freq.     774.50  E(vib)   ...       0.05
freq.     851.36  E(vib)   ...       0.04
freq.     921.86  E(vib)   ...       0.03
freq.     931.32  E(vib)   ...       0.03
freq.     948.69  E(vib)   ...       0.03
freq.     987.38  E(vib)   ...       0.02
freq.    1009.54  E(vib)   ...       0.02
freq.    1013.75  E(vib)   ...       0.02
freq.    1036.09  E(vib)   ...       0.02
freq.    1043.77  E(vib)   ...       0.02
freq.    1056.08  E(vib)   ...       0.02
freq.    1073.61  E(vib)   ...       0.02
freq.    1146.10  E(vib)   ...       0.01
freq.    1194.19  E(vib)   ...       0.01
freq.    1241.16  E(vib)   ...       0.01
freq.    1287.98  E(vib)   ...       0.01
freq.    1314.36  E(vib)   ...       0.01
freq.    1321.24  E(vib)   ...       0.01
freq.    1380.18  E(vib)   ...       0.01
freq.    1397.20  E(vib)   ...       0.00
freq.    1403.81  E(vib)   ...       0.00
freq.    1425.08  E(vib)   ...       0.00
freq.    1441.41  E(vib)   ...       0.00
freq.    1442.91  E(vib)   ...       0.00
freq.    1451.70  E(vib)   ...       0.00
freq.    1459.43  E(vib)   ...       0.00
freq.    1484.37  E(vib)   ...       0.00
freq.    1558.65  E(vib)   ...       0.00
freq.    1648.49  E(vib)   ...       0.00
freq.    1697.16  E(vib)   ...       0.00
freq.    1725.34  E(vib)   ...       0.00
freq.    3027.01  E(vib)   ...       0.00
freq.    3029.27  E(vib)   ...       0.00
freq.    3102.51  E(vib)   ...       0.00
freq.    3107.61  E(vib)   ...       0.00
freq.    3142.42  E(vib)   ...       0.00
freq.    3142.58  E(vib)   ...       0.00
freq.    3156.23  E(vib)   ...       0.00
freq.    3164.39  E(vib)   ...       0.00
freq.    3181.93  E(vib)   ...       0.00
freq.    3189.94  E(vib)   ...       0.00
freq.    3210.33  E(vib)   ...       0.00
freq.    3245.32  E(vib)   ...       0.00

------------
INNER ENERGY
------------

The inner energy is: U= E(el) + E(ZPE) + E(vib) + E(rot) + E(trans)
    E(el)   - is the total energy from the electronic structure calculation
              = E(kin-el) + E(nuc-el) + E(el-el) + E(nuc-nuc)
    E(ZPE)  - the the zero temperature vibrational energy from the frequency calculation
    E(vib)  - the the finite temperature correction to E(ZPE) due to population
              of excited vibrational states
    E(rot)  - is the rotational thermal energy
    E(trans)- is the translational thermal energy

Summary of contributions to the inner energy U:
Electronic energy                ...   -387.53625842 Eh
Zero point energy                ...      0.18895508 Eh     118.57 kcal/mol
Thermal vibrational correction   ...      0.00719016 Eh       4.51 kcal/mol
Thermal rotational correction    ...      0.00141627 Eh       0.89 kcal/mol
Thermal translational correction ...      0.00141627 Eh       0.89 kcal/mol
-----------------------------------------------------------------------
Total thermal energy                   -387.33728064 Eh

Summary of corrections to the electronic energy:
(perhaps to be used in another calculation)
Total thermal correction                  0.01002270 Eh       6.29 kcal/mol
Non-thermal (ZPE) correction              0.18895508 Eh     118.57 kcal/mol
-----------------------------------------------------------------------
Total correction                          0.19897778 Eh     124.86 kcal/mol

--------
ENTHALPY
--------

The enthalpy is H = U + kB*T
                kB is Boltzmann's constant
Total thermal energy              ...   -387.33728064 Eh
Thermal Enthalpy correction       ...      0.00094421 Eh       0.59 kcal/mol
-----------------------------------------------------------------------
Total Enthalpy                    ...   -387.33633643 Eh

Note: Only C1 symmetry has been detected, increase convergence thresholds
      if your molecule has a higher symmetry. Symmetry factor of 1.0 is
      used for the rotational entropy correction.

Note: Rotational entropy computed according to Herzberg
Infrared and Raman Spectra, Chapter V,1, Van Nostrand Reinhold, 1945
Point Group:  C1, Symmetry Number:   1
Rotational constants in cm-1:     0.097253     0.028558     0.022260

Vibrational entropy computed according to the QRRHO of S. Grimme
Chem.Eur.J. 2012 18 9955 using a reference frequency of 100.0 cm-1

-------
ENTROPY
-------

The entropy contributions are T*S = T*(S(el)+S(vib)+S(rot)+S(trans))
     S(el)   - electronic entropy
     S(vib)  - vibrational entropy
     S(rot)  - rotational entropy
     S(trans)- translational entropy
The entropies will be listed as multiplied by the temperature to get
units of energy

Electronic entropy                ...      0.00000000 Eh      0.00 kcal/mol
Vibrational entropy               ...      0.01224966 Eh      7.69 kcal/mol
Rotational entropy                ...      0.01408593 Eh      8.84 kcal/mol
Translational entropy             ...      0.01926665 Eh     12.09 kcal/mol
-----------------------------------------------------------------------
Final entropy term                ...      0.04560224 Eh     28.62 kcal/mol

In case the symmetry of your molecule has not been determined correctly
or in case you have a reason to use a different symmetry number we print
out the resulting rotational entropy values for sn=1,12:

 non-linear molecules -----------------------------------

                             ****ORCA TERMINATED NORMALLY****
TOTAL RUN TIME: 0 days 0 hours 7 minutes 40 seconds 528 msec
