                         Program Version 6.0.0  -   RELEASE  -
|  1> !PBE0 def2-SV(p) Opt Freq d3 TightSCF SlowConv RIJCOSX defgrid2
|  2>
|  3> %pal
|  4> nprocs 15
|  5> end
|  6>
|  7> %scf
|  8> MaxIter 1500
|  9> end
| 10>
| 11> %maxcore 3500
| 12>
| 13>
| 14>
| 15> * xyz 0 1
| 16> C        0.000000000      0.000000000      0.000000000
| 17> C       -1.156068693     -0.354690359      0.698164000
| 18> C        1.156068693      0.354690359      0.698164000
| 19> H       -2.055493799     -0.630640582      0.154991000
| 20> H        2.055493799      0.630640582      0.154991000
| 21> C       -1.156068693     -0.354690359      2.094494000
| 22> C        1.156068693      0.354690359      2.094494000
| 23> H       -2.055493799     -0.630640582      2.637667000
| 24> C        0.000000000      0.000000000      2.792658000
| 25> O        0.000000000      0.000000000      4.232658000
| 26> O        0.000000000      0.000000000     -1.440000000
| 27> C        2.431088542      0.745875806      2.864492916
| 28> H        2.235735560      0.838618630      3.938897139
| 29> H        3.220502752     -0.003410109      2.736027487
| 30> H        2.828114929      1.706492884      2.517083147
| 31> *
| 32>
| 33>                          ****END OF INPUT****
 Total Charge           Charge          ....    0
 Multiplicity           Mult            ....    1
 Number of Electrons    NEL             ....   64
Dispersion correction           -0.013253519
FINAL SINGLE POINT ENERGY      -419.879866940239
Dispersion correction             ... done (  0.1 sec)
Dispersion correction           -0.013329730
FINAL SINGLE POINT ENERGY      -419.944570622561
Dispersion correction             ... done (  0.1 sec)
Dispersion correction           -0.013386244
FINAL SINGLE POINT ENERGY      -419.979077183549
Dispersion correction             ... done (  0.1 sec)
FINAL SINGLE POINT ENERGY      -419.983995328366
FINAL SINGLE POINT ENERGY      -419.985191239938
FINAL SINGLE POINT ENERGY      -419.985351176925
FINAL SINGLE POINT ENERGY      -419.985528505162
FINAL SINGLE POINT ENERGY      -419.985889806147
FINAL SINGLE POINT ENERGY      -419.986220471797
FINAL SINGLE POINT ENERGY      -419.986731227121
FINAL SINGLE POINT ENERGY      -419.987018007148
FINAL SINGLE POINT ENERGY      -419.987087966420
FINAL SINGLE POINT ENERGY      -419.987121585682
Dispersion correction             ... done (  0.1 sec)
Dispersion correction           -0.013334289
FINAL SINGLE POINT ENERGY      -419.987127006217
Dispersion correction             ... done (  0.1 sec)
Dispersion correction           -0.013335912
FINAL SINGLE POINT ENERGY      -419.987127893601
Dispersion correction             ... done (  0.1 sec)
                    ***********************HURRAY********************

CARTESIAN COORDINATES (ANGSTROEM)
---------------------------------
  C     -0.040230    0.109342   -0.047814
  C     -1.205989   -0.385795    0.725351
  C      1.167627    0.483209    0.716605
  H     -2.089777   -0.658041    0.140471
  H      2.009338    0.843384    0.116445
  C     -1.157296   -0.485480    2.062197
  C      1.239941    0.391626    2.059742
  H     -1.998569   -0.846308    2.661595
  C      0.055508   -0.107880    2.825466
  O      0.088241   -0.200663    4.036115
  O     -0.082378    0.202013   -1.258895
  C      2.439390    0.759104    2.864431
  H      2.185643    1.544099    3.598041
  H      2.789118   -0.106959    3.452986
  H      3.259381    1.115284    2.222046

 Multiplicity           Mult            ....    1
 Number of Electrons    NEL             ....   64
 Basis Dimension        Dim             ....  138

ORBITAL ENERGIES
----------------

  NO   OCC          E(Eh)            E(eV)
   0   2.0000     -19.227130      -523.1968
   1   2.0000     -19.221432      -523.0418
   2   2.0000     -10.342771      -281.4411
   3   2.0000     -10.339252      -281.3453
   4   2.0000     -10.282245      -279.7941
   5   2.0000     -10.273329      -279.5515
   6   2.0000     -10.272560      -279.5306
   7   2.0000     -10.264816      -279.3199
   8   2.0000     -10.244086      -278.7558
   9   2.0000      -1.085850       -29.5475
  10   2.0000      -1.079196       -29.3664
  11   2.0000      -0.884040       -24.0560
  12   2.0000      -0.825483       -22.4625
  13   2.0000      -0.746440       -20.3117
  14   2.0000      -0.707731       -19.2583
  15   2.0000      -0.644820       -17.5464
  16   2.0000      -0.606356       -16.4998
  17   2.0000      -0.543251       -14.7826
  18   2.0000      -0.518494       -14.1089
  19   2.0000      -0.491089       -13.3632
  20   2.0000      -0.475599       -12.9417
  21   2.0000      -0.466185       -12.6855
  22   2.0000      -0.454179       -12.3588
  23   2.0000      -0.441662       -12.0182
  24   2.0000      -0.438312       -11.9271
  25   2.0000      -0.422243       -11.4898
  26   2.0000      -0.417353       -11.3567
  27   2.0000      -0.406047       -11.0491
  28   2.0000      -0.320587        -8.7236
  29   2.0000      -0.304497        -8.2858
  30   2.0000      -0.296036        -8.0556
  31   2.0000      -0.283146        -7.7048
  32   0.0000      -0.126115        -3.4318
  33   0.0000      -0.021423        -0.5829
  34   0.0000       0.017676         0.4810
  35   0.0000       0.078050         2.1239
  36   0.0000       0.081375         2.2143

MULLIKEN ATOMIC CHARGES
-----------------------
   0 C :    0.210180
   1 C :   -0.125981
   2 C :   -0.214135
   3 H :    0.123672
   4 H :    0.106265
   5 C :   -0.120992
   6 C :   -0.064775
   7 H :    0.121767
   8 C :    0.183564
   9 O :   -0.190443
  10 O :   -0.201182
  11 C :   -0.282683
  12 H :    0.158892
  13 H :    0.158730
  14 H :    0.137121
Sum of atomic charges:    0.0000000

LOEWDIN ATOMIC CHARGES
----------------------
   0 C :    0.052381
   1 C :   -0.114066
   2 C :   -0.132024
   3 H :    0.147794
   4 H :    0.143875
   5 C :   -0.119261
   6 C :   -0.049055
   7 H :    0.147833
   8 C :    0.064391
   9 O :   -0.121601
  10 O :   -0.123873
  11 C :   -0.324632
  12 H :    0.147827
  13 H :    0.147768
  14 H :    0.132642

  Mayer bond orders larger than 0.100000
B(  0-C ,  1-C ) :   1.0042 B(  0-C ,  2-C ) :   1.0041 B(  0-C , 10-O ) :   2.0173
B(  1-C ,  3-H ) :   0.9551 B(  1-C ,  5-C ) :   1.6858 B(  2-C ,  4-H ) :   0.9566
B(  2-C ,  6-C ) :   1.6975 B(  5-C ,  7-H ) :   0.9541 B(  5-C ,  8-C ) :   1.0242
B(  6-C ,  8-C ) :   0.9512 B(  6-C , 11-C ) :   1.0942 B(  8-C ,  9-O ) :   2.0812
B( 11-C , 12-H ) :   0.9269 B( 11-C , 13-H ) :   0.9270 B( 11-C , 14-H ) :   0.9456

Dispersion correction           -0.013336123
FINAL SINGLE POINT ENERGY      -419.987128102909

DIPOLE MOMENT
-------------

Method             : SCF
Type of density    : Electron Density
Multiplicity       :   1
Irrep              :   0
Energy             :  -419.9737919800401187 Eh
Relativity type    :
Basis              : AO
                                X                 Y                 Z
Electronic contribution:     -3.929955143      -1.223685915      -2.381017458
Nuclear contribution   :      4.092101562       1.259935150       2.614157328
                        -----------------------------------------
Total Dipole Moment    :      0.162146419       0.036249235       0.233139869
                        -----------------------------------------
Magnitude (a.u.)       :      0.286285988
Magnitude (Debye)      :      0.727681151

VIBRATIONAL FREQUENCIES
-----------------------

Scaling factor for frequencies =  1.000000000  (already applied!)

     0:       0.00 cm**-1
     1:       0.00 cm**-1
     2:       0.00 cm**-1
     3:       0.00 cm**-1
     4:       0.00 cm**-1
     5:       0.00 cm**-1
     6:      89.73 cm**-1
     7:     134.91 cm**-1
     8:     184.41 cm**-1
     9:     266.98 cm**-1
    10:     289.81 cm**-1
    11:     398.05 cm**-1
    12:     407.27 cm**-1
    13:     442.59 cm**-1
    14:     487.10 cm**-1
    15:     593.43 cm**-1
    16:     597.38 cm**-1
    17:     701.15 cm**-1
    18:     779.56 cm**-1
    19:     807.48 cm**-1
    20:     836.37 cm**-1
    21:     906.06 cm**-1
    22:     939.67 cm**-1
    23:    1015.15 cm**-1
    24:    1036.54 cm**-1
    25:    1061.15 cm**-1
    26:    1106.22 cm**-1
    27:    1165.90 cm**-1
    28:    1232.26 cm**-1
    29:    1327.32 cm**-1
    30:    1371.75 cm**-1
    31:    1400.74 cm**-1
    32:    1427.66 cm**-1
    33:    1452.76 cm**-1
    34:    1459.42 cm**-1
    35:    1705.61 cm**-1
    36:    1741.15 cm**-1
    37:    1813.03 cm**-1
    38:    1813.28 cm**-1
    39:    3048.17 cm**-1
    40:    3129.78 cm**-1
    41:    3163.59 cm**-1
    42:    3205.30 cm**-1
    43:    3208.05 cm**-1
    44:    3226.38 cm**-1

IR SPECTRUM
-----------

 Mode   freq       eps      Int      T**2         TX        TY        TZ
       cm**-1   L/(mol*cm) km/mol    a.u.
----------------------------------------------------------------------------
  6:     89.73   0.002148   10.86  0.007471  (-0.029694  0.080864  0.007092)
  7:    134.91   0.000016    0.08  0.000038  ( 0.002100 -0.005775 -0.000495)
  8:    184.41   0.000079    0.40  0.000134  ( 0.003942 -0.010839 -0.001070)
  9:    266.98   0.000040    0.20  0.000047  (-0.002289  0.006414  0.000618)
 10:    289.81   0.000129    0.65  0.000139  ( 0.008955  0.003851 -0.006617)
 11:    398.05   0.000187    0.95  0.000147  (-0.004034  0.011381  0.000999)
 12:    407.27   0.003967   20.05  0.003039  ( 0.051759  0.018577  0.003904)
 13:    442.59   0.001156    5.84  0.000815  (-0.026803 -0.009650 -0.001811)
 14:    487.10   0.000116    0.59  0.000074  (-0.007849 -0.003047  0.001864)
 15:    593.43   0.000089    0.45  0.000047  (-0.006206 -0.002114 -0.001948)
 16:    597.38   0.000000    0.00  0.000000  (-0.000237  0.000125 -0.000067)
 17:    701.15   0.000515    2.60  0.000229  ( 0.009834  0.004541 -0.010571)
 18:    779.56   0.000118    0.59  0.000047  (-0.004405 -0.001187 -0.005121)
 19:    807.48   0.000290    1.47  0.000112  ( 0.003629 -0.009902 -0.000940)
 20:    836.37   0.002972   15.02  0.001109  (-0.011437  0.031166  0.002634)
 21:    906.06   0.002122   10.72  0.000731  ( 0.009863  0.005748 -0.024503)
 22:    939.67   0.008667   43.80  0.002878  (-0.018355  0.050215  0.004453)
 23:   1015.15   0.003431   17.34  0.001055  (-0.019066 -0.004655 -0.025875)
 24:   1036.54   0.000001    0.00  0.000000  ( 0.000149 -0.000348 -0.000089)
 25:   1061.15   0.000820    4.14  0.000241  (-0.005226  0.014556  0.001382)
 26:   1106.22   0.006237   31.52  0.001759  (-0.038996 -0.013578 -0.007379)
 27:   1165.90   0.001350    6.82  0.000361  ( 0.005147  0.000276  0.018298)
 28:   1232.26   0.000361    1.83  0.000091  (-0.004059 -0.002225  0.008371)
 29:   1327.32   0.016187   81.80  0.003806  ( 0.056934  0.019634  0.013372)
 30:   1371.75   0.007523   38.02  0.001711  ( 0.037478  0.014544 -0.009757)
 31:   1400.74   0.001239    6.26  0.000276  ( 0.003177 -0.000295  0.016308)
 32:   1427.66   0.001310    6.62  0.000286  (-0.002961  0.000443 -0.016653)
 33:   1452.76   0.002416   12.21  0.000519  ( 0.007764 -0.021327 -0.001935)
 34:   1459.42   0.002904   14.68  0.000621  ( 0.008180  0.005019 -0.022998)
 35:   1705.61   0.006933   35.03  0.001268  (-0.031682 -0.010503 -0.012425)
 36:   1741.15   0.001653    8.35  0.000296  (-0.011863 -0.003309 -0.012025)
 37:   1813.03   0.018949   95.76  0.003262  (-0.008088  0.002108 -0.056495)
 38:   1813.28   0.057940  292.81  0.009971  ( 0.003740 -0.007310  0.099519)
 39:   3048.17   0.000798    4.03  0.000082  ( 0.008249  0.002819  0.002385)
 40:   3129.78   0.000237    1.20  0.000024  (-0.001703  0.004536  0.000386)
 41:   3163.59   0.001110    5.61  0.000109  ( 0.009542  0.003620 -0.002300)
 42:   3205.30   0.000479    2.42  0.000047  (-0.005778 -0.002328  0.002794)
 43:   3208.05   0.000104    0.52  0.000010  ( 0.000676 -0.000033  0.003100)
 44:   3226.38   0.000195    0.99  0.000019  (-0.004085 -0.001425 -0.000418)

--------------------------
THERMOCHEMISTRY AT 298.15K
--------------------------

Temperature         ...   298.15 K
Pressure            ...     1.00 atm
Total Mass          ...   122.12 AMU
Quasi RRHO          ...     True
Cut-Off Frequency   ...     1.00 cm^-1

Throughout the following assumptions are being made:
  (1) The electronic state is orbitally nondegenerate
  (2) There are no thermally accessible electronically excited states
  (3) Hindered rotations indicated by low frequency modes are not
      treated as such but are treated as vibrations and this may
      cause some error
  (4) All equations used are the standard statistical mechanics
      equations for an ideal gas
  (5) All vibrations are strictly harmonic

freq.      89.73  E(vib)   ...       0.47
freq.     134.91  E(vib)   ...       0.42
freq.     184.41  E(vib)   ...       0.37
freq.     266.98  E(vib)   ...       0.29
freq.     289.81  E(vib)   ...       0.27
freq.     398.05  E(vib)   ...       0.20
freq.     407.27  E(vib)   ...       0.19
freq.     442.59  E(vib)   ...       0.17
freq.     487.10  E(vib)   ...       0.15
freq.     593.43  E(vib)   ...       0.10
freq.     597.38  E(vib)   ...       0.10
freq.     701.15  E(vib)   ...       0.07
freq.     779.56  E(vib)   ...       0.05
freq.     807.48  E(vib)   ...       0.05
freq.     836.37  E(vib)   ...       0.04
freq.     906.06  E(vib)   ...       0.03
freq.     939.67  E(vib)   ...       0.03
freq.    1015.15  E(vib)   ...       0.02
freq.    1036.54  E(vib)   ...       0.02
freq.    1061.15  E(vib)   ...       0.02
freq.    1106.22  E(vib)   ...       0.02
freq.    1165.90  E(vib)   ...       0.01
freq.    1232.26  E(vib)   ...       0.01
freq.    1327.32  E(vib)   ...       0.01
freq.    1371.75  E(vib)   ...       0.01
freq.    1400.74  E(vib)   ...       0.00
freq.    1427.66  E(vib)   ...       0.00
freq.    1452.76  E(vib)   ...       0.00
freq.    1459.42  E(vib)   ...       0.00
freq.    1705.61  E(vib)   ...       0.00
freq.    1741.15  E(vib)   ...       0.00
freq.    1813.03  E(vib)   ...       0.00
freq.    1813.28  E(vib)   ...       0.00
freq.    3048.17  E(vib)   ...       0.00
freq.    3129.78  E(vib)   ...       0.00
freq.    3163.59  E(vib)   ...       0.00
freq.    3205.30  E(vib)   ...       0.00
freq.    3208.05  E(vib)   ...       0.00
freq.    3226.38  E(vib)   ...       0.00

------------
INNER ENERGY
------------

The inner energy is: U= E(el) + E(ZPE) + E(vib) + E(rot) + E(trans)
    E(el)   - is the total energy from the electronic structure calculation
              = E(kin-el) + E(nuc-el) + E(el-el) + E(nuc-nuc)
    E(ZPE)  - the the zero temperature vibrational energy from the frequency calculation
    E(vib)  - the the finite temperature correction to E(ZPE) due to population
              of excited vibrational states
    E(rot)  - is the rotational thermal energy
    E(trans)- is the translational thermal energy

Summary of contributions to the inner energy U:
Electronic energy                ...   -419.98712810 Eh
Zero point energy                ...      0.11384722 Eh      71.44 kcal/mol
Thermal vibrational correction   ...      0.00499447 Eh       3.13 kcal/mol
Thermal rotational correction    ...      0.00141627 Eh       0.89 kcal/mol
Thermal translational correction ...      0.00141627 Eh       0.89 kcal/mol
-----------------------------------------------------------------------
Total thermal energy                   -419.86545387 Eh

Summary of corrections to the electronic energy:
(perhaps to be used in another calculation)
Total thermal correction                  0.00782702 Eh       4.91 kcal/mol
Non-thermal (ZPE) correction              0.11384722 Eh      71.44 kcal/mol
-----------------------------------------------------------------------
Total correction                          0.12167423 Eh      76.35 kcal/mol

--------
ENTHALPY
--------

The enthalpy is H = U + kB*T
                kB is Boltzmann's constant
Total thermal energy              ...   -419.86545387 Eh
Thermal Enthalpy correction       ...      0.00094421 Eh       0.59 kcal/mol
-----------------------------------------------------------------------
Total Enthalpy                    ...   -419.86450966 Eh

Note: Only C1 symmetry has been detected, increase convergence thresholds
      if your molecule has a higher symmetry. Symmetry factor of 1.0 is
      used for the rotational entropy correction.

Note: Rotational entropy computed according to Herzberg
Infrared and Raman Spectra, Chapter V,1, Van Nostrand Reinhold, 1945
Point Group:  C1, Symmetry Number:   1
Rotational constants in cm-1:     0.099449     0.047883     0.032517

Vibrational entropy computed according to the QRRHO of S. Grimme
Chem.Eur.J. 2012 18 9955 using a reference frequency of 100.0 cm-1

-------
ENTROPY
-------

The entropy contributions are T*S = T*(S(el)+S(vib)+S(rot)+S(trans))
     S(el)   - electronic entropy
     S(vib)  - vibrational entropy
     S(rot)  - rotational entropy
     S(trans)- translational entropy
The entropies will be listed as multiplied by the temperature to get
units of energy

Electronic entropy                ...      0.00000000 Eh      0.00 kcal/mol
Vibrational entropy               ...      0.00828405 Eh      5.20 kcal/mol
Rotational entropy                ...      0.01365251 Eh      8.57 kcal/mol
Translational entropy             ...      0.01915430 Eh     12.02 kcal/mol
-----------------------------------------------------------------------
Final entropy term                ...      0.04109085 Eh     25.78 kcal/mol

In case the symmetry of your molecule has not been determined correctly
or in case you have a reason to use a different symmetry number we print
out the resulting rotational entropy values for sn=1,12:

 non-linear molecules -----------------------------------
|  sn= 1 | S(rot)=       0.01365251 Eh      8.57 kcal/mol|
|  sn= 2 | S(rot)=       0.01299805 Eh      8.16 kcal/mol|
|  sn= 3 | S(rot)=       0.01261522 Eh      7.92 kcal/mol|
|  sn= 4 | S(rot)=       0.01234360 Eh      7.75 kcal/mol|
|  sn= 5 | S(rot)=       0.01213291 Eh      7.61 kcal/mol|
|  sn= 6 | S(rot)=       0.01196076 Eh      7.51 kcal/mol|
|  sn= 7 | S(rot)=       0.01181522 Eh      7.41 kcal/mol|
|  sn= 8 | S(rot)=       0.01168914 Eh      7.34 kcal/mol|
|  sn= 9 | S(rot)=       0.01157793 Eh      7.27 kcal/mol|
|  sn=10 | S(rot)=       0.01147845 Eh      7.20 kcal/mol|
|  sn=11 | S(rot)=       0.01138846 Eh      7.15 kcal/mol|
|  sn=12 | S(rot)=       0.01130631 Eh      7.09 kcal/mol|
 linear molecules ---------------------------------------
|  Dinfh | S(rot)=       0.00856057 Eh      5.37 kcal/mol|
|  Cinfv | S(rot)=       0.00921503 Eh      5.78 kcal/mol|
 --------------------------------------------------------

-------------------
GIBBS FREE ENERGY
-------------------

                             ****ORCA TERMINATED NORMALLY****
TOTAL RUN TIME: 0 days 0 hours 22 minutes 3 seconds 625 msec
