                         Program Version 6.0.0  -   RELEASE  -
|  1> !PBE0 aug-cc-pVTZ d3 TightSCF SlowConv RIJCOSX defgrid2
|  2>
|  3> %pal
|  4> nprocs 15
|  5> end
|  6>
|  7> %scf
|  8> MaxIter 1500
|  9> end
| 10>
| 11> %maxcore 3500
| 12>
| 13> !CPCM
| 14> %cpcm smd true
| 15> SMDsolvent "WATER"
| 16> surfacetype gepol_ses
| 17> rsolv 1.40
| 18> end
| 19>
| 20> * xyz 0 1
| 21> C          -0.05907366598530     -0.02793506437793     -0.04390048443000
| 22> C          -0.02890735437417      1.45710089193008      0.08222581496885
| 23> C           0.02781409212755      2.06300295185481      1.29625580282132
| 24> C           0.05780784816423      1.27059537024470      2.55865678848172
| 25> C           0.02728706606325     -0.21148353395784      2.45495612270071
| 26> C          -0.02843189949116     -0.83640031526210      1.20261036404921
| 27> C          -0.05547047371799     -2.22955810695340      1.11889579291072
| 28> C          -0.02722158045044     -2.99492416088675      2.28117734907788
| 29> C           0.02796540531077     -2.37140543755571      3.53091392418760
| 30> C           0.05520008600593     -0.98250737910286      3.61837358653962
| 31> H           0.09847557758253     -0.46770840832251      4.58128936060527
| 32> H           0.04990261703070     -2.97596484746596      4.44240334694328
| 33> H          -0.04820318575023     -4.08675470796317      2.21598714046560
| 34> H          -0.09870498752579     -2.68915740048288      0.12846959179026
| 35> C           0.06194462166156      3.55006381235348      1.44143215923311
| 36> H          -0.84116618668105      4.01208400301480      1.00272169259353
| 37> H           0.12018684562378      3.82673225712869      2.50411119237925
| 38> H           0.93021072875079      3.98022200468594      0.91048633813469
| 39> C          -0.06163879144342      2.23535286557775     -1.19335579257479
| 40> H           0.84200005659416      2.86322691783085     -1.29721049713274
| 41> H          -0.11947303398066      1.55280359233205     -2.05354858361608
| 42> H          -0.92952293856559      2.91875817267932     -1.21877475276670
| 43> O           0.10605373554418      1.82136872263288      3.64196829309901
| 44> O          -0.10703458249363     -0.56180561393426     -1.13565794046132
| 45> *
| 46>
| 47>                          ****END OF INPUT****

CARTESIAN COORDINATES (ANGSTROEM)
---------------------------------
  C     -0.059074   -0.027935   -0.043900
  C     -0.028907    1.457101    0.082226
  C      0.027814    2.063003    1.296256
  C      0.057808    1.270595    2.558657
  C      0.027287   -0.211484    2.454956
  C     -0.028432   -0.836400    1.202610
  C     -0.055470   -2.229558    1.118896
  C     -0.027222   -2.994924    2.281177
  C      0.027965   -2.371405    3.530914
  C      0.055200   -0.982507    3.618374
  H      0.098476   -0.467708    4.581289
  H      0.049903   -2.975965    4.442403
  H     -0.048203   -4.086755    2.215987
  H     -0.098705   -2.689157    0.128470
  C      0.061945    3.550064    1.441432
  H     -0.841166    4.012084    1.002722
  H      0.120187    3.826732    2.504111
  H      0.930211    3.980222    0.910486
  C     -0.061639    2.235353   -1.193356
  H      0.842000    2.863227   -1.297210
  H     -0.119473    1.552804   -2.053549
  H     -0.929523    2.918758   -1.218775
  O      0.106054    1.821369    3.641968
  O     -0.107035   -0.561806   -1.135658

 Total Charge           Charge          ....    0
 Multiplicity           Mult            ....    1
 Number of Electrons    NEL             ....   98
 Basis Dimension        Dim             ....  874

ORBITAL ENERGIES
----------------

  NO   OCC          E(Eh)            E(eV)
   0   2.0000     -19.217977      -522.9477
   1   2.0000     -19.217946      -522.9469
   2   2.0000     -10.332048      -281.1493
   3   2.0000     -10.332011      -281.1483
   4   2.0000     -10.263010      -279.2707
   5   2.0000     -10.262179      -279.2481
   6   2.0000     -10.256713      -279.0994
   7   2.0000     -10.256103      -279.0828
   8   2.0000     -10.247300      -278.8432
   9   2.0000     -10.247157      -278.8393
  10   2.0000     -10.246637      -278.8252
  11   2.0000     -10.246189      -278.8130
  12   2.0000     -10.220687      -278.1190
  13   2.0000     -10.220662      -278.1183
  14   2.0000      -1.096055       -29.8252
  15   2.0000      -1.094273       -29.7767
  16   2.0000      -0.909105       -24.7380
  17   2.0000      -0.869662       -23.6647
  18   2.0000      -0.803824       -21.8732
  19   2.0000      -0.793331       -21.5876
  20   2.0000      -0.764123       -20.7928
  21   2.0000      -0.712441       -19.3865
  22   2.0000      -0.691421       -18.8145
  23   2.0000      -0.640771       -17.4363
  24   2.0000      -0.623426       -16.9643
  25   2.0000      -0.595190       -16.1960
  26   2.0000      -0.561389       -15.2762
  27   2.0000      -0.526944       -14.3389
  28   2.0000      -0.512341       -13.9415
  29   2.0000      -0.478682       -13.0256
  30   2.0000      -0.477001       -12.9799
  31   2.0000      -0.475057       -12.9270
  32   2.0000      -0.464030       -12.6269
  33   2.0000      -0.453963       -12.3530
  34   2.0000      -0.436964       -11.8904
  35   2.0000      -0.430783       -11.7222
  36   2.0000      -0.422971       -11.5096
  37   2.0000      -0.419150       -11.4056
  38   2.0000      -0.401913       -10.9366
  39   2.0000      -0.398212       -10.8359
  40   2.0000      -0.388376       -10.5683
  41   2.0000      -0.386789       -10.5251
  42   2.0000      -0.372347       -10.1321
  43   2.0000      -0.368311       -10.0223
  44   2.0000      -0.302196        -8.2232
  45   2.0000      -0.296512        -8.0685
  46   2.0000      -0.283271        -7.7082
  47   2.0000      -0.282080        -7.6758
  48   2.0000      -0.273805        -7.4506
  49   0.0000      -0.115414        -3.1406
  50   0.0000      -0.045079        -1.2267
  51   0.0000      -0.019592        -0.5331
  52   0.0000       0.000275         0.0075
  53   0.0000       0.010356         0.2818

MULLIKEN ATOMIC CHARGES
-----------------------
   0 C :    1.480053
   1 C :   -0.152678
   2 C :   -0.181565
   3 C :    1.484854
   4 C :    0.773133
   5 C :    0.751453
   6 C :   -1.164781
   7 C :   -0.475803
   8 C :   -0.453526
   9 C :   -1.178671
  10 H :    0.259394
  11 H :    0.718291
  12 H :    0.716882
  13 H :    0.246938
  14 C :   -0.826820
  15 H :    0.243790
  16 H :    0.195663
  17 H :    0.240744
  18 C :   -0.833886
  19 H :    0.247107
  20 H :    0.180140
  21 H :    0.244448
  22 O :   -1.259197
  23 O :   -1.255965
Sum of atomic charges:    0.0000000

LOEWDIN ATOMIC CHARGES
----------------------
   0 C :   -0.510380
   1 C :   -0.079005
   2 C :   -0.078819
   3 C :   -0.510306
   4 C :   -0.119032
   5 C :   -0.118978
   6 C :    0.218733
   7 C :    0.223671
   8 C :    0.223745
   9 C :    0.218695
  10 H :   -0.172088
  11 H :   -0.156346
  12 H :   -0.156355
  13 H :   -0.172046
  14 C :    0.571367
  15 H :   -0.142255
  16 H :   -0.200531
  17 H :   -0.143335
  18 C :    0.571278
  19 H :   -0.142322
  20 H :   -0.200729
  21 H :   -0.143269
  22 O :    0.509186
  23 O :    0.509121

  Mayer bond orders larger than 0.100000
B(  0-C ,  1-C ) :   1.1151 B(  0-C ,  2-C ) :  -0.3635 B(  0-C ,  3-C ) :   0.7253
B(  0-C ,  4-C ) :  -0.3285 B(  0-C ,  5-C ) :   0.7428 B(  0-C ,  6-C ) :   0.4175
B(  0-C ,  7-C ) :   0.1062 B(  0-C , 18-C ) :  -0.1153 B(  0-C , 23-O ) :  -0.2252
B(  1-C ,  2-C ) :   1.4848 B(  1-C ,  3-C ) :  -0.3787 B(  1-C ,  4-C ) :  -0.2189
B(  1-C ,  5-C ) :   0.6326 B(  1-C , 14-C ) :   0.1617 B(  1-C , 18-C ) :   0.4872
B(  1-C , 19-H ) :  -0.1170 B(  1-C , 21-H ) :  -0.1177 B(  1-C , 22-O ) :   0.1166
B(  1-C , 23-O ) :   0.3347 B(  2-C ,  3-C ) :   1.1301 B(  2-C ,  4-C ) :   0.6546
B(  2-C ,  5-C ) :  -0.2150 B(  2-C , 14-C ) :   0.4805 B(  2-C , 15-H ) :  -0.1179
B(  2-C , 17-H ) :  -0.1213 B(  2-C , 18-C ) :   0.1476 B(  2-C , 22-O ) :   0.3404
B(  2-C , 23-O ) :   0.1169 B(  3-C ,  4-C ) :   0.7050 B(  3-C ,  5-C ) :  -0.2994
B(  3-C ,  7-C ) :   0.1013 B(  3-C ,  8-C ) :   0.1024 B(  3-C ,  9-C ) :   0.4362
B(  3-C , 14-C ) :  -0.1298 B(  3-C , 22-O ) :  -0.2167 B(  4-C ,  5-C ) :   0.8886
B(  4-C ,  6-C ) :  -0.4314 B(  4-C ,  8-C ) :  -0.1940 B(  4-C ,  9-C ) :   0.1424
B(  4-C , 22-O ) :   0.3240 B(  5-C ,  7-C ) :  -0.1870 B(  5-C ,  9-C ) :  -0.4718
B(  5-C , 23-O ) :   0.3576 B(  6-C ,  7-C ) :   1.3214 B(  6-C , 12-H ) :  -0.1343
B(  6-C , 13-H ) :   0.8398 B(  7-C ,  8-C ) :   1.3189 B(  7-C , 12-H ) :   0.1662
B(  8-C ,  9-C ) :   1.3172 B(  8-C , 11-H ) :   0.1823 B(  9-C , 10-H ) :   0.8142
B(  9-C , 11-H ) :  -0.1167 B( 10-H , 22-O ) :   0.2318 B( 13-H , 23-O ) :   0.2377
B( 14-C , 15-H ) :   0.9864 B( 14-C , 16-H ) :   0.9199 B( 14-C , 17-H ) :   0.9908
B( 18-C , 19-H ) :   0.9809 B( 18-C , 20-H ) :   0.9403 B( 18-C , 21-H ) :   0.9844

Dispersion correction           -0.026345758
FINAL SINGLE POINT ENERGY      -613.288747150913

DIPOLE MOMENT
-------------

Method             : SCF
Type of density    : Electron Density
Multiplicity       :   1
Irrep              :   0
Energy             :  -613.2624013925385498 Eh
Relativity type    :
Basis              : AO
                                X                 Y                 Z
Electronic contribution:     -0.004902579      -6.539290297       3.264362817
Nuclear contribution   :      0.005720256       6.367214391      -3.176836513
                        -----------------------------------------
Total Dipole Moment    :      0.000817677      -0.172075906       0.087526304
                        -----------------------------------------
Magnitude (a.u.)       :      0.193058644
Magnitude (Debye)      :      0.490716076

Rotational constants in cm-1:             0.037375             0.021586             0.013754
Rotational constants in MHz :          1120.461464           647.130480           412.334281

                             ****ORCA TERMINATED NORMALLY****
TOTAL RUN TIME: 0 days 0 hours 4 minutes 51 seconds 809 msec
