                         Program Version 6.0.0  -   RELEASE  -
|  1> !PBE0 aug-cc-pVTZ d3 TightSCF SlowConv RIJCOSX defgrid2
|  2>
|  3> %pal
|  4> nprocs 4
|  5> end
|  6>
|  7> %scf
|  8> MaxIter 1500
|  9> end
| 10>
| 11> %maxcore 3000
| 12>
| 13> !CPCM
| 14> %cpcm smd true
| 15> SMDsolvent "MeCN"
| 16> surfacetype gepol_ses
| 17> rsolv 2.19
| 18> end
| 19>
| 20> * xyz 1 2
| 21> C          -1.21410268013558      0.66079671488085      0.00044125101463
| 22> C          -0.00479873951211      1.42348649358076      0.00008291249140
| 23> C           1.19917788477091      0.76805500599948     -0.00093245598873
| 24> C           1.21410525376750     -0.66078759041144     -0.00041186823336
| 25> C           0.00483277696024     -1.42348058095615     -0.00006380880582
| 26> C          -1.19915583251644     -0.76807297563841      0.00095026344814
| 27> H          -2.14500237789104     -1.31691197560262      0.00198921433109
| 28> H           0.05803237074867     -2.51570929713129     -0.00010038106333
| 29> H           2.17564601802106     -1.18573947417440      0.00063492612648
| 30> H           2.14497947433067      1.31689182680587     -0.00197612697820
| 31> H          -0.05801300840356      2.51575704823161      0.00011149719674
| 32> H          -2.17570214014031      1.18578190441576     -0.00060722353904
| 33> *
| 34>
| 35>                          ****END OF INPUT****

CARTESIAN COORDINATES (ANGSTROEM)
---------------------------------
  C     -1.214103    0.660797    0.000441
  C     -0.004799    1.423486    0.000083
  C      1.199178    0.768055   -0.000932
  C      1.214105   -0.660788   -0.000412
  C      0.004833   -1.423481   -0.000064
  C     -1.199156   -0.768073    0.000950
  H     -2.145002   -1.316912    0.001989
  H      0.058032   -2.515709   -0.000100
  H      2.175646   -1.185739    0.000635
  H      2.144979    1.316892   -0.001976
  H     -0.058013    2.515757    0.000111
  H     -2.175702    1.185782   -0.000607

 Total Charge           Charge          ....    1
 Multiplicity           Mult            ....    2
 Number of Electrons    NEL             ....   41
 Basis Dimension        Dim             ....  414

ORBITAL ENERGIES
----------------
                 SPIN UP ORBITALS
  NO   OCC          E(Eh)            E(eV)
   0   1.0000     -10.323492      -280.9165
   1   1.0000     -10.323453      -280.9154
   2   1.0000     -10.287155      -279.9277
   3   1.0000     -10.287119      -279.9267
   4   1.0000     -10.286267      -279.9036
   5   1.0000     -10.286236      -279.9027
   6   1.0000      -0.938746       -25.5446
   7   1.0000      -0.827257       -22.5108
   8   1.0000      -0.824248       -22.4289
   9   1.0000      -0.676992       -18.4219
  10   1.0000      -0.667276       -18.1575
  11   1.0000      -0.579640       -15.7728
  12   1.0000      -0.516528       -14.0554
  13   1.0000      -0.514822       -14.0090
  14   1.0000      -0.480379       -13.0718
  15   1.0000      -0.474299       -12.9063
  16   1.0000      -0.445908       -12.1338
  17   1.0000      -0.403652       -10.9839
  18   1.0000      -0.397720       -10.8225
  19   1.0000      -0.339525        -9.2389
  20   1.0000      -0.320272        -8.7151
  21   0.0000      -0.085982        -2.3397
  22   0.0000      -0.051179        -1.3926
  23   0.0000      -0.001646        -0.0448
  24   0.0000       0.016836         0.4581
  25   0.0000       0.016956         0.4614

                 SPIN DOWN ORBITALS
  NO   OCC          E(Eh)            E(eV)
   0   1.0000     -10.316221      -280.7186
   1   1.0000     -10.316190      -280.7178
   2   1.0000     -10.286884      -279.9203
   3   1.0000     -10.286848      -279.9194
   4   1.0000     -10.286021      -279.8969
   5   1.0000     -10.285993      -279.8961
   6   1.0000      -0.927078       -25.2271
   7   1.0000      -0.822723       -22.3874
   8   1.0000      -0.804359       -21.8877
   9   1.0000      -0.666626       -18.1398
  10   1.0000      -0.661160       -17.9911
  11   1.0000      -0.577184       -15.7060
  12   1.0000      -0.511828       -13.9275
  13   1.0000      -0.510170       -13.8824
  14   1.0000      -0.480409       -13.0726
  15   1.0000      -0.468981       -12.7616
  16   1.0000      -0.409298       -11.1376
  17   1.0000      -0.401780       -10.9330
  18   1.0000      -0.394328       -10.7302
  19   1.0000      -0.316848        -8.6219
  20   0.0000      -0.222505        -6.0547
  21   0.0000      -0.039965        -1.0875
  22   0.0000      -0.036454        -0.9920
  23   0.0000      -0.000439        -0.0119
  24   0.0000       0.016995         0.4625

MULLIKEN ATOMIC CHARGES AND SPIN POPULATIONS
--------------------------------------------
   0 C :   -0.345867    0.447106
   1 C :   -0.396358    0.019724
   2 C :   -0.404872    0.014094
   3 C :   -0.342775    0.446972
   4 C :   -0.400607    0.019791
   5 C :   -0.403553    0.014135
   6 H :    0.557457   -0.000832
   7 H :    0.569932   -0.000654
   8 H :    0.520153    0.020573
   9 H :    0.556608   -0.000827
  10 H :    0.570923   -0.000666
  11 H :    0.518958    0.020583
Sum of atomic charges         :    1.0000000

LOEWDIN ATOMIC CHARGES AND SPIN POPULATIONS
-------------------------------------------
   0 C :    0.325214    0.256954
   1 C :    0.281188    0.090863
   2 C :    0.280711    0.089032
   3 C :    0.325220    0.256922
   4 C :    0.281189    0.090851
   5 C :    0.280710    0.089043
   6 H :   -0.135646    0.005105
   7 H :   -0.135356    0.005680
   8 H :   -0.116142    0.052384
   9 H :   -0.135681    0.005102
  10 H :   -0.135317    0.005682
  11 H :   -0.116089    0.052381

  Mayer bond orders larger than 0.100000
B(  0-C ,  1-C ) :   1.1742 B(  0-C ,  5-C ) :   1.1638 B(  0-C , 11-H ) :   0.5789
B(  1-C ,  2-C ) :   1.4538 B(  1-C , 10-H ) :   0.5192 B(  2-C ,  3-C ) :   1.1647
B(  2-C ,  9-H ) :   0.5451 B(  3-C ,  4-C ) :   1.1742 B(  3-C ,  8-H ) :   0.5772
B(  4-C ,  5-C ) :   1.4529 B(  4-C ,  7-H ) :   0.5206 B(  5-C ,  6-H ) :   0.5444

Dispersion correction           -0.009307398
FINAL SINGLE POINT ENERGY      -231.812663712954

DIPOLE MOMENT
-------------

Method             : SCF
Type of density    : Electron Density
Multiplicity       :   2
Irrep              :   0
Energy             :  -231.8033563150454199 Eh
Relativity type    :
Basis              : AO
                                X                 Y                 Z
Electronic contribution:      0.000037054      -0.000016633       0.000009877
Nuclear contribution   :     -0.000102416       0.000063154      -0.000012453
                        -----------------------------------------
Total Dipole Moment    :     -0.000065363       0.000046521      -0.000002577
                        -----------------------------------------
Magnitude (a.u.)       :      0.000080269
Magnitude (Debye)      :      0.000204028

Rotational constants in cm-1:             0.193350             0.179303             0.093031
Rotational constants in MHz :          5796.486713          5375.355688          2788.992179

                             ****ORCA TERMINATED NORMALLY****
TOTAL RUN TIME: 0 days 0 hours 2 minutes 13 seconds 705 msec
