                         Program Version 6.0.0  -   RELEASE  -
|  1> !B3LYP aug-cc-pVTZ d3 TightSCF SlowConv RIJCOSX defgrid2
|  2>
|  3> %pal
|  4> nprocs 4
|  5> end
|  6>
|  7> %scf
|  8> MaxIter 1500
|  9> end
| 10>
| 11> %maxcore 3000
| 12>
| 13> !CPCM
| 14> %cpcm smd true
| 15> SMDsolvent "MeCN"
| 16> surfacetype gepol_ses
| 17> rsolv 2.19
| 18> end
| 19>
| 20> * xyz 0 1
| 21>   C           0.41599319251032     -1.69346177862022     -0.02279161454558
| 22>   C          -0.98199729558990     -1.81472676429341     -0.05134821794403
| 23>   C          -1.70677603729443     -0.64308652071241     -0.08326300415314
| 24>   C          -1.07495769550450      0.60196976211576     -0.08130065571313
| 25>   C           0.29269190626036      0.73274812090553     -0.04930153158760
| 26>   C           1.06792223663687     -0.45226147551338     -0.02238323387356
| 27>   C           2.53306012033092     -0.42784097336228      0.00411549390745
| 28>   C           3.33599029031163      0.64787454860086     -0.01298712184471
| 29>   C           4.82698252758222      0.59436334411775      0.01761658566321
| 30>   H           5.19519744878890     -0.44486528089433      0.05467264909477
| 31>   H           5.26493429112435      1.08145794661971     -0.87426846583011
| 32>   H           5.23044002906813      1.13215001785477      0.89657522514024
| 33>   H           2.89219341939334      1.65177321714680     -0.05310300701833
| 34>   H           3.00616156242134     -1.41849503169999      0.04140787797653
| 35>   H           0.75060774881743      1.72311804458948     -0.04152460092806
| 36>   O          -2.02238582974935      1.57759788099539     -0.08083816246866
| 37>   C          -3.25372937520391      0.92161898008569     -0.29920279195714
| 38>   H          -3.58643890672075      1.09093447235186     -1.34427577812255
| 39>   H          -4.00651814330382      1.30024105404657      0.41140327759572
| 40>   O          -3.05288326673628     -0.46068315840969     -0.08496008668725
| 41>   H          -1.47569728947849     -2.78849336669007     -0.04656446685497
| 42>   H           1.02272506633562     -2.60351753923440     -0.00236886984910
| 43> *
| 44>
| 45>                          ****END OF INPUT****

CARTESIAN COORDINATES (ANGSTROEM)
---------------------------------
  C      0.415993   -1.693462   -0.022792
  C     -0.981997   -1.814727   -0.051348
  C     -1.706776   -0.643087   -0.083263
  C     -1.074958    0.601970   -0.081301
  C      0.292692    0.732748   -0.049302
  C      1.067922   -0.452261   -0.022383
  C      2.533060   -0.427841    0.004115
  C      3.335990    0.647875   -0.012987
  C      4.826983    0.594363    0.017617
  H      5.195197   -0.444865    0.054673
  H      5.264934    1.081458   -0.874268
  H      5.230440    1.132150    0.896575
  H      2.892193    1.651773   -0.053103
  H      3.006162   -1.418495    0.041408
  H      0.750608    1.723118   -0.041525
  O     -2.022386    1.577598   -0.080838
  C     -3.253729    0.921619   -0.299203
  H     -3.586439    1.090934   -1.344276
  H     -4.006518    1.300241    0.411403
  O     -3.052883   -0.460683   -0.084960
  H     -1.475697   -2.788493   -0.046564
  H      1.022725   -2.603518   -0.002369

 Total Charge           Charge          ....    0
 Multiplicity           Mult            ....    1
 Number of Electrons    NEL             ....   86
 Basis Dimension        Dim             ....  782

ORBITAL ENERGIES
----------------

  NO   OCC          E(Eh)            E(eV)
   0   2.0000     -19.175163      -521.7827
   1   2.0000     -19.174615      -521.7678
   2   2.0000     -10.283667      -279.8328
   3   2.0000     -10.236891      -278.5600
   4   2.0000     -10.235677      -278.5269
   5   2.0000     -10.186489      -277.1885
   6   2.0000     -10.180523      -277.0261
   7   2.0000     -10.178700      -276.9765
   8   2.0000     -10.174997      -276.8757
   9   2.0000     -10.171917      -276.7919
  10   2.0000     -10.169547      -276.7274
  11   2.0000     -10.162289      -276.5299
  12   2.0000      -1.139461       -31.0063
  13   2.0000      -1.045404       -28.4469
  14   2.0000      -0.864977       -23.5372
  15   2.0000      -0.799758       -21.7625
  16   2.0000      -0.758878       -20.6501
  17   2.0000      -0.751882       -20.4598
  18   2.0000      -0.693629       -18.8746
  19   2.0000      -0.659421       -17.9438
  20   2.0000      -0.626921       -17.0594
  21   2.0000      -0.616063       -16.7639
  22   2.0000      -0.553619       -15.0647
  23   2.0000      -0.524948       -14.2846
  24   2.0000      -0.523280       -14.2392
  25   2.0000      -0.515269       -14.0212
  26   2.0000      -0.488865       -13.3027
  27   2.0000      -0.445537       -12.1237
  28   2.0000      -0.441804       -12.0221
  29   2.0000      -0.430739       -11.7210
  30   2.0000      -0.405134       -11.0242
  31   2.0000      -0.399602       -10.8737
  32   2.0000      -0.394874       -10.7451
  33   2.0000      -0.394324       -10.7301
  34   2.0000      -0.393083       -10.6963
  35   2.0000      -0.373479       -10.1629
  36   2.0000      -0.362522        -9.8647
  37   2.0000      -0.346711        -9.4345
  38   2.0000      -0.339596        -9.2409
  39   2.0000      -0.333964        -9.0876
  40   2.0000      -0.273384        -7.4392
  41   2.0000      -0.240765        -6.5515
  42   2.0000      -0.200224        -5.4484
  43   0.0000      -0.034515        -0.9392
  44   0.0000      -0.007231        -0.1968
  45   0.0000      -0.002563        -0.0698
  46   0.0000       0.005143         0.1400
  47   0.0000       0.010580         0.2879

MULLIKEN ATOMIC CHARGES
-----------------------
   0 C :   -1.080210
   1 C :   -0.669549
   2 C :    0.857064
   3 C :    1.045576
   4 C :   -0.696048
   5 C :    1.573466
   6 C :   -0.336927
   7 C :   -0.153399
   8 C :   -0.866669
   9 H :    0.246368
  10 H :    0.186427
  11 H :    0.193505
  12 H :    0.137653
  13 H :    0.004942
  14 H :   -0.063083
  15 O :   -0.728801
  16 C :   -0.068329
  17 H :    0.249906
  18 H :    0.285065
  19 O :   -0.744216
  20 H :    0.479457
  21 H :    0.147802
Sum of atomic charges:    0.0000000

LOEWDIN ATOMIC CHARGES
----------------------
   0 C :    0.184686
   1 C :    0.222249
   2 C :   -0.406918
   3 C :   -0.399718
   4 C :    0.232650
   5 C :   -0.161998
   6 C :    0.188831
   7 C :    0.192795
   8 C :    0.537912
   9 H :   -0.172799
  10 H :   -0.163596
  11 H :   -0.163547
  12 H :   -0.183354
  13 H :   -0.182599
  14 H :   -0.174482
  15 O :    0.617113
  16 C :   -0.163206
  17 H :   -0.138404
  18 H :   -0.145003
  19 O :    0.614924
  20 H :   -0.163757
  21 H :   -0.171779

  Mayer bond orders larger than 0.100000
B(  0-C ,  1-C ) :   1.1856 B(  0-C ,  2-C ) :  -0.1998 B(  0-C ,  3-C ) :  -0.1071
B(  0-C ,  4-C ) :  -0.1889 B(  0-C ,  5-C ) :   0.3254 B(  0-C ,  7-C ) :   0.3015
B(  0-C , 21-H ) :   1.2348 B(  1-C ,  2-C ) :   0.6396 B(  1-C ,  4-C ) :  -0.1065
B(  1-C ,  5-C ) :   0.1845 B(  1-C , 20-H ) :   0.5191 B(  1-C , 21-H ) :  -0.1223
B(  2-C ,  3-C ) :   1.1380 B(  2-C ,  6-C ) :   0.1471 B(  2-C , 15-O ) :   0.1169
B(  2-C , 19-O ) :   0.2260 B(  3-C ,  4-C ) :   0.4611 B(  3-C ,  5-C ) :   0.4119
B(  3-C , 14-H ) :  -0.2260 B(  3-C , 19-O ) :   0.1455 B(  4-C ,  5-C ) :   0.3736
B(  4-C ,  6-C ) :   0.2074 B(  4-C ,  7-C ) :  -0.1141 B(  4-C , 12-H ) :  -0.1532
B(  4-C , 14-H ) :   1.4875 B(  4-C , 15-O ) :   0.2302 B(  5-C ,  6-C ) :  -0.1072
B(  5-C ,  7-C ) :  -0.1623 B(  5-C , 12-H ) :  -0.1518 B(  5-C , 13-H ) :  -0.1402
B(  5-C , 14-H ) :  -0.2877 B(  5-C , 21-H ) :  -0.1558 B(  6-C ,  7-C ) :   0.9357
B(  6-C , 13-H ) :   1.3338 B(  7-C ,  8-C ) :   0.5335 B(  7-C , 12-H ) :   1.3385
B(  7-C , 13-H ) :  -0.1120 B(  8-C ,  9-H ) :   0.9548 B(  8-C , 10-H ) :   1.0505
B(  8-C , 11-H ) :   1.0452 B(  8-C , 12-H ) :  -0.1313 B( 15-O , 16-C ) :   0.8889
B( 16-C , 17-H ) :   0.9270 B( 16-C , 18-H ) :   0.9153 B( 16-C , 19-O ) :   0.8863

Dispersion correction           -0.038793218
FINAL SINGLE POINT ENERGY      -537.428949742446

DIPOLE MOMENT
-------------

Method             : SCF
Type of density    : Electron Density
Multiplicity       :   1
Irrep              :   0
Energy             :  -537.3901565249183250 Eh
Relativity type    :
Basis              : AO
                                X                 Y                 Z
Electronic contribution:    -13.549159730      -0.480858420       0.110712507
Nuclear contribution   :     13.408506820       0.685068586      -0.272537228
                        -----------------------------------------
Total Dipole Moment    :     -0.140652910       0.204210166      -0.161824721
                        -----------------------------------------
Magnitude (a.u.)       :      0.296095041
Magnitude (Debye)      :      0.752613783

Rotational constants in cm-1:             0.089233             0.016100             0.013721
Rotational constants in MHz :          2675.143581           482.663889           411.333800

                             ****ORCA TERMINATED NORMALLY****
TOTAL RUN TIME: 0 days 0 hours 7 minutes 54 seconds 139 msec
