                         Program Version 6.0.0  -   RELEASE  -
|  1> !r2SCAN aug-cc-pVTZ d3 TightSCF SlowConv RIJCOSX defgrid2
|  2>
|  3> %pal
|  4> nprocs 4
|  5> end
|  6>
|  7> %scf
|  8> MaxIter 1500
|  9> end
| 10>
| 11> %maxcore 3000
| 12>
| 13> !CPCM
| 14> %cpcm smd true
| 15> SMDsolvent "MeCN"
| 16> surfacetype gepol_ses
| 17> rsolv 2.19
| 18> end
| 19>
| 20> * xyz 1 2
| 21> C           2.57979434838040     -0.76512868779033      0.55002877373972
| 22> N           1.26500932172402     -1.28908125363632      0.40636602507995
| 23> C           0.28298609020251     -0.62522563405020     -0.18777766408559
| 24> N           0.31055121241113      0.70973986743819     -0.21944975029898
| 25> C          -0.90428464054798      1.50462363713153     -0.44239867601191
| 26> C          -2.03947642318260      1.21762022221086      0.53873406977095
| 27> C          -2.86207876844258     -0.03194236210921      0.24124470818338
| 28> C          -2.09231646642057     -1.34422284732392      0.30081277590326
| 29> C          -0.89800263393673     -1.40686847310809     -0.66426598959003
| 30> H          -1.19352492058052     -1.04767852417754     -1.66637286512155
| 31> H          -0.55567841992770     -2.44756644418100     -0.76734795095617
| 32> H          -1.73641294806257     -1.54754065839741      1.32696955727058
| 33> H          -2.77055233723731     -2.17340424344339      0.04048078954003
| 34> H          -3.70277523981103     -0.07756392292857      0.95370276319110
| 35> H          -3.31960998926737      0.07384959946049     -0.76068861915501
| 36> H          -1.62677902226913      1.18604117824051      1.56422468629433
| 37> H          -2.70692750664589      2.09548743827220      0.50583543871622
| 38> H          -1.23343592081792      1.34322694259980     -1.48570258502121
| 39> H          -0.59336721164102      2.55553341754968     -0.36087201839100
| 40> C           1.54294297274965      1.42951819328861      0.10261663203758
| 41> C           2.75435971769682      0.56347028127833     -0.16667570355996
| 42> H           3.66676062867917      1.07905197663072      0.17154765035364
| 43> H           2.85358487208654      0.39538376428371     -1.25327533388472
| 44> H           1.55803196576022      2.33719006220635     -0.52185668580850
| 45> H           1.49212710050547      1.76061659958086      1.15811318961915
| 46> H           2.78164201792086     -0.70742891166271      1.63950028346109
| 47> H           3.28595160067412     -1.53996281736316      0.18807279872366
| 48> *
| 49>
| 50>                          ****END OF INPUT****

CARTESIAN COORDINATES (ANGSTROEM)
---------------------------------
  C      2.579794   -0.765129    0.550029
  N      1.265009   -1.289081    0.406366
  C      0.282986   -0.625226   -0.187778
  N      0.310551    0.709740   -0.219450
  C     -0.904285    1.504624   -0.442399
  C     -2.039476    1.217620    0.538734
  C     -2.862079   -0.031942    0.241245
  C     -2.092316   -1.344223    0.300813
  C     -0.898003   -1.406868   -0.664266
  H     -1.193525   -1.047679   -1.666373
  H     -0.555678   -2.447566   -0.767348
  H     -1.736413   -1.547541    1.326970
  H     -2.770552   -2.173404    0.040481
  H     -3.702775   -0.077564    0.953703
  H     -3.319610    0.073850   -0.760689
  H     -1.626779    1.186041    1.564225
  H     -2.706928    2.095487    0.505835
  H     -1.233436    1.343227   -1.485703
  H     -0.593367    2.555533   -0.360872
  C      1.542943    1.429518    0.102617
  C      2.754360    0.563470   -0.166676
  H      3.666761    1.079052    0.171548
  H      2.853585    0.395384   -1.253275
  H      1.558032    2.337190   -0.521857
  H      1.492127    1.760617    1.158113
  H      2.781642   -0.707429    1.639500
  H      3.285952   -1.539963    0.188073

 Total Charge           Charge          ....    1
 Multiplicity           Mult            ....    2
 Number of Electrons    NEL             ....   83
 Basis Dimension        Dim             ....  874

ORBITAL ENERGIES
----------------
                 SPIN UP ORBITALS
  NO   OCC          E(Eh)            E(eV)
   0   1.0000     -14.275432      -388.4542
   1   1.0000     -14.228034      -387.1645
   2   1.0000     -10.155837      -276.3544
   3   1.0000     -10.096846      -274.7491
   4   1.0000     -10.093766      -274.6653
   5   1.0000     -10.089241      -274.5422
   6   1.0000     -10.059934      -273.7447
   7   1.0000     -10.053622      -273.5730
   8   1.0000     -10.047551      -273.4077
   9   1.0000     -10.044893      -273.3354
  10   1.0000     -10.036781      -273.1147
  11   1.0000      -1.010946       -27.5092
  12   1.0000      -0.915861       -24.9218
  13   1.0000      -0.806728       -21.9522
  14   1.0000      -0.773420       -21.0458
  15   1.0000      -0.749403       -20.3923
  16   1.0000      -0.685368       -18.6498
  17   1.0000      -0.671212       -18.2646
  18   1.0000      -0.656930       -17.8760
  19   1.0000      -0.588221       -16.0063
  20   1.0000      -0.556115       -15.1327
  21   1.0000      -0.513749       -13.9798
  22   1.0000      -0.511042       -13.9062
  23   1.0000      -0.492444       -13.4001
  24   1.0000      -0.476644       -12.9701
  25   1.0000      -0.439593       -11.9619
  26   1.0000      -0.436160       -11.8685
  27   1.0000      -0.428655       -11.6643
  28   1.0000      -0.416429       -11.3316
  29   1.0000      -0.412284       -11.2188
  30   1.0000      -0.388030       -10.5588
  31   1.0000      -0.386369       -10.5136
  32   1.0000      -0.383643       -10.4395
  33   1.0000      -0.359202        -9.7744
  34   1.0000      -0.351808        -9.5732
  35   1.0000      -0.332171        -9.0388
  36   1.0000      -0.318735        -8.6732
  37   1.0000      -0.304553        -8.2873
  38   1.0000      -0.302122        -8.2212
  39   1.0000      -0.296686        -8.0732
  40   1.0000      -0.279113        -7.5951
  41   1.0000      -0.261174        -7.1069
  42   0.0000      -0.062265        -1.6943
  43   0.0000       0.004461         0.1214
  44   0.0000       0.017752         0.4831
  45   0.0000       0.018207         0.4954
  46   0.0000       0.019722         0.5367

                 SPIN DOWN ORBITALS
  NO   OCC          E(Eh)            E(eV)
   0   1.0000     -14.266340      -388.2069
   1   1.0000     -14.211786      -386.7224
   2   1.0000     -10.158460      -276.4258
   3   1.0000     -10.097049      -274.7547
   4   1.0000     -10.093942      -274.6701
   5   1.0000     -10.089306      -274.5440
   6   1.0000     -10.059621      -273.7362
   7   1.0000     -10.053508      -273.5699
   8   1.0000     -10.047091      -273.3952
   9   1.0000     -10.044982      -273.3379
  10   1.0000     -10.036784      -273.1148
  11   1.0000      -0.997273       -27.1372
  12   1.0000      -0.890317       -24.2268
  13   1.0000      -0.806498       -21.9459
  14   1.0000      -0.772740       -21.0273
  15   1.0000      -0.746286       -20.3075
  16   1.0000      -0.682913       -18.5830
  17   1.0000      -0.666291       -18.1307
  18   1.0000      -0.654298       -17.8043
  19   1.0000      -0.586254       -15.9528
  20   1.0000      -0.553604       -15.0643
  21   1.0000      -0.509462       -13.8632
  22   1.0000      -0.506651       -13.7867
  23   1.0000      -0.484979       -13.1970
  24   1.0000      -0.467405       -12.7187
  25   1.0000      -0.435904       -11.8615
  26   1.0000      -0.429632       -11.6909
  27   1.0000      -0.424912       -11.5624
  28   1.0000      -0.410812       -11.1788
  29   1.0000      -0.407453       -11.0874
  30   1.0000      -0.385839       -10.4992
  31   1.0000      -0.383725       -10.4417
  32   1.0000      -0.375052       -10.2057
  33   1.0000      -0.353654        -9.6234
  34   1.0000      -0.347807        -9.4643
  35   1.0000      -0.329847        -8.9756
  36   1.0000      -0.316849        -8.6219
  37   1.0000      -0.304227        -8.2784
  38   1.0000      -0.301419        -8.2020
  39   1.0000      -0.291774        -7.9396
  40   1.0000      -0.261296        -7.1102
  41   0.0000      -0.189854        -5.1662
  42   0.0000      -0.046521        -1.2659
  43   0.0000       0.005524         0.1503
  44   0.0000       0.018223         0.4959
  45   0.0000       0.018959         0.5159

MULLIKEN ATOMIC CHARGES AND SPIN POPULATIONS
--------------------------------------------
   0 C :   -0.213287   -0.003052
   1 N :   -0.615292    0.683845
   2 C :    0.473916   -0.192770
   3 N :    0.432284    0.341765
   4 C :   -0.290301   -0.026690
   5 C :   -0.137838    0.020441
   6 C :   -0.174264    0.000265
   7 C :   -0.284850   -0.011741
   8 C :    0.072670    0.038326
   9 H :    0.106460   -0.001836
  10 H :    0.059386   -0.001143
  11 H :    0.066079    0.003945
  12 H :    0.130871   -0.001764
  13 H :    0.193687   -0.000592
  14 H :    0.044968    0.000411
  15 H :    0.089938    0.004955
  16 H :    0.109916    0.004092
  17 H :    0.165030    0.028980
  18 H :    0.169598   -0.003315
  19 C :   -0.325376   -0.036672
  20 C :   -0.161863    0.008885
  21 H :    0.228724    0.005397
  22 H :    0.041185   -0.001681
  23 H :    0.193965    0.017904
  24 H :    0.235514    0.021719
  25 H :    0.194286    0.038839
  26 H :    0.194596    0.061486
Sum of atomic charges         :    1.0000000

LOEWDIN ATOMIC CHARGES AND SPIN POPULATIONS
-------------------------------------------
   0 C :    0.173371    0.111252
   1 N :    0.520196    0.430834
   2 C :   -0.304881    0.070832
   3 N :    0.351458    0.204960
   4 C :    0.276658    0.035883
   5 C :    0.323199    0.010931
   6 C :    0.291723    0.001529
   7 C :    0.304913   -0.001227
   8 C :    0.323320   -0.002089
   9 H :   -0.116870   -0.001099
  10 H :   -0.132632    0.002921
  11 H :   -0.122601   -0.000246
  12 H :   -0.123969   -0.000237
  13 H :   -0.126432    0.000221
  14 H :   -0.125825    0.000271
  15 H :   -0.115437    0.001510
  16 H :   -0.120811    0.001943
  17 H :   -0.099245    0.012215
  18 H :   -0.124545    0.000727
  19 C :    0.266918    0.036604
  20 C :    0.327677    0.008430
  21 H :   -0.111088    0.001628
  22 H :   -0.115087   -0.000366
  23 H :   -0.106930    0.008434
  24 H :   -0.084348    0.010949
  25 H :   -0.115818    0.024362
  26 H :   -0.112913    0.028828

  Mayer bond orders larger than 0.100000
B(  0-C ,  1-N ) :   0.8633 B(  0-C , 20-C ) :   0.8794 B(  0-C , 25-H ) :   0.8914
B(  0-C , 26-H ) :   0.9174 B(  1-N ,  2-C ) :   0.3332 B(  1-N ,  3-N ) :   0.1481
B(  1-N ,  8-C ) :   0.1661 B(  2-C ,  3-N ) :   0.9685 B(  2-C ,  8-C ) :   0.6192
B(  3-N ,  4-C ) :   0.9603 B(  3-N , 19-C ) :   0.6366 B(  4-C ,  5-C ) :   0.8606
B(  4-C , 17-H ) :   0.9080 B(  4-C , 18-H ) :   0.9459 B(  5-C ,  6-C ) :   0.8673
B(  5-C , 15-H ) :   1.0148 B(  5-C , 16-H ) :   0.9819 B(  6-C ,  7-C ) :   0.8566
B(  6-C , 13-H ) :   0.9416 B(  6-C , 14-H ) :   1.0795 B(  7-C ,  8-C ) :   0.9196
B(  7-C , 11-H ) :   1.0254 B(  7-C , 12-H ) :   1.0082 B(  8-C ,  9-H ) :   0.9788
B(  8-C , 10-H ) :   0.9842 B( 19-C , 20-C ) :   0.8911 B( 19-C , 23-H ) :   1.0070
B( 19-C , 24-H ) :   0.8790 B( 20-C , 21-H ) :   0.8631 B( 20-C , 22-H ) :   1.1179

Dispersion correction           -0.009205559
FINAL SINGLE POINT ENERGY      -461.817068982849

DIPOLE MOMENT
-------------

Method             : SCF
Type of density    : Electron Density
Multiplicity       :   2
Irrep              :   0
Energy             :  -461.8078634238105451 Eh
Relativity type    :
Basis              : AO
                                X                 Y                 Z
Electronic contribution:      4.417949634      -1.714038022      -0.445740246
Nuclear contribution   :     -3.417837470       2.910727643       0.034174869
                        -----------------------------------------
Total Dipole Moment    :      1.000112164       1.196689621      -0.411565377
                        -----------------------------------------
Magnitude (a.u.)       :      1.612971311
Magnitude (Debye)      :      4.099847251

Rotational constants in cm-1:             0.070248             0.029206             0.022723
Rotational constants in MHz :          2105.969827           875.585908           681.207949

                             ****ORCA TERMINATED NORMALLY****
TOTAL RUN TIME: 0 days 0 hours 7 minutes 26 seconds 88 msec
