                         Program Version 6.0.0  -   RELEASE  -
|  1> !r2SCAN aug-cc-pVTZ d3 TightSCF SlowConv RIJCOSX defgrid2
|  2>
|  3> %pal
|  4> nprocs 4
|  5> end
|  6>
|  7> %scf
|  8> MaxIter 1500
|  9> end
| 10>
| 11> %maxcore 3000
| 12>
| 13> !CPCM
| 14> %cpcm smd true
| 15> SMDsolvent "MeCN"
| 16> surfacetype gepol_ses
| 17> rsolv 2.19
| 18> end
| 19>
| 20> * xyz 0 1
| 21> C           0.49470507986689     -1.28935631990851      0.00010874258042
| 22> C           1.40908641826733     -0.22147183581534      0.00012909194558
| 23> C           0.87652773876151      1.07792685723328      0.00000492945569
| 24> C          -0.49469394553322      1.28942538906843     -0.00011206028261
| 25> C          -1.40907528767924      0.22153956382169     -0.00008845068658
| 26> C          -0.87651553070888     -1.07785825260461     -0.00000990536767
| 27> H          -1.54545333719204     -1.94291362486448     -0.00009686185205
| 28> C          -2.84456825365451      0.51115677736565     -0.00016134460175
| 29> C          -3.85777664336290     -0.37016514253978      0.00069395658741
| 30> C          -5.30325422186199     -0.00132827117349      0.00054902064982
| 31> H          -5.82268564165386     -0.41483693779544     -0.88475753685959
| 32> H          -5.44363484922644      1.09278775657122     -0.00048184652449
| 33> H          -5.82242918676140     -0.41313393815800      0.88680059997485
| 34> H          -3.63558487599837     -1.44572430894995      0.00161496983067
| 35> H          -3.09792946711740      1.58024959925667     -0.00095926539794
| 36> H          -0.87860533471525      2.31485410603895     -0.00020323655719
| 37> H           1.54546492447861      1.94298328215137     -0.00000160713393
| 38> C           2.84457766493005     -0.51109546895278      0.00024640262469
| 39> C           3.85779145901576      0.37021961014473      0.00027505555542
| 40> C           5.30326751721893      0.00137504492038      0.00037195486634
| 41> H           5.82255778844256      0.41418506123902      0.88608667850665
| 42> H           5.82258564966444      0.41388438927124     -0.88546931241510
| 43> H           5.44364800850219     -1.09274127411065      0.00055173822611
| 44> H           3.63560517323574      1.44578042657169      0.00020897424361
| 45> H           3.09793184852103     -1.58018954757629      0.00031964622318
| 46> H           0.87861580456047     -2.31478514120501      0.00015816640849
| 47> *
| 48>
| 49>                          ****END OF INPUT****

CARTESIAN COORDINATES (ANGSTROEM)
---------------------------------
  C      0.494705   -1.289356    0.000109
  C      1.409086   -0.221472    0.000129
  C      0.876528    1.077927    0.000005
  C     -0.494694    1.289425   -0.000112
  C     -1.409075    0.221540   -0.000088
  C     -0.876516   -1.077858   -0.000010
  H     -1.545453   -1.942914   -0.000097
  C     -2.844568    0.511157   -0.000161
  C     -3.857777   -0.370165    0.000694
  C     -5.303254   -0.001328    0.000549
  H     -5.822686   -0.414837   -0.884758
  H     -5.443635    1.092788   -0.000482
  H     -5.822429   -0.413134    0.886801
  H     -3.635585   -1.445724    0.001615
  H     -3.097929    1.580250   -0.000959
  H     -0.878605    2.314854   -0.000203
  H      1.545465    1.942983   -0.000002
  C      2.844578   -0.511095    0.000246
  C      3.857791    0.370220    0.000275
  C      5.303268    0.001375    0.000372
  H      5.822558    0.414185    0.886087
  H      5.822586    0.413884   -0.885469
  H      5.443648   -1.092741    0.000552
  H      3.635605    1.445780    0.000209
  H      3.097932   -1.580190    0.000320
  H      0.878616   -2.314785    0.000158

 Total Charge           Charge          ....    0
 Multiplicity           Mult            ....    1
 Number of Electrons    NEL             ....   86
 Basis Dimension        Dim             ....  874

ORBITAL ENERGIES
----------------

  NO   OCC          E(Eh)            E(eV)
   0   2.0000     -10.050754      -273.4949
   1   2.0000     -10.050738      -273.4945
   2   2.0000     -10.040530      -273.2167
   3   2.0000     -10.040528      -273.2167
   4   2.0000     -10.039481      -273.1882
   5   2.0000     -10.039463      -273.1877
   6   2.0000     -10.038870      -273.1715
   7   2.0000     -10.038852      -273.1710
   8   2.0000     -10.035421      -273.0777
   9   2.0000     -10.035419      -273.0776
  10   2.0000     -10.028058      -272.8773
  11   2.0000     -10.028058      -272.8773
  12   2.0000      -0.831096       -22.6153
  13   2.0000      -0.778645       -21.1880
  14   2.0000      -0.753239       -20.4967
  15   2.0000      -0.718748       -19.5581
  16   2.0000      -0.712551       -19.3895
  17   2.0000      -0.664108       -18.0713
  18   2.0000      -0.627345       -17.0709
  19   2.0000      -0.585706       -15.9379
  20   2.0000      -0.560885       -15.2625
  21   2.0000      -0.523817       -14.2538
  22   2.0000      -0.509466       -13.8633
  23   2.0000      -0.473721       -12.8906
  24   2.0000      -0.440923       -11.9981
  25   2.0000      -0.430619       -11.7178
  26   2.0000      -0.406594       -11.0640
  27   2.0000      -0.385158       -10.4807
  28   2.0000      -0.382900       -10.4192
  29   2.0000      -0.378378       -10.2962
  30   2.0000      -0.376598       -10.2477
  31   2.0000      -0.371860       -10.1188
  32   2.0000      -0.362209        -9.8562
  33   2.0000      -0.357621        -9.7314
  34   2.0000      -0.337638        -9.1876
  35   2.0000      -0.325519        -8.8578
  36   2.0000      -0.311237        -8.4692
  37   2.0000      -0.309025        -8.4090
  38   2.0000      -0.296721        -8.0742
  39   2.0000      -0.295764        -8.0481
  40   2.0000      -0.240882        -6.5547
  41   2.0000      -0.239811        -6.5256
  42   2.0000      -0.190148        -5.1742
  43   0.0000      -0.075241        -2.0474
  44   0.0000      -0.036803        -1.0014
  45   0.0000      -0.013468        -0.3665
  46   0.0000       0.007790         0.2120
  47   0.0000       0.016990         0.4623

MULLIKEN ATOMIC CHARGES
-----------------------
   0 C :   -1.320460
   1 C :    2.343872
   2 C :   -0.681896
   3 C :   -1.320412
   4 C :    2.343859
   5 C :   -0.681834
   6 H :   -0.103955
   7 C :    0.146327
   8 C :   -0.165538
   9 C :   -0.865383
  10 H :    0.148808
  11 H :    0.251251
  12 H :    0.147953
  13 H :    0.216112
  14 H :   -0.080678
  15 H :   -0.036482
  16 H :   -0.103856
  17 C :    0.146264
  18 C :   -0.165545
  19 C :   -0.865369
  20 H :    0.148677
  21 H :    0.148091
  22 H :    0.251247
  23 H :    0.216140
  24 H :   -0.080709
  25 H :   -0.036486
Sum of atomic charges:    0.0000000

LOEWDIN ATOMIC CHARGES
----------------------
   0 C :    0.207382
   1 C :   -0.150902
   2 C :    0.211316
   3 C :    0.207383
   4 C :   -0.150902
   5 C :    0.211315
   6 H :   -0.179940
   7 C :    0.198148
   8 C :    0.198460
   9 C :    0.552800
  10 H :   -0.164108
  11 H :   -0.174133
  12 H :   -0.164072
  13 H :   -0.183747
  14 H :   -0.184602
  15 H :   -0.166599
  16 H :   -0.179938
  17 C :    0.198143
  18 C :    0.198456
  19 C :    0.552800
  20 H :   -0.164108
  21 H :   -0.164071
  22 H :   -0.174132
  23 H :   -0.183746
  24 H :   -0.184604
  25 H :   -0.166599

  Mayer bond orders larger than 0.100000
B(  0-C ,  1-C ) :  -0.4243 B(  0-C ,  2-C ) :  -0.6704 B(  0-C ,  3-C ) :   0.3358
B(  0-C ,  5-C ) :   0.9734 B(  0-C ,  8-C ) :  -0.1273 B(  0-C , 25-H ) :   1.6292
B(  1-C ,  2-C ) :   0.1315 B(  1-C ,  6-H ) :  -0.1373 B(  1-C ,  7-C ) :   0.3472
B(  1-C , 16-H ) :  -0.3376 B(  1-C , 17-C ) :   0.1019 B(  1-C , 18-C ) :  -0.1310
B(  1-C , 23-H ) :  -0.1172 B(  1-C , 25-H ) :  -0.3825 B(  2-C ,  3-C ) :   0.9736
B(  2-C ,  5-C ) :  -0.4422 B(  2-C ,  6-H ) :  -0.2485 B(  2-C ,  7-C ) :  -0.1685
B(  2-C ,  8-C ) :   0.1197 B(  2-C , 13-H ) :   0.1005 B(  2-C , 15-H ) :  -0.1972
B(  2-C , 16-H ) :   1.7092 B(  2-C , 17-C ) :   0.2259 B(  2-C , 18-C ) :   0.1065
B(  3-C ,  4-C ) :  -0.4242 B(  3-C ,  5-C ) :  -0.6704 B(  3-C , 15-H ) :   1.6292
B(  3-C , 18-C ) :  -0.1274 B(  4-C ,  5-C ) :   0.1314 B(  4-C ,  6-H ) :  -0.3377
B(  4-C ,  7-C ) :   0.1020 B(  4-C ,  8-C ) :  -0.1311 B(  4-C , 13-H ) :  -0.1172
B(  4-C , 15-H ) :  -0.3824 B(  4-C , 16-H ) :  -0.1373 B(  4-C , 17-C ) :   0.3472
B(  5-C ,  6-H ) :   1.7094 B(  5-C ,  7-C ) :   0.2259 B(  5-C ,  8-C ) :   0.1065
B(  5-C , 16-H ) :  -0.2484 B(  5-C , 17-C ) :  -0.1684 B(  5-C , 18-C ) :   0.1197
B(  5-C , 23-H ) :   0.1005 B(  5-C , 25-H ) :  -0.1972 B(  6-H ,  7-C ) :  -0.1003
B(  6-H , 15-H ) :   0.1614 B(  7-C ,  8-C ) :   0.8798 B(  7-C , 14-H ) :   1.3068
B(  8-C ,  9-C ) :   0.5702 B(  8-C , 13-H ) :   1.2266 B(  8-C , 14-H ) :  -0.1780
B(  9-C , 10-H ) :   1.0859 B(  9-C , 11-H ) :   0.9226 B(  9-C , 12-H ) :   1.0867
B(  9-C , 13-H ) :  -0.2376 B( 16-H , 17-C ) :  -0.1003 B( 16-H , 25-H ) :   0.1613
B( 17-C , 18-C ) :   0.8798 B( 17-C , 24-H ) :   1.3068 B( 18-C , 19-C ) :   0.5702
B( 18-C , 23-H ) :   1.2266 B( 18-C , 24-H ) :  -0.1780 B( 19-C , 20-H ) :   1.0861
B( 19-C , 21-H ) :   1.0865 B( 19-C , 22-H ) :   0.9226 B( 19-C , 23-H ) :  -0.2376

Dispersion correction           -0.008164273
FINAL SINGLE POINT ENERGY      -465.585175622498

DIPOLE MOMENT
-------------

Method             : SCF
Type of density    : Electron Density
Multiplicity       :   1
Irrep              :   0
Energy             :  -465.5770113497464990 Eh
Relativity type    :
Basis              : AO
                                X                 Y                 Z
Electronic contribution:     -0.000042404       0.000040108      -0.001127056
Nuclear contribution   :      0.000002145      -0.000025147       0.001221223
                        -----------------------------------------
Total Dipole Moment    :     -0.000040259       0.000014961       0.000094167
                        -----------------------------------------
Magnitude (a.u.)       :      0.000103499
Magnitude (Debye)      :      0.000263073

Rotational constants in cm-1:             0.149823             0.010865             0.010169
Rotational constants in MHz :          4491.593991           325.738832           304.872217

                             ****ORCA TERMINATED NORMALLY****
TOTAL RUN TIME: 0 days 0 hours 4 minutes 38 seconds 683 msec
