                         Program Version 6.0.0  -   RELEASE  -
|  1> !PBE0 freq def2-SV(p) d3 TightSCF SlowConv RIJCOSX defgrid2
|  2>
|  3> %pal
|  4> nprocs 12
|  5> end
|  6>
|  7> %scf
|  8> MaxIter 1500
|  9> end
| 10>
| 11> %maxcore 5000
| 12>
| 13> !CPCM
| 14> %cpcm smd true
| 15> SMDsolvent "MeCN"
| 16> surfacetype gepol_ses
| 17> rsolv 2.19
| 18> end
| 19>
| 20> * xyz 1 2
| 21> C          -0.34269272007240      0.86358128076305      0.00017336463965
| 22> C          -1.61682535315041      0.29872839502655      0.00027232709439
| 23> C          -1.76327593859363     -1.12703101466610     -0.00043203320543
| 24> C          -0.63739624062987     -1.94374731288786      0.00111620988972
| 25> C           0.62986374006271     -1.38405792570357      0.00213756313565
| 26> C           0.79391349839777      0.04957860833415      0.00072389636180
| 27> C           2.08976014414085      0.65591595139458      0.00005496901668
| 28> C           3.28455770892394     -0.01412761183965      0.00022525601574
| 29> C           4.60076745433762      0.64527726054507     -0.00077468032163
| 30> H           5.18451864818007      0.31137970640641     -0.88129020721960
| 31> H           5.18570341848605      0.31039397000190      0.87854450588036
| 32> H           4.53060789304738      1.74415603857220     -0.00034643185848
| 33> H           3.29554337913767     -1.11034005964591      0.00095237040151
| 34> H           2.11082180685012      1.75173098037836     -0.00151820887124
| 35> H           1.50348120820588     -2.03756779578787      0.00405410721875
| 36> H          -0.75835956643810     -3.02923439713395      0.00153349784824
| 37> H          -2.75714027479589     -1.57827690416758     -0.00330335470885
| 38> O          -2.64361150722117      1.12313406836635      0.00109467154263
| 39> C          -3.97832988466489      0.63537335929446     -0.00009984939859
| 40> H          -4.62009577830610      1.52670584632966      0.00409523358771
| 41> H          -4.17808477704092      0.03503845739409      0.90300179254814
| 42> H          -4.17858979000069      0.04318965829035     -0.90842418301036
| 43> H          -0.24797446885595      1.95153344073531     -0.00055491658677
| 44> *
| 45>
| 46>                          ****END OF INPUT****

CARTESIAN COORDINATES (ANGSTROEM)
---------------------------------
  C     -0.342693    0.863581    0.000173
  C     -1.616825    0.298728    0.000272
  C     -1.763276   -1.127031   -0.000432
  C     -0.637396   -1.943747    0.001116
  C      0.629864   -1.384058    0.002138
  C      0.793913    0.049579    0.000724
  C      2.089760    0.655916    0.000055
  C      3.284558   -0.014128    0.000225
  C      4.600767    0.645277   -0.000775
  H      5.184519    0.311380   -0.881290
  H      5.185703    0.310394    0.878545
  H      4.530608    1.744156   -0.000346
  H      3.295543   -1.110340    0.000952
  H      2.110822    1.751731   -0.001518
  H      1.503481   -2.037568    0.004054
  H     -0.758360   -3.029234    0.001533
  H     -2.757140   -1.578277   -0.003303
  O     -2.643612    1.123134    0.001095
  C     -3.978330    0.635373   -0.000100
  H     -4.620096    1.526706    0.004095
  H     -4.178085    0.035038    0.903002
  H     -4.178590    0.043190   -0.908424
  H     -0.247974    1.951533   -0.000555

 Total Charge           Charge          ....    1
 Multiplicity           Mult            ....    2
 Number of Electrons    NEL             ....   79
 Basis Dimension        Dim             ....  178

ORBITAL ENERGIES
----------------
                 SPIN UP ORBITALS
  NO   OCC          E(Eh)            E(eV)
   0   1.0000     -19.288343      -524.8625
   1   1.0000     -10.349613      -281.6273
   2   1.0000     -10.301959      -280.3305
   3   1.0000     -10.294181      -280.1189
   4   1.0000     -10.293610      -280.1034
   5   1.0000     -10.292295      -280.0676
   6   1.0000     -10.287745      -279.9438
   7   1.0000     -10.276529      -279.6386
   8   1.0000     -10.270335      -279.4700
   9   1.0000     -10.261558      -279.2312
  10   1.0000     -10.237874      -278.5867
  11   1.0000      -1.139461       -31.0063
  12   1.0000      -0.925031       -25.1714
  13   1.0000      -0.862708       -23.4755
  14   1.0000      -0.816285       -22.2123
  15   1.0000      -0.808172       -21.9915
  16   1.0000      -0.746357       -20.3094
  17   1.0000      -0.728614       -19.8266
  18   1.0000      -0.659412       -17.9435
  19   1.0000      -0.649578       -17.6759
  20   1.0000      -0.596987       -16.2448
  21   1.0000      -0.574898       -15.6438
  22   1.0000      -0.544100       -14.8057
  23   1.0000      -0.534485       -14.5441
  24   1.0000      -0.517814       -14.0904
  25   1.0000      -0.512668       -13.9504
  26   1.0000      -0.480021       -13.0620
  27   1.0000      -0.465811       -12.6753
  28   1.0000      -0.450470       -12.2579
  29   1.0000      -0.444691       -12.1007
  30   1.0000      -0.434755       -11.8303
  31   1.0000      -0.430455       -11.7133
  32   1.0000      -0.418245       -11.3810
  33   1.0000      -0.401869       -10.9354
  34   1.0000      -0.387245       -10.5375
  35   1.0000      -0.386878       -10.5275
  36   1.0000      -0.367342        -9.9959
  37   1.0000      -0.348763        -9.4903
  38   1.0000      -0.280733        -7.6391
  39   1.0000      -0.278124        -7.5681
  40   0.0000      -0.084844        -2.3087
  41   0.0000      -0.032787        -0.8922
  42   0.0000       0.020545         0.5591
  43   0.0000       0.073306         1.9948
  44   0.0000       0.081242         2.2107

                 SPIN DOWN ORBITALS
  NO   OCC          E(Eh)            E(eV)
   0   1.0000     -19.286300      -524.8069
   1   1.0000     -10.349150      -281.6147
   2   1.0000     -10.300790      -280.2987
   3   1.0000     -10.289748      -279.9983
   4   1.0000     -10.287843      -279.9464
   5   1.0000     -10.287769      -279.9444
   6   1.0000     -10.286321      -279.9050
   7   1.0000     -10.275889      -279.6212
   8   1.0000     -10.272804      -279.5372
   9   1.0000     -10.262393      -279.2539
  10   1.0000     -10.238053      -278.5916
  11   1.0000      -1.135740       -30.9051
  12   1.0000      -0.918180       -24.9850
  13   1.0000      -0.854619       -23.2554
  14   1.0000      -0.814598       -22.1663
  15   1.0000      -0.799042       -21.7430
  16   1.0000      -0.739598       -20.1255
  17   1.0000      -0.725256       -19.7352
  18   1.0000      -0.656152       -17.8548
  19   1.0000      -0.645094       -17.5539
  20   1.0000      -0.593935       -16.1618
  21   1.0000      -0.571986       -15.5645
  22   1.0000      -0.541718       -14.7409
  23   1.0000      -0.531128       -14.4527
  24   1.0000      -0.509863       -13.8741
  25   1.0000      -0.509241       -13.8571
  26   1.0000      -0.479201       -13.0397
  27   1.0000      -0.464975       -12.6526
  28   1.0000      -0.442780       -12.0486
  29   1.0000      -0.438784       -11.9399
  30   1.0000      -0.428149       -11.6505
  31   1.0000      -0.422768       -11.5041
  32   1.0000      -0.416593       -11.3361
  33   1.0000      -0.400530       -10.8990
  34   1.0000      -0.385435       -10.4882
  35   1.0000      -0.373229       -10.1561
  36   1.0000      -0.365409        -9.9433
  37   1.0000      -0.330143        -8.9836
  38   1.0000      -0.266889        -7.2624
  39   0.0000      -0.190944        -5.1958
  40   0.0000      -0.056804        -1.5457
  41   0.0000      -0.021286        -0.5792
  42   0.0000       0.040990         1.1154
  43   0.0000       0.074839         2.0365

MULLIKEN ATOMIC CHARGES AND SPIN POPULATIONS
--------------------------------------------
   0 C :   -0.204902   -0.063602
   1 C :    0.298381    0.023130
   2 C :   -0.118526    0.413333
   3 C :   -0.087587   -0.205090
   4 C :   -0.055481    0.409948
   5 C :    0.099467    0.063521
   6 C :   -0.114126    0.037184
   7 C :   -0.100098    0.288200
   8 C :   -0.329596   -0.025899
   9 H :    0.188945    0.020116
  10 H :    0.188771    0.020053
  11 H :    0.170029    0.000127
  12 H :    0.190515   -0.013671
  13 H :    0.159115   -0.002845
  14 H :    0.169437   -0.019452
  15 H :    0.161614    0.006881
  16 H :    0.176305   -0.019854
  17 O :   -0.283970    0.063913
  18 C :   -0.193680   -0.006770
  19 H :    0.183629   -0.000064
  20 H :    0.179841    0.004601
  21 H :    0.179811    0.004616
  22 H :    0.142107    0.001625
Sum of atomic charges         :    1.0000000

LOEWDIN ATOMIC CHARGES AND SPIN POPULATIONS
-------------------------------------------
   0 C :   -0.138801   -0.040476
   1 C :    0.080915    0.040703
   2 C :   -0.049309    0.329210
   3 C :   -0.106583   -0.109138
   4 C :   -0.020820    0.332110
   5 C :    0.011788    0.074657
   6 C :   -0.091135    0.050162
   7 C :   -0.005669    0.245080
   8 C :   -0.337111   -0.000806
   9 H :    0.168664    0.017438
  10 H :    0.168570    0.017384
  11 H :    0.145987    0.000081
  12 H :    0.159398   -0.007012
  13 H :    0.161981   -0.001574
  14 H :    0.166706   -0.009789
  15 H :    0.167177    0.003242
  16 H :    0.175360   -0.009788
  17 O :   -0.050862    0.064568
  18 C :   -0.198048   -0.002739
  19 H :    0.145551   -0.000050
  20 H :    0.139975    0.003061
  21 H :    0.140031    0.003077
  22 H :    0.166235    0.000598

  Mayer bond orders larger than 0.100000
B(  0-C ,  1-C ) :   1.3421 B(  0-C ,  5-C ) :   1.3264 B(  0-C , 22-H ) :   0.9657
B(  1-C ,  2-C ) :   1.1454 B(  1-C , 17-O ) :   1.2263 B(  2-C ,  3-C ) :   1.3694
B(  2-C , 16-H ) :   0.9431 B(  3-C ,  4-C ) :   1.4099 B(  3-C , 15-H ) :   0.9543
B(  4-C ,  5-C ) :   1.1391 B(  4-C , 14-H ) :   0.9374 B(  5-C ,  6-C ) :   1.2430
B(  6-C ,  7-C ) :   1.6044 B(  6-C , 13-H ) :   0.9298 B(  7-C ,  8-C ) :   1.1343
B(  7-C , 12-H ) :   0.8978 B(  8-C ,  9-H ) :   0.9047 B(  8-C , 10-H ) :   0.9048
B(  8-C , 11-H ) :   0.9444 B( 17-O , 18-C ) :   0.8882 B( 18-C , 19-H ) :   0.9479
B( 18-C , 20-H ) :   0.9365 B( 18-C , 21-H ) :   0.9366

Dispersion correction           -0.019993566
FINAL SINGLE POINT ENERGY      -462.402667454629

DIPOLE MOMENT
-------------

Method             : SCF
Type of density    : Electron Density
Multiplicity       :   2
Irrep              :   0
Energy             :  -462.3826738883683447 Eh
Relativity type    :
Basis              : AO
                                X                 Y                 Z
Electronic contribution:     -4.310860953      -0.752093384       0.005264232
Nuclear contribution   :      4.750293437      -0.213792472      -0.007224326
                        -----------------------------------------
Total Dipole Moment    :      0.439432483      -0.965885856      -0.001960094
                        -----------------------------------------
Magnitude (a.u.)       :      1.061150430
Magnitude (Debye)      :      2.697230042

VIBRATIONAL FREQUENCIES
-----------------------

Scaling factor for frequencies =  1.000000000  (already applied!)

     0:       0.00 cm**-1
     1:       0.00 cm**-1
     2:       0.00 cm**-1
     3:       0.00 cm**-1
     4:       0.00 cm**-1
     5:       0.00 cm**-1
     6:      22.21 cm**-1
     7:      82.78 cm**-1
     8:     109.60 cm**-1
     9:     128.90 cm**-1
    10:     162.50 cm**-1
    11:     170.10 cm**-1
    12:     224.86 cm**-1
    13:     252.31 cm**-1
    14:     265.52 cm**-1
    15:     335.18 cm**-1
    16:     365.85 cm**-1
    17:     415.69 cm**-1
    18:     427.55 cm**-1
    19:     552.92 cm**-1
    20:     599.32 cm**-1
    21:     616.21 cm**-1
    22:     624.60 cm**-1
    23:     763.09 cm**-1
    24:     785.68 cm**-1
    25:     821.03 cm**-1
    26:     894.27 cm**-1
    27:     899.42 cm**-1
    28:     908.91 cm**-1
    29:     958.33 cm**-1
    30:     961.30 cm**-1
    31:     989.39 cm**-1
    32:    1003.39 cm**-1
    33:    1031.25 cm**-1
    34:    1075.30 cm**-1
    35:    1131.69 cm**-1
    36:    1135.44 cm**-1
    37:    1161.61 cm**-1
    38:    1174.55 cm**-1
    39:    1205.29 cm**-1
    40:    1233.46 cm**-1
    41:    1285.97 cm**-1
    42:    1316.46 cm**-1
    43:    1334.07 cm**-1
    44:    1356.50 cm**-1
    45:    1361.24 cm**-1
    46:    1411.53 cm**-1
    47:    1430.24 cm**-1
    48:    1445.11 cm**-1
    49:    1456.23 cm**-1
    50:    1461.53 cm**-1
    51:    1469.76 cm**-1
    52:    1492.35 cm**-1
    53:    1529.39 cm**-1
    54:    1533.90 cm**-1
    55:    1615.34 cm**-1
    56:    1660.67 cm**-1
    57:    3018.29 cm**-1
    58:    3056.82 cm**-1
    59:    3088.93 cm**-1
    60:    3159.68 cm**-1
    61:    3160.19 cm**-1
    62:    3189.29 cm**-1
    63:    3201.59 cm**-1
    64:    3202.51 cm**-1
    65:    3231.79 cm**-1
    66:    3236.12 cm**-1
    67:    3249.56 cm**-1
    68:    3255.06 cm**-1

IR SPECTRUM
-----------

 Mode   freq       eps      Int      T**2         TX        TY        TZ
       cm**-1   L/(mol*cm) km/mol    a.u.
----------------------------------------------------------------------------
  6:     22.21   0.001034    5.22  0.014521  (-0.004920 -0.000503 -0.120403)
  7:     82.78   0.000249    1.26  0.000938  ( 0.001590  0.000543  0.030577)
  8:    109.60   0.000061    0.31  0.000175  ( 0.001970  0.000512 -0.013053)
  9:    128.90   0.000160    0.81  0.000388  (-0.000060  0.019701 -0.000114)
 10:    162.50   0.000953    4.82  0.001831  ( 0.002048  0.000040  0.042736)
 11:    170.10   0.000047    0.24  0.000087  ( 0.002839  0.000596 -0.008849)
 12:    224.86   0.000372    1.88  0.000516  (-0.001773  0.000383  0.022653)
 13:    252.31   0.009782   49.43  0.012098  (-0.109492  0.010477 -0.000182)
 14:    265.52   0.000003    0.01  0.000003  ( 0.001678 -0.000459  0.000467)
 15:    335.18   0.017451   88.19  0.016247  ( 0.126780  0.013202 -0.000027)
 16:    365.85   0.003660   18.49  0.003122  (-0.053656 -0.015576 -0.000032)
 17:    415.69   0.000116    0.59  0.000087  (-0.003913 -0.000488 -0.008477)
 18:    427.55   0.164453  831.08  0.120033  ( 0.345057  0.031112 -0.000134)
 19:    552.92   0.084790  428.49  0.047855  (-0.218741  0.002674  0.000256)
 20:    599.32   0.000798    4.03  0.000416  (-0.002461 -0.000276 -0.020234)
 21:    616.21   0.007970   40.28  0.004036  ( 0.000532 -0.000302  0.063528)
 22:    624.60   0.005674   28.67  0.002835  (-0.053214 -0.001572 -0.000809)
 23:    763.09   0.043320  218.92  0.017716  ( 0.129159  0.032152 -0.000102)
 24:    785.68   0.007711   38.97  0.003063  ( 0.001591  0.000375  0.055319)
 25:    821.03   0.000980    4.95  0.000372  (-0.000040  0.000052  0.019300)
 26:    894.27   0.004195   21.20  0.001464  (-0.002093 -0.000145 -0.038201)
 27:    899.42   0.003587   18.13  0.001244  (-0.015199 -0.031834  0.000138)
 28:    908.91   0.000345    1.74  0.000119  ( 0.002566  0.000178  0.010580)
 29:    958.33   0.159905  808.09  0.052070  (-0.228018 -0.007829  0.004117)
 30:    961.30   0.011885   60.06  0.003858  ( 0.014344  0.000016  0.060435)
 31:    989.39   0.047393  239.51  0.014948  (-0.121755 -0.011132  0.000128)
 32:   1003.39   0.000259    1.31  0.000080  (-0.001978 -0.000241  0.008743)
 33:   1031.25   0.001085    5.48  0.000328  ( 0.000575 -0.000130  0.018107)
 34:   1075.30   0.065917  333.12  0.019130  (-0.135824 -0.026109 -0.000150)
 35:   1131.69   0.218352  1103.46  0.060211  ( 0.241901  0.041168  0.000100)
 36:   1135.44   0.187292  946.50  0.051475  ( 0.226796 -0.006240 -0.000105)
 37:   1161.61   0.010637   53.76  0.002858  (-0.053055 -0.006547  0.000161)
 38:   1174.55   0.000104    0.53  0.000028  ( 0.003064  0.001026 -0.004155)
 39:   1205.29   0.007493   37.87  0.001940  (-0.043205 -0.008569 -0.000085)
 40:   1233.46   0.144254  729.00  0.036496  (-0.190966  0.005282  0.000107)
 41:   1285.97   0.537056  2714.06  0.130326  ( 0.360577  0.017609 -0.000100)
 42:   1316.46   0.073839  373.15  0.017503  (-0.132095  0.007369 -0.000004)
 43:   1334.07   0.005286   26.71  0.001237  ( 0.030868 -0.016843 -0.000103)
 44:   1356.50   0.011115   56.17  0.002557  (-0.050224  0.005864  0.000258)
 45:   1361.24   0.362454  1831.69  0.083092  (-0.288242 -0.002976  0.000021)
 46:   1411.53   0.004962   25.08  0.001097  ( 0.000093  0.000639 -0.033115)
 47:   1430.24   0.062434  315.52  0.013622  ( 0.116232 -0.010580 -0.000769)
 48:   1445.11   0.042063  212.57  0.009083  (-0.092679 -0.022225 -0.000007)
 49:   1456.23   0.031427  158.82  0.006735  (-0.075406  0.032382 -0.000028)
 50:   1461.53   0.004286   21.66  0.000915  (-0.002311 -0.001170 -0.030140)
 51:   1469.76   0.003755   18.98  0.000797  (-0.021390  0.018235 -0.002700)
 52:   1492.35   0.015149   76.56  0.003168  ( 0.045185 -0.033557 -0.000187)
 53:   1529.39   0.015844   80.07  0.003233  (-0.053720 -0.018629 -0.000108)
 54:   1533.90   0.843544  4262.93  0.171615  (-0.413053 -0.031644  0.000200)
 55:   1615.34   0.035421  179.00  0.006843  ( 0.081820  0.012177 -0.000030)
 56:   1660.67   0.050408  254.74  0.009472  ( 0.077832  0.058434  0.000109)
 57:   3018.29   0.010568   53.41  0.001093  (-0.032715 -0.004734  0.000088)
 58:   3056.82   0.032611  164.80  0.003329  ( 0.057124  0.008131 -0.000046)
 59:   3088.93   0.000080    0.40  0.000008  (-0.000420 -0.000056  0.002811)
 60:   3159.68   0.015951   80.61  0.001575  ( 0.036596  0.015367 -0.000093)
 61:   3160.19   0.001972    9.96  0.000195  ( 0.000101  0.000131  0.013953)
 62:   3189.29   0.006261   31.64  0.000613  ( 0.023732  0.007029  0.000074)
 63:   3201.59   0.001222    6.17  0.000119  (-0.009303  0.005703 -0.000027)
 64:   3202.51   0.001941    9.81  0.000189  ( 0.011489 -0.007557 -0.000047)
 65:   3231.79   0.000359    1.82  0.000035  ( 0.004560  0.003729 -0.000044)
 66:   3236.12   0.000508    2.57  0.000049  (-0.005529 -0.004293 -0.000018)
 67:   3249.56   0.000705    3.56  0.000068  (-0.007207  0.003972  0.000112)
 68:   3255.06   0.000246    1.25  0.000024  ( 0.002812 -0.003965  0.000005)

--------------------------
THERMOCHEMISTRY AT 298.15K
--------------------------

Temperature         ...   298.15 K
Pressure            ...     1.00 atm
Total Mass          ...   148.21 AMU
Quasi RRHO          ...     True
Cut-Off Frequency   ...     1.00 cm^-1

Throughout the following assumptions are being made:
  (1) The electronic state is orbitally nondegenerate
      but the spin degeneracy is treated
  (2) There are no thermally accessible electronically excited states
  (3) Hindered rotations indicated by low frequency modes are not
      treated as such but are treated as vibrations and this may
      cause some error
  (4) All equations used are the standard statistical mechanics
      equations for an ideal gas
  (5) All vibrations are strictly harmonic

freq.      22.21  E(vib)   ...       0.56
freq.      82.78  E(vib)   ...       0.48
freq.     109.60  E(vib)   ...       0.45
freq.     128.90  E(vib)   ...       0.43
freq.     162.50  E(vib)   ...       0.39
freq.     170.10  E(vib)   ...       0.38
freq.     224.86  E(vib)   ...       0.33
freq.     252.31  E(vib)   ...       0.30
freq.     265.52  E(vib)   ...       0.29
freq.     335.18  E(vib)   ...       0.24
freq.     365.85  E(vib)   ...       0.22
freq.     415.69  E(vib)   ...       0.18
freq.     427.55  E(vib)   ...       0.18
freq.     552.92  E(vib)   ...       0.12
freq.     599.32  E(vib)   ...       0.10
freq.     616.21  E(vib)   ...       0.09
freq.     624.60  E(vib)   ...       0.09
freq.     763.09  E(vib)   ...       0.06
freq.     785.68  E(vib)   ...       0.05
freq.     821.03  E(vib)   ...       0.05
freq.     894.27  E(vib)   ...       0.03
freq.     899.42  E(vib)   ...       0.03
freq.     908.91  E(vib)   ...       0.03
freq.     958.33  E(vib)   ...       0.03
freq.     961.30  E(vib)   ...       0.03
freq.     989.39  E(vib)   ...       0.02
freq.    1003.39  E(vib)   ...       0.02
freq.    1031.25  E(vib)   ...       0.02
freq.    1075.30  E(vib)   ...       0.02
freq.    1131.69  E(vib)   ...       0.01
freq.    1135.44  E(vib)   ...       0.01
freq.    1161.61  E(vib)   ...       0.01
freq.    1174.55  E(vib)   ...       0.01
freq.    1205.29  E(vib)   ...       0.01
freq.    1233.46  E(vib)   ...       0.01
freq.    1285.97  E(vib)   ...       0.01
freq.    1316.46  E(vib)   ...       0.01
freq.    1334.07  E(vib)   ...       0.01
freq.    1356.50  E(vib)   ...       0.01
freq.    1361.24  E(vib)   ...       0.01
freq.    1411.53  E(vib)   ...       0.00
freq.    1430.24  E(vib)   ...       0.00
freq.    1445.11  E(vib)   ...       0.00
freq.    1456.23  E(vib)   ...       0.00
freq.    1461.53  E(vib)   ...       0.00
freq.    1469.76  E(vib)   ...       0.00
freq.    1492.35  E(vib)   ...       0.00
freq.    1529.39  E(vib)   ...       0.00
freq.    1533.90  E(vib)   ...       0.00
freq.    1615.34  E(vib)   ...       0.00
freq.    1660.67  E(vib)   ...       0.00
freq.    3018.29  E(vib)   ...       0.00
freq.    3056.82  E(vib)   ...       0.00
freq.    3088.93  E(vib)   ...       0.00
freq.    3159.68  E(vib)   ...       0.00
freq.    3160.19  E(vib)   ...       0.00
freq.    3189.29  E(vib)   ...       0.00
freq.    3201.59  E(vib)   ...       0.00
freq.    3202.51  E(vib)   ...       0.00
freq.    3231.79  E(vib)   ...       0.00
freq.    3236.12  E(vib)   ...       0.00
freq.    3249.56  E(vib)   ...       0.00
freq.    3255.06  E(vib)   ...       0.00

------------
INNER ENERGY
------------

The inner energy is: U= E(el) + E(ZPE) + E(vib) + E(rot) + E(trans)
    E(el)   - is the total energy from the electronic structure calculation
              = E(kin-el) + E(nuc-el) + E(el-el) + E(nuc-nuc)
    E(ZPE)  - the the zero temperature vibrational energy from the frequency calculation
    E(vib)  - the the finite temperature correction to E(ZPE) due to population
              of excited vibrational states
    E(rot)  - is the rotational thermal energy
    E(trans)- is the translational thermal energy

Summary of contributions to the inner energy U:
Electronic energy                ...   -462.40266745 Eh
Zero point energy                ...      0.19295999 Eh     121.08 kcal/mol
Thermal vibrational correction   ...      0.00855465 Eh       5.37 kcal/mol
Thermal rotational correction    ...      0.00141627 Eh       0.89 kcal/mol
Thermal translational correction ...      0.00141627 Eh       0.89 kcal/mol
-----------------------------------------------------------------------
Total thermal energy                   -462.19832028 Eh

Summary of corrections to the electronic energy:
(perhaps to be used in another calculation)
Total thermal correction                  0.01138719 Eh       7.15 kcal/mol
Non-thermal (ZPE) correction              0.19295999 Eh     121.08 kcal/mol
-----------------------------------------------------------------------
Total correction                          0.20434718 Eh     128.23 kcal/mol

--------
ENTHALPY
--------

The enthalpy is H = U + kB*T
                kB is Boltzmann's constant
Total thermal energy              ...   -462.19832028 Eh
Thermal Enthalpy correction       ...      0.00094421 Eh       0.59 kcal/mol
-----------------------------------------------------------------------
Total Enthalpy                    ...   -462.19737607 Eh

Note: Only C1 symmetry has been detected, increase convergence thresholds
      if your molecule has a higher symmetry. Symmetry factor of 1.0 is
      used for the rotational entropy correction.

Note: Rotational entropy computed according to Herzberg
Infrared and Raman Spectra, Chapter V,1, Van Nostrand Reinhold, 1945
Point Group:  C1, Symmetry Number:   1
Rotational constants in cm-1:     0.104172     0.017090     0.014764

Vibrational entropy computed according to the QRRHO of S. Grimme
Chem.Eur.J. 2012 18 9955 using a reference frequency of 100.0 cm-1

-------
ENTROPY
-------

The entropy contributions are T*S = T*(S(el)+S(vib)+S(rot)+S(trans))
     S(el)   - electronic entropy
     S(vib)  - vibrational entropy
     S(rot)  - rotational entropy
     S(trans)- translational entropy
The entropies will be listed as multiplied by the temperature to get
units of energy

Electronic entropy                ...      0.00065446 Eh      0.41 kcal/mol
Vibrational entropy               ...      0.01514834 Eh      9.51 kcal/mol
Rotational entropy                ...      0.01448971 Eh      9.09 kcal/mol
Translational entropy             ...      0.01942844 Eh     12.19 kcal/mol
-----------------------------------------------------------------------
Final entropy term                ...      0.04972095 Eh     31.20 kcal/mol

In case the symmetry of your molecule has not been determined correctly

                             ****ORCA TERMINATED NORMALLY****
TOTAL RUN TIME: 0 days 0 hours 9 minutes 36 seconds 285 msec
