                         Program Version 6.0.0  -   RELEASE  -
|  1> !PBE0 aug-cc-pVTZ d3 TightSCF SlowConv RIJCOSX defgrid2
|  2>
|  3> %pal
|  4> nprocs 10
|  5> end
|  6>
|  7> %scf
|  8> MaxIter 1500
|  9> end
| 10>
| 11> %maxcore 3500
| 12>
| 13> !CPCM
| 14> %cpcm smd true
| 15> SMDsolvent "WATER"
| 16> surfacetype gepol_ses
| 17> rsolv 1.40
| 18> end
| 19>
| 20> * xyz 1 1
| 21>   C          -0.12783464168902      0.03134307060273     -1.09515140317282
| 22>   C          -0.07771588779790     -0.92971218052811     -0.16710947357547
| 23>   C          -0.12919605245006     -0.42683937130453      1.23585814524276
| 24>   N          -0.22178468713299      1.04844033562478      0.98180183190431
| 25>   C          -0.22815278386695      1.40845079820397     -0.48344802154556
| 26>   H          -0.00562746786650     -1.99097881364679     -0.41742121227399
| 27>   O          -0.28283959618216      1.84841054848959      1.83590548918913
| 28>   C          -0.08518619128336     -0.35879109937522     -2.55276447601453
| 29>   O          -0.01182556277165     -1.53029284400420     -2.84168103743639
| 30>   C          -1.55459876437257      2.13631852567497     -0.74219631083336
| 31>   H          -1.61559639608661      2.40210019987432     -1.80874507031995
| 32>   H          -2.41672834703621      1.49039588964646     -0.50990257113543
| 33>   H          -1.60867043617204      3.06315133921376     -0.14807750091220
| 34>   C           0.99197987220583      2.31175839591414     -0.70863005539040
| 35>   H           0.90571734984683      3.23356560719802     -0.11031871750380
| 36>   H           1.92856903642825      1.78807470587538     -0.45768655458116
| 37>   H           1.04150556124239      2.59281936172848     -1.77181047702734
| 38>   C           1.15110865335917     -0.68043554170839      2.04328624127400
| 39>   H           1.23899297088630     -1.76802501138656      2.19811060240581
| 40>   H           2.04596289628099     -0.33699333930403      1.49967780306167
| 41>   H           1.09453254399261     -0.18569022918863      3.02671243361448
| 42>   C          -1.38670020602967     -0.84436366873233      2.01059021085389
| 43>   H          -2.30386467942418     -0.61864219459089      1.44313189602476
| 44>   H          -1.33732117512029     -1.93426317158842      2.16621895625276
| 45>   H          -1.41858650993659     -0.34674593001915      2.99356252765365
| 46>   N          -0.13386543071122      0.63534107507626     -3.47284130418435
| 47>   H          -0.18439275173440      1.61992840290075     -3.25301637873183
| 48>   H          -0.10209108757800      0.36432528735361     -4.45187443683860
| 49> *
| 50>
| 51>                          ****END OF INPUT****

CARTESIAN COORDINATES (ANGSTROEM)
---------------------------------
  C     -0.127835    0.031343   -1.095151
  C     -0.077716   -0.929712   -0.167109
  C     -0.129196   -0.426839    1.235858
  N     -0.221785    1.048440    0.981802
  C     -0.228153    1.408451   -0.483448
  H     -0.005627   -1.990979   -0.417421
  O     -0.282840    1.848411    1.835905
  C     -0.085186   -0.358791   -2.552764
  O     -0.011826   -1.530293   -2.841681
  C     -1.554599    2.136319   -0.742196
  H     -1.615596    2.402100   -1.808745
  H     -2.416728    1.490396   -0.509903
  H     -1.608670    3.063151   -0.148078
  C      0.991980    2.311758   -0.708630
  H      0.905717    3.233566   -0.110319
  H      1.928569    1.788075   -0.457687
  H      1.041506    2.592819   -1.771810
  C      1.151109   -0.680436    2.043286
  H      1.238993   -1.768025    2.198111
  H      2.045963   -0.336993    1.499678
  H      1.094533   -0.185690    3.026712
  C     -1.386700   -0.844364    2.010590
  H     -2.303865   -0.618642    1.443132
  H     -1.337321   -1.934263    2.166219
  H     -1.418587   -0.346746    2.993563
  N     -0.133865    0.635341   -3.472841
  H     -0.184393    1.619928   -3.253016
  H     -0.102091    0.364325   -4.451874

 Total Charge           Charge          ....    1
 Multiplicity           Mult            ....    1
 Number of Electrons    NEL             ....   98
 Basis Dimension        Dim             ....  943

ORBITAL ENERGIES
----------------

  NO   OCC          E(Eh)            E(eV)
   0   2.0000     -19.363898      -526.9184
   1   2.0000     -19.198325      -522.4130
   2   2.0000     -14.639912      -398.3723
   3   2.0000     -14.420232      -392.3945
   4   2.0000     -10.357429      -281.8400
   5   2.0000     -10.338667      -281.3294
   6   2.0000     -10.333922      -281.2003
   7   2.0000     -10.275631      -279.6141
   8   2.0000     -10.270684      -279.4795
   9   2.0000     -10.248069      -278.8641
  10   2.0000     -10.248030      -278.8631
  11   2.0000     -10.246416      -278.8191
  12   2.0000     -10.246368      -278.8178
  13   2.0000      -1.319933       -35.9172
  14   2.0000      -1.100383       -29.9430
  15   2.0000      -0.995254       -27.0822
  16   2.0000      -0.947241       -25.7757
  17   2.0000      -0.888446       -24.1759
  18   2.0000      -0.820933       -22.3387
  19   2.0000      -0.784081       -21.3359
  20   2.0000      -0.748472       -20.3670
  21   2.0000      -0.735832       -20.0230
  22   2.0000      -0.693738       -18.8776
  23   2.0000      -0.682377       -18.5684
  24   2.0000      -0.645001       -17.5514
  25   2.0000      -0.619049       -16.8452
  26   2.0000      -0.588969       -16.0267
  27   2.0000      -0.571402       -15.5486
  28   2.0000      -0.567154       -15.4330
  29   2.0000      -0.524764       -14.2796
  30   2.0000      -0.510378       -13.8881
  31   2.0000      -0.484746       -13.1906
  32   2.0000      -0.477559       -12.9950
  33   2.0000      -0.473943       -12.8966
  34   2.0000      -0.461702       -12.5635
  35   2.0000      -0.454294       -12.3620
  36   2.0000      -0.449243       -12.2245
  37   2.0000      -0.436527       -11.8785
  38   2.0000      -0.434816       -11.8319
  39   2.0000      -0.420941       -11.4544
  40   2.0000      -0.415075       -11.2948
  41   2.0000      -0.396130       -10.7792
  42   2.0000      -0.395019       -10.7490
  43   2.0000      -0.388263       -10.5652
  44   2.0000      -0.384869       -10.4728
  45   2.0000      -0.358095        -9.7442
  46   2.0000      -0.307719        -8.3735
  47   2.0000      -0.307429        -8.3656
  48   2.0000      -0.304705        -8.2914
  49   0.0000      -0.169007        -4.5989
  50   0.0000      -0.059673        -1.6238
  51   0.0000      -0.002023        -0.0550
  52   0.0000       0.010104         0.2749
  53   0.0000       0.013680         0.3723

MULLIKEN ATOMIC CHARGES
-----------------------
   0 C :    1.042153
   1 C :   -0.962924
   2 C :    0.766669
   3 N :    1.226476
   4 C :    0.987097
   5 H :    0.503256
   6 O :   -0.949680
   7 C :    0.471200
   8 O :   -1.008246
   9 C :   -0.974600
  10 H :    0.301743
  11 H :    0.264061
  12 H :    0.183191
  13 C :   -0.974705
  14 H :    0.182016
  15 H :    0.250413
  16 H :    0.310703
  17 C :   -1.055332
  18 H :    0.239287
  19 H :    0.265494
  20 H :    0.217324
  21 C :   -1.048993
  22 H :    0.258051
  23 H :    0.236816
  24 H :    0.225007
  25 N :   -0.216779
  26 H :    0.136682
  27 H :    0.123622
Sum of atomic charges:    1.0000000

LOEWDIN ATOMIC CHARGES
----------------------
   0 C :   -0.063636
   1 C :    0.266609
   2 C :   -0.396023
   3 N :   -0.038985
   4 C :   -0.385383
   5 H :   -0.124800
   6 O :    0.663119
   7 C :   -0.686572
   8 O :    0.444371
   9 C :    0.636235
  10 H :   -0.138672
  11 H :   -0.125247
  12 H :   -0.132493
  13 C :    0.636282
  14 H :   -0.132686
  15 H :   -0.124871
  16 H :   -0.139214
  17 C :    0.635856
  18 H :   -0.122854
  19 H :   -0.129768
  20 H :   -0.134829
  21 C :    0.636120
  22 H :   -0.129908
  23 H :   -0.122806
  24 H :   -0.134926
  25 N :    0.889905
  26 H :   -0.302289
  27 H :   -0.242534

  Mayer bond orders larger than 0.100000
B(  0-C ,  1-C ) :   0.9966 B(  0-C ,  3-N ) :  -0.2799 B(  0-C ,  4-C ) :   0.9007
B(  0-C ,  7-C ) :  -0.1984 B(  0-C ,  8-O ) :   0.6340 B(  0-C , 25-N ) :  -0.3197
B(  1-C ,  2-C ) :   1.2863 B(  1-C ,  3-N ) :  -0.3494 B(  1-C ,  4-C ) :  -0.1391
B(  1-C ,  5-H ) :   0.6792 B(  1-C ,  7-C ) :   0.4205 B(  2-C ,  3-N ) :   1.0215
B(  2-C ,  6-O ) :  -0.2259 B(  2-C ,  7-C ) :  -0.1366 B(  2-C , 17-C ) :   0.6398
B(  2-C , 21-C ) :   0.6621 B(  3-N ,  4-C ) :   1.2743 B(  3-N ,  6-O ) :   0.4945
B(  4-C ,  7-C ) :   0.3088 B(  4-C ,  9-C ) :   0.6968 B(  4-C , 13-C ) :   0.6862
B(  5-H ,  8-O ) :   0.1149 B(  7-C ,  8-O ) :   0.4527 B(  7-C , 25-N ) :   1.2510
B(  9-C , 10-H ) :   0.8769 B(  9-C , 11-H ) :   0.9359 B(  9-C , 12-H ) :   1.0262
B( 13-C , 14-H ) :   1.0281 B( 13-C , 15-H ) :   0.9546 B( 13-C , 16-H ) :   0.8611
B( 17-C , 18-H ) :   0.9692 B( 17-C , 19-H ) :   0.9424 B( 17-C , 20-H ) :   0.9989
B( 17-C , 21-C ) :   0.1428 B( 21-C , 22-H ) :   0.9535 B( 21-C , 23-H ) :   0.9726
B( 21-C , 24-H ) :   0.9867 B( 25-N , 26-H ) :   1.0089 B( 25-N , 27-H ) :   1.0090

Dispersion correction           -0.028569813
FINAL SINGLE POINT ENERGY      -611.256371945332

DIPOLE MOMENT
-------------

Method             : SCF
Type of density    : Electron Density
Multiplicity       :   1
Irrep              :   0
Energy             :  -611.2278021322559880 Eh
Relativity type    :
Basis              : AO
                                X                 Y                 Z
Electronic contribution:      0.139159361      -1.298549990      -3.184684210
Nuclear contribution   :     -0.277270832       3.421665314       4.666505617
                        -----------------------------------------
Total Dipole Moment    :     -0.138111471       2.123115324       1.481821407
                        -----------------------------------------
Magnitude (a.u.)       :      2.592776146
Magnitude (Debye)      :      6.590313221

Rotational constants in cm-1:             0.040160             0.022299             0.017655
Rotational constants in MHz :          1203.956703           668.492574           529.280087

                             ****ORCA TERMINATED NORMALLY****
TOTAL RUN TIME: 0 days 0 hours 8 minutes 40 seconds 916 msec
