                         Program Version 6.0.0  -   RELEASE  -
|  1> !PBE0 def2-SV(p) Opt Freq d3 TightSCF SlowConv RIJCOSX defgrid2
|  2>
|  3> %pal
|  4> nprocs 4
|  5> end
|  6>
|  7> %scf
|  8> MaxIter 1500
|  9> end
| 10>
| 11> %maxcore 3000
| 12>
| 13>
| 14>
| 15> * xyz 0 1
| 16> C    -0.3271435    0.7785477   -0.0001679
| 17> C    -1.6146055    0.2465135   -0.0000372
| 18> C    -1.7819758   -1.1336070    0.0000400
| 19> C    -0.6614773   -1.9513976   -0.0000072
| 20> C     0.6119119   -1.4229852   -0.0001126
| 21> C     0.7999990   -0.0371341   -0.0001860
| 22> C     2.1138906    0.5931647   -0.0002858
| 23> C     3.2975680   -0.0161668    0.0002661
| 24> C     4.6056613    0.6981654    0.0001531
| 25> H     5.1863647    0.4164579   -0.8782822
| 26> H     5.1860515    0.4173095    0.8790667
| 27> H     4.4645851    1.7761478   -0.0003967
| 28> H     3.3659889   -1.0952352    0.0008680
| 29> H     2.0912310    1.6767608   -0.0008195
| 30> H     1.4615497   -2.0866859   -0.0001703
| 31> H    -0.7968862   -3.0234346    0.0000375
| 32> H    -2.7634006   -1.5799568    0.0001221
| 33> O    -2.6312810    1.1588120   -0.0000001
| 34> C    -3.9602443    0.6877758    0.0002919
| 35> H    -4.5862895    1.5785621    0.0004214
| 36> H    -4.1743770    0.0930239    0.8941411
| 37> H    -4.1747692    0.0930096   -0.8934549
| 38> H    -0.2251876    1.8537155   -0.0002329
| 39> *
| 40>
| 41>                          ****END OF INPUT****
 Total Charge           Charge          ....    0
 Multiplicity           Mult            ....    1
 Number of Electrons    NEL             ....   80
Dispersion correction           -0.020000727
FINAL SINGLE POINT ENERGY      -462.598156988082
Dispersion correction             ... done (  0.1 sec)
Dispersion correction           -0.019935427
FINAL SINGLE POINT ENERGY      -462.600749248710
Dispersion correction             ... done (  0.1 sec)
Dispersion correction           -0.019920932
FINAL SINGLE POINT ENERGY      -462.600864917855
Dispersion correction             ... done (  0.1 sec)
Dispersion correction           -0.019918424
FINAL SINGLE POINT ENERGY      -462.600902094913
Dispersion correction             ... done (  0.1 sec)
Dispersion correction           -0.019920011
FINAL SINGLE POINT ENERGY      -462.600904538617
Dispersion correction             ... done (  0.0 sec)
                    ***********************HURRAY********************

CARTESIAN COORDINATES (ANGSTROEM)
---------------------------------
  C     -0.335789    0.787063   -0.000071
  C     -1.631045    0.254432    0.000024
  C     -1.806665   -1.131848    0.000105
  C     -0.677095   -1.957093    0.000082
  C      0.604852   -1.429868   -0.000009
  C      0.794037   -0.034049   -0.000078
  C      2.117768    0.599428   -0.000158
  C      3.313011   -0.010377    0.000170
  C      4.626723    0.696704    0.000066
  H      5.229868    0.420627   -0.885568
  H      5.229692    0.421217    0.886004
  H      4.499471    1.792391   -0.000314
  H      3.358307   -1.107651    0.000557
  H      2.101831    1.697733   -0.000502
  H      1.464803   -2.103721   -0.000059
  H     -0.815078   -3.042729    0.000124
  H     -2.802028   -1.579312    0.000174
  O     -2.638801    1.152365    0.000026
  C     -3.955837    0.685259    0.000174
  H     -4.603518    1.574865    0.000195
  H     -4.177259    0.080182    0.900834
  H     -4.177435    0.080099   -0.900388
  H     -0.232649    1.875647   -0.000133

 Multiplicity           Mult            ....    1
 Number of Electrons    NEL             ....   80
 Basis Dimension        Dim             ....  178

ORBITAL ENERGIES
----------------

  NO   OCC          E(Eh)            E(eV)
   0   2.0000     -19.241722      -523.5939
   1   2.0000     -10.293317      -280.0954
   2   2.0000     -10.282149      -279.7915
   3   2.0000     -10.243834      -278.7489
   4   2.0000     -10.235579      -278.5243
   5   2.0000     -10.235366      -278.5185
   6   2.0000     -10.230298      -278.3806
   7   2.0000     -10.230274      -278.3799
   8   2.0000     -10.226451      -278.2759
   9   2.0000     -10.225704      -278.2556
  10   2.0000     -10.225414      -278.2477
  11   2.0000      -1.093675       -29.7604
  12   2.0000      -0.874775       -23.8038
  13   2.0000      -0.815345       -22.1867
  14   2.0000      -0.774300       -21.0698
  15   2.0000      -0.765617       -20.8335
  16   2.0000      -0.709321       -19.3016
  17   2.0000      -0.694148       -18.8887
  18   2.0000      -0.618817       -16.8389
  19   2.0000      -0.613589       -16.6966
  20   2.0000      -0.567881       -15.4528
  21   2.0000      -0.538744       -14.6600
  22   2.0000      -0.504030       -13.7154
  23   2.0000      -0.496684       -13.5155
  24   2.0000      -0.488775       -13.3002
  25   2.0000      -0.474522       -12.9124
  26   2.0000      -0.448381       -12.2011
  27   2.0000      -0.434079       -11.8119
  28   2.0000      -0.426143       -11.5959
  29   2.0000      -0.414946       -11.2913
  30   2.0000      -0.400281       -10.8922
  31   2.0000      -0.396236       -10.7821
  32   2.0000      -0.381979       -10.3942
  33   2.0000      -0.367043        -9.9877
  34   2.0000      -0.356855        -9.7105
  35   2.0000      -0.344498        -9.3743
  36   2.0000      -0.336630        -9.1602
  37   2.0000      -0.299641        -8.1536
  38   2.0000      -0.238621        -6.4932
  39   2.0000      -0.225145        -6.1265
  40   0.0000      -0.025995        -0.7073
  41   0.0000       0.007631         0.2076
  42   0.0000       0.071389         1.9426
  43   0.0000       0.074318         2.0223
  44   0.0000       0.087038         2.3684

MULLIKEN ATOMIC CHARGES
-----------------------
   0 C :   -0.226133
   1 C :    0.294621
   2 C :   -0.233189
   3 C :   -0.076194
   4 C :   -0.147746
   5 C :    0.117540
   6 C :   -0.119676
   7 C :   -0.168242
   8 C :   -0.311613
   9 H :    0.138252
  10 H :    0.138251
  11 H :    0.132034
  12 H :    0.112702
  13 H :    0.085362
  14 H :    0.083840
  15 H :    0.091318
  16 H :    0.085217
  17 O :   -0.326687
  18 C :   -0.158419
  19 H :    0.147625
  20 H :    0.128843
  21 H :    0.128843
  22 H :    0.083449
Sum of atomic charges:    0.0000000

LOEWDIN ATOMIC CHARGES
----------------------
   0 C :   -0.142311
   1 C :    0.041677
   2 C :   -0.188737
   3 C :   -0.114480
   4 C :   -0.141954
   5 C :   -0.032990
   6 C :   -0.135731
   7 C :   -0.136395
   8 C :   -0.337651
   9 H :    0.131633
  10 H :    0.131632
  11 H :    0.126918
  12 H :    0.122865
  13 H :    0.124674
  14 H :    0.125905
  15 H :    0.128429
  16 H :    0.130920
  17 O :   -0.110784
  18 C :   -0.202492
  19 H :    0.124351
  20 H :    0.110024
  21 H :    0.110024
  22 H :    0.134474

  Mayer bond orders larger than 0.100000
B(  0-C ,  1-C ) :   1.3383 B(  0-C ,  5-C ) :   1.3597 B(  0-C , 22-H ) :   0.9649
B(  1-C ,  2-C ) :   1.3305 B(  1-C , 17-O ) :   1.1083 B(  2-C ,  3-C ) :   1.3437
B(  2-C , 16-H ) :   0.9612 B(  3-C ,  4-C ) :   1.4389 B(  3-C , 15-H ) :   0.9584
B(  4-C ,  5-C ) :   1.3359 B(  4-C , 14-H ) :   0.9521 B(  5-C ,  6-C ) :   1.0881
B(  6-C ,  7-C ) :   1.8983 B(  6-C , 13-H ) :   0.9354 B(  7-C ,  8-C ) :   1.0834
B(  7-C , 12-H ) :   0.9133 B(  8-C ,  9-H ) :   0.9374 B(  8-C , 10-H ) :   0.9374
B(  8-C , 11-H ) :   0.9534 B( 17-O , 18-C ) :   0.9646 B( 18-C , 19-H ) :   0.9570
B( 18-C , 20-H ) :   0.9412 B( 18-C , 21-H ) :   0.9412

Dispersion correction           -0.019920963
FINAL SINGLE POINT ENERGY      -462.600904792468

DIPOLE MOMENT
-------------

Method             : SCF
Type of density    : Electron Density
Multiplicity       :   1
Irrep              :   0
Energy             :  -462.5809838292192921 Eh
Relativity type    :
Basis              : AO
                                X                 Y                 Z
Electronic contribution:     -5.029773754      -0.353823454      -0.000401169
Nuclear contribution   :      4.758796555       0.116147158       0.000484674
                        -----------------------------------------
Total Dipole Moment    :     -0.270977199      -0.237676296       0.000083505
                        -----------------------------------------
Magnitude (a.u.)       :      0.360442327
Magnitude (Debye)      :      0.916171585

VIBRATIONAL FREQUENCIES
-----------------------

Scaling factor for frequencies =  1.000000000  (already applied!)

     0:       0.00 cm**-1
     1:       0.00 cm**-1
     2:       0.00 cm**-1
     3:       0.00 cm**-1
     4:       0.00 cm**-1
     5:       0.00 cm**-1
     6:      35.41 cm**-1
     7:      87.76 cm**-1
     8:     126.50 cm**-1
     9:     132.36 cm**-1
    10:     196.67 cm**-1
    11:     216.20 cm**-1
    12:     259.11 cm**-1
    13:     285.60 cm**-1
    14:     301.61 cm**-1
    15:     335.82 cm**-1
    16:     367.50 cm**-1
    17:     470.72 cm**-1
    18:     483.71 cm**-1
    19:     584.41 cm**-1
    20:     618.55 cm**-1
    21:     641.97 cm**-1
    22:     708.91 cm**-1
    23:     778.60 cm**-1
    24:     792.20 cm**-1
    25:     830.64 cm**-1
    26:     892.26 cm**-1
    27:     918.12 cm**-1
    28:     919.14 cm**-1
    29:     990.55 cm**-1
    30:     991.70 cm**-1
    31:    1007.45 cm**-1
    32:    1014.04 cm**-1
    33:    1063.84 cm**-1
    34:    1125.61 cm**-1
    35:    1127.25 cm**-1
    36:    1139.61 cm**-1
    37:    1185.21 cm**-1
    38:    1186.22 cm**-1
    39:    1211.59 cm**-1
    40:    1228.25 cm**-1
    41:    1316.63 cm**-1
    42:    1319.61 cm**-1
    43:    1340.03 cm**-1
    44:    1354.59 cm**-1
    45:    1408.49 cm**-1
    46:    1421.95 cm**-1
    47:    1460.91 cm**-1
    48:    1470.06 cm**-1
    49:    1477.69 cm**-1
    50:    1481.02 cm**-1
    51:    1495.43 cm**-1
    52:    1509.77 cm**-1
    53:    1553.41 cm**-1
    54:    1669.62 cm**-1
    55:    1701.71 cm**-1
    56:    1762.92 cm**-1
    57:    3008.33 cm**-1
    58:    3020.29 cm**-1
    59:    3086.16 cm**-1
    60:    3092.39 cm**-1
    61:    3131.37 cm**-1
    62:    3150.24 cm**-1
    63:    3162.00 cm**-1
    64:    3163.74 cm**-1
    65:    3197.25 cm**-1
    66:    3210.07 cm**-1
    67:    3219.95 cm**-1
    68:    3234.37 cm**-1

IR SPECTRUM
-----------

 Mode   freq       eps      Int      T**2         TX        TY        TZ
       cm**-1   L/(mol*cm) km/mol    a.u.
----------------------------------------------------------------------------
  6:     35.41   0.000175    0.88  0.001542  (-0.000008 -0.000003 -0.039266)
  7:     87.76   0.000838    4.23  0.002978  ( 0.000001  0.000011  0.054575)
  8:    126.50   0.000202    1.02  0.000499  (-0.016381  0.015195  0.000005)
  9:    132.36   0.000026    0.13  0.000062  ( 0.000019 -0.000020  0.007870)
 10:    196.67   0.000213    1.08  0.000338  (-0.000004 -0.000003 -0.018379)
 11:    216.20   0.000046    0.23  0.000067  (-0.000000  0.000003  0.008192)
 12:    259.11   0.000305    1.54  0.000368  (-0.002383  0.019031  0.000002)
 13:    285.60   0.000130    0.66  0.000142  ( 0.000003 -0.000003  0.011928)
 14:    301.61   0.000015    0.07  0.000015  (-0.000013 -0.000003 -0.003900)
 15:    335.82   0.000018    0.09  0.000016  ( 0.004045  0.000128 -0.000002)
 16:    367.50   0.000365    1.84  0.000310  ( 0.017302 -0.003186 -0.000003)
 17:    470.72   0.000329    1.66  0.000218  (-0.000002  0.000005 -0.014770)
 18:    483.71   0.000307    1.55  0.000198  ( 0.012358  0.006738  0.000001)
 19:    584.41   0.001243    6.28  0.000664  ( 0.016010 -0.020182  0.000001)
 20:    618.55   0.000023    0.12  0.000012  ( 0.000003 -0.000001 -0.003405)
 21:    641.97   0.000222    1.12  0.000108  (-0.006814 -0.007854 -0.000001)
 22:    708.91   0.003094   15.64  0.001362  (-0.000003  0.000004 -0.036905)
 23:    778.60   0.001300    6.57  0.000521  (-0.020321  0.010395  0.000017)
 24:    792.20   0.007390   37.35  0.002911  (-0.000007 -0.000001 -0.053956)
 25:    830.64   0.000126    0.64  0.000047  ( 0.000010 -0.000003 -0.006871)
 26:    892.26   0.000344    1.74  0.000120  ( 0.000013 -0.000005 -0.010964)
 27:    918.12   0.002265   11.45  0.000770  ( 0.000229 -0.000119  0.027748)
 28:    919.14   0.005696   28.78  0.001934  (-0.038641  0.020991  0.000151)
 29:    990.55   0.000286    1.45  0.000090  ( 0.000058  0.000017 -0.009499)
 30:    991.70   0.001766    8.92  0.000556  (-0.022772 -0.006088 -0.000006)
 31:   1007.45   0.006243   31.55  0.001934  (-0.000020 -0.000001 -0.043976)
 32:   1014.04   0.000139    0.70  0.000043  ( 0.002794 -0.005909  0.000003)
 33:   1063.84   0.000007    0.04  0.000002  ( 0.000004 -0.000001 -0.001453)
 34:   1125.61   0.007240   36.59  0.002007  ( 0.042293  0.014782 -0.000003)
 35:   1127.25   0.001263    6.38  0.000350  ( 0.005682  0.017814 -0.000002)
 36:   1139.61   0.000171    0.87  0.000047  ( 0.006744  0.001186 -0.000000)
 37:   1185.21   0.000112    0.57  0.000029  (-0.000016  0.000004  0.005431)
 38:   1186.22   0.003823   19.32  0.001006  ( 0.031532 -0.003392  0.000000)
 39:   1211.59   0.003067   15.50  0.000790  ( 0.027832  0.003916 -0.000003)
 40:   1228.25   0.003402   17.19  0.000864  (-0.028319  0.007905  0.000003)
 41:   1316.63   0.007353   37.16  0.001743  ( 0.039722 -0.012842 -0.000002)
 42:   1319.61   0.001578    7.97  0.000373  (-0.015746  0.011190  0.000001)
 43:   1340.03   0.002700   13.64  0.000629  ( 0.024652 -0.004591 -0.000003)
 44:   1354.59   0.034206  172.86  0.007880  (-0.083119  0.031168  0.000001)
 45:   1408.49   0.001515    7.65  0.000336  (-0.016576  0.007797 -0.000002)
 46:   1421.95   0.004850   24.51  0.001064  (-0.032536  0.002407  0.000001)
 47:   1460.91   0.002028   10.25  0.000433  ( 0.000001  0.000004  0.020811)
 48:   1470.06   0.007991   40.38  0.001696  (-0.031689  0.026307 -0.000006)
 49:   1477.69   0.001714    8.66  0.000362  (-0.016979  0.008584 -0.000008)
 50:   1481.02   0.001760    8.90  0.000371  ( 0.000009 -0.000006 -0.019258)
 51:   1495.43   0.012848   64.93  0.002681  (-0.047918  0.019620  0.000002)
 52:   1509.77   0.000459    2.32  0.000095  ( 0.009450 -0.002358 -0.000001)
 53:   1553.41   0.017526   88.57  0.003521  (-0.055390  0.021279  0.000001)
 54:   1669.62   0.015120   76.41  0.002826  ( 0.034746 -0.040233 -0.000001)
 55:   1701.71   0.024270  122.65  0.004451  (-0.065850  0.010696  0.000001)
 56:   1762.92   0.001979   10.00  0.000350  (-0.018469 -0.003033  0.000001)
 57:   3008.33   0.012203   61.67  0.001266  ( 0.035162  0.005434 -0.000003)
 58:   3020.29   0.007228   36.53  0.000747  (-0.026725 -0.005712 -0.000001)
 59:   3086.16   0.006576   33.23  0.000665  ( 0.000003  0.000002  0.025787)
 60:   3092.39   0.002211   11.17  0.000223  ( 0.000001 -0.000005 -0.014936)
 61:   3131.37   0.001300    6.57  0.000130  (-0.003779  0.010735 -0.000004)
 62:   3150.24   0.001881    9.51  0.000186  ( 0.008316  0.010826 -0.000003)
 63:   3162.00   0.003465   17.51  0.000342  ( 0.013207 -0.012946 -0.000000)
 64:   3163.74   0.005030   25.42  0.000496  ( 0.005338  0.021625 -0.000007)
 65:   3197.25   0.001301    6.58  0.000127  ( 0.003098  0.010835 -0.000000)
 66:   3210.07   0.000633    3.20  0.000062  ( 0.000923 -0.007790  0.000001)
 67:   3219.95   0.001765    8.92  0.000171  ( 0.007238 -0.010893  0.000000)
 68:   3234.37   0.000950    4.80  0.000092  ( 0.008741  0.003906 -0.000001)

--------------------------
THERMOCHEMISTRY AT 298.15K
--------------------------

Temperature         ...   298.15 K
Pressure            ...     1.00 atm
Total Mass          ...   148.21 AMU
Quasi RRHO          ...     True
Cut-Off Frequency   ...     1.00 cm^-1

Throughout the following assumptions are being made:
  (1) The electronic state is orbitally nondegenerate
  (2) There are no thermally accessible electronically excited states
  (3) Hindered rotations indicated by low frequency modes are not
      treated as such but are treated as vibrations and this may
      cause some error
  (4) All equations used are the standard statistical mechanics
      equations for an ideal gas
  (5) All vibrations are strictly harmonic

freq.      35.41  E(vib)   ...       0.54
freq.      87.76  E(vib)   ...       0.48
freq.     126.50  E(vib)   ...       0.43
freq.     132.36  E(vib)   ...       0.42
freq.     196.67  E(vib)   ...       0.36
freq.     216.20  E(vib)   ...       0.34
freq.     259.11  E(vib)   ...       0.30
freq.     285.60  E(vib)   ...       0.28
freq.     301.61  E(vib)   ...       0.26
freq.     335.82  E(vib)   ...       0.24
freq.     367.50  E(vib)   ...       0.21
freq.     470.72  E(vib)   ...       0.15
freq.     483.71  E(vib)   ...       0.15
freq.     584.41  E(vib)   ...       0.11
freq.     618.55  E(vib)   ...       0.09
freq.     641.97  E(vib)   ...       0.09
freq.     708.91  E(vib)   ...       0.07
freq.     778.60  E(vib)   ...       0.05
freq.     792.20  E(vib)   ...       0.05
freq.     830.64  E(vib)   ...       0.04
freq.     892.26  E(vib)   ...       0.03
freq.     918.12  E(vib)   ...       0.03
freq.     919.14  E(vib)   ...       0.03
freq.     990.55  E(vib)   ...       0.02
freq.     991.70  E(vib)   ...       0.02
freq.    1007.45  E(vib)   ...       0.02
freq.    1014.04  E(vib)   ...       0.02
freq.    1063.84  E(vib)   ...       0.02
freq.    1125.61  E(vib)   ...       0.01
freq.    1127.25  E(vib)   ...       0.01
freq.    1139.61  E(vib)   ...       0.01
freq.    1185.21  E(vib)   ...       0.01
freq.    1186.22  E(vib)   ...       0.01
freq.    1211.59  E(vib)   ...       0.01
freq.    1228.25  E(vib)   ...       0.01
freq.    1316.63  E(vib)   ...       0.01
freq.    1319.61  E(vib)   ...       0.01
freq.    1340.03  E(vib)   ...       0.01
freq.    1354.59  E(vib)   ...       0.01
freq.    1408.49  E(vib)   ...       0.00
freq.    1421.95  E(vib)   ...       0.00
freq.    1460.91  E(vib)   ...       0.00
freq.    1470.06  E(vib)   ...       0.00
freq.    1477.69  E(vib)   ...       0.00
freq.    1481.02  E(vib)   ...       0.00
freq.    1495.43  E(vib)   ...       0.00
freq.    1509.77  E(vib)   ...       0.00
freq.    1553.41  E(vib)   ...       0.00
freq.    1669.62  E(vib)   ...       0.00
freq.    1701.71  E(vib)   ...       0.00
freq.    1762.92  E(vib)   ...       0.00
freq.    3008.33  E(vib)   ...       0.00
freq.    3020.29  E(vib)   ...       0.00
freq.    3086.16  E(vib)   ...       0.00
freq.    3092.39  E(vib)   ...       0.00
freq.    3131.37  E(vib)   ...       0.00
freq.    3150.24  E(vib)   ...       0.00
freq.    3162.00  E(vib)   ...       0.00
freq.    3163.74  E(vib)   ...       0.00
freq.    3197.25  E(vib)   ...       0.00
freq.    3210.07  E(vib)   ...       0.00
freq.    3219.95  E(vib)   ...       0.00
freq.    3234.37  E(vib)   ...       0.00

------------
INNER ENERGY
------------

The inner energy is: U= E(el) + E(ZPE) + E(vib) + E(rot) + E(trans)
    E(el)   - is the total energy from the electronic structure calculation
              = E(kin-el) + E(nuc-el) + E(el-el) + E(nuc-nuc)
    E(ZPE)  - the the zero temperature vibrational energy from the frequency calculation
    E(vib)  - the the finite temperature correction to E(ZPE) due to population
              of excited vibrational states
    E(rot)  - is the rotational thermal energy
    E(trans)- is the translational thermal energy

Summary of contributions to the inner energy U:
Electronic energy                ...   -462.60090479 Eh
Zero point energy                ...      0.19518232 Eh     122.48 kcal/mol
Thermal vibrational correction   ...      0.00798051 Eh       5.01 kcal/mol
Thermal rotational correction    ...      0.00141627 Eh       0.89 kcal/mol
Thermal translational correction ...      0.00141627 Eh       0.89 kcal/mol
-----------------------------------------------------------------------
Total thermal energy                   -462.39490943 Eh

Summary of corrections to the electronic energy:
(perhaps to be used in another calculation)
Total thermal correction                  0.01081305 Eh       6.79 kcal/mol
Non-thermal (ZPE) correction              0.19518232 Eh     122.48 kcal/mol
-----------------------------------------------------------------------
Total correction                          0.20599537 Eh     129.26 kcal/mol

--------
ENTHALPY
--------

The enthalpy is H = U + kB*T
                kB is Boltzmann's constant
Total thermal energy              ...   -462.39490943 Eh
Thermal Enthalpy correction       ...      0.00094421 Eh       0.59 kcal/mol
-----------------------------------------------------------------------
Total Enthalpy                    ...   -462.39396522 Eh

Note: Only C1 symmetry has been detected, increase convergence thresholds
      if your molecule has a higher symmetry. Symmetry factor of 1.0 is
      used for the rotational entropy correction.

Note: Rotational entropy computed according to Herzberg
Infrared and Raman Spectra, Chapter V,1, Van Nostrand Reinhold, 1945
Point Group:  C1, Symmetry Number:   1
Rotational constants in cm-1:     0.102459     0.016958     0.014631

Vibrational entropy computed according to the QRRHO of S. Grimme
Chem.Eur.J. 2012 18 9955 using a reference frequency of 100.0 cm-1

-------
ENTROPY
-------

The entropy contributions are T*S = T*(S(el)+S(vib)+S(rot)+S(trans))
     S(el)   - electronic entropy
     S(vib)  - vibrational entropy
     S(rot)  - rotational entropy
     S(trans)- translational entropy
The entropies will be listed as multiplied by the temperature to get
units of energy

Electronic entropy                ...      0.00000000 Eh      0.00 kcal/mol
Vibrational entropy               ...      0.01378398 Eh      8.65 kcal/mol
Rotational entropy                ...      0.01450550 Eh      9.10 kcal/mol
Translational entropy             ...      0.01942844 Eh     12.19 kcal/mol
-----------------------------------------------------------------------
Final entropy term                ...      0.04771792 Eh     29.94 kcal/mol

In case the symmetry of your molecule has not been determined correctly
or in case you have a reason to use a different symmetry number we print

                             ****ORCA TERMINATED NORMALLY****
TOTAL RUN TIME: 0 days 0 hours 8 minutes 25 seconds 895 msec
