                         Program Version 6.0.0  -   RELEASE  -
|  1> !PBE0 aug-cc-pVTZ d3 TightSCF SlowConv RIJCOSX defgrid2
|  2>
|  3> %pal
|  4> nprocs 4
|  5> end
|  6>
|  7> %scf
|  8> MaxIter 1500
|  9> end
| 10>
| 11> %maxcore 3000
| 12>
| 13> !CPCM
| 14> %cpcm smd true
| 15> SMDsolvent "MeCN"
| 16> surfacetype gepol_ses
| 17> rsolv 2.19
| 18> end
| 19>
| 20> * xyz 1 2
| 21> C          -0.34270275561118      0.84711240516987     -0.00000461392678
| 22> C          -1.62114214149599      0.28310666085248      0.00005036258773
| 23> C          -1.76655845984461     -1.14534797316706      0.00015902441429
| 24> C          -0.64047775510568     -1.96124661886859      0.00020951229865
| 25> C           0.62711717490611     -1.39778631503778      0.00015498102973
| 26> C           0.79382657036915      0.03758278475822      0.00002872344792
| 27> C           2.09240943022637      0.64547974379403     -0.00003830185520
| 28> C           3.29430838690790     -0.01032166453559      0.00000281703843
| 29> C           4.60760132054960      0.65947907504340     -0.00004889316533
| 30> H           5.19809781171836      0.33504540056372     -0.87962451212125
| 31> H           5.19805381830583      0.33523637975460      0.87962749612829
| 32> H           4.53047503370681      1.75742824935659     -0.00016451192059
| 33> H           3.31318609028762     -1.10737767604801      0.00008430734855
| 34> H           2.10926613216247      1.74179274962735     -0.00012792598686
| 35> H           1.50121349078302     -2.05141955010833      0.00019397364887
| 36> H          -0.75915141594404     -3.04749102718735      0.00029347430122
| 37> H          -2.76100240605802     -1.59669233225998      0.00020413991672
| 38> O          -2.63949171539410      1.10870001849501     -0.00000818654028
| 39> C          -3.98618237230029      0.65565691136091      0.00006847700849
| 40> H          -4.60288239689184      1.56371892248403      0.00002378375357
| 41> H          -4.19996760244314      0.06636471722196      0.90775693220812
| 42> H          -4.20002007511970      0.06623874429631     -0.90752475328728
| 43> H          -0.25881356371464      1.93607439443420     -0.00008040632701
| 44> *
| 45>
| 46>                          ****END OF INPUT****

CARTESIAN COORDINATES (ANGSTROEM)
---------------------------------
  C     -0.342703    0.847112   -0.000005
  C     -1.621142    0.283107    0.000050
  C     -1.766558   -1.145348    0.000159
  C     -0.640478   -1.961247    0.000210
  C      0.627117   -1.397786    0.000155
  C      0.793827    0.037583    0.000029
  C      2.092409    0.645480   -0.000038
  C      3.294308   -0.010322    0.000003
  C      4.607601    0.659479   -0.000049
  H      5.198098    0.335045   -0.879625
  H      5.198054    0.335236    0.879627
  H      4.530475    1.757428   -0.000165
  H      3.313186   -1.107378    0.000084
  H      2.109266    1.741793   -0.000128
  H      1.501213   -2.051420    0.000194
  H     -0.759151   -3.047491    0.000293
  H     -2.761002   -1.596692    0.000204
  O     -2.639492    1.108700   -0.000008
  C     -3.986182    0.655657    0.000068
  H     -4.602882    1.563719    0.000024
  H     -4.199968    0.066365    0.907757
  H     -4.200020    0.066239   -0.907525
  H     -0.258814    1.936074   -0.000080

 Total Charge           Charge          ....    1
 Multiplicity           Mult            ....    2
 Number of Electrons    NEL             ....   79
 Basis Dimension        Dim             ....  782

ORBITAL ENERGIES
----------------
                 SPIN UP ORBITALS
  NO   OCC          E(Eh)            E(eV)
   0   1.0000     -19.288680      -524.8717
   1   1.0000     -10.342800      -281.4419
   2   1.0000     -10.295459      -280.1537
   3   1.0000     -10.288344      -279.9601
   4   1.0000     -10.286951      -279.9222
   5   1.0000     -10.286805      -279.9182
   6   1.0000     -10.284946      -279.8676
   7   1.0000     -10.268781      -279.4277
   8   1.0000     -10.264415      -279.3089
   9   1.0000     -10.255301      -279.0609
  10   1.0000     -10.234186      -278.4864
  11   1.0000      -1.152884       -31.3716
  12   1.0000      -0.928069       -25.2540
  13   1.0000      -0.866052       -23.5665
  14   1.0000      -0.820881       -22.3373
  15   1.0000      -0.812390       -22.1063
  16   1.0000      -0.750054       -20.4100
  17   1.0000      -0.731931       -19.9169
  18   1.0000      -0.660376       -17.9697
  19   1.0000      -0.652093       -17.7444
  20   1.0000      -0.597687       -16.2639
  21   1.0000      -0.571736       -15.5577
  22   1.0000      -0.540875       -14.7180
  23   1.0000      -0.533470       -14.5165
  24   1.0000      -0.517627       -14.0853
  25   1.0000      -0.508683       -13.8420
  26   1.0000      -0.476687       -12.9713
  27   1.0000      -0.462541       -12.5864
  28   1.0000      -0.446713       -12.1557
  29   1.0000      -0.440542       -11.9878
  30   1.0000      -0.431777       -11.7492
  31   1.0000      -0.426000       -11.5921
  32   1.0000      -0.413593       -11.2544
  33   1.0000      -0.397828       -10.8254
  34   1.0000      -0.385018       -10.4769
  35   1.0000      -0.382346       -10.4042
  36   1.0000      -0.364861        -9.9284
  37   1.0000      -0.345876        -9.4118
  38   1.0000      -0.278742        -7.5849
  39   1.0000      -0.275196        -7.4885
  40   0.0000      -0.083546        -2.2734
  41   0.0000      -0.036223        -0.9857
  42   0.0000      -0.001285        -0.0350
  43   0.0000       0.007072         0.1924
  44   0.0000       0.011279         0.3069

                 SPIN DOWN ORBITALS
  NO   OCC          E(Eh)            E(eV)
   0   1.0000     -19.286563      -524.8141
   1   1.0000     -10.342189      -281.4253
   2   1.0000     -10.294315      -280.1225
   3   1.0000     -10.285036      -279.8701
   4   1.0000     -10.282834      -279.8101
   5   1.0000     -10.282770      -279.8084
   6   1.0000     -10.281142      -279.7641
   7   1.0000     -10.268229      -279.4127
   8   1.0000     -10.266701      -279.3711
   9   1.0000     -10.256140      -279.0837
  10   1.0000     -10.234305      -278.4896
  11   1.0000      -1.148888       -31.2628
  12   1.0000      -0.921142       -25.0655
  13   1.0000      -0.858127       -23.3508
  14   1.0000      -0.819062       -22.2878
  15   1.0000      -0.803218       -21.8567
  16   1.0000      -0.743098       -20.2207
  17   1.0000      -0.728577       -19.8256
  18   1.0000      -0.657046       -17.8791
  19   1.0000      -0.647496       -17.6193
  20   1.0000      -0.594588       -16.1796
  21   1.0000      -0.569066       -15.4851
  22   1.0000      -0.538615       -14.6565
  23   1.0000      -0.530046       -14.4233
  24   1.0000      -0.509156       -13.8548
  25   1.0000      -0.505352       -13.7513
  26   1.0000      -0.475855       -12.9487
  27   1.0000      -0.461813       -12.5666
  28   1.0000      -0.438623       -11.9355
  29   1.0000      -0.435362       -11.8468
  30   1.0000      -0.423792       -11.5320
  31   1.0000      -0.419704       -11.4207
  32   1.0000      -0.411926       -11.2091
  33   1.0000      -0.396544       -10.7905
  34   1.0000      -0.380562       -10.3556
  35   1.0000      -0.371203       -10.1009
  36   1.0000      -0.362863        -9.8740
  37   1.0000      -0.327585        -8.9140
  38   1.0000      -0.264817        -7.2060
  39   0.0000      -0.187750        -5.1089
  40   0.0000      -0.057571        -1.5666
  41   0.0000      -0.025036        -0.6813
  42   0.0000      -0.000628        -0.0171
  43   0.0000       0.007573         0.2061

MULLIKEN ATOMIC CHARGES AND SPIN POPULATIONS
--------------------------------------------
   0 C :   -0.794321   -0.084620
   1 C :    0.698167    0.057350
   2 C :   -0.200983    0.351494
   3 C :   -0.940964   -0.131899
   4 C :   -0.517781    0.366194
   5 C :    1.312230    0.100993
   6 C :   -0.134733    0.061867
   7 C :   -0.415239    0.248929
   8 C :   -0.751300   -0.022728
   9 H :    0.253448    0.019761
  10 H :    0.255387    0.019716
  11 H :    0.290059   -0.004491
  12 H :    0.260081   -0.017360
  13 H :    0.172235   -0.001315
  14 H :    0.447301   -0.024783
  15 H :    0.669499    0.003965
  16 H :    0.428595   -0.018941
  17 O :   -0.544641    0.070629
  18 C :   -0.671160   -0.002519
  19 H :    0.271808    0.000362
  20 H :    0.302814    0.002025
  21 H :    0.301667    0.002074
  22 H :    0.307835    0.003296
Sum of atomic charges         :    1.0000000

LOEWDIN ATOMIC CHARGES AND SPIN POPULATIONS
-------------------------------------------
   0 C :    0.250384   -0.006537
   1 C :   -0.351733    0.075248
   2 C :    0.288655    0.177085
   3 C :    0.261851    0.041733
   4 C :    0.285264    0.183881
   5 C :   -0.098640    0.086734
   6 C :    0.270159    0.075332
   7 C :    0.276615    0.140164
   8 C :    0.596729    0.045878
   9 H :   -0.140961    0.010264
  10 H :   -0.140999    0.010263
  11 H :   -0.155588    0.001067
  12 H :   -0.155257    0.022576
  13 H :   -0.152560    0.006479
  14 H :   -0.157626    0.037474
  15 H :   -0.143598   -0.011013
  16 H :   -0.152624    0.038269
  17 O :    0.633743    0.060579
  18 C :    0.390447    0.006324
  19 H :   -0.159152   -0.000317
  20 H :   -0.148848    0.001713
  21 H :   -0.148817    0.001713
  22 H :   -0.147441   -0.004910

  Mayer bond orders larger than 0.100000
B(  0-C ,  1-C ) :   0.7953 B(  0-C ,  2-C ) :  -0.1116 B(  0-C ,  3-C ) :   0.1028
B(  0-C ,  4-C ) :  -0.2132 B(  0-C ,  5-C ) :   0.4490 B(  0-C ,  6-C ) :  -0.3051
B(  0-C ,  7-C ) :   0.1384 B(  0-C , 17-O ) :   0.3432 B(  0-C , 22-H ) :   0.9183
B(  1-C ,  2-C ) :   1.0795 B(  1-C ,  4-C ) :  -0.1519 B(  1-C , 17-O ) :   0.3518
B(  2-C ,  3-C ) :   1.2393 B(  2-C ,  5-C ) :  -0.1105 B(  2-C , 16-H ) :   0.7704
B(  2-C , 17-O ) :  -0.1685 B(  2-C , 18-C ) :  -0.1117 B(  3-C ,  4-C ) :   1.1501
B(  3-C , 15-H ) :   0.1639 B(  4-C ,  5-C ) :   0.7256 B(  4-C , 14-H ) :   0.7329
B(  5-C ,  6-C ) :   0.2720 B(  5-C ,  8-C ) :   0.1117 B(  5-C , 12-H ) :  -0.1441
B(  5-C , 17-O ) :   0.1384 B(  6-C ,  7-C ) :   0.9298 B(  6-C ,  8-C ) :  -0.1081
B(  6-C , 12-H ) :   0.1342 B(  6-C , 13-H ) :   1.1082 B(  7-C ,  8-C ) :   0.9117
B(  7-C , 12-H ) :   1.1346 B(  8-C ,  9-H ) :   0.9288 B(  8-C , 10-H ) :   0.9264
B(  8-C , 11-H ) :   0.9024 B( 17-O , 18-C ) :   0.9902 B( 18-C , 19-H ) :   0.9281
B( 18-C , 20-H ) :   0.8978 B( 18-C , 21-H ) :   0.8995

Dispersion correction           -0.019943482
FINAL SINGLE POINT ENERGY      -462.920523820381

DIPOLE MOMENT
-------------

Method             : SCF
Type of density    : Electron Density
Multiplicity       :   2
Irrep              :   0
Energy             :  -462.9005803382278827 Eh
Relativity type    :
Basis              : AO
                                X                 Y                 Z
Electronic contribution:     -4.428153283      -0.846900597      -0.000351517
Nuclear contribution   :      4.745595693      -0.067246961       0.000048364
                        -----------------------------------------
Total Dipole Moment    :      0.317442411      -0.914147558      -0.000303153
                        -----------------------------------------
Magnitude (a.u.)       :      0.967695993
Magnitude (Debye)      :      2.459687738

Rotational constants in cm-1:             0.103199             0.017039             0.014706
Rotational constants in MHz :          3093.817468           510.805508           440.883670

                             ****ORCA TERMINATED NORMALLY****
TOTAL RUN TIME: 0 days 0 hours 12 minutes 5 seconds 111 msec
