                         Program Version 6.0.0  -   RELEASE  -
|  1> !TPSSh freq aug-cc-pVTZ d3 TightSCF SlowConv RIJCOSX defgrid2
|  2>
|  3> %pal
|  4> nprocs 12
|  5> end
|  6>
|  7> %scf
|  8> MaxIter 1500
|  9> end
| 10>
| 11> %maxcore 5000
| 12>
| 13> !CPCM
| 14> %cpcm smd true
| 15> SMDsolvent "MeCN"
| 16> surfacetype gepol_ses
| 17> rsolv 2.19
| 18> end
| 19>
| 20> * xyz 0 1
| 21> C           0.86854883905712     -1.20299952045828      0.00008992918930
| 22> C           1.23391952412192      0.14869565589549      0.00018954538621
| 23> C           0.20774097208029      1.10218127411109      0.00019805288012
| 24> C          -1.14084727268388      0.75216110362260      0.00006959836456
| 25> C          -1.49190324535276     -0.60923786190636     -0.00007128688741
| 26> C          -0.47060173327016     -1.56400517971141     -0.00005419878875
| 27> H          -0.73629826035774     -2.61575934003162      0.00019750376119
| 28> C          -2.93282137789164     -1.03524225090155     -0.00022152688036
| 29> H          -3.01761262312968     -2.12248558304407      0.00004075984467
| 30> H          -3.46171653688882     -0.65310795364597     -0.87872183720639
| 31> H          -3.46206161703017     -0.65273935165580      0.87787911643130
| 32> C          -2.19928764888224      1.82026592812720      0.00004646023014
| 33> H          -2.84579444762244      1.74164595096130      0.87929405552999
| 34> H          -2.84778429383605      1.73937856316014     -0.87749918711877
| 35> H          -1.74958388351305      2.81378056218161     -0.00182073940709
| 36> H           0.47527994511518      2.15443982369113      0.00007696435884
| 37> C           2.62571657262143      0.61108651259729      0.00035855728981
| 38> C           3.72762432264113     -0.14624967190401     -0.00036325431535
| 39> H           3.69494754104110     -1.23020582479664     -0.00129405966314
| 40> H           4.71027196306098      0.30996412422180      0.00002712889521
| 41> H           2.74299401288701      1.69198153599564      0.00092566900697
| 42> H           1.62650074783247     -1.97700089650959      0.00017274909893
| 43> *
| 44>
| 45>                          ****END OF INPUT****

CARTESIAN COORDINATES (ANGSTROEM)
---------------------------------
  C      0.868549   -1.203000    0.000090
  C      1.233920    0.148696    0.000190
  C      0.207741    1.102181    0.000198
  C     -1.140847    0.752161    0.000070
  C     -1.491903   -0.609238   -0.000071
  C     -0.470602   -1.564005   -0.000054
  H     -0.736298   -2.615759    0.000198
  C     -2.932821   -1.035242   -0.000222
  H     -3.017613   -2.122486    0.000041
  H     -3.461717   -0.653108   -0.878722
  H     -3.462062   -0.652739    0.877879
  C     -2.199288    1.820266    0.000046
  H     -2.845794    1.741646    0.879294
  H     -2.847784    1.739379   -0.877499
  H     -1.749584    2.813781   -0.001821
  H      0.475280    2.154440    0.000077
  C      2.625717    0.611087    0.000359
  C      3.727624   -0.146250   -0.000363
  H      3.694948   -1.230206   -0.001294
  H      4.710272    0.309964    0.000027
  H      2.742994    1.691982    0.000926
  H      1.626501   -1.977001    0.000173

 Total Charge           Charge          ....    0
 Multiplicity           Mult            ....    1
 Number of Electrons    NEL             ....   72
 Basis Dimension        Dim             ....  736

ORBITAL ENERGIES
----------------

  NO   OCC          E(Eh)            E(eV)
   0   2.0000     -10.120770      -275.4002
   1   2.0000     -10.119748      -275.3724
   2   2.0000     -10.119255      -275.3589
   3   2.0000     -10.117731      -275.3175
   4   2.0000     -10.110802      -275.1289
   5   2.0000     -10.110118      -275.1103
   6   2.0000     -10.109907      -275.1046
   7   2.0000     -10.105160      -274.9754
   8   2.0000     -10.102734      -274.9094
   9   2.0000     -10.102586      -274.9053
  10   2.0000      -0.843282       -22.9469
  11   2.0000      -0.780852       -21.2481
  12   2.0000      -0.743955       -20.2440
  13   2.0000      -0.726070       -19.7574
  14   2.0000      -0.676691       -18.4137
  15   2.0000      -0.648912       -17.6578
  16   2.0000      -0.583866       -15.8878
  17   2.0000      -0.577119       -15.7042
  18   2.0000      -0.522046       -14.2056
  19   2.0000      -0.477905       -13.0045
  20   2.0000      -0.459390       -12.5006
  21   2.0000      -0.430747       -11.7212
  22   2.0000      -0.414330       -11.2745
  23   2.0000      -0.410412       -11.1679
  24   2.0000      -0.393678       -10.7125
  25   2.0000      -0.387351       -10.5404
  26   2.0000      -0.377545       -10.2735
  27   2.0000      -0.364003        -9.9050
  28   2.0000      -0.360200        -9.8015
  29   2.0000      -0.351026        -9.5519
  30   2.0000      -0.341425        -9.2906
  31   2.0000      -0.314850        -8.5675
  32   2.0000      -0.311261        -8.4698
  33   2.0000      -0.282433        -7.6854
  34   2.0000      -0.238317        -6.4849
  35   2.0000      -0.211762        -5.7623
  36   0.0000      -0.051789        -1.4092
  37   0.0000      -0.019935        -0.5425
  38   0.0000      -0.003209        -0.0873
  39   0.0000       0.006164         0.1677
  40   0.0000       0.010341         0.2814

MULLIKEN ATOMIC CHARGES
-----------------------
   0 C :   -0.172222
   1 C :    1.546506
   2 C :   -0.804390
   3 C :    0.259312
   4 C :    0.441309
   5 C :   -0.890548
   6 H :    0.044138
   7 C :   -0.238377
   8 H :   -0.091242
   9 H :    0.140137
  10 H :    0.139092
  11 C :   -0.228348
  12 H :    0.144458
  13 H :    0.143475
  14 H :   -0.094862
  15 H :   -0.288397
  16 C :    0.170877
  17 C :   -0.723434
  18 H :    0.250727
  19 H :    0.027354
  20 H :    0.096215
  21 H :    0.128219
Sum of atomic charges:   -0.0000000

LOEWDIN ATOMIC CHARGES
----------------------
   0 C :    0.211093
   1 C :   -0.148956
   2 C :    0.224943
   3 C :   -0.099639
   4 C :   -0.103862
   5 C :    0.221626
   6 H :   -0.175485
   7 C :    0.584886
   8 H :   -0.173326
   9 H :   -0.160787
  10 H :   -0.160759
  11 C :    0.586675
  12 H :   -0.160504
  13 H :   -0.160681
  14 H :   -0.172916
  15 H :   -0.174940
  16 C :    0.167930
  17 C :    0.527631
  18 H :   -0.226880
  19 H :   -0.222155
  20 H :   -0.195775
  21 H :   -0.188121

  Mayer bond orders larger than 0.100000
B(  0-C ,  1-C ) :   0.5984 B(  0-C ,  2-C ) :  -0.6475 B(  0-C ,  3-C ) :  -0.1359
B(  0-C ,  5-C ) :   0.9989 B(  0-C , 16-C ) :   0.2072 B(  0-C , 17-C ) :   0.1200
B(  0-C , 19-H ) :  -0.1135 B(  0-C , 21-H ) :   1.2112 B(  1-C ,  2-C ) :  -0.1053
B(  1-C ,  3-C ) :   0.2396 B(  1-C ,  4-C ) :  -0.2840 B(  1-C ,  7-C ) :   0.1178
B(  1-C , 15-H ) :  -0.2897 B(  1-C , 16-C ) :   0.1761 B(  1-C , 17-C ) :  -0.2382
B(  1-C , 20-H ) :   0.1116 B(  1-C , 21-H ) :   0.1011 B(  2-C ,  3-C ) :   0.7869
B(  2-C ,  4-C ) :  -0.1597 B(  2-C ,  5-C ) :   0.2077 B(  2-C ,  6-H ) :   0.1049
B(  2-C , 11-C ) :  -0.2159 B(  2-C , 15-H ) :   1.9106 B(  2-C , 20-H ) :  -0.1712
B(  3-C ,  4-C ) :   1.3979 B(  3-C ,  5-C ) :   0.2124 B(  3-C ,  7-C ) :   0.1626
B(  3-C , 11-C ) :   0.3711 B(  3-C , 20-H ) :   0.1396 B(  3-C , 21-H ) :  -0.1075
B(  4-C ,  5-C ) :   0.8889 B(  4-C ,  6-H ) :   0.2099 B(  4-C ,  7-C ) :   0.5666
B(  4-C , 11-C ) :   0.4004 B(  4-C , 16-C ) :   0.1194 B(  5-C ,  6-H ) :   1.0264
B(  5-C ,  7-C ) :  -0.1642 B(  5-C , 17-C ) :  -0.1233 B(  5-C , 21-H ) :  -0.1490
B(  7-C ,  8-H ) :   1.0298 B(  7-C ,  9-H ) :   1.0068 B(  7-C , 10-H ) :   1.0083
B( 11-C , 12-H ) :   0.9979 B( 11-C , 13-H ) :   0.9983 B( 11-C , 14-H ) :   1.0207
B( 15-H , 16-C ) :  -0.1199 B( 16-C , 17-C ) :   1.1461 B( 16-C , 20-H ) :   0.9536
B( 17-C , 18-H ) :   1.0264 B( 17-C , 19-H ) :   1.0662 B( 17-C , 20-H ) :  -0.1620

Dispersion correction           -0.026954628
FINAL SINGLE POINT ENERGY      -388.482886713815

DIPOLE MOMENT
-------------

Method             : SCF
Type of density    : Electron Density
Multiplicity       :   1
Irrep              :   0
Energy             :  -388.4559320855515807 Eh
Relativity type    :
Basis              : AO
                                X                 Y                 Z
Electronic contribution:      4.003945763      -1.062556524       0.000989985
Nuclear contribution   :     -4.589475672       1.148871911      -0.000862677
                        -----------------------------------------
Total Dipole Moment    :     -0.585529908       0.086315388       0.000127308
                        -----------------------------------------
Magnitude (a.u.)       :      0.591857784
Magnitude (Debye)      :      1.504382931

VIBRATIONAL FREQUENCIES
-----------------------

Scaling factor for frequencies =  1.000000000  (already applied!)

     0:       0.00 cm**-1
     1:       0.00 cm**-1
     2:       0.00 cm**-1
     3:       0.00 cm**-1
     4:       0.00 cm**-1
     5:       0.00 cm**-1
     6:      41.12 cm**-1
     7:     115.27 cm**-1
     8:     127.54 cm**-1
     9:     149.76 cm**-1
    10:     186.40 cm**-1
    11:     204.93 cm**-1
    12:     279.60 cm**-1
    13:     303.59 cm**-1
    14:     365.05 cm**-1
    15:     418.11 cm**-1
    16:     441.13 cm**-1
    17:     513.07 cm**-1
    18:     531.16 cm**-1
    19:     565.64 cm**-1
    20:     678.27 cm**-1
    21:     715.60 cm**-1
    22:     748.51 cm**-1
    23:     752.23 cm**-1
    24:     840.75 cm**-1
    25:     909.33 cm**-1
    26:     929.29 cm**-1
    27:     931.70 cm**-1
    28:     975.38 cm**-1
    29:    1006.76 cm**-1
    30:    1008.92 cm**-1
    31:    1032.77 cm**-1
    32:    1039.83 cm**-1
    33:    1068.05 cm**-1
    34:    1068.31 cm**-1
    35:    1134.46 cm**-1
    36:    1184.10 cm**-1
    37:    1225.78 cm**-1
    38:    1259.51 cm**-1
    39:    1309.23 cm**-1
    40:    1321.46 cm**-1
    41:    1346.55 cm**-1
    42:    1403.27 cm**-1
    43:    1408.39 cm**-1
    44:    1415.81 cm**-1
    45:    1462.11 cm**-1
    46:    1469.56 cm**-1
    47:    1478.20 cm**-1
    48:    1480.55 cm**-1
    49:    1485.08 cm**-1
    50:    1528.49 cm**-1
    51:    1598.51 cm**-1
    52:    1640.19 cm**-1
    53:    1675.66 cm**-1
    54:    3014.48 cm**-1
    55:    3016.73 cm**-1
    56:    3058.33 cm**-1
    57:    3063.76 cm**-1
    58:    3101.77 cm**-1
    59:    3102.82 cm**-1
    60:    3124.61 cm**-1
    61:    3133.57 cm**-1
    62:    3144.23 cm**-1
    63:    3152.86 cm**-1
    64:    3175.56 cm**-1
    65:    3211.75 cm**-1

IR SPECTRUM
-----------

 Mode   freq       eps      Int      T**2         TX        TY        TZ
       cm**-1   L/(mol*cm) km/mol    a.u.
----------------------------------------------------------------------------
  6:     41.12   0.000027    0.14  0.000204  (-0.000242  0.000301  0.014266)
  7:    115.27   0.000008    0.04  0.000021  (-0.000224 -0.000211  0.004545)
  8:    127.54   0.000432    2.18  0.001058  (-0.000084  0.000159  0.032522)
  9:    149.76   0.000080    0.41  0.000167  ( 0.000077 -0.000361 -0.012927)
 10:    186.40   0.000167    0.84  0.000279  ( 0.013969 -0.009168 -0.000230)
 11:    204.93   0.001276    6.45  0.001942  ( 0.000100 -0.000206  0.044072)
 12:    279.60   0.000219    1.11  0.000245  (-0.015520  0.002008 -0.000025)
 13:    303.59   0.000047    0.24  0.000048  (-0.000055 -0.000102 -0.006933)
 14:    365.05   0.000394    1.99  0.000337  ( 0.014632  0.011087 -0.000002)
 15:    418.11   0.000502    2.54  0.000375  (-0.019204  0.002442 -0.000149)
 16:    441.13   0.002961   14.96  0.002095  ( 0.000198  0.000074 -0.045766)
 17:    513.07   0.002214   11.19  0.001347  ( 0.000117  0.000033 -0.036699)
 18:    531.16   0.000553    2.80  0.000325  ( 0.017307 -0.005046  0.000259)
 19:    565.64   0.000595    3.00  0.000328  ( 0.016546  0.007365  0.000057)
 20:    678.27   0.000194    0.98  0.000089  ( 0.000030  0.000056 -0.009445)
 21:    715.60   0.000329    1.66  0.000143  (-0.011972 -0.000312 -0.000097)
 22:    748.51   0.000962    4.86  0.000401  ( 0.000140 -0.000076 -0.020030)
 23:    752.23   0.000084    0.43  0.000035  (-0.005807 -0.001078 -0.000105)
 24:    840.75   0.008687   43.90  0.003224  (-0.000019 -0.000015  0.056784)
 25:    909.33   0.005609   28.35  0.001925  ( 0.000115  0.000049 -0.043873)
 26:    929.29   0.000230    1.16  0.000077  (-0.002332  0.008338 -0.001522)
 27:    931.70   0.015443   78.04  0.005173  ( 0.000036 -0.000246 -0.071920)
 28:    975.38   0.000037    0.19  0.000012  ( 0.000155 -0.000166 -0.003456)
 29:   1006.76   0.005832   29.47  0.001808  ( 0.042340 -0.003878 -0.000322)
 30:   1008.92   0.000886    4.48  0.000274  ( 0.012086 -0.011312  0.000291)
 31:   1032.77   0.006846   34.60  0.002069  (-0.000078 -0.000299  0.045481)
 32:   1039.83   0.002399   12.12  0.000720  (-0.000065 -0.000099 -0.026829)
 33:   1068.05   0.000522    2.64  0.000152  (-0.010875 -0.005845 -0.000225)
 34:   1068.31   0.000018    0.09  0.000005  (-0.001864 -0.001277 -0.000130)
 35:   1134.46   0.001370    6.92  0.000377  (-0.011552 -0.015599 -0.000052)
 36:   1184.10   0.000617    3.12  0.000163  (-0.009131  0.008904  0.000008)
 37:   1225.78   0.000003    0.01  0.000001  (-0.000808  0.000011 -0.000049)
 38:   1259.51   0.004279   21.63  0.001060  ( 0.032007 -0.005982  0.000019)
 39:   1309.23   0.000589    2.98  0.000140  ( 0.011730 -0.001685 -0.000011)
 40:   1321.46   0.000343    1.73  0.000081  ( 0.008744 -0.002128  0.000006)
 41:   1346.55   0.001380    6.97  0.000320  ( 0.017718  0.002422  0.000014)
 42:   1403.27   0.000168    0.85  0.000037  ( 0.005866  0.001699  0.000224)
 43:   1408.39   0.000230    1.16  0.000051  ( 0.002594  0.006650  0.000040)
 44:   1415.81   0.001742    8.80  0.000384  (-0.014468 -0.013214  0.000052)
 45:   1462.11   0.001417    7.16  0.000302  ( 0.005727  0.016418  0.000080)
 46:   1469.56   0.000000    0.00  0.000000  ( 0.000128  0.000056  0.000246)
 47:   1478.20   0.004816   24.34  0.001017  ( 0.000323 -0.000079  0.031884)
 48:   1480.55   0.000647    3.27  0.000136  (-0.007919  0.008492  0.001213)
 49:   1485.08   0.003510   17.74  0.000738  ( 0.007116  0.026205 -0.000483)
 50:   1528.49   0.009189   46.44  0.001876  (-0.043220  0.002837  0.000003)
 51:   1598.51   0.002369   11.97  0.000463  ( 0.017199 -0.012912 -0.000004)
 52:   1640.19   0.001746    8.82  0.000332  ( 0.002827  0.018003 -0.000003)
 53:   1675.66   0.009741   49.23  0.001814  (-0.041858  0.007877  0.000022)
 54:   3014.48   0.016589   83.83  0.001717  ( 0.041234 -0.004134  0.000082)
 55:   3016.73   0.003914   19.78  0.000405  ( 0.009982 -0.017471 -0.000122)
 56:   3058.33   0.011754   59.40  0.001199  (-0.000003 -0.000008 -0.034631)
 57:   3063.76   0.000820    4.14  0.000084  (-0.000135  0.000025 -0.009137)
 58:   3101.77   0.012947   65.43  0.001303  (-0.012252 -0.033947 -0.000059)
 59:   3102.82   0.002378   12.02  0.000239  ( 0.004293 -0.014856 -0.000018)
 60:   3124.61   0.005009   25.32  0.000500  (-0.002621 -0.022213 -0.000058)
 61:   3133.57   0.001702    8.60  0.000170  ( 0.012826  0.002238  0.000034)
 62:   3144.23   0.008611   43.52  0.000855  ( 0.007065  0.028368  0.000083)
 63:   3152.86   0.004163   21.04  0.000412  ( 0.014111  0.014591  0.000063)
 64:   3175.56   0.004887   24.69  0.000480  (-0.008643  0.020137  0.000016)
 65:   3211.75   0.003997   20.20  0.000388  (-0.010550 -0.016646  0.000016)

--------------------------
THERMOCHEMISTRY AT 298.15K
--------------------------

Temperature         ...   298.15 K
Pressure            ...     1.00 atm
Total Mass          ...   132.21 AMU
Quasi RRHO          ...     True
Cut-Off Frequency   ...     1.00 cm^-1

Throughout the following assumptions are being made:
  (1) The electronic state is orbitally nondegenerate
  (2) There are no thermally accessible electronically excited states
  (3) Hindered rotations indicated by low frequency modes are not
      treated as such but are treated as vibrations and this may
      cause some error
  (4) All equations used are the standard statistical mechanics
      equations for an ideal gas
  (5) All vibrations are strictly harmonic

freq.      41.12  E(vib)   ...       0.54
freq.     115.27  E(vib)   ...       0.44
freq.     127.54  E(vib)   ...       0.43
freq.     149.76  E(vib)   ...       0.40
freq.     186.40  E(vib)   ...       0.37
freq.     204.93  E(vib)   ...       0.35
freq.     279.60  E(vib)   ...       0.28
freq.     303.59  E(vib)   ...       0.26
freq.     365.05  E(vib)   ...       0.22
freq.     418.11  E(vib)   ...       0.18
freq.     441.13  E(vib)   ...       0.17
freq.     513.07  E(vib)   ...       0.13
freq.     531.16  E(vib)   ...       0.13
freq.     565.64  E(vib)   ...       0.11
freq.     678.27  E(vib)   ...       0.08
freq.     715.60  E(vib)   ...       0.07
freq.     748.51  E(vib)   ...       0.06
freq.     752.23  E(vib)   ...       0.06
freq.     840.75  E(vib)   ...       0.04
freq.     909.33  E(vib)   ...       0.03
freq.     929.29  E(vib)   ...       0.03
freq.     931.70  E(vib)   ...       0.03
freq.     975.38  E(vib)   ...       0.03
freq.    1006.76  E(vib)   ...       0.02
freq.    1008.92  E(vib)   ...       0.02
freq.    1032.77  E(vib)   ...       0.02
freq.    1039.83  E(vib)   ...       0.02
freq.    1068.05  E(vib)   ...       0.02
freq.    1068.31  E(vib)   ...       0.02
freq.    1134.46  E(vib)   ...       0.01
freq.    1184.10  E(vib)   ...       0.01
freq.    1225.78  E(vib)   ...       0.01
freq.    1259.51  E(vib)   ...       0.01
freq.    1309.23  E(vib)   ...       0.01
freq.    1321.46  E(vib)   ...       0.01
freq.    1346.55  E(vib)   ...       0.01
freq.    1403.27  E(vib)   ...       0.00
freq.    1408.39  E(vib)   ...       0.00
freq.    1415.81  E(vib)   ...       0.00
freq.    1462.11  E(vib)   ...       0.00
freq.    1469.56  E(vib)   ...       0.00
freq.    1478.20  E(vib)   ...       0.00
freq.    1480.55  E(vib)   ...       0.00
freq.    1485.08  E(vib)   ...       0.00
freq.    1528.49  E(vib)   ...       0.00
freq.    1598.51  E(vib)   ...       0.00
freq.    1640.19  E(vib)   ...       0.00
freq.    1675.66  E(vib)   ...       0.00
freq.    3014.48  E(vib)   ...       0.00
freq.    3016.73  E(vib)   ...       0.00
freq.    3058.33  E(vib)   ...       0.00
freq.    3063.76  E(vib)   ...       0.00
freq.    3101.77  E(vib)   ...       0.00
freq.    3102.82  E(vib)   ...       0.00
freq.    3124.61  E(vib)   ...       0.00
freq.    3133.57  E(vib)   ...       0.00
freq.    3144.23  E(vib)   ...       0.00
freq.    3152.86  E(vib)   ...       0.00
freq.    3175.56  E(vib)   ...       0.00
freq.    3211.75  E(vib)   ...       0.00

------------
INNER ENERGY
------------

The inner energy is: U= E(el) + E(ZPE) + E(vib) + E(rot) + E(trans)
    E(el)   - is the total energy from the electronic structure calculation
              = E(kin-el) + E(nuc-el) + E(el-el) + E(nuc-nuc)
    E(ZPE)  - the the zero temperature vibrational energy from the frequency calculation
    E(vib)  - the the finite temperature correction to E(ZPE) due to population
              of excited vibrational states
    E(rot)  - is the rotational thermal energy
    E(trans)- is the translational thermal energy

Summary of contributions to the inner energy U:
Electronic energy                ...   -388.48288671 Eh
Zero point energy                ...      0.18698158 Eh     117.33 kcal/mol
Thermal vibrational correction   ...      0.00741347 Eh       4.65 kcal/mol
Thermal rotational correction    ...      0.00141627 Eh       0.89 kcal/mol
Thermal translational correction ...      0.00141627 Eh       0.89 kcal/mol
-----------------------------------------------------------------------
Total thermal energy                   -388.28565912 Eh

Summary of corrections to the electronic energy:
(perhaps to be used in another calculation)
Total thermal correction                  0.01024601 Eh       6.43 kcal/mol
Non-thermal (ZPE) correction              0.18698158 Eh     117.33 kcal/mol
-----------------------------------------------------------------------
Total correction                          0.19722759 Eh     123.76 kcal/mol

--------
ENTHALPY
--------

The enthalpy is H = U + kB*T
                kB is Boltzmann's constant
Total thermal energy              ...   -388.28565912 Eh
Thermal Enthalpy correction       ...      0.00094421 Eh       0.59 kcal/mol
-----------------------------------------------------------------------
Total Enthalpy                    ...   -388.28471491 Eh

Note: Only C1 symmetry has been detected, increase convergence thresholds
      if your molecule has a higher symmetry. Symmetry factor of 1.0 is
      used for the rotational entropy correction.

Note: Rotational entropy computed according to Herzberg
Infrared and Raman Spectra, Chapter V,1, Van Nostrand Reinhold, 1945
Point Group:  C1, Symmetry Number:   1
Rotational constants in cm-1:     0.097496     0.028717     0.022366

Vibrational entropy computed according to the QRRHO of S. Grimme
Chem.Eur.J. 2012 18 9955 using a reference frequency of 100.0 cm-1

-------
ENTROPY
-------

The entropy contributions are T*S = T*(S(el)+S(vib)+S(rot)+S(trans))
     S(el)   - electronic entropy
     S(vib)  - vibrational entropy
     S(rot)  - rotational entropy
     S(trans)- translational entropy
The entropies will be listed as multiplied by the temperature to get
units of energy

Electronic entropy                ...      0.00000000 Eh      0.00 kcal/mol
Vibrational entropy               ...      0.01274256 Eh      8.00 kcal/mol
Rotational entropy                ...      0.01407990 Eh      8.84 kcal/mol
Translational entropy             ...      0.01926665 Eh     12.09 kcal/mol
-----------------------------------------------------------------------
Final entropy term                ...      0.04608911 Eh     28.92 kcal/mol

In case the symmetry of your molecule has not been determined correctly
or in case you have a reason to use a different symmetry number we print
out the resulting rotational entropy values for sn=1,12:

 non-linear molecules -----------------------------------

                             ****ORCA TERMINATED NORMALLY****
TOTAL RUN TIME: 0 days 0 hours 57 minutes 10 seconds 328 msec
