                         Program Version 6.0.0  -   RELEASE  -
|  1> !B3LYP opt aug-cc-pVTZ d3 TightSCF SlowConv RIJCOSX defgrid2
|  2>
|  3> %pal
|  4> nprocs 8
|  5> end
|  6>
|  7> %scf
|  8> MaxIter 1500
|  9> end
| 10>
| 11> %maxcore 3500
| 12>
| 13> !CPCM
| 14> %cpcm smd true
| 15> SMDsolvent "MeCN"
| 16> surfacetype gepol_ses
| 17> rsolv 2.19
| 18> end
| 19>
| 20> * xyz 1 2
| 21> C           0.86770061929664     -1.42689432299132      0.00000897101558
| 22> C           2.10468085183811     -0.72689058389273     -0.00000825447661
| 23> C           2.18067581844409      0.67999913600521     -0.00001076122154
| 24> C           1.03283927538202      1.45145343690800      0.00000700381243
| 25> C          -0.22537653673213      0.77678989280940      0.00001343275561
| 26> C          -0.25105693451531     -0.64408759720608      0.00001506224490
| 27> O          -1.55281870061497     -1.07751154880539      0.00002630462179
| 28> C          -2.31401480280601     -0.00668804123383      0.00001929043081
| 29> C          -1.56234358562406      1.18487206630760      0.00001231970991
| 30> H          -1.97074260676972      2.19593761753153      0.00001018835187
| 31> H          -3.39348512015147     -0.17364143845796      0.00002005021122
| 32> H           1.07805269996545      2.54351477894486     -0.00000377489980
| 33> H           3.16218666325774      1.15998906195145     -0.00002790877216
| 34> H           3.03083245792013     -1.30967197800346     -0.00002115939682
| 35> H           0.82193140110952     -2.51820987986727      0.00000983561282
| 36> *
| 37>
| 38>                          ****END OF INPUT****
 Total Charge           Charge          ....    1
 Multiplicity           Mult            ....    2
 Number of Electrons    NEL             ....   61
Dispersion correction           -0.027209098
FINAL SINGLE POINT ENERGY      -383.405870003537
Dispersion correction             ... done (  0.1 sec)
Dispersion correction           -0.027301588
FINAL SINGLE POINT ENERGY      -383.407067017747
Dispersion correction             ... done (  0.0 sec)
Dispersion correction           -0.027320159
FINAL SINGLE POINT ENERGY      -383.407149662444
Dispersion correction             ... done (  0.0 sec)
Dispersion correction           -0.027322701
FINAL SINGLE POINT ENERGY      -383.407165771055
Dispersion correction             ... done (  0.0 sec)
                    ***********************HURRAY********************

CARTESIAN COORDINATES (ANGSTROEM)
---------------------------------
  C      0.871716   -1.424096   -0.000783
  C      2.100812   -0.722709    0.000613
  C      2.170998    0.679354   -0.000143
  C      1.026980    1.444444   -0.001143
  C     -0.222019    0.768485   -0.001468
  C     -0.240308   -0.647147   -0.002288
  O     -1.556335   -1.087838   -0.002499
  C     -2.313057    0.003619   -0.000099
  C     -1.552662    1.178895    0.000283
  H     -1.951947    2.178519    0.002928
  H     -3.380686   -0.143208    0.002406
  H      1.063935    2.523534   -0.001730
  H      3.140085    1.154992    0.000622
  H      3.017035   -1.295270    0.003179
  H      0.834518   -2.502615    0.000192

 Multiplicity           Mult            ....    2
 Number of Electrons    NEL             ....   61
 Basis Dimension        Dim             ....  552

ORBITAL ENERGIES
----------------
                 SPIN UP ORBITALS
  NO   OCC          E(Eh)            E(eV)
   0   1.0000     -19.252372      -523.8837
   1   1.0000     -10.308920      -280.5200
   2   1.0000     -10.281746      -279.7805
   3   1.0000     -10.239279      -278.6250
   4   1.0000     -10.237317      -278.5716
   5   1.0000     -10.235865      -278.5320
   6   1.0000     -10.229761      -278.3660
   7   1.0000     -10.224967      -278.2355
   8   1.0000     -10.206363      -277.7292
   9   1.0000      -1.175466       -31.9861
  10   1.0000      -0.910125       -24.7658
  11   1.0000      -0.855698       -23.2847
  12   1.0000      -0.801831       -21.8189
  13   1.0000      -0.777031       -21.1441
  14   1.0000      -0.683125       -18.5888
  15   1.0000      -0.647739       -17.6259
  16   1.0000      -0.632564       -17.2129
  17   1.0000      -0.565609       -15.3910
  18   1.0000      -0.542639       -14.7660
  19   1.0000      -0.520125       -14.1533
  20   1.0000      -0.519304       -14.1310
  21   1.0000      -0.481311       -13.0971
  22   1.0000      -0.469676       -12.7805
  23   1.0000      -0.456403       -12.4194
  24   1.0000      -0.431445       -11.7402
  25   1.0000      -0.407075       -11.0771
  26   1.0000      -0.403240       -10.9727
  27   1.0000      -0.384686       -10.4678
  28   1.0000      -0.352304        -9.5867
  29   1.0000      -0.294392        -8.0108
  30   1.0000      -0.275488        -7.4964
  31   0.0000      -0.084868        -2.3094
  32   0.0000      -0.037494        -1.0203
  33   0.0000      -0.009945        -0.2706
  34   0.0000      -0.005473        -0.1489
  35   0.0000       0.006065         0.1650

                 SPIN DOWN ORBITALS
  NO   OCC          E(Eh)            E(eV)
   0   1.0000     -19.251527      -523.8607
   1   1.0000     -10.303881      -280.3829
   2   1.0000     -10.280454      -279.7454
   3   1.0000     -10.237208      -278.5686
   4   1.0000     -10.236581      -278.5515
   5   1.0000     -10.231537      -278.4143
   6   1.0000     -10.226654      -278.2814
   7   1.0000     -10.224985      -278.2360
   8   1.0000     -10.207789      -277.7681
   9   1.0000      -1.171884       -31.8886
  10   1.0000      -0.905138       -24.6300
  11   1.0000      -0.847736       -23.0681
  12   1.0000      -0.798911       -21.7395
  13   1.0000      -0.764896       -20.8139
  14   1.0000      -0.678879       -18.4732
  15   1.0000      -0.642569       -17.4852
  16   1.0000      -0.628182       -17.0937
  17   1.0000      -0.563045       -15.3212
  18   1.0000      -0.538737       -14.6598
  19   1.0000      -0.517038       -14.0693
  20   1.0000      -0.505633       -13.7590
  21   1.0000      -0.479867       -13.0578
  22   1.0000      -0.466771       -12.7015
  23   1.0000      -0.454462       -12.3665
  24   1.0000      -0.428563       -11.6618
  25   1.0000      -0.401524       -10.9260
  26   1.0000      -0.391660       -10.6576
  27   1.0000      -0.383168       -10.4265
  28   1.0000      -0.327287        -8.9059
  29   1.0000      -0.288647        -7.8545
  30   0.0000      -0.201526        -5.4838
  31   0.0000      -0.057285        -1.5588
  32   0.0000      -0.026675        -0.7259
  33   0.0000      -0.005206        -0.1417
  34   0.0000       0.006307         0.1716

MULLIKEN ATOMIC CHARGES AND SPIN POPULATIONS
--------------------------------------------
   0 C :   -0.926320    0.012692
   1 C :   -0.061437    0.281544
   2 C :   -0.529870   -0.092699
   3 C :   -0.544743    0.204370
   4 C :    1.126858    0.037130
   5 C :    0.450343    0.067622
   6 O :   -0.522646    0.015370
   7 C :   -0.337385    0.304290
   8 C :   -0.561997    0.191060
   9 H :    0.449042   -0.005401
  10 H :    0.664360   -0.003197
  11 H :    0.126671   -0.012986
  12 H :    0.665723   -0.000652
  13 H :    0.398369   -0.002240
  14 H :    0.603032    0.003097
Sum of atomic charges         :    1.0000000

LOEWDIN ATOMIC CHARGES AND SPIN POPULATIONS
-------------------------------------------
   0 C :    0.303618    0.056881
   1 C :    0.283491    0.148170
   2 C :    0.259422    0.030208
   3 C :    0.302386    0.105996
   4 C :   -0.102867    0.081116
   5 C :   -0.318882    0.054368
   6 O :    0.669775    0.060959
   7 C :    0.105903    0.210323
   8 C :    0.341267    0.144978
   9 H :   -0.129768    0.019798
  10 H :   -0.129011    0.036745
  11 H :   -0.138963    0.021539
  12 H :   -0.160633   -0.007615
  13 H :   -0.144270    0.033984
  14 H :   -0.141470    0.002549

  Mayer bond orders larger than 0.100000
B(  0-C ,  1-C ) :   1.1443 B(  0-C ,  2-C ) :   0.3589 B(  0-C ,  4-C ) :   0.1396
B(  0-C ,  5-C ) :   1.2616 B(  0-C ,  6-O ) :   0.1202 B(  0-C , 14-H ) :   0.1983
B(  1-C ,  2-C ) :   1.1117 B(  1-C ,  3-C ) :  -0.3430 B(  1-C ,  5-C ) :  -0.6290
B(  1-C ,  7-C ) :   0.1066 B(  1-C ,  8-C ) :   0.1418 B(  1-C , 12-H ) :   0.1531
B(  1-C , 13-H ) :   0.7548 B(  1-C , 14-H ) :   0.1269 B(  2-C ,  3-C ) :   1.1800
B(  2-C ,  5-C ) :   0.1585 B(  2-C ,  8-C ) :   0.1870 B(  2-C , 12-H ) :   0.2438
B(  3-C ,  4-C ) :   0.6859 B(  3-C ,  5-C ) :  -0.6762 B(  3-C ,  8-C ) :   0.1367
B(  3-C ,  9-H ) :   0.1376 B(  3-C , 11-H ) :   1.3817 B(  3-C , 12-H ) :  -0.1266
B(  4-C ,  5-C ) :   1.1645 B(  4-C ,  7-C ) :  -0.3307 B(  4-C ,  8-C ) :   0.6824
B(  4-C , 13-H ) :  -0.1096 B(  5-C ,  6-O ) :   0.4498 B(  5-C ,  8-C ) :   0.2744
B(  5-C , 11-H ) :   0.1720 B(  5-C , 13-H ) :   0.1242 B(  6-O ,  7-C ) :   1.3686
B(  7-C ,  8-C ) :   1.0563 B(  7-C , 10-H ) :   0.4685 B(  8-C ,  9-H ) :   0.7239
B(  8-C , 11-H ) :  -0.1045

Dispersion correction           -0.027321326
FINAL SINGLE POINT ENERGY      -383.407170584609

DIPOLE MOMENT
-------------

Method             : SCF
Type of density    : Electron Density
Multiplicity       :   2
Irrep              :   0
Energy             :  -383.3798492588815634 Eh
Relativity type    :
Basis              : AO
                                X                 Y                 Z
Electronic contribution:     -2.939160104      -1.140095605      -0.007669352
Nuclear contribution   :      2.532789072       1.785655659       0.011519759
                        -----------------------------------------
Total Dipole Moment    :     -0.406371031       0.645560054       0.003850407
                        -----------------------------------------
Magnitude (a.u.)       :      0.762823718
Magnitude (Debye)      :      1.938943800

Rotational constants in cm-1:             0.130198             0.055992             0.039154
Rotational constants in MHz :          3903.230035          1678.612429          1173.808674

                             ****ORCA TERMINATED NORMALLY****
TOTAL RUN TIME: 0 days 0 hours 22 minutes 25 seconds 525 msec
