                         Program Version 6.0.0  -   RELEASE  -
|  1> !TPSSh aug-cc-pVTZ d3 TightSCF SlowConv RIJCOSX defgrid2
|  2>
|  3> %pal
|  4> nprocs 4
|  5> end
|  6>
|  7> %scf
|  8> MaxIter 1500
|  9> end
| 10>
| 11> %maxcore 3000
| 12>
| 13> !CPCM
| 14> %cpcm smd true
| 15> SMDsolvent "MeCN"
| 16> surfacetype gepol_ses
| 17> rsolv 2.19
| 18> end
| 19>
| 20> * xyz 0 1
| 21> C           1.90204149518375      0.85175069124874      0.29746003083239
| 22> C           1.67806327505735     -0.18007693267996     -0.61991983305632
| 23> C           2.67766384874709     -1.10217971745057     -0.88998783092066
| 24> C           3.91971539346518     -1.02243656774625     -0.24487905563433
| 25> C           4.14595550737713      0.01017707113018      0.67131493503817
| 26> C           3.14165845010563      0.94339092100850      0.92991610789907
| 27> H           3.33764385584375      1.75629242798997      1.63640783818954
| 28> H           5.10426353496277      0.11113790522407      1.18399893458188
| 29> O           4.82437427008133     -1.96808561528419     -0.57026671296603
| 30> C           6.08212467193582     -1.93604150499656      0.03937910976531
| 31> H           6.00811550930605     -2.04413775152094      1.13899316949653
| 32> H           6.62762267171733     -1.00092757885139     -0.19326138302289
| 33> H           6.64748938028465     -2.78866496010233     -0.36556594059567
| 34> H           2.51725803302919     -1.91024479956558     -1.60812631160203
| 35> H           0.71655401167501     -0.25011710230323     -1.13625291311173
| 36> S           0.67299496253335      2.05264998729490      0.77228191902236
| 37> S          -0.67289432342165      2.05290943519487     -0.77138488347598
| 38> C          -1.90204031262548      0.85198738280173     -0.29688616793200
| 39> C          -1.67813191920431     -0.18013245127198      0.62018473712761
| 40> C          -2.67779582841691     -1.10225027982985      0.88996766430274
| 41> C          -3.91983449465123     -1.02224023963496      0.24486384046698
| 42> C          -4.14600620480715      0.01066778938885     -0.67101420394572
| 43> C          -3.14164941952594      0.94389970179356     -0.92931828009062
| 44> H          -3.33757462896756      1.75703373795364     -1.63555895862120
| 45> H          -5.10430366539882      0.11184879268910     -1.18367603270811
| 46> O          -4.82454925075659     -1.96793934833253      0.56994794546651
| 47> C          -6.08228086565604     -1.93565869569194     -0.03972588010912
| 48> H          -6.00824247611482     -2.04342740943553     -1.13936995580242
| 49> H          -6.64769241955313     -2.78837951769747      0.36494669506615
| 50> H          -6.62774680598541     -1.00059156129990      0.19317765994923
| 51> H          -2.51744986321001     -1.91054439699301      1.60786208700731
| 52> H          -0.71663329301036     -0.25039391302994      1.13650706938306
| 53> *
| 54>
| 55>                          ****END OF INPUT****

CARTESIAN COORDINATES (ANGSTROEM)
---------------------------------
  C      1.902041    0.851751    0.297460
  C      1.678063   -0.180077   -0.619920
  C      2.677664   -1.102180   -0.889988
  C      3.919715   -1.022437   -0.244879
  C      4.145956    0.010177    0.671315
  C      3.141658    0.943391    0.929916
  H      3.337644    1.756292    1.636408
  H      5.104264    0.111138    1.183999
  O      4.824374   -1.968086   -0.570267
  C      6.082125   -1.936042    0.039379
  H      6.008116   -2.044138    1.138993
  H      6.627623   -1.000928   -0.193261
  H      6.647489   -2.788665   -0.365566
  H      2.517258   -1.910245   -1.608126
  H      0.716554   -0.250117   -1.136253
  S      0.672995    2.052650    0.772282
  S     -0.672894    2.052909   -0.771385
  C     -1.902040    0.851987   -0.296886
  C     -1.678132   -0.180132    0.620185
  C     -2.677796   -1.102250    0.889968
  C     -3.919834   -1.022240    0.244864
  C     -4.146006    0.010668   -0.671014
  C     -3.141649    0.943900   -0.929318
  H     -3.337575    1.757034   -1.635559
  H     -5.104304    0.111849   -1.183676
  O     -4.824549   -1.967939    0.569948
  C     -6.082281   -1.935659   -0.039726
  H     -6.008242   -2.043427   -1.139370
  H     -6.647692   -2.788380    0.364947
  H     -6.627747   -1.000592    0.193178
  H     -2.517450   -1.910544    1.607862
  H     -0.716633   -0.250394    1.136507

 Total Charge           Charge          ....    0
 Multiplicity           Mult            ....    1
 Number of Electrons    NEL             ....  146
 Basis Dimension        Dim             .... 1158

ORBITAL ENERGIES
----------------

  NO   OCC          E(Eh)            E(eV)
   0   2.0000     -88.774130     -2415.6669
   1   2.0000     -88.774129     -2415.6669
   2   2.0000     -19.088099      -519.4136
   3   2.0000     -19.088098      -519.4136
   4   2.0000     -10.177916      -276.9552
   5   2.0000     -10.177915      -276.9551
   6   2.0000     -10.158562      -276.4285
   7   2.0000     -10.158561      -276.4285
   8   2.0000     -10.148347      -276.1506
   9   2.0000     -10.148346      -276.1505
  10   2.0000     -10.127327      -275.5786
  11   2.0000     -10.127327      -275.5786
  12   2.0000     -10.126116      -275.5456
  13   2.0000     -10.126115      -275.5456
  14   2.0000     -10.120424      -275.3907
  15   2.0000     -10.120423      -275.3907
  16   2.0000     -10.119210      -275.3577
  17   2.0000     -10.119210      -275.3577
  18   2.0000      -7.896709      -214.8804
  19   2.0000      -7.896644      -214.8786
  20   2.0000      -5.849105      -159.1622
  21   2.0000      -5.848848      -159.1553
  22   2.0000      -5.844355      -159.0330
  23   2.0000      -5.844313      -159.0318
  24   2.0000      -5.838490      -158.8734
  25   2.0000      -5.838490      -158.8734
  26   2.0000      -1.054949       -28.7066
  27   2.0000      -1.054948       -28.7066
  28   2.0000      -0.853136       -23.2150
  29   2.0000      -0.844348       -22.9759
  30   2.0000      -0.797312       -21.6960
  31   2.0000      -0.756479       -20.5848
  32   2.0000      -0.738962       -20.1082
  33   2.0000      -0.734419       -19.9846
  34   2.0000      -0.721202       -19.6249
  35   2.0000      -0.690734       -18.7958
  36   2.0000      -0.667271       -18.1574
  37   2.0000      -0.626328       -17.0432
  38   2.0000      -0.601716       -16.3735
  39   2.0000      -0.598175       -16.2772
  40   2.0000      -0.569966       -15.5096
  41   2.0000      -0.553392       -15.0586
  42   2.0000      -0.520070       -14.1518
  43   2.0000      -0.515971       -14.0403
  44   2.0000      -0.478672       -13.0253
  45   2.0000      -0.468792       -12.7565
  46   2.0000      -0.461305       -12.5527
  47   2.0000      -0.449848       -12.2410
  48   2.0000      -0.449813       -12.2400
  49   2.0000      -0.437854       -11.9146
  50   2.0000      -0.434633       -11.8270
  51   2.0000      -0.429061       -11.6754
  52   2.0000      -0.408958       -11.1283
  53   2.0000      -0.408303       -11.1105
  54   2.0000      -0.402131       -10.9425
  55   2.0000      -0.395473       -10.7614
  56   2.0000      -0.378192       -10.2911
  57   2.0000      -0.375462       -10.2169
  58   2.0000      -0.364623        -9.9219
  59   2.0000      -0.351410        -9.5624
  60   2.0000      -0.344770        -9.3817
  61   2.0000      -0.343763        -9.3543
  62   2.0000      -0.325026        -8.8444
  63   2.0000      -0.320956        -8.7337
  64   2.0000      -0.320916        -8.7326
  65   2.0000      -0.310236        -8.4420
  66   2.0000      -0.309666        -8.4264
  67   2.0000      -0.263318        -7.1652
  68   2.0000      -0.262751        -7.1498
  69   2.0000      -0.255019        -6.9394
  70   2.0000      -0.251714        -6.8495
  71   2.0000      -0.205412        -5.5896
  72   2.0000      -0.198002        -5.3879
  73   0.0000      -0.047923        -1.3041
  74   0.0000      -0.035760        -0.9731
  75   0.0000      -0.028226        -0.7681
  76   0.0000      -0.020871        -0.5679
  77   0.0000      -0.010500        -0.2857

MULLIKEN ATOMIC CHARGES
-----------------------
   0 C :    0.819325
   1 C :   -0.157155
   2 C :   -1.026373
   3 C :    1.001347
   4 C :   -0.059754
   5 C :   -0.806726
   6 H :    0.316913
   7 H :    0.241794
   8 O :   -0.709715
   9 C :   -0.288908
  10 H :    0.214284
  11 H :    0.215283
  12 H :    0.013650
  13 H :    0.241663
  14 H :    0.459856
  15 S :   -0.475076
  16 S :   -0.474334
  17 C :    0.817954
  18 C :   -0.153749
  19 C :   -1.021994
  20 C :    1.002638
  21 C :   -0.062370
  22 C :   -0.809115
  23 H :    0.319759
  24 H :    0.238774
  25 O :   -0.709366
  26 C :   -0.289849
  27 H :    0.214867
  28 H :    0.012894
  29 H :    0.215962
  30 H :    0.240954
  31 H :    0.456567
Sum of atomic charges:   -0.0000000

LOEWDIN ATOMIC CHARGES
----------------------
   0 C :   -0.592881
   1 C :    0.085607
   2 C :    0.199785
   3 C :   -0.405313
   4 C :    0.197396
   5 C :    0.095200
   6 H :   -0.185709
   7 H :   -0.187288
   8 O :    0.595690
   9 C :    0.318074
  10 H :   -0.160275
  11 H :   -0.160237
  12 H :   -0.168784
  13 H :   -0.168836
  14 H :   -0.232245
  15 S :    0.769814
  16 S :    0.769819
  17 C :   -0.592884
  18 C :    0.085611
  19 C :    0.199789
  20 C :   -0.405314
  21 C :    0.197394
  22 C :    0.095193
  23 H :   -0.185709
  24 H :   -0.187289
  25 O :    0.595691
  26 C :    0.318075
  27 H :   -0.160273
  28 H :   -0.168786
  29 H :   -0.160238
  30 H :   -0.168836
  31 H :   -0.232240

  Mayer bond orders larger than 0.100000
B(  0-C ,  1-C ) :   0.7773 B(  0-C ,  5-C ) :   1.1068 B(  0-C , 15-S ) :   0.4395
B(  0-C , 16-S ) :   0.1041 B(  0-C , 17-C ) :   0.1392 B(  1-C ,  2-C ) :   1.0254
B(  1-C ,  3-C ) :  -0.1186 B(  1-C ,  4-C ) :  -0.1626 B(  1-C ,  8-O ) :   0.1505
B(  1-C , 13-H ) :   0.1251 B(  1-C , 14-H ) :   0.6711 B(  2-C ,  3-C ) :   0.9559
B(  2-C ,  4-C ) :   0.1164 B(  2-C ,  5-C ) :   0.1289 B(  2-C ,  8-O ) :   0.3616
B(  2-C , 13-H ) :   0.7457 B(  2-C , 14-H ) :  -0.1176 B(  3-C ,  4-C ) :   1.0110
B(  3-C ,  7-H ) :   0.1146 B(  3-C ,  9-C ) :   0.1601 B(  4-C ,  5-C ) :   1.1675
B(  4-C ,  7-H ) :   0.7014 B(  4-C ,  8-O ) :  -0.2261 B(  4-C ,  9-C ) :  -0.1102
B(  5-C ,  6-H ) :   0.6217 B(  8-O ,  9-C ) :   0.9990 B(  9-C , 10-H ) :   0.9239
B(  9-C , 11-H ) :   0.9201 B(  9-C , 12-H ) :   1.0866 B( 14-H , 16-S ) :  -0.1502
B( 15-S , 16-S ) :   0.9703 B( 15-S , 17-C ) :   0.1075 B( 15-S , 31-H ) :  -0.1482
B( 16-S , 17-C ) :   0.4436 B( 17-C , 18-C ) :   0.7820 B( 17-C , 22-C ) :   1.1047
B( 18-C , 19-C ) :   1.0246 B( 18-C , 20-C ) :  -0.1191 B( 18-C , 21-C ) :  -0.1623
B( 18-C , 25-O ) :   0.1491 B( 18-C , 30-H ) :   0.1246 B( 18-C , 31-H ) :   0.6727
B( 19-C , 20-C ) :   0.9547 B( 19-C , 21-C ) :   0.1168 B( 19-C , 22-C ) :   0.1268
B( 19-C , 25-O ) :   0.3575 B( 19-C , 30-H ) :   0.7459 B( 19-C , 31-H ) :  -0.1179
B( 20-C , 21-C ) :   1.0121 B( 20-C , 24-H ) :   0.1131 B( 20-C , 26-C ) :   0.1584
B( 21-C , 22-C ) :   1.1690 B( 21-C , 24-H ) :   0.7035 B( 21-C , 25-O ) :  -0.2236
B( 21-C , 26-C ) :  -0.1105 B( 22-C , 23-H ) :   0.6177 B( 25-O , 26-C ) :   0.9989
B( 26-C , 27-H ) :   0.9234 B( 26-C , 28-H ) :   1.0877 B( 26-C , 29-H ) :   0.9192

Dispersion correction           -0.049962738
FINAL SINGLE POINT ENERGY     -1489.159373309898

DIPOLE MOMENT
-------------

Method             : SCF
Type of density    : Electron Density
Multiplicity       :   1
Irrep              :   0
Energy             : -1489.1094105714551006 Eh
Relativity type    :
Basis              : AO
                                X                 Y                 Z
Electronic contribution:      0.000346796      10.682638927       0.001711017
Nuclear contribution   :     -0.000353672     -11.568109553      -0.001837843
                        -----------------------------------------
Total Dipole Moment    :     -0.000006876      -0.885470626      -0.000126827
                        -----------------------------------------
Magnitude (a.u.)       :      0.885470635
Magnitude (Debye)      :      2.250687489

Rotational constants in cm-1:             0.022512             0.004846             0.004251
Rotational constants in MHz :           674.890480           145.282347           127.443489

                             ****ORCA TERMINATED NORMALLY****
TOTAL RUN TIME: 0 days 0 hours 21 minutes 2 seconds 752 msec
