                         Program Version 6.0.0  -   RELEASE  -
|  1> !PBE0 def2-SV(p) Opt Freq d3 TightSCF SlowConv RIJCOSX defgrid2
|  2>
|  3> %pal
|  4> nprocs 4
|  5> end
|  6>
|  7> %scf
|  8> MaxIter 1500
|  9> end
| 10>
| 11> %maxcore 3000
| 12>
| 13>
| 14>
| 15> * xyz 1 2
| 16> C     0.9801767   -1.3256342   -0.0000794
| 17> C     2.3228839   -1.0348525   -0.0000570
| 18> C     2.7534513    0.2990573    0.0000026
| 19> C     1.8223395    1.3451745    0.0000470
| 20> C     0.4780348    1.0706469    0.0000584
| 21> C     0.0270925   -0.2774183   -0.0000181
| 22> C    -1.3650204   -0.5839261    0.0000447
| 23> N    -2.2436273    0.3584720   -0.0000883
| 24> O    -3.5272842    0.0573824    0.0006668
| 25> H    -4.0431032    0.8928328   -0.0004397
| 26> H    -1.6738924   -1.6313864    0.0001177
| 27> H    -0.2565241    1.8609925    0.0000229
| 28> H     2.1688570    2.3671751    0.0000272
| 29> H     3.8101168    0.5203203   -0.0000001
| 30> H     3.0514411   -1.8306758   -0.0000443
| 31> H     0.6427509   -2.3507845   -0.0000698
| 32> *
| 33>
| 34>                          ****END OF INPUT****
 Total Charge           Charge          ....    1
 Multiplicity           Mult            ....    2
 Number of Electrons    NEL             ....   63
Dispersion correction           -0.013896359
FINAL SINGLE POINT ENERGY      -399.808300624146
Dispersion correction             ... done (  0.1 sec)
Dispersion correction           -0.013887840
FINAL SINGLE POINT ENERGY      -399.813933543498
Dispersion correction             ... done (  0.1 sec)
Dispersion correction           -0.013878723
FINAL SINGLE POINT ENERGY      -399.814474230355
Dispersion correction             ... done (  0.1 sec)
FINAL SINGLE POINT ENERGY      -399.814564935513
Dispersion correction             ... done (  0.0 sec)
Dispersion correction           -0.013877229
FINAL SINGLE POINT ENERGY      -399.814579070107
Dispersion correction             ... done (  0.1 sec)
Dispersion correction           -0.013877301
FINAL SINGLE POINT ENERGY      -399.814583048350
Dispersion correction             ... done (  0.1 sec)
                    ***********************HURRAY********************

CARTESIAN COORDINATES (ANGSTROEM)
---------------------------------
  C      0.960026   -1.322540    0.000021
  C      2.309466   -1.052926   -0.000012
  C      2.751625    0.287561   -0.000027
  C      1.839025    1.361872   -0.000001
  C      0.487116    1.107971    0.000029
  C      0.020414   -0.247243    0.000036
  C     -1.360497   -0.550355    0.000042
  N     -2.244359    0.431653    0.000035
  O     -3.465683   -0.024109    0.000021
  H     -4.064141    0.752471    0.000030
  H     -1.712415   -1.592154    0.000041
  H     -0.243244    1.920136    0.000042
  H      2.209109    2.390167   -0.000012
  H      3.826149    0.496067   -0.000057
  H      3.038635   -1.867087   -0.000028
  H      0.596467   -2.354108    0.000031

 Multiplicity           Mult            ....    2
 Number of Electrons    NEL             ....   63
 Basis Dimension        Dim             ....  140

ORBITAL ENERGIES
----------------
                 SPIN UP ORBITALS
  NO   OCC          E(Eh)            E(eV)
   0   1.0000     -19.490542      -530.3646
   1   1.0000     -14.671782      -399.2395
   2   1.0000     -10.481761      -285.2232
   3   1.0000     -10.465466      -284.7798
   4   1.0000     -10.448432      -284.3163
   5   1.0000     -10.439758      -284.0803
   6   1.0000     -10.439219      -284.0656
   7   1.0000     -10.425588      -283.6947
   8   1.0000     -10.422454      -283.6094
   9   1.0000      -1.376093       -37.4454
  10   1.0000      -1.108536       -30.1648
  11   1.0000      -1.064984       -28.9797
  12   1.0000      -0.973507       -26.4905
  13   1.0000      -0.959113       -26.0988
  14   1.0000      -0.866389       -23.5756
  15   1.0000      -0.820051       -22.3147
  16   1.0000      -0.790052       -21.4984
  17   1.0000      -0.756540       -20.5865
  18   1.0000      -0.729988       -19.8640
  19   1.0000      -0.692866       -18.8538
  20   1.0000      -0.688027       -18.7222
  21   1.0000      -0.664176       -18.0732
  22   1.0000      -0.644904       -17.5487
  23   1.0000      -0.626392       -17.0450
  24   1.0000      -0.622129       -16.9290
  25   1.0000      -0.593807       -16.1583
  26   1.0000      -0.557535       -15.1713
  27   1.0000      -0.545308       -14.8386
  28   1.0000      -0.520396       -14.1607
  29   1.0000      -0.501849       -13.6560
  30   1.0000      -0.462189       -12.5768
  31   1.0000      -0.448191       -12.1959
  32   0.0000      -0.261938        -7.1277
  33   0.0000      -0.189257        -5.1500
  34   0.0000      -0.153347        -4.1728
  35   0.0000      -0.098900        -2.6912
  36   0.0000      -0.075820        -2.0632

                 SPIN DOWN ORBITALS
  NO   OCC          E(Eh)            E(eV)
   0   1.0000     -19.483456      -530.1718
   1   1.0000     -14.664742      -399.0479
   2   1.0000     -10.482107      -285.2326
   3   1.0000     -10.462755      -284.7060
   4   1.0000     -10.443850      -284.1916
   5   1.0000     -10.438578      -284.0481
   6   1.0000     -10.437272      -284.0126
   7   1.0000     -10.426223      -283.7119
   8   1.0000     -10.423606      -283.6407
   9   1.0000      -1.361954       -37.0607
  10   1.0000      -1.097896       -29.8753
  11   1.0000      -1.055747       -28.7283
  12   1.0000      -0.964539       -26.2464
  13   1.0000      -0.956422       -26.0256
  14   1.0000      -0.860947       -23.4276
  15   1.0000      -0.816857       -22.2278
  16   1.0000      -0.785312       -21.3694
  17   1.0000      -0.750886       -20.4326
  18   1.0000      -0.727024       -19.7833
  19   1.0000      -0.688675       -18.7398
  20   1.0000      -0.661701       -18.0058
  21   1.0000      -0.646158       -17.5828
  22   1.0000      -0.642329       -17.4787
  23   1.0000      -0.625880       -17.0311
  24   1.0000      -0.619557       -16.8590
  25   1.0000      -0.572580       -15.5807
  26   1.0000      -0.556527       -15.1439
  27   1.0000      -0.543352       -14.7854
  28   1.0000      -0.494104       -13.4452
  29   1.0000      -0.488263       -13.2863
  30   1.0000      -0.458259       -12.4699
  31   0.0000      -0.355598        -9.6763
  32   0.0000      -0.228377        -6.2144
  33   0.0000      -0.180165        -4.9025
  34   0.0000      -0.132372        -3.6020
  35   0.0000      -0.096196        -2.6176

MULLIKEN ATOMIC CHARGES AND SPIN POPULATIONS
--------------------------------------------
   0 C :   -0.063144    0.077192
   1 C :   -0.067173   -0.056014
   2 C :   -0.020731    0.317810
   3 C :   -0.066708   -0.095822
   4 C :   -0.045611    0.123574
   5 C :    0.038712    0.182684
   6 C :    0.001260   -0.038282
   7 N :    0.030850    0.305437
   8 O :   -0.231722    0.214583
   9 H :    0.402195   -0.008310
  10 H :    0.176585    0.000187
  11 H :    0.167743   -0.007147
  12 H :    0.168243    0.002898
  13 H :    0.180014   -0.015342
  14 H :    0.170138    0.001195
  15 H :    0.159347   -0.004643
Sum of atomic charges         :    1.0000000

LOEWDIN ATOMIC CHARGES AND SPIN POPULATIONS
-------------------------------------------
   0 C :   -0.049195    0.076219
   1 C :   -0.085872   -0.020779
   2 C :    0.010410    0.255131
   3 C :   -0.094052   -0.049041
   4 C :   -0.036410    0.111986
   5 C :   -0.004056    0.150286
   6 C :   -0.026010   -0.009075
   7 N :    0.053084    0.282962
   8 O :   -0.100597    0.220991
   9 H :    0.341710   -0.006238
  10 H :    0.157259   -0.000398
  11 H :    0.165479   -0.003774
  12 H :    0.167067    0.001360
  13 H :    0.169550   -0.007634
  14 H :    0.167877    0.000528
  15 H :    0.163756   -0.002525

  Mayer bond orders larger than 0.100000
B(  0-C ,  1-C ) :   1.5007 B(  0-C ,  5-C ) :   1.2002 B(  0-C , 15-H ) :   0.9540
B(  1-C ,  2-C ) :   1.2856 B(  1-C , 14-H ) :   0.9500 B(  2-C ,  3-C ) :   1.2910
B(  2-C , 13-H ) :   0.9452 B(  3-C ,  4-C ) :   1.4877 B(  3-C , 12-H ) :   0.9520
B(  4-C ,  5-C ) :   1.1973 B(  4-C , 11-H ) :   0.9442 B(  5-C ,  6-C ) :   1.2894
B(  6-C ,  7-N ) :   1.5408 B(  6-C , 10-H ) :   0.9228 B(  7-N ,  8-O ) :   1.2260
B(  8-O ,  9-H ) :   0.8005

Dispersion correction           -0.013877272
FINAL SINGLE POINT ENERGY      -399.814583490673

DIPOLE MOMENT
-------------

Method             : SCF
Type of density    : Electron Density
Multiplicity       :   2
Irrep              :   0
Energy             :  -399.8007062191507544 Eh
Relativity type    :
Basis              : AO
                                X                 Y                 Z
Electronic contribution:     -3.559435069       0.320644378       0.000054945
Nuclear contribution   :      3.309117951      -0.259125904      -0.000059906
                        -----------------------------------------
Total Dipole Moment    :     -0.250317118       0.061518474      -0.000004961
                        -----------------------------------------
Magnitude (a.u.)       :      0.257765751
Magnitude (Debye)      :      0.655188470

VIBRATIONAL FREQUENCIES
-----------------------

Scaling factor for frequencies =  1.000000000  (already applied!)

     0:       0.00 cm**-1
     1:       0.00 cm**-1
     2:       0.00 cm**-1
     3:       0.00 cm**-1
     4:       0.00 cm**-1
     5:       0.00 cm**-1
     6:      94.15 cm**-1
     7:     161.35 cm**-1
     8:     209.15 cm**-1
     9:     259.52 cm**-1
    10:     389.69 cm**-1
    11:     391.21 cm**-1
    12:     451.02 cm**-1
    13:     460.91 cm**-1
    14:     590.34 cm**-1
    15:     619.30 cm**-1
    16:     656.92 cm**-1
    17:     662.57 cm**-1
    18:     807.40 cm**-1
    19:     840.39 cm**-1
    20:     884.31 cm**-1
    21:     974.50 cm**-1
    22:     998.33 cm**-1
    23:    1005.43 cm**-1
    24:    1028.11 cm**-1
    25:    1030.17 cm**-1
    26:    1049.01 cm**-1
    27:    1122.14 cm**-1
    28:    1177.83 cm**-1
    29:    1200.48 cm**-1
    30:    1225.65 cm**-1
    31:    1274.08 cm**-1
    32:    1329.65 cm**-1
    33:    1348.34 cm**-1
    34:    1440.99 cm**-1
    35:    1478.45 cm**-1
    36:    1489.43 cm**-1
    37:    1551.00 cm**-1
    38:    1573.40 cm**-1
    39:    1580.17 cm**-1
    40:    1699.23 cm**-1
    41:    3171.04 cm**-1
    42:    3220.04 cm**-1
    43:    3224.92 cm**-1
    44:    3235.82 cm**-1
    45:    3241.58 cm**-1
    46:    3249.20 cm**-1
    47:    3587.38 cm**-1

IR SPECTRUM
-----------

 Mode   freq       eps      Int      T**2         TX        TY        TZ
       cm**-1   L/(mol*cm) km/mol    a.u.
----------------------------------------------------------------------------
  6:     94.15   0.000255    1.29  0.000846  (-0.000008  0.000002 -0.029080)
  7:    161.35   0.000135    0.68  0.000261  (-0.004540 -0.015515 -0.000004)
  8:    209.15   0.000026    0.13  0.000039  ( 0.000008  0.000006 -0.006219)
  9:    259.52   0.000040    0.20  0.000048  ( 0.000004  0.000003  0.006933)
 10:    389.69   0.000054    0.27  0.000043  ( 0.000002 -0.000003  0.006578)
 11:    391.21   0.000299    1.51  0.000239  (-0.012399 -0.009227 -0.000005)
 12:    451.02   0.000817    4.13  0.000565  ( 0.019463  0.013647  0.000001)
 13:    460.91   0.000308    1.56  0.000209  ( 0.000006  0.000009  0.014446)
 14:    590.34   0.000402    2.03  0.000212  (-0.004579 -0.013839  0.000004)
 15:    619.30   0.035569  179.75  0.017923  (-0.000009 -0.000003 -0.133877)
 16:    656.92   0.005431   27.45  0.002580  ( 0.049742  0.010284 -0.000017)
 17:    662.57   0.000035    0.18  0.000016  ( 0.000006  0.000007  0.004054)
 18:    807.40   0.006787   34.30  0.002623  ( 0.000002 -0.000002  0.051216)
 19:    840.39   0.000007    0.04  0.000003  ( 0.000000  0.000004 -0.001618)
 20:    884.31   0.000340    1.72  0.000120  ( 0.005622 -0.009407  0.000001)
 21:    974.50   0.000000    0.00  0.000000  ( 0.000004  0.000001  0.000048)
 22:    998.33   0.000802    4.05  0.000251  (-0.000002  0.000006  0.015835)
 23:   1005.43   0.001906    9.63  0.000592  ( 0.024189  0.002547 -0.000002)
 24:   1028.11   0.000014    0.07  0.000004  ( 0.000033  0.000001  0.002053)
 25:   1030.17   0.003918   19.80  0.001187  (-0.034278 -0.003455  0.000001)
 26:   1049.01   0.000167    0.84  0.000050  (-0.000004 -0.000004  0.007043)
 27:   1122.14   0.002294   11.59  0.000638  (-0.002099  0.025173 -0.000000)
 28:   1177.83   0.000758    3.83  0.000201  (-0.006286 -0.012706 -0.000001)
 29:   1200.48   0.002062   10.42  0.000536  (-0.022978 -0.002850  0.000000)
 30:   1225.65   0.016596   83.87  0.004226  ( 0.064381 -0.008977  0.000000)
 31:   1274.08   0.009149   46.23  0.002241  ( 0.038415  0.027661 -0.000000)
 32:   1329.65   0.093418  472.10  0.021925  (-0.148054 -0.002245 -0.000000)
 33:   1348.34   0.012928   65.33  0.002992  (-0.052015 -0.016930  0.000000)
 34:   1440.99   0.000508    2.57  0.000110  (-0.008236 -0.006501 -0.000000)
 35:   1478.45   0.002676   13.53  0.000565  ( 0.016625 -0.016987  0.000001)
 36:   1489.43   0.009424   47.63  0.001975  (-0.004095  0.044247  0.000001)
 37:   1551.00   0.005293   26.75  0.001065  (-0.032165 -0.005503  0.000000)
 38:   1573.40   0.016130   81.51  0.003199  ( 0.055241 -0.012144 -0.000001)
 39:   1580.17   0.022434  113.37  0.004430  ( 0.064899  0.014784 -0.000000)
 40:   1699.23   0.022495  113.68  0.004131  (-0.063708 -0.008517  0.000001)
 41:   3171.04   0.000183    0.92  0.000018  ( 0.001515  0.003964  0.000000)
 42:   3220.04   0.000061    0.31  0.000006  (-0.000779 -0.002302 -0.000000)
 43:   3224.92   0.000209    1.06  0.000020  (-0.003283 -0.003070  0.000000)
 44:   3235.82   0.000432    2.18  0.000042  ( 0.004715  0.004408 -0.000000)
 45:   3241.58   0.001184    5.98  0.000114  ( 0.008122 -0.006930 -0.000000)
 46:   3249.20   0.001082    5.47  0.000104  ( 0.002920 -0.009767  0.000000)
 47:   3587.38   0.131544  664.77  0.011443  (-0.100105  0.037709  0.000001)

--------------------------
THERMOCHEMISTRY AT 298.15K
--------------------------

Temperature         ...   298.15 K
Pressure            ...     1.00 atm
Total Mass          ...   121.14 AMU
Quasi RRHO          ...     True
Cut-Off Frequency   ...     1.00 cm^-1

Throughout the following assumptions are being made:
  (1) The electronic state is orbitally nondegenerate
      but the spin degeneracy is treated
  (2) There are no thermally accessible electronically excited states
  (3) Hindered rotations indicated by low frequency modes are not
      treated as such but are treated as vibrations and this may
      cause some error
  (4) All equations used are the standard statistical mechanics
      equations for an ideal gas
  (5) All vibrations are strictly harmonic

freq.      94.15  E(vib)   ...       0.47
freq.     161.35  E(vib)   ...       0.39
freq.     209.15  E(vib)   ...       0.34
freq.     259.52  E(vib)   ...       0.30
freq.     389.69  E(vib)   ...       0.20
freq.     391.21  E(vib)   ...       0.20
freq.     451.02  E(vib)   ...       0.17
freq.     460.91  E(vib)   ...       0.16
freq.     590.34  E(vib)   ...       0.10
freq.     619.30  E(vib)   ...       0.09
freq.     656.92  E(vib)   ...       0.08
freq.     662.57  E(vib)   ...       0.08
freq.     807.40  E(vib)   ...       0.05
freq.     840.39  E(vib)   ...       0.04
freq.     884.31  E(vib)   ...       0.04
freq.     974.50  E(vib)   ...       0.03
freq.     998.33  E(vib)   ...       0.02
freq.    1005.43  E(vib)   ...       0.02
freq.    1028.11  E(vib)   ...       0.02
freq.    1030.17  E(vib)   ...       0.02
freq.    1049.01  E(vib)   ...       0.02
freq.    1122.14  E(vib)   ...       0.01
freq.    1177.83  E(vib)   ...       0.01
freq.    1200.48  E(vib)   ...       0.01
freq.    1225.65  E(vib)   ...       0.01
freq.    1274.08  E(vib)   ...       0.01
freq.    1329.65  E(vib)   ...       0.01
freq.    1348.34  E(vib)   ...       0.01
freq.    1440.99  E(vib)   ...       0.00
freq.    1478.45  E(vib)   ...       0.00
freq.    1489.43  E(vib)   ...       0.00
freq.    1551.00  E(vib)   ...       0.00
freq.    1573.40  E(vib)   ...       0.00
freq.    1580.17  E(vib)   ...       0.00
freq.    1699.23  E(vib)   ...       0.00
freq.    3171.04  E(vib)   ...       0.00
freq.    3220.04  E(vib)   ...       0.00
freq.    3224.92  E(vib)   ...       0.00
freq.    3235.82  E(vib)   ...       0.00
freq.    3241.58  E(vib)   ...       0.00
freq.    3249.20  E(vib)   ...       0.00
freq.    3587.38  E(vib)   ...       0.00

------------
INNER ENERGY
------------

The inner energy is: U= E(el) + E(ZPE) + E(vib) + E(rot) + E(trans)
    E(el)   - is the total energy from the electronic structure calculation
              = E(kin-el) + E(nuc-el) + E(el-el) + E(nuc-nuc)
    E(ZPE)  - the the zero temperature vibrational energy from the frequency calculation
    E(vib)  - the the finite temperature correction to E(ZPE) due to population
              of excited vibrational states
    E(rot)  - is the rotational thermal energy
    E(trans)- is the translational thermal energy

Summary of contributions to the inner energy U:
Electronic energy                ...   -399.81458349 Eh
Zero point energy                ...      0.12754233 Eh      80.03 kcal/mol
Thermal vibrational correction   ...      0.00466551 Eh       2.93 kcal/mol
Thermal rotational correction    ...      0.00141627 Eh       0.89 kcal/mol
Thermal translational correction ...      0.00141627 Eh       0.89 kcal/mol
-----------------------------------------------------------------------
Total thermal energy                   -399.67954311 Eh

Summary of corrections to the electronic energy:
(perhaps to be used in another calculation)
Total thermal correction                  0.00749805 Eh       4.71 kcal/mol
Non-thermal (ZPE) correction              0.12754233 Eh      80.03 kcal/mol
-----------------------------------------------------------------------
Total correction                          0.13504038 Eh      84.74 kcal/mol

--------
ENTHALPY
--------

The enthalpy is H = U + kB*T
                kB is Boltzmann's constant
Total thermal energy              ...   -399.67954311 Eh
Thermal Enthalpy correction       ...      0.00094421 Eh       0.59 kcal/mol
-----------------------------------------------------------------------
Total Enthalpy                    ...   -399.67859890 Eh

Note: Rotational entropy computed according to Herzberg
Infrared and Raman Spectra, Chapter V,1, Van Nostrand Reinhold, 1945
Point Group:  Cs, Symmetry Number:   1
Rotational constants in cm-1:     0.166470     0.031016     0.026145

Vibrational entropy computed according to the QRRHO of S. Grimme
Chem.Eur.J. 2012 18 9955 using a reference frequency of 100.0 cm-1

-------
ENTROPY
-------

The entropy contributions are T*S = T*(S(el)+S(vib)+S(rot)+S(trans))
     S(el)   - electronic entropy
     S(vib)  - vibrational entropy
     S(rot)  - rotational entropy
     S(trans)- translational entropy
The entropies will be listed as multiplied by the temperature to get
units of energy

Electronic entropy                ...      0.00065446 Eh      0.41 kcal/mol
Vibrational entropy               ...      0.00759899 Eh      4.77 kcal/mol
Rotational entropy                ...      0.01371727 Eh      8.61 kcal/mol
Translational entropy             ...      0.01914284 Eh     12.01 kcal/mol
-----------------------------------------------------------------------
Final entropy term                ...      0.04111356 Eh     25.80 kcal/mol

In case the symmetry of your molecule has not been determined correctly
or in case you have a reason to use a different symmetry number we print
out the resulting rotational entropy values for sn=1,12:

 non-linear molecules -----------------------------------
|  sn= 1 | S(rot)=       0.01371727 Eh      8.61 kcal/mol|
|  sn= 2 | S(rot)=       0.01306282 Eh      8.20 kcal/mol|
|  sn= 3 | S(rot)=       0.01267998 Eh      7.96 kcal/mol|
|  sn= 4 | S(rot)=       0.01240836 Eh      7.79 kcal/mol|
|  sn= 5 | S(rot)=       0.01219767 Eh      7.65 kcal/mol|
|  sn= 6 | S(rot)=       0.01202553 Eh      7.55 kcal/mol|
|  sn= 7 | S(rot)=       0.01187998 Eh      7.45 kcal/mol|
|  sn= 8 | S(rot)=       0.01175390 Eh      7.38 kcal/mol|
|  sn= 9 | S(rot)=       0.01164269 Eh      7.31 kcal/mol|
|  sn=10 | S(rot)=       0.01154321 Eh      7.24 kcal/mol|
|  sn=11 | S(rot)=       0.01145322 Eh      7.19 kcal/mol|
|  sn=12 | S(rot)=       0.01137107 Eh      7.14 kcal/mol|
 linear molecules ---------------------------------------
|  Dinfh | S(rot)=       0.00876650 Eh      5.50 kcal/mol|
|  Cinfv | S(rot)=       0.00942095 Eh      5.91 kcal/mol|
 --------------------------------------------------------

-------------------
GIBBS FREE ENERGY
-------------------

                             ****ORCA TERMINATED NORMALLY****
TOTAL RUN TIME: 0 days 0 hours 10 minutes 18 seconds 378 msec
