                         Program Version 6.0.0  -   RELEASE  -
|  1> !TPSSh freq aug-cc-pVTZ d3 TightSCF SlowConv RIJCOSX defgrid2
|  2>
|  3> %pal
|  4> nprocs 12
|  5> end
|  6>
|  7> %scf
|  8> MaxIter 1500
|  9> end
| 10>
| 11> %maxcore 5000
| 12>
| 13> !CPCM
| 14> %cpcm smd true
| 15> SMDsolvent "MeCN"
| 16> surfacetype gepol_ses
| 17> rsolv 2.19
| 18> end
| 19>
| 20> * xyz 0 1
| 21> C           2.42559310091464     -0.70675530560200     -0.00020820406635
| 22> C           2.42560589439032      0.70672143858594     -0.00018605580738
| 23> C           1.24021857556571      1.40022277563005     -0.00006194958615
| 24> C           0.00000745592275      0.71479055077161      0.00000918770988
| 25> C          -1.24019310232289      1.40024136680101      0.00008131171106
| 26> C          -2.42559050382595      0.70675684502503      0.00019639886225
| 27> C          -2.42559983653274     -0.70671902673672      0.00021470543307
| 28> C          -1.24021325785952     -1.40021946599556      0.00009543762927
| 29> C          -0.00000400657391     -0.71478501475394      0.00000667918809
| 30> C           1.24019528099812     -1.40023763870471     -0.00008799287623
| 31> H           1.23726636102536     -2.48450877872824      0.00003210589178
| 32> H          -1.23730372715564     -2.48449340796439     -0.00003881460878
| 33> H          -3.36789713874608     -1.24124490560639     -0.00017093912191
| 34> H          -3.36787977279789      1.24129646032212     -0.00019506994002
| 35> H          -1.23726583118452      2.48451230300926     -0.00005497845682
| 36> H           1.23730755673038      2.48449566491669      0.00008021671919
| 37> H           3.36790393451712      1.24124790930650      0.00020135426496
| 38> H           3.36788031693475     -1.24129967027629      0.00016300705409
| 39> *
| 40>
| 41>                          ****END OF INPUT****

CARTESIAN COORDINATES (ANGSTROEM)
---------------------------------
  C      2.425593   -0.706755   -0.000208
  C      2.425606    0.706721   -0.000186
  C      1.240219    1.400223   -0.000062
  C      0.000007    0.714791    0.000009
  C     -1.240193    1.400241    0.000081
  C     -2.425591    0.706757    0.000196
  C     -2.425600   -0.706719    0.000215
  C     -1.240213   -1.400219    0.000095
  C     -0.000004   -0.714785    0.000007
  C      1.240195   -1.400238   -0.000088
  H      1.237266   -2.484509    0.000032
  H     -1.237304   -2.484493   -0.000039
  H     -3.367897   -1.241245   -0.000171
  H     -3.367880    1.241296   -0.000195
  H     -1.237266    2.484512   -0.000055
  H      1.237308    2.484496    0.000080
  H      3.367904    1.241248    0.000201
  H      3.367880   -1.241300    0.000163

 Total Charge           Charge          ....    0
 Multiplicity           Mult            ....    1
 Number of Electrons    NEL             ....   68
 Basis Dimension        Dim             ....  644

ORBITAL ENERGIES
----------------

  NO   OCC          E(Eh)            E(eV)
   0   2.0000     -10.126233      -275.5488
   1   2.0000     -10.125855      -275.5385
   2   2.0000     -10.116492      -275.2837
   3   2.0000     -10.116483      -275.2835
   4   2.0000     -10.116422      -275.2818
   5   2.0000     -10.116415      -275.2816
   6   2.0000     -10.115843      -275.2661
   7   2.0000     -10.115842      -275.2661
   8   2.0000     -10.115505      -275.2569
   9   2.0000     -10.115499      -275.2567
  10   2.0000      -0.855902       -23.2903
  11   2.0000      -0.802439       -21.8355
  12   2.0000      -0.754996       -20.5445
  13   2.0000      -0.722063       -19.6483
  14   2.0000      -0.700196       -19.0533
  15   2.0000      -0.606990       -16.5170
  16   2.0000      -0.592350       -16.1187
  17   2.0000      -0.577312       -15.7095
  18   2.0000      -0.495940       -13.4952
  19   2.0000      -0.491466       -13.3735
  20   2.0000      -0.474131       -12.9018
  21   2.0000      -0.428534       -11.6610
  22   2.0000      -0.421350       -11.4655
  23   2.0000      -0.398184       -10.8351
  24   2.0000      -0.396158       -10.7800
  25   2.0000      -0.382872       -10.4185
  26   2.0000      -0.380502       -10.3540
  27   2.0000      -0.349672        -9.5151
  28   2.0000      -0.320633        -8.7249
  29   2.0000      -0.318735        -8.6732
  30   2.0000      -0.311530        -8.4772
  31   2.0000      -0.280041        -7.6203
  32   2.0000      -0.241196        -6.5633
  33   2.0000      -0.213117        -5.7992
  34   0.0000      -0.058166        -1.5828
  35   0.0000      -0.030737        -0.8364
  36   0.0000      -0.002524        -0.0687
  37   0.0000      -0.000831        -0.0226
  38   0.0000       0.008823         0.2401

MULLIKEN ATOMIC CHARGES
-----------------------
   0 C :   -0.280170
   1 C :   -0.280724
   2 C :   -0.940937
   3 C :    1.433729
   4 C :   -0.941649
   5 C :   -0.278685
   6 C :   -0.282269
   7 C :   -0.932965
   8 C :    1.432198
   9 C :   -0.936739
  10 H :   -0.066120
  11 H :   -0.061706
  12 H :    0.564773
  13 H :    0.567087
  14 H :   -0.064531
  15 H :   -0.065258
  16 H :    0.570232
  17 H :    0.563733
Sum of atomic charges:    0.0000000

LOEWDIN ATOMIC CHARGES
----------------------
   0 C :    0.200690
   1 C :    0.200689
   2 C :    0.216583
   3 C :   -0.128783
   4 C :    0.216583
   5 C :    0.200691
   6 C :    0.200689
   7 C :    0.216584
   8 C :   -0.128784
   9 C :    0.216585
  10 H :   -0.172760
  11 H :   -0.172755
  12 H :   -0.180125
  13 H :   -0.180122
  14 H :   -0.172760
  15 H :   -0.172758
  16 H :   -0.180122
  17 H :   -0.180123

  Mayer bond orders larger than 0.100000
B(  0-C ,  1-C ) :   1.2677 B(  0-C ,  3-C ) :  -0.1902 B(  0-C ,  9-C ) :   1.4563
B(  0-C , 16-H ) :   0.1509 B(  0-C , 17-H ) :   0.3240 B(  1-C ,  2-C ) :   1.4596
B(  1-C ,  8-C ) :  -0.1928 B(  1-C , 16-H ) :   0.3169 B(  1-C , 17-H ) :   0.1508
B(  2-C ,  4-C ) :   0.4614 B(  2-C ,  8-C ) :  -0.1831 B(  2-C ,  9-C ) :   0.1000
B(  2-C , 15-H ) :   1.2756 B(  2-C , 16-H ) :  -0.1409 B(  3-C ,  6-C ) :  -0.1946
B(  3-C ,  7-C ) :  -0.1798 B(  3-C ,  8-C ) :   1.0364 B(  3-C ,  9-C ) :  -0.1805
B(  3-C , 13-H ) :   0.1049 B(  3-C , 16-H ) :   0.1013 B(  4-C ,  5-C ) :   1.4579
B(  4-C ,  8-C ) :  -0.1794 B(  4-C , 13-H ) :  -0.1403 B(  4-C , 14-H ) :   1.2728
B(  5-C ,  6-C ) :   1.2662 B(  5-C ,  8-C ) :  -0.1891 B(  5-C , 12-H ) :   0.1501
B(  5-C , 13-H ) :   0.3226 B(  6-C ,  7-C ) :   1.4579 B(  6-C , 12-H ) :   0.3204
B(  6-C , 13-H ) :   0.1521 B(  7-C ,  9-C ) :   0.4604 B(  7-C , 11-H ) :   1.2682
B(  7-C , 12-H ) :  -0.1381 B(  8-C , 17-H ) :   0.1009 B(  9-C , 10-H ) :   1.2743
B(  9-C , 17-H ) :  -0.1402 B( 10-H , 17-H ) :  -0.1003 B( 12-H , 13-H ) :   0.1196
B( 13-H , 14-H ) :  -0.1006 B( 15-H , 16-H ) :  -0.1021 B( 16-H , 17-H ) :   0.1201

Dispersion correction           -0.024754731
FINAL SINGLE POINT ENERGY      -386.088802697962

DIPOLE MOMENT
-------------

Method             : SCF
Type of density    : Electron Density
Multiplicity       :   1
Irrep              :   0
Energy             :  -386.0640479670863670 Eh
Relativity type    :
Basis              : AO
                                X                 Y                 Z
Electronic contribution:     -0.000001488       0.000005227       0.000017373
Nuclear contribution   :     -0.000003500      -0.000006721      -0.000027019
                        -----------------------------------------
Total Dipole Moment    :     -0.000004988      -0.000001494      -0.000009646
                        -----------------------------------------
Magnitude (a.u.)       :      0.000010962
Magnitude (Debye)      :      0.000027862

VIBRATIONAL FREQUENCIES
-----------------------

Scaling factor for frequencies =  1.000000000  (already applied!)

     0:       0.00 cm**-1
     1:       0.00 cm**-1
     2:       0.00 cm**-1
     3:       0.00 cm**-1
     4:       0.00 cm**-1
     5:       0.00 cm**-1
     6:     167.21 cm**-1
     7:     170.77 cm**-1
     8:     347.87 cm**-1
     9:     389.04 cm**-1
    10:     464.67 cm**-1
    11:     479.42 cm**-1
    12:     506.17 cm**-1
    13:     511.67 cm**-1
    14:     565.19 cm**-1
    15:     615.38 cm**-1
    16:     728.14 cm**-1
    17:     766.21 cm**-1
    18:     781.50 cm**-1
    19:     800.17 cm**-1
    20:     800.77 cm**-1
    21:     849.04 cm**-1
    22:     902.60 cm**-1
    23:     942.86 cm**-1
    24:     968.03 cm**-1
    25:     987.58 cm**-1
    26:     988.43 cm**-1
    27:    1002.45 cm**-1
    28:    1027.81 cm**-1
    29:    1036.06 cm**-1
    30:    1135.51 cm**-1
    31:    1157.37 cm**-1
    32:    1158.07 cm**-1
    33:    1160.16 cm**-1
    34:    1227.03 cm**-1
    35:    1262.56 cm**-1
    36:    1279.75 cm**-1
    37:    1391.70 cm**-1
    38:    1404.30 cm**-1
    39:    1411.58 cm**-1
    40:    1483.08 cm**-1
    41:    1483.67 cm**-1
    42:    1542.27 cm**-1
    43:    1605.48 cm**-1
    44:    1630.49 cm**-1
    45:    1659.74 cm**-1
    46:    3155.83 cm**-1
    47:    3157.18 cm**-1
    48:    3160.55 cm**-1
    49:    3161.61 cm**-1
    50:    3173.19 cm**-1
    51:    3173.64 cm**-1
    52:    3185.48 cm**-1
    53:    3186.56 cm**-1

IR SPECTRUM
-----------

 Mode   freq       eps      Int      T**2         TX        TY        TZ
       cm**-1   L/(mol*cm) km/mol    a.u.
----------------------------------------------------------------------------
  6:    167.21   0.001078    5.45  0.002012  (-0.000041  0.000013 -0.044853)
  7:    170.77   0.000000    0.00  0.000000  (-0.000014 -0.000249  0.000082)
  8:    347.87   0.000957    4.84  0.000858  (-0.000000  0.029298 -0.000002)
  9:    389.04   0.000000    0.00  0.000000  (-0.000001  0.000007  0.000002)
 10:    464.67   0.000000    0.00  0.000000  ( 0.000012 -0.000025 -0.000025)
 11:    479.42   0.009531   48.17  0.006204  (-0.000023  0.000001  0.078765)
 12:    506.17   0.000000    0.00  0.000000  (-0.000003  0.000000  0.000012)
 13:    511.67   0.000000    0.00  0.000000  (-0.000002  0.000000 -0.000001)
 14:    565.19   0.000000    0.00  0.000000  (-0.000002 -0.000009  0.000003)
 15:    615.38   0.001651    8.34  0.000837  ( 0.028933  0.000001 -0.000123)
 16:    728.14   0.000000    0.00  0.000000  (-0.000008 -0.000010  0.000000)
 17:    766.21   0.000000    0.00  0.000000  (-0.000002 -0.000001  0.000006)
 18:    781.50   0.000000    0.00  0.000000  ( 0.000009 -0.000004 -0.000006)
 19:    800.17   0.000007    0.04  0.000003  ( 0.000003  0.001541 -0.000659)
 20:    800.77   0.045959  232.26  0.017910  (-0.000011 -0.000002  0.133830)
 21:    849.04   0.000000    0.00  0.000000  (-0.000001  0.000234 -0.000002)
 22:    902.60   0.000000    0.00  0.000000  ( 0.000001  0.000024 -0.000009)
 23:    942.86   0.000000    0.00  0.000000  ( 0.000002 -0.000000  0.000001)
 24:    968.03   0.000000    0.00  0.000000  ( 0.000003 -0.000014  0.000008)
 25:    987.58   0.000000    0.00  0.000000  ( 0.000011 -0.000247 -0.000097)
 26:    988.43   0.001720    8.69  0.000543  ( 0.000328 -0.000001 -0.023303)
 27:   1002.45   0.000000    0.00  0.000000  ( 0.000004  0.000018 -0.000003)
 28:   1027.81   0.005713   28.87  0.001735  ( 0.041649  0.000000  0.000238)
 29:   1036.06   0.000000    0.00  0.000000  ( 0.000004  0.000001 -0.000003)
 30:   1135.51   0.002405   12.15  0.000661  (-0.000005  0.025708 -0.000000)
 31:   1157.37   0.000000    0.00  0.000000  ( 0.000033 -0.000004 -0.000003)
 32:   1158.07   0.000174    0.88  0.000047  ( 0.006847  0.000001  0.000028)
 33:   1160.16   0.000000    0.00  0.000000  (-0.000011  0.000006  0.000000)
 34:   1227.03   0.000195    0.99  0.000050  ( 0.007041  0.000001  0.000023)
 35:   1262.56   0.000000    0.00  0.000000  (-0.000001  0.000000  0.000003)
 36:   1279.75   0.001424    7.20  0.000347  (-0.000000  0.018635  0.000001)
 37:   1391.70   0.000289    1.46  0.000065  ( 0.008051 -0.000001  0.000049)
 38:   1404.30   0.000000    0.00  0.000000  ( 0.000000  0.000005  0.000000)
 39:   1411.58   0.002377   12.01  0.000525  (-0.000000 -0.022923 -0.000001)
 40:   1483.08   0.000000    0.00  0.000000  (-0.000000 -0.000000  0.000005)
 41:   1483.67   0.000000    0.00  0.000000  ( 0.000002 -0.000000 -0.000000)
 42:   1542.27   0.003639   18.39  0.000736  ( 0.027134 -0.000002 -0.000029)
 43:   1605.48   0.000000    0.00  0.000000  (-0.000000  0.000001  0.000000)
 44:   1630.49   0.000717    3.62  0.000137  (-0.000001  0.011711  0.000000)
 45:   1659.74   0.000000    0.00  0.000000  ( 0.000002 -0.000000  0.000001)
 46:   3155.83   0.000000    0.00  0.000000  (-0.000004 -0.000028 -0.000000)
 47:   3157.18   0.003234   16.34  0.000320  (-0.000009  0.017878  0.000000)
 48:   3160.55   0.000306    1.54  0.000030  ( 0.005493  0.000023 -0.000061)
 49:   3161.61   0.000000    0.00  0.000000  (-0.000014  0.000003  0.000000)
 50:   3173.19   0.000003    0.01  0.000000  (-0.000012  0.000512 -0.000000)
 51:   3173.64   0.020248  102.33  0.001991  (-0.000015 -0.044621 -0.000000)
 52:   3185.48   0.015830   80.00  0.001551  ( 0.039379 -0.000015 -0.000124)
 53:   3186.56   0.000001    0.00  0.000000  ( 0.000247 -0.000008 -0.000001)

--------------------------
THERMOCHEMISTRY AT 298.15K
--------------------------

Temperature         ...   298.15 K
Pressure            ...     1.00 atm
Total Mass          ...   128.17 AMU
Quasi RRHO          ...     True
Cut-Off Frequency   ...     1.00 cm^-1

Throughout the following assumptions are being made:
  (1) The electronic state is orbitally nondegenerate
  (2) There are no thermally accessible electronically excited states
  (3) Hindered rotations indicated by low frequency modes are not
      treated as such but are treated as vibrations and this may
      cause some error
  (4) All equations used are the standard statistical mechanics
      equations for an ideal gas
  (5) All vibrations are strictly harmonic

freq.     167.21  E(vib)   ...       0.39
freq.     170.77  E(vib)   ...       0.38
freq.     347.87  E(vib)   ...       0.23
freq.     389.04  E(vib)   ...       0.20
freq.     464.67  E(vib)   ...       0.16
freq.     479.42  E(vib)   ...       0.15
freq.     506.17  E(vib)   ...       0.14
freq.     511.67  E(vib)   ...       0.14
freq.     565.19  E(vib)   ...       0.11
freq.     615.38  E(vib)   ...       0.10
freq.     728.14  E(vib)   ...       0.06
freq.     766.21  E(vib)   ...       0.06
freq.     781.50  E(vib)   ...       0.05
freq.     800.17  E(vib)   ...       0.05
freq.     800.77  E(vib)   ...       0.05
freq.     849.04  E(vib)   ...       0.04
freq.     902.60  E(vib)   ...       0.03
freq.     942.86  E(vib)   ...       0.03
freq.     968.03  E(vib)   ...       0.03
freq.     987.58  E(vib)   ...       0.02
freq.     988.43  E(vib)   ...       0.02
freq.    1002.45  E(vib)   ...       0.02
freq.    1027.81  E(vib)   ...       0.02
freq.    1036.06  E(vib)   ...       0.02
freq.    1135.51  E(vib)   ...       0.01
freq.    1157.37  E(vib)   ...       0.01
freq.    1158.07  E(vib)   ...       0.01
freq.    1160.16  E(vib)   ...       0.01
freq.    1227.03  E(vib)   ...       0.01
freq.    1262.56  E(vib)   ...       0.01
freq.    1279.75  E(vib)   ...       0.01
freq.    1391.70  E(vib)   ...       0.00
freq.    1404.30  E(vib)   ...       0.00
freq.    1411.58  E(vib)   ...       0.00
freq.    1483.08  E(vib)   ...       0.00
freq.    1483.67  E(vib)   ...       0.00
freq.    1542.27  E(vib)   ...       0.00
freq.    1605.48  E(vib)   ...       0.00
freq.    1630.49  E(vib)   ...       0.00
freq.    1659.74  E(vib)   ...       0.00
freq.    3155.83  E(vib)   ...       0.00
freq.    3157.18  E(vib)   ...       0.00
freq.    3160.55  E(vib)   ...       0.00
freq.    3161.61  E(vib)   ...       0.00
freq.    3173.19  E(vib)   ...       0.00
freq.    3173.64  E(vib)   ...       0.00
freq.    3185.48  E(vib)   ...       0.00
freq.    3186.56  E(vib)   ...       0.00

------------
INNER ENERGY
------------

The inner energy is: U= E(el) + E(ZPE) + E(vib) + E(rot) + E(trans)
    E(el)   - is the total energy from the electronic structure calculation
              = E(kin-el) + E(nuc-el) + E(el-el) + E(nuc-nuc)
    E(ZPE)  - the the zero temperature vibrational energy from the frequency calculation
    E(vib)  - the the finite temperature correction to E(ZPE) due to population
              of excited vibrational states
    E(rot)  - is the rotational thermal energy
    E(trans)- is the translational thermal energy

Summary of contributions to the inner energy U:
Electronic energy                ...   -386.08880270 Eh
Zero point energy                ...      0.14613499 Eh      91.70 kcal/mol
Thermal vibrational correction   ...      0.00414713 Eh       2.60 kcal/mol
Thermal rotational correction    ...      0.00141627 Eh       0.89 kcal/mol
Thermal translational correction ...      0.00141627 Eh       0.89 kcal/mol
-----------------------------------------------------------------------
Total thermal energy                   -385.93568804 Eh

Summary of corrections to the electronic energy:
(perhaps to be used in another calculation)
Total thermal correction                  0.00697967 Eh       4.38 kcal/mol
Non-thermal (ZPE) correction              0.14613499 Eh      91.70 kcal/mol
-----------------------------------------------------------------------
Total correction                          0.15311466 Eh      96.08 kcal/mol

--------
ENTHALPY
--------

The enthalpy is H = U + kB*T
                kB is Boltzmann's constant
Total thermal energy              ...   -385.93568804 Eh
Thermal Enthalpy correction       ...      0.00094421 Eh       0.59 kcal/mol
-----------------------------------------------------------------------
Total Enthalpy                    ...   -385.93474383 Eh

Note: Rotational entropy computed according to Herzberg
Infrared and Raman Spectra, Chapter V,1, Van Nostrand Reinhold, 1945
Point Group:  C2h, Symmetry Number:   2
Rotational constants in cm-1:     0.104338     0.041270     0.029573

Vibrational entropy computed according to the QRRHO of S. Grimme
Chem.Eur.J. 2012 18 9955 using a reference frequency of 100.0 cm-1

-------
ENTROPY
-------

The entropy contributions are T*S = T*(S(el)+S(vib)+S(rot)+S(trans))
     S(el)   - electronic entropy
     S(vib)  - vibrational entropy
     S(rot)  - rotational entropy
     S(trans)- translational entropy
The entropies will be listed as multiplied by the temperature to get
units of energy

Electronic entropy                ...      0.00000000 Eh      0.00 kcal/mol
Vibrational entropy               ...      0.00630876 Eh      3.96 kcal/mol
Rotational entropy                ...      0.01309036 Eh      8.21 kcal/mol
Translational entropy             ...      0.01922279 Eh     12.06 kcal/mol
-----------------------------------------------------------------------
Final entropy term                ...      0.03862191 Eh     24.24 kcal/mol

In case the symmetry of your molecule has not been determined correctly
or in case you have a reason to use a different symmetry number we print
out the resulting rotational entropy values for sn=1,12:

 non-linear molecules -----------------------------------
|  sn= 1 | S(rot)=       0.01374482 Eh      8.62 kcal/mol|
|  sn= 2 | S(rot)=       0.01309036 Eh      8.21 kcal/mol|
|  sn= 3 | S(rot)=       0.01270753 Eh      7.97 kcal/mol|
|  sn= 4 | S(rot)=       0.01243591 Eh      7.80 kcal/mol|
|  sn= 5 | S(rot)=       0.01222522 Eh      7.67 kcal/mol|
|  sn= 6 | S(rot)=       0.01205308 Eh      7.56 kcal/mol|
|  sn= 7 | S(rot)=       0.01190753 Eh      7.47 kcal/mol|
|  sn= 8 | S(rot)=       0.01178145 Eh      7.39 kcal/mol|
|  sn= 9 | S(rot)=       0.01167024 Eh      7.32 kcal/mol|
|  sn=10 | S(rot)=       0.01157076 Eh      7.26 kcal/mol|
|  sn=11 | S(rot)=       0.01148077 Eh      7.20 kcal/mol|
|  sn=12 | S(rot)=       0.01139862 Eh      7.15 kcal/mol|
 linear molecules ---------------------------------------
|  Dinfh | S(rot)=       0.00865017 Eh      5.43 kcal/mol|
|  Cinfv | S(rot)=       0.00930463 Eh      5.84 kcal/mol|
 --------------------------------------------------------

                             ****ORCA TERMINATED NORMALLY****
TOTAL RUN TIME: 0 days 0 hours 40 minutes 56 seconds 152 msec
