                         Program Version 6.0.0  -   RELEASE  -
|  1> !r2SCANh aug-cc-pVTZ d3 TightSCF SlowConv RIJCOSX defgrid2
|  2>
|  3> %pal
|  4> nprocs 4
|  5> end
|  6>
|  7> %scf
|  8> MaxIter 1500
|  9> end
| 10>
| 11> %maxcore 3000
| 12>
| 13> !CPCM
| 14> %cpcm smd true
| 15> SMDsolvent "MeCN"
| 16> surfacetype gepol_ses
| 17> rsolv 2.19
| 18> end
| 19>
| 20> * xyz 1 2
| 21> C          -0.69806914174773     -1.08130758385803      0.00000478073461
| 22> C          -1.29995911913199      0.21220975823502      0.00000712364871
| 23> C          -0.48713495449795      1.39007645246692     -0.00001560397811
| 24> C           0.87407248196079      1.28097563070640     -0.00003015609287
| 25> C           1.48961473063931     -0.00988444370075     -0.00003464832734
| 26> C           0.66713129411178     -1.18242862965134     -0.00001675195059
| 27> H           1.14787115207094     -2.16374838611022     -0.00001833432844
| 28> C           2.87923367476782     -0.13303827989769     -0.00003947759998
| 29> C           4.09817372516796     -0.24492334399421     -0.00000244744274
| 30> H           5.17420938419188     -0.34031758843355     -0.00000256865577
| 31> H           1.50568477881681      2.17231925078041     -0.00004562485067
| 32> H          -0.99220253079888      2.35905562684180     -0.00001378344560
| 33> O          -2.58101948918323      0.42008257874155      0.00003691245038
| 34> C          -3.53711041258472     -0.64087278516494      0.00007811011347
| 35> H          -4.51842922650600     -0.15013878054896      0.00011237958636
| 36> H          -3.42139067434806     -1.25399713854605     -0.90847216906212
| 37> H          -3.42131652654994     -1.25398175148381      0.90862972609483
| 38> H          -1.31361454637877     -1.98259848638256      0.00002453310588
| 39> *
| 40>
| 41>                          ****END OF INPUT****

CARTESIAN COORDINATES (ANGSTROEM)
---------------------------------
  C     -0.698069   -1.081308    0.000005
  C     -1.299959    0.212210    0.000007
  C     -0.487135    1.390076   -0.000016
  C      0.874072    1.280976   -0.000030
  C      1.489615   -0.009884   -0.000035
  C      0.667131   -1.182429   -0.000017
  H      1.147871   -2.163748   -0.000018
  C      2.879234   -0.133038   -0.000039
  C      4.098174   -0.244923   -0.000002
  H      5.174209   -0.340318   -0.000003
  H      1.505685    2.172319   -0.000046
  H     -0.992203    2.359056   -0.000014
  O     -2.581019    0.420083    0.000037
  C     -3.537110   -0.640873    0.000078
  H     -4.518429   -0.150139    0.000112
  H     -3.421391   -1.253997   -0.908472
  H     -3.421317   -1.253982    0.908630
  H     -1.313615   -1.982598    0.000025

 Total Charge           Charge          ....    1
 Multiplicity           Mult            ....    2
 Number of Electrons    NEL             ....   69
 Basis Dimension        Dim             ....  644

ORBITAL ENERGIES
----------------
                 SPIN UP ORBITALS
  NO   OCC          E(Eh)            E(eV)
   0   1.0000     -19.228552      -523.2355
   1   1.0000     -10.297083      -280.1979
   2   1.0000     -10.251383      -278.9543
   3   1.0000     -10.226423      -278.2751
   4   1.0000     -10.216900      -278.0160
   5   1.0000     -10.214000      -277.9371
   6   1.0000     -10.211773      -277.8765
   7   1.0000     -10.210068      -277.8301
   8   1.0000     -10.210019      -277.8288
   9   1.0000     -10.207480      -277.7597
  10   1.0000      -1.155691       -31.4480
  11   1.0000      -0.913508       -24.8578
  12   1.0000      -0.836480       -22.7618
  13   1.0000      -0.802438       -21.8354
  14   1.0000      -0.782800       -21.3011
  15   1.0000      -0.738780       -20.1032
  16   1.0000      -0.659400       -17.9432
  17   1.0000      -0.641710       -17.4618
  18   1.0000      -0.580892       -15.8069
  19   1.0000      -0.563777       -15.3412
  20   1.0000      -0.529562       -14.4101
  21   1.0000      -0.525849       -14.3091
  22   1.0000      -0.515206       -14.0195
  23   1.0000      -0.469061       -12.7638
  24   1.0000      -0.456035       -12.4093
  25   1.0000      -0.444707       -12.1011
  26   1.0000      -0.428431       -11.6582
  27   1.0000      -0.425842       -11.5877
  28   1.0000      -0.390323       -10.6212
  29   1.0000      -0.388827       -10.5805
  30   1.0000      -0.354473        -9.6457
  31   1.0000      -0.334499        -9.1022
  32   1.0000      -0.311946        -8.4885
  33   1.0000      -0.303174        -8.2498
  34   1.0000      -0.267581        -7.2812
  35   0.0000      -0.095974        -2.6116
  36   0.0000      -0.064630        -1.7587
  37   0.0000      -0.009821        -0.2672
  38   0.0000       0.005957         0.1621
  39   0.0000       0.018026         0.4905

                 SPIN DOWN ORBITALS
  NO   OCC          E(Eh)            E(eV)
   0   1.0000     -19.222291      -523.0651
   1   1.0000     -10.294683      -280.1326
   2   1.0000     -10.245421      -278.7921
   3   1.0000     -10.226623      -278.2806
   4   1.0000     -10.217518      -278.0328
   5   1.0000     -10.213128      -277.9133
   6   1.0000     -10.210373      -277.8384
   7   1.0000     -10.208396      -277.7846
   8   1.0000     -10.207740      -277.7667
   9   1.0000     -10.206675      -277.7378
  10   1.0000      -1.145901       -31.1815
  11   1.0000      -0.905780       -24.6475
  12   1.0000      -0.827545       -22.5186
  13   1.0000      -0.800288       -21.7769
  14   1.0000      -0.775118       -21.0920
  15   1.0000      -0.729246       -19.8438
  16   1.0000      -0.654807       -17.8182
  17   1.0000      -0.637700       -17.3527
  18   1.0000      -0.577891       -15.7252
  19   1.0000      -0.560433       -15.2502
  20   1.0000      -0.527784       -14.3617
  21   1.0000      -0.521880       -14.2011
  22   1.0000      -0.496387       -13.5074
  23   1.0000      -0.466437       -12.6924
  24   1.0000      -0.455379       -12.3915
  25   1.0000      -0.442872       -12.0511
  26   1.0000      -0.424962       -11.5638
  27   1.0000      -0.411181       -11.1888
  28   1.0000      -0.388970       -10.5844
  29   1.0000      -0.370545       -10.0830
  30   1.0000      -0.351372        -9.5613
  31   1.0000      -0.310575        -8.4512
  32   1.0000      -0.309196        -8.4137
  33   1.0000      -0.298047        -8.1103
  34   0.0000      -0.205257        -5.5853
  35   0.0000      -0.067880        -1.8471
  36   0.0000      -0.053256        -1.4492
  37   0.0000      -0.009389        -0.2555
  38   0.0000       0.006758         0.1839

MULLIKEN ATOMIC CHARGES AND SPIN POPULATIONS
--------------------------------------------
   0 C :   -0.151229    0.097258
   1 C :    1.445784    0.122721
   2 C :   -0.741078    0.134955
   3 C :   -1.123310   -0.131112
   4 C :    1.589715    0.436386
   5 C :   -1.140519   -0.072093
   6 H :   -0.258502   -0.005486
   7 C :    1.285216   -0.162381
   8 C :   -0.726439    0.373404
   9 H :    0.336810    0.009436
  10 H :   -0.239071   -0.009989
  11 H :    0.613811    0.009758
  12 O :   -0.653745    0.179735
  13 C :   -0.649130   -0.017460
  14 H :    0.253357   -0.001186
  15 H :    0.307663    0.009569
  16 H :    0.307413    0.009620
  17 H :    0.543255    0.016867
Sum of atomic charges         :    1.0000000

LOEWDIN ATOMIC CHARGES AND SPIN POPULATIONS
-------------------------------------------
   0 C :    0.285679    0.074251
   1 C :   -0.330964    0.128030
   2 C :    0.279457    0.081233
   3 C :    0.256073    0.021771
   4 C :   -0.158398    0.141377
   5 C :    0.264578    0.039605
   6 H :   -0.134875   -0.002154
   7 C :    0.052735    0.064057
   8 C :    0.504451    0.209014
   9 H :   -0.233126    0.048544
  10 H :   -0.137824   -0.006582
  11 H :   -0.141371    0.012821
  12 O :    0.653443    0.151558
  13 C :    0.437194    0.016336
  14 H :   -0.154304   -0.000462
  15 H :   -0.143716    0.004827
  16 H :   -0.143663    0.004827
  17 H :   -0.155371    0.010948

  Mayer bond orders larger than 0.100000
B(  0-C ,  1-C ) :   0.7958 B(  0-C ,  2-C ) :   0.1610 B(  0-C ,  4-C ) :   0.7535
B(  0-C ,  5-C ) :   1.1778 B(  0-C ,  6-H ) :  -0.1731 B(  0-C ,  7-C ) :  -0.2496
B(  0-C ,  8-C ) :  -0.1230 B(  0-C , 10-H ) :  -0.1175 B(  0-C , 11-H ) :  -0.1106
B(  0-C , 17-H ) :   0.3171 B(  1-C ,  2-C ) :   0.6212 B(  1-C ,  3-C ) :  -0.5141
B(  1-C ,  4-C ) :  -0.2229 B(  1-C ,  5-C ) :  -0.4970 B(  1-C ,  7-C ) :   0.3098
B(  1-C ,  8-C ) :   0.1260 B(  1-C , 11-H ) :   0.1853 B(  1-C , 12-O ) :   0.3844
B(  1-C , 17-H ) :   0.1546 B(  2-C ,  3-C ) :   1.4116 B(  2-C ,  4-C ) :   0.5934
B(  2-C ,  7-C ) :  -0.1220 B(  2-C , 11-H ) :   0.2061 B(  2-C , 12-O ) :   0.3222
B(  3-C ,  4-C ) :   0.1033 B(  3-C ,  5-C ) :  -0.5713 B(  3-C ,  6-H ) :   0.2499
B(  3-C ,  7-C ) :   0.4061 B(  3-C , 10-H ) :   2.0688 B(  4-C ,  5-C ) :   0.1460
B(  4-C ,  6-H ) :  -0.1177 B(  4-C ,  8-C ) :   0.7528 B(  4-C , 12-O ) :   0.1293
B(  5-C ,  6-H ) :   2.1252 B(  5-C ,  7-C ) :   0.3249 B(  5-C ,  8-C ) :  -0.1411
B(  5-C , 10-H ) :   0.2208 B(  6-H ,  7-C ) :  -0.3104 B(  6-H ,  8-C ) :  -0.3516
B(  6-H , 10-H ) :   0.4424 B(  7-C ,  8-C ) :   1.7295 B(  7-C ,  9-H ) :  -0.2850
B(  7-C , 10-H ) :  -0.3981 B(  7-C , 11-H ) :   0.1192 B(  7-C , 17-H ) :   0.1358
B(  8-C ,  9-H ) :   1.2423 B(  8-C , 10-H ) :  -0.3534 B(  8-C , 11-H ) :   0.1597
B(  8-C , 17-H ) :   0.2135 B( 10-H , 11-H ) :  -0.1105 B( 12-O , 13-C ) :   0.9851
B( 13-C , 14-H ) :   0.9693 B( 13-C , 15-H ) :   0.8793 B( 13-C , 16-H ) :   0.8797

Dispersion correction           -0.005729297
FINAL SINGLE POINT ENERGY      -422.611185742168

DIPOLE MOMENT
-------------

Method             : SCF
Type of density    : Electron Density
Multiplicity       :   2
Irrep              :   0
Energy             :  -422.6054564452036288 Eh
Relativity type    :
Basis              : AO
                                X                 Y                 Z
Electronic contribution:      5.197804836       1.746044602       0.000011127
Nuclear contribution   :     -5.555943012      -2.398496713       0.000189114
                        -----------------------------------------
Total Dipole Moment    :     -0.358138176      -0.652452111       0.000200241
                        -----------------------------------------
Magnitude (a.u.)       :      0.744282709
Magnitude (Debye)      :      1.891816301

Rotational constants in cm-1:             0.157571             0.023827             0.020782
Rotational constants in MHz :          4723.848433           714.307245           623.028150

                             ****ORCA TERMINATED NORMALLY****
TOTAL RUN TIME: 0 days 0 hours 7 minutes 58 seconds 423 msec
