                         Program Version 6.0.0  -   RELEASE  -
|  1> !B3LYP aug-cc-pVTZ d3 TightSCF SlowConv RIJCOSX defgrid2
|  2>
|  3> %pal
|  4> nprocs 15
|  5> end
|  6>
|  7> %scf
|  8> MaxIter 1500
|  9> end
| 10>
| 11> %maxcore 3500
| 12>
| 13> !CPCM
| 14> %cpcm smd true
| 15> SMDsolvent "WATER"
| 16> surfacetype gepol_ses
| 17> rsolv 1.40
| 18> end
| 19>
| 20> * xyz 0 2
| 21> O           1.88690927477882      3.74806898805585      1.42790289574278
| 22> N           2.66570902784045      2.77513380487914      1.23314234100198
| 23> C           3.71807770622021      2.91486477310037      0.20083862291935
| 24> C           4.06679330721770      1.52187309981258     -0.33561683406574
| 25> C           4.26235980542420      0.51991448657483      0.75657521226637
| 26> C           3.67404864254557      0.65032800080598      1.94644397870158
| 27> C           2.73307636235429      1.76248913631005      2.31086399015079
| 28> C           4.95112257605395      3.58551917484617      0.81923431194237
| 29> C           3.16091226951920      3.78193702577193     -0.92132048240517
| 30> C           3.17395858898893      2.44345537325049      3.61369764885195
| 31> C           1.32073939913320      1.18748524121188      2.48092813116148
| 32> H           4.97513017363378      1.60092795230428     -0.95867141911157
| 33> H           3.26044945528291      1.18093042448815     -1.01431485641457
| 34> H           4.90234278810831     -0.34794900982598      0.56007401454088
| 35> H           3.82972945021685     -0.10316520119785      2.72741095147656
| 36> H           4.65258295126461      4.52123052785349      1.32092945486630
| 37> H           5.44112718582814      2.92720008818477      1.55542007959442
| 38> H           5.68693306335011      3.83067566104788      0.03349341051902
| 39> H           2.94941849475266      4.80089518300529     -0.56613909595122
| 40> H           2.22162992414553      3.35760034153928     -1.31367493520621
| 41> H           3.89642864117668      3.83221617465297     -1.74256230977595
| 42> H           2.49710932074295      3.28563400859979      3.82950614292032
| 43> H           4.20428697805417      2.82730905875215      3.53671032500385
| 44> H           3.13322334174784      1.72739398341330      4.45203000678507
| 45> H           0.61667710656740      2.00289288566967      2.71131797235433
| 46> H           0.99501687952592      0.68921661071683      1.55267423468629
| 47> H           1.30310628552554      0.45079320617666      3.30164820744471
| 48> *
| 49>
| 50>                          ****END OF INPUT****

CARTESIAN COORDINATES (ANGSTROEM)
---------------------------------
  O      1.886909    3.748069    1.427903
  N      2.665709    2.775134    1.233142
  C      3.718078    2.914865    0.200839
  C      4.066793    1.521873   -0.335617
  C      4.262360    0.519914    0.756575
  C      3.674049    0.650328    1.946444
  C      2.733076    1.762489    2.310864
  C      4.951123    3.585519    0.819234
  C      3.160912    3.781937   -0.921320
  C      3.173959    2.443455    3.613698
  C      1.320739    1.187485    2.480928
  H      4.975130    1.600928   -0.958671
  H      3.260449    1.180930   -1.014315
  H      4.902343   -0.347949    0.560074
  H      3.829729   -0.103165    2.727411
  H      4.652583    4.521231    1.320929
  H      5.441127    2.927200    1.555420
  H      5.686933    3.830676    0.033493
  H      2.949418    4.800895   -0.566139
  H      2.221630    3.357600   -1.313675
  H      3.896429    3.832216   -1.742562
  H      2.497109    3.285634    3.829506
  H      4.204287    2.827309    3.536710
  H      3.133223    1.727394    4.452030
  H      0.616677    2.002893    2.711318
  H      0.995017    0.689217    1.552674
  H      1.303106    0.450793    3.301648

 Total Charge           Charge          ....    0
 Multiplicity           Mult            ....    2
 Number of Electrons    NEL             ....   85
 Basis Dimension        Dim             ....  874

ORBITAL ENERGIES
----------------
                 SPIN UP ORBITALS
  NO   OCC          E(Eh)            E(eV)
   0   1.0000     -19.132983      -520.6349
   1   1.0000     -14.411657      -392.1611
   2   1.0000     -10.222578      -278.1705
   3   1.0000     -10.219539      -278.0878
   4   1.0000     -10.172343      -276.8035
   5   1.0000     -10.171754      -276.7875
   6   1.0000     -10.170011      -276.7401
   7   1.0000     -10.160742      -276.4879
   8   1.0000     -10.160672      -276.4859
   9   1.0000     -10.160294      -276.4757
  10   1.0000     -10.157391      -276.3966
  11   1.0000      -1.115348       -30.3502
  12   1.0000      -0.877964       -23.8906
  13   1.0000      -0.821215       -22.3464
  14   1.0000      -0.768709       -20.9176
  15   1.0000      -0.720349       -19.6017
  16   1.0000      -0.690733       -18.7958
  17   1.0000      -0.680938       -18.5293
  18   1.0000      -0.678551       -18.4643
  19   1.0000      -0.600028       -16.3276
  20   1.0000      -0.582091       -15.8395
  21   1.0000      -0.510312       -13.8863
  22   1.0000      -0.495630       -13.4868
  23   1.0000      -0.493355       -13.4249
  24   1.0000      -0.467329       -12.7167
  25   1.0000      -0.448306       -12.1990
  26   1.0000      -0.437825       -11.9138
  27   1.0000      -0.434281       -11.8174
  28   1.0000      -0.409737       -11.1495
  29   1.0000      -0.403045       -10.9674
  30   1.0000      -0.397608       -10.8195
  31   1.0000      -0.386501       -10.5172
  32   1.0000      -0.373639       -10.1672
  33   1.0000      -0.372003       -10.1227
  34   1.0000      -0.369054       -10.0425
  35   1.0000      -0.363968        -9.9041
  36   1.0000      -0.345321        -9.3967
  37   1.0000      -0.342932        -9.3317
  38   1.0000      -0.336708        -9.1623
  39   1.0000      -0.316103        -8.6016
  40   1.0000      -0.269100        -7.3226
  41   1.0000      -0.251007        -6.8302
  42   1.0000      -0.200359        -5.4520
  43   0.0000      -0.003180        -0.0865
  44   0.0000       0.004114         0.1119
  45   0.0000       0.010033         0.2730
  46   0.0000       0.010296         0.2802
  47   0.0000       0.017233         0.4689

                 SPIN DOWN ORBITALS
  NO   OCC          E(Eh)            E(eV)
   0   1.0000     -19.120435      -520.2935
   1   1.0000     -14.398971      -391.8159
   2   1.0000     -10.223018      -278.1825
   3   1.0000     -10.219943      -278.0988
   4   1.0000     -10.172180      -276.7991
   5   1.0000     -10.171767      -276.7878
   6   1.0000     -10.169972      -276.7390
   7   1.0000     -10.160385      -276.4781
   8   1.0000     -10.160127      -276.4711
   9   1.0000     -10.159565      -276.4558
  10   1.0000     -10.157281      -276.3937
  11   1.0000      -1.091928       -29.7129
  12   1.0000      -0.868295       -23.6275
  13   1.0000      -0.819867       -22.3097
  14   1.0000      -0.763355       -20.7720
  15   1.0000      -0.707826       -19.2609
  16   1.0000      -0.688310       -18.7299
  17   1.0000      -0.679635       -18.4938
  18   1.0000      -0.678166       -18.4538
  19   1.0000      -0.596658       -16.2359
  20   1.0000      -0.578550       -15.7432
  21   1.0000      -0.500477       -13.6187
  22   1.0000      -0.493074       -13.4172
  23   1.0000      -0.479981       -13.0609
  24   1.0000      -0.451021       -12.2729
  25   1.0000      -0.443362       -12.0645
  26   1.0000      -0.434084       -11.8120
  27   1.0000      -0.429987       -11.7005
  28   1.0000      -0.408415       -11.1135
  29   1.0000      -0.396411       -10.7869
  30   1.0000      -0.393636       -10.7114
  31   1.0000      -0.384557       -10.4643
  32   1.0000      -0.372983       -10.1494
  33   1.0000      -0.367849       -10.0097
  34   1.0000      -0.363516        -9.8918
  35   1.0000      -0.358670        -9.7599
  36   1.0000      -0.343655        -9.3513
  37   1.0000      -0.337095        -9.1728
  38   1.0000      -0.319182        -8.6854
  39   1.0000      -0.313872        -8.5409
  40   1.0000      -0.259110        -7.0507
  41   1.0000      -0.250356        -6.8125
  42   0.0000      -0.061827        -1.6824
  43   0.0000      -0.002997        -0.0816
  44   0.0000       0.004287         0.1167
  45   0.0000       0.010205         0.2777
  46   0.0000       0.010457         0.2846

MULLIKEN ATOMIC CHARGES AND SPIN POPULATIONS
--------------------------------------------
   0 O :   -1.133955    0.469852
   1 N :    0.361047    0.531222
   2 C :    2.422382   -0.054991
   3 C :   -0.478881   -0.000091
   4 C :   -0.676643   -0.002726
   5 C :   -0.745819    0.005123
   6 C :    1.999057   -0.055805
   7 C :   -1.150854    0.036099
   8 C :   -1.419000    0.013606
   9 C :   -1.265109    0.033986
  10 C :   -1.330743    0.017008
  11 H :    0.143493    0.000785
  12 H :    0.212345    0.000764
  13 H :    0.701209    0.000916
  14 H :    0.269269   -0.000745
  15 H :    0.197430   -0.002322
  16 H :    0.287855    0.002025
  17 H :    0.095238    0.007111
  18 H :    0.160074   -0.004708
  19 H :    0.169049   -0.000227
  20 H :    0.127501   -0.000171
  21 H :    0.124351    0.001615
  22 H :    0.254269   -0.001182
  23 H :    0.132138    0.002159
  24 H :    0.160863   -0.000080
  25 H :    0.202076    0.000139
  26 H :    0.181358    0.000639
Sum of atomic charges         :   -0.0000000

LOEWDIN ATOMIC CHARGES AND SPIN POPULATIONS
-------------------------------------------
   0 O :    0.386696    0.437056
   1 N :   -0.119949    0.405817
   2 C :   -0.453190    0.042556
   3 C :    0.271282    0.005321
   4 C :    0.240798    0.000014
   5 C :    0.218379    0.002017
   6 C :   -0.476127    0.039675
   7 C :    0.585987    0.020366
   8 C :    0.552038    0.000448
   9 C :    0.574844    0.016245
  10 C :    0.568950    0.008534
  11 H :   -0.120814    0.000675
  12 H :   -0.120095    0.001205
  13 H :   -0.154943   -0.000164
  14 H :   -0.144790    0.000038
  15 H :   -0.141710    0.001362
  16 H :   -0.158702    0.001813
  17 H :   -0.135357    0.006231
  18 H :   -0.171444   -0.000422
  19 H :   -0.146771    0.000437
  20 H :   -0.139003   -0.000124
  21 H :   -0.164876    0.001873
  22 H :   -0.156184    0.001513
  23 H :   -0.140885    0.004119
  24 H :   -0.169642    0.000022
  25 H :   -0.142295    0.001610
  26 H :   -0.142196    0.001764

  Mayer bond orders larger than 0.100000
B(  0-O ,  1-N ) :   0.5765 B(  0-O ,  6-C ) :  -0.2017 B(  0-O , 10-C ) :   0.1122
B(  1-N ,  2-C ) :   0.5850 B(  1-N ,  3-C ) :   0.3433 B(  1-N ,  5-C ) :   0.1020
B(  1-N ,  6-C ) :   0.8510 B(  1-N ,  8-C ) :  -0.1650 B(  2-C ,  3-C ) :   0.2357
B(  2-C ,  4-C ) :   0.1232 B(  2-C ,  5-C ) :   0.1589 B(  2-C ,  7-C ) :   0.2136
B(  2-C ,  8-C ) :  -0.1564 B(  2-C , 17-H ) :  -0.1167 B(  2-C , 18-H ) :  -0.1262
B(  2-C , 19-H ) :  -0.1165 B(  2-C , 20-H ) :  -0.1201 B(  3-C ,  4-C ) :   0.6642
B(  3-C ,  7-C ) :   0.1249 B(  3-C , 11-H ) :   0.9834 B(  3-C , 12-H ) :   1.0056
B(  3-C , 13-H ) :   0.1648 B(  4-C ,  5-C ) :   1.6405 B(  5-C ,  6-C ) :   0.5499
B(  5-C ,  9-C ) :  -0.1543 B(  5-C , 14-H ) :   1.0526 B(  6-C ,  9-C ) :   0.2922
B(  6-C , 10-C ) :   0.1444 B(  6-C , 23-H ) :  -0.1069 B(  7-C ,  8-C ) :   0.2018
B(  7-C , 15-H ) :   1.0046 B(  7-C , 16-H ) :   0.9577 B(  7-C , 17-H ) :   1.1342
B(  8-C , 18-H ) :   1.1041 B(  8-C , 19-H ) :   1.1228 B(  8-C , 20-H ) :   1.1509
B(  9-C , 10-C ) :   0.2373 B(  9-C , 21-H ) :   1.1350 B(  9-C , 22-H ) :   0.9621
B(  9-C , 23-H ) :   1.1360 B( 10-C , 24-H ) :   1.1105 B( 10-C , 25-H ) :   1.0397
B( 10-C , 26-H ) :   1.0978

Dispersion correction           -0.050867773
FINAL SINGLE POINT ENERGY      -482.410886805108

DIPOLE MOMENT
-------------

Method             : SCF
Type of density    : Electron Density
Multiplicity       :   2
Irrep              :   0
Energy             :  -482.3600190321014907 Eh
Relativity type    :
Basis              : AO
                                X                 Y                 Z
Electronic contribution:     -1.672772267      -0.891624435      -0.438718485
Nuclear contribution   :      2.934205534      -0.334114235       0.179164827
                        -----------------------------------------
Total Dipole Moment    :      1.261433267      -1.225738670      -0.259553658
                        -----------------------------------------
Magnitude (a.u.)       :      1.777924992
Magnitude (Debye)      :      4.519126189

Rotational constants in cm-1:             0.051691             0.036550             0.029790
Rotational constants in MHz :          1549.648951          1095.742777           893.076591

                             ****ORCA TERMINATED NORMALLY****
TOTAL RUN TIME: 0 days 0 hours 6 minutes 17 seconds 1 msec
