                         Program Version 6.0.0  -   RELEASE  -
|  1> !TPSSh opt aug-cc-pVTZ d3 TightSCF SlowConv RIJCOSX defgrid2
|  2>
|  3> %pal
|  4> nprocs 8
|  5> end
|  6>
|  7> %scf
|  8> MaxIter 1500
|  9> end
| 10>
| 11> %maxcore 3500
| 12>
| 13> !CPCM
| 14> %cpcm smd true
| 15> SMDsolvent "MeCN"
| 16> surfacetype gepol_ses
| 17> rsolv 2.19
| 18> end
| 19>
| 20> * xyz 0 1
| 21> 6        0.691365000     -1.226985000      0.065439200
| 22> 6       -0.692233200     -1.223627800      0.036696600
| 23> 6       -1.346067600      0.003573800     -0.000059000
| 24> 6       -0.668141200      1.214450400     -0.034287200
| 25> 6        0.718624600      1.192362000     -0.055443000
| 26> 6        1.406886800     -0.024534000      0.010096000
| 27> 6        2.905302000     -0.080294200      0.023341200
| 28> 8        3.474020400     -1.162134600      0.319931200
| 29> 6        3.671003000      1.211649200     -0.345583800
| 30> 1        3.459107800      2.035474000      0.392866800
| 31> 1        4.738230800      1.000879600     -0.339054600
| 32> 1        3.369861200      1.578828600     -1.367267400
| 33> 1        1.256648800      2.130010400     -0.113147600
| 34> 1       -1.214816800      2.145566800     -0.067715800
| 35> 7       -2.815303600      0.019258200     -0.004916200
| 36> 8       -3.380628600      1.108798800      0.489881600
| 37> 8       -3.403017400     -1.058846000     -0.501389600
| 38> 1       -1.259222800     -2.142897600      0.064386400
| 39> 1        1.235445600     -2.161760000      0.123211800
| 40> *
| 41>
| 42>                          ****END OF INPUT****
 Total Charge           Charge          ....    0
 Multiplicity           Mult            ....    1
 Number of Electrons    NEL             ....   86
Dispersion correction           -0.024385341
FINAL SINGLE POINT ENERGY      -589.655504593810
Dispersion correction             ... done (  0.0 sec)
Dispersion correction           -0.024513194
FINAL SINGLE POINT ENERGY      -589.678724945679
Dispersion correction             ... done (  0.0 sec)
Dispersion correction           -0.024527264
FINAL SINGLE POINT ENERGY      -589.680244458608
Dispersion correction             ... done (  0.1 sec)
FINAL SINGLE POINT ENERGY      -589.680384586749
FINAL SINGLE POINT ENERGY      -589.679849435446
FINAL SINGLE POINT ENERGY      -589.681017848170
FINAL SINGLE POINT ENERGY      -589.681096445500
FINAL SINGLE POINT ENERGY      -589.681142591727
FINAL SINGLE POINT ENERGY      -589.681202883657
FINAL SINGLE POINT ENERGY      -589.681222919907
FINAL SINGLE POINT ENERGY      -589.681222598247
Dispersion correction             ... done (  0.1 sec)
Dispersion correction           -0.024504752
FINAL SINGLE POINT ENERGY      -589.681224069418
Dispersion correction             ... done (  0.0 sec)
Dispersion correction           -0.024504705
FINAL SINGLE POINT ENERGY      -589.681224113692
Dispersion correction             ... done (  0.1 sec)
                    ***********************HURRAY********************

CARTESIAN COORDINATES (ANGSTROEM)
---------------------------------
  C      0.693714   -1.223481    0.028108
  C     -0.689249   -1.219381    0.068735
  C     -1.345557    0.004574    0.002330
  C     -0.669741    1.212318   -0.100890
  C      0.716579    1.189648   -0.138410
  C      1.407021   -0.024352   -0.075135
  C      2.904924   -0.080585   -0.114665
  O      3.475067   -1.161209   -0.065335
  C      3.668806    1.209816   -0.213349
  H      3.434137    1.857003    0.635774
  H      4.736077    0.999758   -0.228175
  H      3.389444    1.750912   -1.121119
  H      1.252652    2.125002   -0.218153
  H     -1.217039    2.141892   -0.149228
  N     -2.814002    0.020012    0.043054
  O     -3.381911    1.106573   -0.033046
  O     -3.398365   -1.055130    0.150590
  H     -1.253325   -2.136732    0.149532
  H      1.237832   -2.156867    0.076368

 Multiplicity           Mult            ....    1
 Number of Electrons    NEL             ....   86
 Basis Dimension        Dim             ....  713

ORBITAL ENERGIES
----------------

  NO   OCC          E(Eh)            E(eV)
   0   2.0000     -19.097075      -519.6578
   1   2.0000     -19.096938      -519.6541
   2   2.0000     -19.050961      -518.4030
   3   2.0000     -14.490506      -394.3067
   4   2.0000     -10.209183      -277.8060
   5   2.0000     -10.184888      -277.1449
   6   2.0000     -10.145181      -276.0644
   7   2.0000     -10.143820      -276.0274
   8   2.0000     -10.143140      -276.0089
   9   2.0000     -10.140363      -275.9333
  10   2.0000     -10.137340      -275.8510
  11   2.0000     -10.110708      -275.1264
  12   2.0000      -1.210031       -32.9266
  13   2.0000      -1.037922       -28.2433
  14   2.0000      -1.024264       -27.8716
  15   2.0000      -0.874731       -23.8027
  16   2.0000      -0.798669       -21.7329
  17   2.0000      -0.756263       -20.5790
  18   2.0000      -0.731694       -19.9104
  19   2.0000      -0.688154       -18.7256
  20   2.0000      -0.614286       -16.7156
  21   2.0000      -0.595870       -16.2144
  22   2.0000      -0.552667       -15.0388
  23   2.0000      -0.540853       -14.7174
  24   2.0000      -0.524689       -14.2775
  25   2.0000      -0.506987       -13.7958
  26   2.0000      -0.472202       -12.8493
  27   2.0000      -0.461083       -12.5467
  28   2.0000      -0.447612       -12.1801
  29   2.0000      -0.430400       -11.7118
  30   2.0000      -0.428254       -11.6534
  31   2.0000      -0.408096       -11.1049
  32   2.0000      -0.399810       -10.8794
  33   2.0000      -0.379820       -10.3354
  34   2.0000      -0.365515        -9.9462
  35   2.0000      -0.348883        -9.4936
  36   2.0000      -0.347392        -9.4530
  37   2.0000      -0.312154        -8.4941
  38   2.0000      -0.304516        -8.2863
  39   2.0000      -0.286514        -7.7964
  40   2.0000      -0.274543        -7.4707
  41   2.0000      -0.268965        -7.3189
  42   2.0000      -0.245408        -6.6779
  43   0.0000      -0.122871        -3.3435
  44   0.0000      -0.064758        -1.7622
  45   0.0000      -0.043044        -1.1713
  46   0.0000      -0.005269        -0.1434
  47   0.0000       0.008173         0.2224

MULLIKEN ATOMIC CHARGES
-----------------------
   0 C :   -0.576341
   1 C :   -0.220196
   2 C :    0.256233
   3 C :   -0.476396
   4 C :   -0.202890
   5 C :    0.703874
   6 C :    0.873393
   7 O :   -1.007249
   8 C :   -0.203981
   9 H :    0.196811
  10 H :   -0.028728
  11 H :    0.195583
  12 H :    0.154839
  13 H :    0.383285
  14 N :    0.941186
  15 O :   -0.752561
  16 O :   -0.752088
  17 H :    0.455665
  18 H :    0.059560
Sum of atomic charges:    0.0000000

LOEWDIN ATOMIC CHARGES
----------------------
   0 C :    0.226129
   1 C :    0.228199
   2 C :   -0.222708
   3 C :    0.233663
   4 C :    0.239709
   5 C :   -0.105398
   6 C :   -0.520513
   7 O :    0.492276
   8 C :    0.582482
   9 H :   -0.161186
  10 H :   -0.177390
  11 H :   -0.161356
  12 H :   -0.175816
  13 H :   -0.188295
  14 N :   -0.727989
  15 O :    0.405662
  16 O :    0.405794
  17 H :   -0.189792
  18 H :   -0.183471

  Mayer bond orders larger than 0.100000
B(  0-C ,  1-C ) :   1.4958 B(  0-C ,  2-C ) :  -0.3302 B(  0-C ,  4-C ) :  -0.2229
B(  0-C ,  5-C ) :   0.6788 B(  0-C ,  6-C ) :   0.1393 B(  0-C , 16-O ) :  -0.1061
B(  0-C , 18-H ) :   1.0073 B(  1-C ,  2-C ) :   1.1324 B(  1-C ,  7-O ) :  -0.1073
B(  1-C , 16-O ) :  -0.1120 B(  1-C , 17-H ) :   0.4612 B(  2-C ,  3-C ) :   1.0106
B(  2-C ,  4-C ) :  -0.2529 B(  2-C , 13-H ) :   0.1230 B(  2-C , 14-N ) :   1.1262
B(  2-C , 15-O ) :   0.5199 B(  2-C , 16-O ) :   0.5293 B(  2-C , 17-H ) :   0.1293
B(  3-C ,  4-C ) :   1.2179 B(  3-C ,  5-C ) :   0.1245 B(  3-C , 13-H ) :   0.5493
B(  3-C , 14-N ) :  -0.1619 B(  4-C ,  5-C ) :   0.7924 B(  4-C , 12-H ) :   1.0115
B(  4-C , 15-O ) :  -0.1033 B(  5-C ,  6-C ) :   0.4988 B(  5-C ,  7-O ) :   0.3469
B(  6-C ,  7-O ) :   0.4604 B(  6-C ,  8-C ) :   1.0597 B(  7-O , 18-H ) :   0.1901
B(  8-C ,  9-H ) :   0.9364 B(  8-C , 10-H ) :   1.0267 B(  8-C , 11-H ) :   0.9378
B( 14-N , 15-O ) :   0.6389 B( 14-N , 16-O ) :   0.6370 B( 15-O , 16-O ) :   0.2316

Dispersion correction           -0.024504390
FINAL SINGLE POINT ENERGY      -589.681226089669

DIPOLE MOMENT
-------------

Method             : SCF
Type of density    : Electron Density
Multiplicity       :   1
Irrep              :   0
Energy             :  -589.6567216996980960 Eh
Relativity type    :
Basis              : AO
                                X                 Y                 Z
Electronic contribution:     -9.363426522      -2.957582037       0.442348205
Nuclear contribution   :     10.811991773       4.282366891      -0.562776198
                        -----------------------------------------
Total Dipole Moment    :      1.448565252       1.324784854      -0.120427993
                        -----------------------------------------
Magnitude (a.u.)       :      1.966697511
Magnitude (Debye)      :      4.998947800

Rotational constants in cm-1:             0.096002             0.015931             0.013698
Rotational constants in MHz :          2878.073256           477.592211           410.667763

                             ****ORCA TERMINATED NORMALLY****
TOTAL RUN TIME: 0 days 1 hours 18 minutes 8 seconds 813 msec
