                         Program Version 6.0.0  -   RELEASE  -
|  1> !TPSSh aug-cc-pVTZ d3 TightSCF SlowConv RIJCOSX defgrid2
|  2>
|  3> %pal
|  4> nprocs 15
|  5> end
|  6>
|  7> %scf
|  8> MaxIter 1500
|  9> end
| 10>
| 11> %maxcore 3500
| 12>
| 13> !CPCM
| 14> %cpcm smd true
| 15> SMDsolvent "WATER"
| 16> surfacetype gepol_ses
| 17> rsolv 1.40
| 18> end
| 19>
| 20> * xyz -1 2
| 21> C           0.05676834437269     -0.04126375525375     -0.07379470178985
| 22> C           0.04676127079215      1.38639972567344      0.09948592866889
| 23> C           0.00732325322699      2.02650392411858      1.32436257991460
| 24> C          -0.02811199415728      1.28756028332669      2.56763955505213
| 25> C          -0.01950367462772     -0.17671526637425      2.44249972135594
| 26> C           0.02128903830978     -0.81737610319329      1.17794298580176
| 27> C           0.02766320595178     -2.22274936131322      1.12035686382715
| 28> C          -0.00525760141292     -2.98509780735118      2.27563842056320
| 29> C          -0.04596579054487     -2.34934581671190      3.53299210043314
| 30> C          -0.05269695553496     -0.96718770864542      3.60727949422398
| 31> H           0.07307998987984      1.97354439848574     -0.82691927210829
| 32> H          -0.08387968905241     -0.43627556568955      4.56348338899376
| 33> H          -0.07227523191341     -2.95060132238905      4.44937134345183
| 34> H           0.00009741014830     -4.07969694965667      2.21544872655867
| 35> H           0.05965826160228     -2.67423134322413      0.12415494788135
| 36> C          -0.00135605546558      3.52012474646347      1.44205228332186
| 37> H          -0.89947922034870      3.86767983350127      1.98595203666262
| 38> H           0.86028970160146      3.87394551637077      2.03844092282286
| 39> H           0.02673872207916      4.00491399489856      0.45047397160307
| 40> O          -0.06383664808370      1.85761287334880      3.68239612384268
| 41> O           0.09269366317713     -0.59678036638491     -1.19351016008137
| 42> *
| 43>
| 44>                          ****END OF INPUT****

CARTESIAN COORDINATES (ANGSTROEM)
---------------------------------
  C      0.056768   -0.041264   -0.073795
  C      0.046761    1.386400    0.099486
  C      0.007323    2.026504    1.324363
  C     -0.028112    1.287560    2.567640
  C     -0.019504   -0.176715    2.442500
  C      0.021289   -0.817376    1.177943
  C      0.027663   -2.222749    1.120357
  C     -0.005258   -2.985098    2.275638
  C     -0.045966   -2.349346    3.532992
  C     -0.052697   -0.967188    3.607279
  H      0.073080    1.973544   -0.826919
  H     -0.083880   -0.436276    4.563483
  H     -0.072275   -2.950601    4.449371
  H      0.000097   -4.079697    2.215449
  H      0.059658   -2.674231    0.124155
  C     -0.001356    3.520125    1.442052
  H     -0.899479    3.867680    1.985952
  H      0.860290    3.873946    2.038441
  H      0.026739    4.004914    0.450474
  O     -0.063837    1.857613    3.682396
  O      0.092694   -0.596780   -1.193510

 Total Charge           Charge          ....   -1
 Multiplicity           Mult            ....    2
 Number of Electrons    NEL             ....   91
 Basis Dimension        Dim             ....  782

ORBITAL ENERGIES
----------------
                 SPIN UP ORBITALS
  NO   OCC          E(Eh)            E(eV)
   0   1.0000     -19.013929      -517.3953
   1   1.0000     -19.013784      -517.3914
   2   1.0000     -10.163321      -276.5580
   3   1.0000     -10.160820      -276.4900
   4   1.0000     -10.114742      -275.2361
   5   1.0000     -10.114408      -275.2270
   6   1.0000     -10.114279      -275.2235
   7   1.0000     -10.113462      -275.2013
   8   1.0000     -10.112892      -275.1858
   9   1.0000     -10.111825      -275.1567
  10   1.0000     -10.111686      -275.1530
  11   1.0000     -10.101907      -274.8869
  12   1.0000     -10.101269      -274.8695
  13   1.0000      -0.985853       -26.8264
  14   1.0000      -0.983513       -26.7628
  15   1.0000      -0.834689       -22.7130
  16   1.0000      -0.788144       -21.4465
  17   1.0000      -0.730861       -19.8877
  18   1.0000      -0.727625       -19.7997
  19   1.0000      -0.678532       -18.4638
  20   1.0000      -0.638042       -17.3620
  21   1.0000      -0.592598       -16.1254
  22   1.0000      -0.571033       -15.5386
  23   1.0000      -0.534749       -14.5513
  24   1.0000      -0.486972       -13.2512
  25   1.0000      -0.475611       -12.9420
  26   1.0000      -0.445902       -12.1336
  27   1.0000      -0.426052       -11.5935
  28   1.0000      -0.412860       -11.2345
  29   1.0000      -0.405327       -11.0295
  30   1.0000      -0.399570       -10.8728
  31   1.0000      -0.398187       -10.8352
  32   1.0000      -0.380953       -10.3662
  33   1.0000      -0.370738       -10.0883
  34   1.0000      -0.360924        -9.8212
  35   1.0000      -0.360189        -9.8012
  36   1.0000      -0.350365        -9.5339
  37   1.0000      -0.335163        -9.1203
  38   1.0000      -0.325350        -8.8532
  39   1.0000      -0.316154        -8.6030
  40   1.0000      -0.261773        -7.1232
  41   1.0000      -0.245344        -6.6762
  42   1.0000      -0.235989        -6.4216
  43   1.0000      -0.232139        -6.3168
  44   1.0000      -0.221924        -6.0389
  45   1.0000      -0.145633        -3.9629
  46   0.0000      -0.043341        -1.1794
  47   0.0000      -0.024264        -0.6603
  48   0.0000      -0.002577        -0.0701
  49   0.0000       0.008086         0.2200
  50   0.0000       0.012936         0.3520

                 SPIN DOWN ORBITALS
  NO   OCC          E(Eh)            E(eV)
   0   1.0000     -19.008330      -517.2430
   1   1.0000     -19.007993      -517.2338
   2   1.0000     -10.161370      -276.5049
   3   1.0000     -10.158570      -276.4287
   4   1.0000     -10.114407      -275.2270
   5   1.0000     -10.113871      -275.2124
   6   1.0000     -10.113037      -275.1897
   7   1.0000     -10.112516      -275.1756
   8   1.0000     -10.112371      -275.1716
   9   1.0000     -10.111738      -275.1544
  10   1.0000     -10.111497      -275.1478
  11   1.0000     -10.101421      -274.8736
  12   1.0000     -10.100597      -274.8512
  13   1.0000      -0.976625       -26.5753
  14   1.0000      -0.973979       -26.5033
  15   1.0000      -0.832747       -22.6602
  16   1.0000      -0.783438       -21.3184
  17   1.0000      -0.728872       -19.8336
  18   1.0000      -0.725893       -19.7526
  19   1.0000      -0.674573       -18.3561
  20   1.0000      -0.631698       -17.1894
  21   1.0000      -0.590637       -16.0720
  22   1.0000      -0.568515       -15.4701
  23   1.0000      -0.531991       -14.4762
  24   1.0000      -0.485004       -13.1976
  25   1.0000      -0.472823       -12.8662
  26   1.0000      -0.443300       -12.0628
  27   1.0000      -0.425041       -11.5660
  28   1.0000      -0.403502       -10.9798
  29   1.0000      -0.400505       -10.8983
  30   1.0000      -0.396836       -10.7984
  31   1.0000      -0.395985       -10.7753
  32   1.0000      -0.372425       -10.1342
  33   1.0000      -0.368884       -10.0378
  34   1.0000      -0.358902        -9.7662
  35   1.0000      -0.349245        -9.5034
  36   1.0000      -0.340909        -9.2766
  37   1.0000      -0.324105        -8.8193
  38   1.0000      -0.324087        -8.8189
  39   1.0000      -0.315167        -8.5761
  40   1.0000      -0.240852        -6.5539
  41   1.0000      -0.239412        -6.5147
  42   1.0000      -0.228514        -6.2182
  43   1.0000      -0.228173        -6.2089
  44   1.0000      -0.217985        -5.9317
  45   0.0000      -0.098889        -2.6909
  46   0.0000      -0.035425        -0.9640
  47   0.0000      -0.013310        -0.3622
  48   0.0000      -0.001660        -0.0452
  49   0.0000       0.008596         0.2339

MULLIKEN ATOMIC CHARGES AND SPIN POPULATIONS
--------------------------------------------
   0 C :    1.391117    0.137585
   1 C :   -0.516370    0.101534
   2 C :    0.062736    0.085064
   3 C :    1.086996    0.152609
   4 C :    1.002904   -0.006070
   5 C :    0.814536    0.033516
   6 C :   -1.008748    0.016889
   7 C :   -0.264711    0.028102
   8 C :   -0.254986    0.017895
   9 C :   -1.225574    0.030412
  10 H :    0.064341   -0.001304
  11 H :   -0.065373   -0.002029
  12 H :    0.522490   -0.000936
  13 H :    0.457156   -0.001638
  14 H :   -0.106573   -0.001777
  15 C :   -0.374551   -0.019332
  16 H :    0.113942    0.007501
  17 H :    0.111376    0.007495
  18 H :    0.081518   -0.001574
  19 O :   -1.445255    0.215448
  20 O :   -1.446972    0.200611
Sum of atomic charges         :   -1.0000000

LOEWDIN ATOMIC CHARGES AND SPIN POPULATIONS
-------------------------------------------
   0 C :   -0.652923    0.121193
   1 C :    0.180185    0.086595
   2 C :   -0.165450    0.099952
   3 C :   -0.621835    0.133084
   4 C :   -0.148499    0.044664
   5 C :   -0.153783    0.044707
   6 C :    0.180739    0.012607
   7 C :    0.189299    0.019838
   8 C :    0.189105    0.017157
   9 C :    0.182568    0.014519
  10 H :   -0.191708    0.009440
  11 H :   -0.197090    0.001544
  12 H :   -0.174101    0.002652
  13 H :   -0.174438    0.003707
  14 H :   -0.196848    0.000646
  15 C :    0.532637    0.013371
  16 H :   -0.167410    0.003562
  17 H :   -0.167358    0.003564
  18 H :   -0.170157   -0.000290
  19 O :    0.380462    0.188313
  20 O :    0.346604    0.179175

  Mayer bond orders larger than 0.100000
B(  0-C ,  1-C ) :   0.8624 B(  0-C ,  3-C ) :   0.1078 B(  0-C ,  5-C ) :   0.4460
B(  0-C ,  6-C ) :   0.5042 B(  0-C ,  8-C ) :   0.1292 B(  0-C ,  9-C ) :  -0.1707
B(  0-C , 10-H ) :  -0.2517 B(  0-C , 14-H ) :  -0.1531 B(  0-C , 20-O ) :  -1.0823
B(  1-C ,  2-C ) :   1.1400 B(  1-C ,  3-C ) :  -0.1103 B(  1-C ,  4-C ) :  -0.1152
B(  1-C ,  5-C ) :   0.2900 B(  1-C , 10-H ) :   0.8218 B(  1-C , 15-C ) :  -0.2023
B(  1-C , 20-O ) :   0.3983 B(  2-C ,  3-C ) :   0.7602 B(  2-C ,  4-C ) :   0.6047
B(  2-C ,  5-C ) :  -0.1675 B(  2-C , 15-C ) :   0.7120 B(  2-C , 19-O ) :   0.2675
B(  2-C , 20-O ) :   0.1466 B(  3-C ,  4-C ) :   0.5483 B(  3-C ,  5-C ) :   0.1527
B(  3-C ,  6-C ) :  -0.1206 B(  3-C ,  8-C ) :   0.1085 B(  3-C ,  9-C ) :   0.5027
B(  3-C , 10-H ) :   0.1036 B(  3-C , 11-H ) :  -0.1002 B(  3-C , 15-C ) :   0.2656
B(  3-C , 19-O ) :  -0.7073 B(  4-C ,  5-C ) :   0.7791 B(  4-C ,  6-C ) :  -0.4579
B(  4-C ,  7-C ) :  -0.1852 B(  4-C ,  8-C ) :  -0.1181 B(  4-C , 19-O ) :   0.2926
B(  5-C ,  6-C ) :   0.3492 B(  5-C ,  8-C ) :  -0.1007 B(  5-C ,  9-C ) :  -0.1954
B(  5-C , 10-H ) :   0.1869 B(  5-C , 20-O ) :   0.3274 B(  6-C ,  7-C ) :   1.3834
B(  6-C ,  9-C ) :   0.1237 B(  6-C , 14-H ) :   1.1688 B(  7-C ,  8-C ) :   1.2578
B(  7-C , 12-H ) :   0.1170 B(  7-C , 13-H ) :   0.4712 B(  8-C ,  9-C ) :   1.4431
B(  8-C , 12-H ) :   0.3908 B(  8-C , 13-H ) :   0.1150 B(  9-C , 11-H ) :   1.0714
B(  9-C , 12-H ) :  -0.1115 B( 10-H , 14-H ) :   0.1243 B( 10-H , 20-O ) :   0.1841
B( 11-H , 19-O ) :   0.3609 B( 14-H , 20-O ) :   0.3501 B( 15-C , 16-H ) :   0.9982
B( 15-C , 17-H ) :   1.0002 B( 15-C , 18-H ) :   0.9899

Dispersion correction           -0.030472393
FINAL SINGLE POINT ENERGY      -574.847027275010

DIPOLE MOMENT
-------------

Method             : SCF
Type of density    : Electron Density
Multiplicity       :   2
Irrep              :   0
Energy             :  -574.8165548819963533 Eh
Relativity type    :
Basis              : AO
                                X                 Y                 Z
Electronic contribution:      0.028615404      -3.912080910      -0.498079710
Nuclear contribution   :     -0.055391570       3.039875839       1.447342045
                        -----------------------------------------
Total Dipole Moment    :     -0.026776166      -0.872205071       0.949262335
                        -----------------------------------------
Magnitude (a.u.)       :      1.289402043
Magnitude (Debye)      :      3.277399535

Rotational constants in cm-1:             0.041924             0.026162             0.016157
Rotational constants in MHz :          1256.843177           784.307239           484.385236

                             ****ORCA TERMINATED NORMALLY****
TOTAL RUN TIME: 0 days 0 hours 22 minutes 27 seconds 237 msec
