                         Program Version 6.0.0  -   RELEASE  -
|  1> !PBE0 aug-cc-pVTZ d3 TightSCF SlowConv RIJCOSX defgrid2
|  2>
|  3> %pal
|  4> nprocs 4
|  5> end
|  6>
|  7> %scf
|  8> MaxIter 1500
|  9> end
| 10>
| 11> %maxcore 3000
| 12>
| 13> !CPCM
| 14> %cpcm smd true
| 15> SMDsolvent "MeCN"
| 16> surfacetype gepol_ses
| 17> rsolv 2.19
| 18> end
| 19>
| 20> * xyz 1 2
| 21> C          -2.34552987536684     -1.21989010437598      0.39037314372658
| 22> C          -3.61895068813073     -0.68175269434440      0.38389142559167
| 23> C          -3.82314603181153      0.63223129507657     -0.05997707610989
| 24> C          -2.74291757400101      1.40018818267067     -0.51535069014080
| 25> C          -1.45991639594185      0.88100768107606     -0.50933331005631
| 26> C          -1.24682427758412     -0.43286197652402     -0.02997852330470
| 27> N          -0.00000583482740     -1.01085724580805     -0.00004772669115
| 28> C           1.24681241286631     -0.43287174597834      0.02990526482063
| 29> C           1.45990511527645      0.88100588629127      0.50923458111131
| 30> C           2.74292315008343      1.40015182716249      0.51533074845338
| 31> C           3.82316479830717      0.63215150787923      0.06005371973868
| 32> C           3.61896072254659     -0.68183818250133     -0.38379986432228
| 33> C           2.34552582381883     -1.21993769489926     -0.39035690905535
| 34> H           2.17816875399825     -2.24126262631785     -0.74631287979897
| 35> H           4.46447935418444     -1.28373988515481     -0.72627658434262
| 36> H           4.83264524497399      1.05187382862867      0.07202071830295
| 37> H           2.91442484546385      2.40736518053646      0.90385483105346
| 38> H           0.63238245735310      1.45557255022259      0.92936286739960
| 39> H          -0.00000303273582     -2.03154086007956     -0.00006285746572
| 40> H          -0.63240635676261      1.45553755141713     -0.92953302648471
| 41> H          -2.91442477275671      2.40739802155151     -0.90387838458025
| 42> H          -4.83260942910992      1.05198735407979     -0.07187345817988
| 43> H          -4.46446345632637     -1.28362150345028      0.72644056993610
| 44> H          -2.17818095351749     -2.24120514715858      0.74635382039827
| 45> *
| 46>
| 47>                          ****END OF INPUT****

CARTESIAN COORDINATES (ANGSTROEM)
---------------------------------
  C     -2.345530   -1.219890    0.390373
  C     -3.618951   -0.681753    0.383891
  C     -3.823146    0.632231   -0.059977
  C     -2.742918    1.400188   -0.515351
  C     -1.459916    0.881008   -0.509333
  C     -1.246824   -0.432862   -0.029979
  N     -0.000006   -1.010857   -0.000048
  C      1.246812   -0.432872    0.029905
  C      1.459905    0.881006    0.509235
  C      2.742923    1.400152    0.515331
  C      3.823165    0.632152    0.060054
  C      3.618961   -0.681838   -0.383800
  C      2.345526   -1.219938   -0.390357
  H      2.178169   -2.241263   -0.746313
  H      4.464479   -1.283740   -0.726277
  H      4.832645    1.051874    0.072021
  H      2.914425    2.407365    0.903855
  H      0.632382    1.455573    0.929363
  H     -0.000003   -2.031541   -0.000063
  H     -0.632406    1.455538   -0.929533
  H     -2.914425    2.407398   -0.903878
  H     -4.832609    1.051987   -0.071873
  H     -4.464463   -1.283622    0.726441
  H     -2.178181   -2.241205    0.746354

 Total Charge           Charge          ....    1
 Multiplicity           Mult            ....    2
 Number of Electrons    NEL             ....   89
 Basis Dimension        Dim             ....  851

ORBITAL ENERGIES
----------------
                 SPIN UP ORBITALS
  NO   OCC          E(Eh)            E(eV)
   0   1.0000     -14.502547      -394.6344
   1   1.0000     -10.317095      -280.7424
   2   1.0000     -10.317075      -280.7419
   3   1.0000     -10.266302      -279.3603
   4   1.0000     -10.266268      -279.3594
   5   1.0000     -10.266037      -279.3531
   6   1.0000     -10.266031      -279.3529
   7   1.0000     -10.262499      -279.2568
   8   1.0000     -10.262496      -279.2567
   9   1.0000     -10.254704      -279.0447
  10   1.0000     -10.254686      -279.0442
  11   1.0000     -10.254424      -279.0371
  12   1.0000     -10.254420      -279.0370
  13   1.0000      -1.053719       -28.6732
  14   1.0000      -0.919347       -25.0167
  15   1.0000      -0.898196       -24.4412
  16   1.0000      -0.819607       -22.3026
  17   1.0000      -0.806144       -21.9363
  18   1.0000      -0.798487       -21.7279
  19   1.0000      -0.770360       -20.9626
  20   1.0000      -0.685038       -18.6408
  21   1.0000      -0.678930       -18.4746
  22   1.0000      -0.646000       -17.5785
  23   1.0000      -0.629152       -17.1201
  24   1.0000      -0.583254       -15.8712
  25   1.0000      -0.580048       -15.7839
  26   1.0000      -0.540504       -14.7078
  27   1.0000      -0.520824       -14.1723
  28   1.0000      -0.506300       -13.7771
  29   1.0000      -0.486738       -13.2448
  30   1.0000      -0.475834       -12.9481
  31   1.0000      -0.469901       -12.7867
  32   1.0000      -0.462637       -12.5890
  33   1.0000      -0.459711       -12.5094
  34   1.0000      -0.450662       -12.2631
  35   1.0000      -0.418924       -11.3995
  36   1.0000      -0.401965       -10.9380
  37   1.0000      -0.391329       -10.6486
  38   1.0000      -0.388735       -10.5780
  39   1.0000      -0.378506       -10.2997
  40   1.0000      -0.372038       -10.1237
  41   1.0000      -0.303870        -8.2687
  42   1.0000      -0.300668        -8.1816
  43   1.0000      -0.298122        -8.1123
  44   1.0000      -0.255388        -6.9495
  45   0.0000      -0.051426        -1.3994
  46   0.0000      -0.036857        -1.0029
  47   0.0000      -0.034286        -0.9330
  48   0.0000      -0.013641        -0.3712
  49   0.0000      -0.003178        -0.0865

                 SPIN DOWN ORBITALS
  NO   OCC          E(Eh)            E(eV)
   0   1.0000     -14.493036      -394.3756
   1   1.0000     -10.317969      -280.7662
   2   1.0000     -10.317950      -280.7657
   3   1.0000     -10.263817      -279.2927
   4   1.0000     -10.263786      -279.2918
   5   1.0000     -10.263556      -279.2856
   6   1.0000     -10.263548      -279.2853
   7   1.0000     -10.259146      -279.1656
   8   1.0000     -10.259145      -279.1655
   9   1.0000     -10.256009      -279.0802
  10   1.0000     -10.255990      -279.0797
  11   1.0000     -10.255735      -279.0728
  12   1.0000     -10.255731      -279.0726
  13   1.0000      -1.038476       -28.2584
  14   1.0000      -0.915435       -24.9103
  15   1.0000      -0.892810       -24.2946
  16   1.0000      -0.815883       -22.2013
  17   1.0000      -0.803229       -21.8570
  18   1.0000      -0.796084       -21.6626
  19   1.0000      -0.760884       -20.7047
  20   1.0000      -0.679985       -18.5033
  21   1.0000      -0.676563       -18.4102
  22   1.0000      -0.643077       -17.4990
  23   1.0000      -0.626057       -17.0359
  24   1.0000      -0.581550       -15.8248
  25   1.0000      -0.576553       -15.6888
  26   1.0000      -0.537394       -14.6232
  27   1.0000      -0.517296       -14.0763
  28   1.0000      -0.496206       -13.5024
  29   1.0000      -0.485282       -13.2052
  30   1.0000      -0.468121       -12.7382
  31   1.0000      -0.467578       -12.7234
  32   1.0000      -0.458997       -12.4899
  33   1.0000      -0.458874       -12.4866
  34   1.0000      -0.440975       -11.9995
  35   1.0000      -0.408105       -11.1051
  36   1.0000      -0.400265       -10.8918
  37   1.0000      -0.389669       -10.6034
  38   1.0000      -0.378158       -10.2902
  39   1.0000      -0.377418       -10.2701
  40   1.0000      -0.356927        -9.7125
  41   1.0000      -0.294591        -8.0162
  42   1.0000      -0.291942        -7.9441
  43   1.0000      -0.284200        -7.7335
  44   0.0000      -0.171600        -4.6695
  45   0.0000      -0.040727        -1.1082
  46   0.0000      -0.030166        -0.8208
  47   0.0000      -0.026582        -0.7233
  48   0.0000      -0.002627        -0.0715

MULLIKEN ATOMIC CHARGES AND SPIN POPULATIONS
--------------------------------------------
   0 C :   -0.741136    0.130486
   1 C :   -0.551779   -0.072179
   2 C :   -0.457524    0.201825
   3 C :   -0.959796   -0.074119
   4 C :   -0.518336    0.145220
   5 C :    0.956227    0.004312
   6 N :   -0.484121    0.375800
   7 C :    0.965346    0.003761
   8 C :   -0.506328    0.144142
   9 C :   -0.956231   -0.073562
  10 C :   -0.478049    0.201653
  11 C :   -0.517202   -0.072664
  12 C :   -0.776278    0.129903
  13 H :    0.578376   -0.014867
  14 H :    0.516625   -0.000481
  15 H :    0.643635    0.003417
  16 H :    0.497921    0.002983
  17 H :    0.786709   -0.006992
  18 H :   -0.022381   -0.010463
  19 H :    0.792527   -0.007830
  20 H :    0.498047    0.003362
  21 H :    0.650129    0.003180
  22 H :    0.507270   -0.000957
  23 H :    0.576350   -0.015928
Sum of atomic charges         :    1.0000000

LOEWDIN ATOMIC CHARGES AND SPIN POPULATIONS
-------------------------------------------
   0 C :    0.262487    0.068051
   1 C :    0.226052    0.014203
   2 C :    0.231718    0.095831
   3 C :    0.231149    0.014735
   4 C :    0.248469    0.069397
   5 C :   -0.158359    0.063918
   6 N :    0.628003    0.241974
   7 C :   -0.158426    0.063912
   8 C :    0.248535    0.069349
   9 C :    0.231081    0.014729
  10 C :    0.231710    0.095784
  11 C :    0.226033    0.014200
  12 C :    0.262402    0.068004
  13 H :   -0.136952    0.013529
  14 H :   -0.152409   -0.006728
  15 H :   -0.150558    0.024110
  16 H :   -0.151207   -0.006353
  17 H :   -0.160197    0.014487
  18 H :   -0.208084    0.027794
  19 H :   -0.160328    0.014503
  20 H :   -0.151188   -0.006356
  21 H :   -0.150567    0.024123
  22 H :   -0.152407   -0.006733
  23 H :   -0.136959    0.013537

  Mayer bond orders larger than 0.100000
B(  0-C ,  1-C ) :   1.4090 B(  0-C ,  2-C ) :   0.1157 B(  0-C ,  5-C ) :   0.5735
B(  0-C , 23-H ) :   0.3082 B(  1-C ,  2-C ) :   1.2439 B(  1-C ,  5-C ) :  -0.2681
B(  1-C , 22-H ) :   0.5886 B(  2-C ,  3-C ) :   1.3958 B(  2-C ,  4-C ) :   0.1855
B(  2-C , 21-H ) :   0.3330 B(  3-C ,  4-C ) :   1.4928 B(  3-C ,  5-C ) :  -0.3322
B(  3-C , 20-H ) :   0.6034 B(  4-C ,  5-C ) :   0.6850 B(  4-C ,  6-N ) :  -0.1369
B(  4-C ,  7-C ) :   0.1217 B(  4-C , 17-H ) :  -0.1265 B(  4-C , 19-H ) :   0.1109
B(  5-C ,  6-N ) :   0.8329 B(  5-C ,  8-C ) :   0.1093 B(  5-C , 17-H ) :  -0.1031
B(  6-N ,  7-C ) :   0.8225 B(  6-N ,  8-C ) :  -0.1499 B(  6-N , 18-H ) :   1.3258
B(  7-C ,  8-C ) :   0.6845 B(  7-C ,  9-C ) :  -0.3274 B(  7-C , 11-C ) :  -0.2776
B(  7-C , 12-C ) :   0.5707 B(  8-C ,  9-C ) :   1.4777 B(  8-C , 10-C ) :   0.1846
B(  8-C , 17-H ) :   0.1172 B(  8-C , 19-H ) :  -0.1251 B(  9-C , 10-C ) :   1.4120
B(  9-C , 16-H ) :   0.6028 B( 10-C , 11-C ) :   1.2315 B( 10-C , 12-C ) :   0.1281
B( 10-C , 15-H ) :   0.3406 B( 11-C , 12-C ) :   1.4581 B( 11-C , 14-H ) :   0.5768
B( 12-C , 13-H ) :   0.2986

Dispersion correction           -0.024981922
FINAL SINGLE POINT ENERGY      -518.064559931648

DIPOLE MOMENT
-------------

Method             : SCF
Type of density    : Electron Density
Multiplicity       :   2
Irrep              :   0
Energy             :  -518.0395780092163704 Eh
Relativity type    :
Basis              : AO
                                X                 Y                 Z
Electronic contribution:     -0.000994870      -1.461754881       0.003451225
Nuclear contribution   :      0.000010787       0.666083860       0.000129839
                        -----------------------------------------
Total Dipole Moment    :     -0.000984083      -0.795671021       0.003581064
                        -----------------------------------------
Magnitude (a.u.)       :      0.795679688
Magnitude (Debye)      :      2.022457041

Rotational constants in cm-1:             0.083302             0.013962             0.012406
Rotational constants in MHz :          2497.339782           418.559791           371.935015

                             ****ORCA TERMINATED NORMALLY****
TOTAL RUN TIME: 0 days 0 hours 13 minutes 4 seconds 786 msec
