                         Program Version 6.0.0  -   RELEASE  -
|  1> !TPSSh aug-cc-pVTZ d3 TightSCF SlowConv RIJCOSX defgrid2
|  2>
|  3> %pal
|  4> nprocs 4
|  5> end
|  6>
|  7> %scf
|  8> MaxIter 1500
|  9> end
| 10>
| 11> %maxcore 3000
| 12>
| 13> !CPCM
| 14> %cpcm smd true
| 15> SMDsolvent "MeCN"
| 16> surfacetype gepol_ses
| 17> rsolv 2.19
| 18> end
| 19>
| 20> * xyz 0 1
| 21> C           0.94968287453071     -1.27993729727395      0.00000683726847
| 22> C           2.32072584922403     -1.03066468402730     -0.00000570192654
| 23> C           2.79045486785265      0.28126328538775     -0.00000619644263
| 24> C           1.88129493900205      1.34320110702256      0.00000552102250
| 25> C           0.51414900986878      1.09690334373603      0.00001977591165
| 26> C           0.03124775758730     -0.22186358373352      0.00001975571628
| 27> C          -1.40109719375212     -0.51811607942485      0.00002773818787
| 28> N          -2.27722630544222      0.40983670208196      0.00003187543002
| 29> O          -3.54943597920683     -0.07892856387383      0.00003589961153
| 30> H          -4.10699565150034      0.71269395667835      0.00004041054052
| 31> H          -1.72077053189788     -1.57247842719527      0.00002621709873
| 32> H          -0.20517984986564      1.91961492482438      0.00002936627338
| 33> H           2.24665800678188      2.37456842670514      0.00000344087776
| 34> H           3.86637191838654      0.47947397298735     -0.00001641660649
| 35> H           3.02594458116043     -1.86704493909579     -0.00001599324974
| 36> H           0.58187010727067     -2.31112044479903      0.00000487028669
| 37> *
| 38>
| 39>                          ****END OF INPUT****

CARTESIAN COORDINATES (ANGSTROEM)
---------------------------------
  C      0.949683   -1.279937    0.000007
  C      2.320726   -1.030665   -0.000006
  C      2.790455    0.281263   -0.000006
  C      1.881295    1.343201    0.000006
  C      0.514149    1.096903    0.000020
  C      0.031248   -0.221864    0.000020
  C     -1.401097   -0.518116    0.000028
  N     -2.277226    0.409837    0.000032
  O     -3.549436   -0.078929    0.000036
  H     -4.106996    0.712694    0.000040
  H     -1.720771   -1.572478    0.000026
  H     -0.205180    1.919615    0.000029
  H      2.246658    2.374568    0.000003
  H      3.866372    0.479474   -0.000016
  H      3.025945   -1.867045   -0.000016
  H      0.581870   -2.311120    0.000005

 Total Charge           Charge          ....    0
 Multiplicity           Mult            ....    1
 Number of Electrons    NEL             ....   64
 Basis Dimension        Dim             ....  575

ORBITAL ENERGIES
----------------

  NO   OCC          E(Eh)            E(eV)
   0   2.0000     -19.104061      -519.8479
   1   2.0000     -14.303972      -389.2309
   2   2.0000     -10.149618      -276.1852
   3   2.0000     -10.133390      -275.7436
   4   2.0000     -10.122476      -275.4466
   5   2.0000     -10.120689      -275.3979
   6   2.0000     -10.120432      -275.3910
   7   2.0000     -10.120025      -275.3799
   8   2.0000     -10.119818      -275.3743
   9   2.0000      -1.080927       -29.4135
  10   2.0000      -0.861540       -23.4437
  11   2.0000      -0.828300       -22.5392
  12   2.0000      -0.736660       -20.0455
  13   2.0000      -0.729296       -19.8451
  14   2.0000      -0.621609       -16.9148
  15   2.0000      -0.591658       -16.0998
  16   2.0000      -0.551515       -15.0075
  17   2.0000      -0.516560       -14.0563
  18   2.0000      -0.495611       -13.4863
  19   2.0000      -0.454672       -12.3722
  20   2.0000      -0.437715       -11.9108
  21   2.0000      -0.418034       -11.3753
  22   2.0000      -0.413032       -11.2392
  23   2.0000      -0.402847       -10.9620
  24   2.0000      -0.394488       -10.7346
  25   2.0000      -0.364412        -9.9162
  26   2.0000      -0.333806        -9.0833
  27   2.0000      -0.326188        -8.8760
  28   2.0000      -0.287475        -7.8226
  29   2.0000      -0.269161        -7.3242
  30   2.0000      -0.250930        -6.8282
  31   2.0000      -0.222066        -6.0427
  32   0.0000      -0.063802        -1.7362
  33   0.0000      -0.027599        -0.7510
  34   0.0000      -0.003147        -0.0856
  35   0.0000       0.003587         0.0976
  36   0.0000       0.012362         0.3364

MULLIKEN ATOMIC CHARGES
-----------------------
   0 C :   -0.791719
   1 C :   -0.392228
   2 C :   -0.143621
   3 C :   -0.521779
   4 C :   -0.582833
   5 C :    1.410226
   6 C :    0.404320
   7 N :   -0.617988
   8 O :   -0.289175
   9 H :    0.160909
  10 H :    0.281449
  11 H :   -0.021247
  12 H :    0.423008
  13 H :    0.344142
  14 H :    0.455116
  15 H :   -0.118580
Sum of atomic charges:    0.0000000

LOEWDIN ATOMIC CHARGES
----------------------
   0 C :    0.194677
   1 C :    0.192158
   2 C :    0.188310
   3 C :    0.191661
   4 C :    0.188087
   5 C :   -0.180036
   6 C :   -0.021033
   7 N :    0.114739
   8 O :    0.670039
   9 H :   -0.500334
  10 H :   -0.174916
  11 H :   -0.186578
  12 H :   -0.170214
  13 H :   -0.170747
  14 H :   -0.169748
  15 H :   -0.166065

  Mayer bond orders larger than 0.100000
B(  0-C ,  1-C ) :   1.3555 B(  0-C ,  4-C ) :  -0.2624 B(  0-C ,  5-C ) :   0.4044
B(  0-C , 14-H ) :  -0.1504 B(  0-C , 15-H ) :   1.5682 B(  1-C ,  2-C ) :   1.3953
B(  1-C , 14-H ) :   0.5548 B(  1-C , 15-H ) :  -0.1004 B(  2-C ,  3-C ) :   1.3017
B(  2-C ,  5-C ) :  -0.1195 B(  2-C ,  6-C ) :   0.1330 B(  2-C , 12-H ) :   0.1039
B(  2-C , 13-H ) :   0.6722 B(  3-C ,  4-C ) :   1.3478 B(  3-C , 12-H ) :   0.5969
B(  4-C ,  5-C ) :   0.6525 B(  4-C ,  6-C ) :   0.2235 B(  4-C , 11-H ) :   1.2054
B(  5-C ,  6-C ) :   0.2803 B(  5-C , 12-H ) :   0.1311 B(  5-C , 14-H ) :   0.1534
B(  5-C , 15-H ) :  -0.1076 B(  6-C ,  7-N ) :   0.7380 B(  6-C , 10-H ) :   0.7094
B(  6-C , 15-H ) :  -0.1359 B(  7-N ,  8-O ) :   0.5912 B(  8-O ,  9-H ) :   0.9890
B( 11-H , 15-H ) :   0.1313

Dispersion correction           -0.018455226
FINAL SINGLE POINT ENERGY      -401.074004107354

DIPOLE MOMENT
-------------

Method             : SCF
Type of density    : Electron Density
Multiplicity       :   1
Irrep              :   0
Energy             :  -401.0555488812862563 Eh
Relativity type    :
Basis              : AO
                                X                 Y                 Z
Electronic contribution:     -3.113308224       0.163354134       0.000039668
Nuclear contribution   :      3.386800554      -0.260850522      -0.000035535
                        -----------------------------------------
Total Dipole Moment    :      0.273492330      -0.097496388       0.000004133
                        -----------------------------------------
Magnitude (a.u.)       :      0.290350823
Magnitude (Debye)      :      0.738013141

Rotational constants in cm-1:             0.173273             0.029980             0.025558
Rotational constants in MHz :          5194.584681           898.778188           766.207349

                             ****ORCA TERMINATED NORMALLY****
TOTAL RUN TIME: 0 days 0 hours 3 minutes 51 seconds 970 msec
