                         Program Version 6.0.0  -   RELEASE  -
|  1> !TPSSh aug-cc-pVTZ d3 TightSCF SlowConv RIJCOSX defgrid2
|  2>
|  3> %pal
|  4> nprocs 4
|  5> end
|  6>
|  7> %scf
|  8> MaxIter 1500
|  9> end
| 10>
| 11> %maxcore 3000
| 12>
| 13> !CPCM
| 14> %cpcm smd true
| 15> SMDsolvent "MeCN"
| 16> surfacetype gepol_ses
| 17> rsolv 2.19
| 18> end
| 19>
| 20> * xyz 0 1
| 21> C          -1.91227700743169     -0.69599807376451      0.00000859287457
| 22> C          -0.69912772414042     -1.38283601323851     -0.00000932512484
| 23> C           0.52347537335926     -0.70523730282103     -0.00001246655685
| 24> C           1.81729612506468     -1.46787011445991     -0.00005598554550
| 25> H           2.43257350979539     -1.22714923235884      0.88628677084497
| 26> H           1.63908285531001     -2.55536142781918      0.00004381576691
| 27> H           2.43241809059381     -1.22729433644522     -0.88654856025073
| 28> C           0.52347672072489      0.70522172319425      0.00000174792219
| 29> C           1.81729888680216      1.46785238267187     -0.00000613025126
| 30> H           2.43252823855944      1.22714967649232     -0.88638787088621
| 31> H           1.63908599746497      2.55534328050588     -0.00007448538319
| 32> H           2.43246782760812      1.22725777649857      0.88644905711652
| 33> C          -0.69912402686095      1.38282421177654      0.00001495362970
| 34> C          -1.91227492778965      0.69598941815697      0.00001994929433
| 35> H          -2.85546951493968      1.25047213510866      0.00003288713645
| 36> H          -0.69794916863420      2.47800578637616      0.00002276384868
| 37> H          -0.69795562041832     -2.47801791250149     -0.00001864212487
| 38> H          -2.85547323506782     -1.25047877737254      0.00001362768912
| 39> *
| 40>
| 41>                          ****END OF INPUT****

CARTESIAN COORDINATES (ANGSTROEM)
---------------------------------
  C     -1.912277   -0.695998    0.000009
  C     -0.699128   -1.382836   -0.000009
  C      0.523475   -0.705237   -0.000012
  C      1.817296   -1.467870   -0.000056
  H      2.432574   -1.227149    0.886287
  H      1.639083   -2.555361    0.000044
  H      2.432418   -1.227294   -0.886549
  C      0.523477    0.705222    0.000002
  C      1.817299    1.467852   -0.000006
  H      2.432528    1.227150   -0.886388
  H      1.639086    2.555343   -0.000074
  H      2.432468    1.227258    0.886449
  C     -0.699124    1.382824    0.000015
  C     -1.912275    0.695989    0.000020
  H     -2.855470    1.250472    0.000033
  H     -0.697949    2.478006    0.000023
  H     -0.697956   -2.478018   -0.000019
  H     -2.855473   -1.250479    0.000014

 Total Charge           Charge          ....    0
 Multiplicity           Mult            ....    1
 Number of Electrons    NEL             ....   58
 Basis Dimension        Dim             ....  598

ORBITAL ENERGIES
----------------

  NO   OCC          E(Eh)            E(eV)
   0   2.0000     -10.119531      -275.3664
   1   2.0000     -10.119096      -275.3546
   2   2.0000     -10.110986      -275.1339
   3   2.0000     -10.110542      -275.1218
   4   2.0000     -10.109985      -275.1067
   5   2.0000     -10.109944      -275.1056
   6   2.0000     -10.105614      -274.9877
   7   2.0000     -10.105604      -274.9875
   8   2.0000      -0.836535       -22.7633
   9   2.0000      -0.753621       -20.5071
  10   2.0000      -0.738480       -20.0951
  11   2.0000      -0.672085       -18.2883
  12   2.0000      -0.647673       -17.6241
  13   2.0000      -0.572489       -15.5782
  14   2.0000      -0.549638       -14.9564
  15   2.0000      -0.476713       -12.9720
  16   2.0000      -0.447177       -12.1683
  17   2.0000      -0.423848       -11.5335
  18   2.0000      -0.411920       -11.2089
  19   2.0000      -0.389098       -10.5879
  20   2.0000      -0.380157       -10.3446
  21   2.0000      -0.374584       -10.1929
  22   2.0000      -0.360872        -9.8198
  23   2.0000      -0.359471        -9.7817
  24   2.0000      -0.336150        -9.1471
  25   2.0000      -0.312464        -8.5026
  26   2.0000      -0.312308        -8.4983
  27   2.0000      -0.238243        -6.4829
  28   2.0000      -0.228444        -6.2163
  29   0.0000      -0.019450        -0.5293
  30   0.0000      -0.018949        -0.5156
  31   0.0000      -0.003261        -0.0887
  32   0.0000       0.008047         0.2190
  33   0.0000       0.012349         0.3360

MULLIKEN ATOMIC CHARGES
-----------------------
   0 C :   -0.172823
   1 C :   -0.782332
   2 C :    0.549208
   3 C :   -0.226659
   4 H :    0.152827
   5 H :   -0.101481
   6 H :    0.153296
   7 C :    0.550170
   8 C :   -0.227648
   9 H :    0.152968
  10 H :   -0.100810
  11 H :    0.152511
  12 C :   -0.783517
  13 C :   -0.171154
  14 H :    0.480793
  15 H :   -0.053577
  16 H :   -0.053709
  17 H :    0.481939
Sum of atomic charges:    0.0000000

LOEWDIN ATOMIC CHARGES
----------------------
   0 C :    0.178728
   1 C :    0.199080
   2 C :   -0.120647
   3 C :    0.568495
   4 H :   -0.155453
   5 H :   -0.167402
   6 H :   -0.155406
   7 C :   -0.120648
   8 C :    0.568494
   9 H :   -0.155412
  10 H :   -0.167402
  11 H :   -0.155447
  12 C :    0.199079
  13 C :    0.178729
  14 H :   -0.175672
  15 H :   -0.171723
  16 H :   -0.171723
  17 H :   -0.175671

  Mayer bond orders larger than 0.100000
B(  0-C ,  1-C ) :   1.1900 B(  0-C ,  2-C ) :   0.1054 B(  0-C , 13-C ) :   1.1989
B(  0-C , 14-H ) :   0.1109 B(  0-C , 17-H ) :   0.4939 B(  1-C ,  2-C ) :   0.7921
B(  1-C , 12-C ) :   0.1413 B(  1-C , 16-H ) :   1.3132 B(  2-C ,  3-C ) :   0.5380
B(  2-C ,  7-C ) :   1.2702 B(  2-C ,  8-C ) :   0.1613 B(  3-C ,  4-H ) :   0.9784
B(  3-C ,  5-H ) :   1.0461 B(  3-C ,  6-H ) :   0.9776 B(  3-C ,  7-C ) :   0.1597
B(  7-C ,  8-C ) :   0.5382 B(  7-C , 12-C ) :   0.7895 B(  7-C , 13-C ) :   0.1062
B(  8-C ,  9-H ) :   0.9777 B(  8-C , 10-H ) :   1.0460 B(  8-C , 11-H ) :   0.9790
B( 12-C , 13-C ) :   1.1891 B( 12-C , 15-H ) :   1.3140 B( 13-C , 14-H ) :   0.4952
B( 13-C , 17-H ) :   0.1106

Dispersion correction           -0.020731200
FINAL SINGLE POINT ENERGY      -311.043195216406

DIPOLE MOMENT
-------------

Method             : SCF
Type of density    : Electron Density
Multiplicity       :   1
Irrep              :   0
Energy             :  -311.0224640160665217 Eh
Relativity type    :
Basis              : AO
                                X                 Y                 Z
Electronic contribution:     -5.187237684       0.000007993      -0.000500352
Nuclear contribution   :      5.585292942      -0.000004943      -0.000112342
                        -----------------------------------------
Total Dipole Moment    :      0.398055258       0.000003051      -0.000612694
                        -----------------------------------------
Magnitude (a.u.)       :      0.398055730
Magnitude (Debye)      :      1.011777258

Rotational constants in cm-1:             0.105881             0.071625             0.043421
Rotational constants in MHz :          3174.222662          2147.253088          1301.724728

                             ****ORCA TERMINATED NORMALLY****
TOTAL RUN TIME: 0 days 0 hours 5 minutes 19 seconds 573 msec
