                         Program Version 6.0.0  -   RELEASE  -
|  1> !TPSSh aug-cc-pVTZ d3 TightSCF SlowConv RIJCOSX defgrid2
|  2>
|  3> %pal
|  4> nprocs 4
|  5> end
|  6>
|  7> %scf
|  8> MaxIter 1500
|  9> end
| 10>
| 11> %maxcore 3000
| 12>
| 13> !CPCM
| 14> %cpcm smd true
| 15> SMDsolvent "MeCN"
| 16> surfacetype gepol_ses
| 17> rsolv 2.19
| 18> end
| 19>
| 20> * xyz 0 1
| 21> C          -1.26495799748714      1.18303865458515      0.05080403605519
| 22> C          -2.60642333061191      1.31935448376271     -0.29959738324645
| 23> C          -3.44041280440145      0.20926539307814     -0.40161517964085
| 24> C          -2.90144082973563     -1.04973716221060     -0.13432170008440
| 25> C          -1.56825148928729     -1.19660014660261      0.22866378768858
| 26> C          -0.70934318580896     -0.08154664486827      0.33051202673951
| 27> N           0.61300953805947     -0.24105226876837      0.73119077146847
| 28> C           1.39986976374892     -1.37999096255953      0.29877427512661
| 29> H           2.04607670863121     -1.70992958583228      1.13451664570021
| 30> H           0.75114664396039     -2.22334685848636      0.02620697927589
| 31> C           2.27342120561242     -0.99223084807636     -0.89055156639513
| 32> H           1.61932266943223     -0.77011165873748     -1.76181164136710
| 33> H           2.95180872338646     -1.81692724050040     -1.16544343627529
| 34> O           3.08315300113024      0.11581273484299     -0.59570720798542
| 35> C           2.32868138086657      1.23424748204123     -0.20294123693064
| 36> H           3.04807602292032      2.03579294537700      0.03304751449273
| 37> H           1.68319853015679      1.57652212178956     -1.04065762734244
| 38> C           1.46842283993869      0.89253788749959      1.00660143146740
| 39> H           0.87499689376841      1.75339469243703      1.34646905231102
| 40> H           2.14234577335657      0.61412921846987      1.83973084130833
| 41> H          -1.19667964735529     -2.19528020638703      0.46959053777193
| 42> H          -3.53417239713040     -1.94099462889459     -0.19414702188547
| 43> H          -4.49070441202665      0.32074363292367     -0.68354523209589
| 44> H          -2.99695664778230      2.31986039355180     -0.51119940816597
| 45> H          -0.64456005334168      2.08028887156514      0.08361514200918
| 46> *
| 47>
| 48>                          ****END OF INPUT****

CARTESIAN COORDINATES (ANGSTROEM)
---------------------------------
  C     -1.264958    1.183039    0.050804
  C     -2.606423    1.319354   -0.299597
  C     -3.440413    0.209265   -0.401615
  C     -2.901441   -1.049737   -0.134322
  C     -1.568251   -1.196600    0.228664
  C     -0.709343   -0.081547    0.330512
  N      0.613010   -0.241052    0.731191
  C      1.399870   -1.379991    0.298774
  H      2.046077   -1.709930    1.134517
  H      0.751147   -2.223347    0.026207
  C      2.273421   -0.992231   -0.890552
  H      1.619323   -0.770112   -1.761812
  H      2.951809   -1.816927   -1.165443
  O      3.083153    0.115813   -0.595707
  C      2.328681    1.234247   -0.202941
  H      3.048076    2.035793    0.033048
  H      1.683199    1.576522   -1.040658
  C      1.468423    0.892538    1.006601
  H      0.874997    1.753395    1.346469
  H      2.142346    0.614129    1.839731
  H     -1.196680   -2.195280    0.469591
  H     -3.534172   -1.940995   -0.194147
  H     -4.490704    0.320744   -0.683545
  H     -2.996957    2.319860   -0.511199
  H     -0.644560    2.080289    0.083615

 Total Charge           Charge          ....    0
 Multiplicity           Mult            ....    1
 Number of Electrons    NEL             ....   88
 Basis Dimension        Dim             ....  851

ORBITAL ENERGIES
----------------

  NO   OCC          E(Eh)            E(eV)
   0   2.0000     -19.055765      -518.5337
   1   2.0000     -14.261913      -388.0864
   2   2.0000     -10.154925      -276.3296
   3   2.0000     -10.153376      -276.2874
   4   2.0000     -10.153313      -276.2857
   5   2.0000     -10.138752      -275.8895
   6   2.0000     -10.137877      -275.8657
   7   2.0000     -10.113008      -275.1889
   8   2.0000     -10.112982      -275.1882
   9   2.0000     -10.107816      -275.0477
  10   2.0000     -10.107603      -275.0419
  11   2.0000     -10.103058      -274.9182
  12   2.0000      -1.023642       -27.8547
  13   2.0000      -0.924895       -25.1677
  14   2.0000      -0.823035       -22.3959
  15   2.0000      -0.752225       -20.4691
  16   2.0000      -0.730537       -19.8789
  17   2.0000      -0.720564       -19.6075
  18   2.0000      -0.659491       -17.9457
  19   2.0000      -0.639040       -17.3892
  20   2.0000      -0.589298       -16.0356
  21   2.0000      -0.576727       -15.6935
  22   2.0000      -0.542702       -14.7677
  23   2.0000      -0.510776       -13.8989
  24   2.0000      -0.471157       -12.8208
  25   2.0000      -0.457803       -12.4575
  26   2.0000      -0.454141       -12.3578
  27   2.0000      -0.446986       -12.1631
  28   2.0000      -0.441095       -12.0028
  29   2.0000      -0.418124       -11.3777
  30   2.0000      -0.407846       -11.0980
  31   2.0000      -0.397552       -10.8179
  32   2.0000      -0.386428       -10.5153
  33   2.0000      -0.371053       -10.0969
  34   2.0000      -0.354954        -9.6588
  35   2.0000      -0.345163        -9.3924
  36   2.0000      -0.336063        -9.1447
  37   2.0000      -0.334695        -9.1075
  38   2.0000      -0.312269        -8.4973
  39   2.0000      -0.303199        -8.2505
  40   2.0000      -0.275234        -7.4895
  41   2.0000      -0.244536        -6.6542
  42   2.0000      -0.242816        -6.6074
  43   2.0000      -0.177921        -4.8415
  44   0.0000      -0.022048        -0.6000
  45   0.0000      -0.010179        -0.2770
  46   0.0000      -0.003068        -0.0835
  47   0.0000       0.007510         0.2044
  48   0.0000       0.010367         0.2821

MULLIKEN ATOMIC CHARGES
-----------------------
   0 C :   -0.374996
   1 C :   -0.691281
   2 C :   -0.503521
   3 C :   -0.503013
   4 C :   -0.631325
   5 C :    1.501687
   6 N :   -0.048784
   7 C :   -0.204514
   8 H :    0.062183
   9 H :   -0.000768
  10 C :    0.275399
  11 H :    0.110888
  12 H :   -0.003147
  13 O :   -0.720424
  14 C :    0.328943
  15 H :    0.034724
  16 H :    0.137845
  17 C :   -0.289170
  18 H :   -0.035863
  19 H :   -0.023015
  20 H :    0.254274
  21 H :    0.321275
  22 H :    0.445676
  23 H :    0.334730
  24 H :    0.222197
Sum of atomic charges:   -0.0000000

LOEWDIN ATOMIC CHARGES
----------------------
   0 C :    0.208605
   1 C :    0.171652
   2 C :    0.165023
   3 C :    0.170401
   4 C :    0.209440
   5 C :   -0.217720
   6 N :    0.276474
   7 C :    0.191742
   8 H :   -0.119927
   9 H :   -0.161260
  10 C :    0.035160
  11 H :   -0.133721
  12 H :   -0.141901
  13 O :    0.596321
  14 C :    0.032744
  15 H :   -0.140766
  16 H :   -0.137556
  17 C :    0.180297
  18 H :   -0.151848
  19 H :   -0.123067
  20 H :   -0.185276
  21 H :   -0.173204
  22 H :   -0.184149
  23 H :   -0.172898
  24 H :   -0.194568

  Mayer bond orders larger than 0.100000
B(  0-C ,  1-C ) :   1.2983 B(  0-C ,  2-C ) :   0.3045 B(  0-C ,  4-C ) :   0.1058
B(  0-C ,  5-C ) :   0.5661 B(  0-C ,  6-N ) :  -0.3118 B(  0-C , 23-H ) :   0.1394
B(  0-C , 24-H ) :   0.6884 B(  1-C ,  2-C ) :   1.4687 B(  1-C ,  5-C ) :  -0.3437
B(  1-C , 23-H ) :   0.6968 B(  2-C ,  3-C ) :   1.4091 B(  2-C ,  4-C ) :   0.2564
B(  2-C ,  5-C ) :  -0.1584 B(  2-C , 22-H ) :   0.4045 B(  3-C ,  4-C ) :   1.4059
B(  3-C ,  5-C ) :  -0.3143 B(  3-C , 21-H ) :   0.7460 B(  4-C ,  5-C ) :   0.4948
B(  4-C , 20-H ) :   0.6275 B(  4-C , 21-H ) :   0.1057 B(  5-C ,  6-N ) :   0.2721
B(  5-C ,  7-C ) :  -0.1305 B(  6-N ,  7-C ) :   1.1325 B(  6-N , 17-C ) :   1.0783
B(  7-C ,  8-H ) :   0.9566 B(  7-C ,  9-H ) :   0.9609 B(  7-C , 10-C ) :   1.0677
B(  7-C , 13-O ) :   0.1145 B(  7-C , 17-C ) :   0.1972 B( 10-C , 11-H ) :   0.9275
B( 10-C , 12-H ) :   1.0214 B( 10-C , 13-O ) :   0.8025 B( 10-C , 14-C ) :   0.1157
B( 13-O , 14-C ) :   0.7565 B( 13-O , 17-C ) :   0.1170 B( 14-C , 15-H ) :   1.0231
B( 14-C , 16-H ) :   0.9347 B( 14-C , 17-C ) :   1.0120 B( 17-C , 18-H ) :   1.0084
B( 17-C , 19-H ) :   0.9512

Dispersion correction           -0.032918523
FINAL SINGLE POINT ENERGY      -519.106136153392

DIPOLE MOMENT
-------------

Method             : SCF
Type of density    : Electron Density
Multiplicity       :   1
Irrep              :   0
Energy             :  -519.0732176304240966 Eh
Relativity type    :
Basis              : AO
                                X                 Y                 Z
Electronic contribution:     -1.837126108      -0.101733409       0.513926128
Nuclear contribution   :      2.172114398       0.028135231      -0.411191187
                        -----------------------------------------
Total Dipole Moment    :      0.334988291      -0.073598178       0.102734941
                        -----------------------------------------
Magnitude (a.u.)       :      0.358033958
Magnitude (Debye)      :      0.910049998

Rotational constants in cm-1:             0.074060             0.019927             0.017479
Rotational constants in MHz :          2220.259535           597.392551           524.016525

                             ****ORCA TERMINATED NORMALLY****
TOTAL RUN TIME: 0 days 0 hours 8 minutes 29 seconds 156 msec
