                         Program Version 6.0.0  -   RELEASE  -
|  1> !B3LYP opt aug-cc-pVTZ d3 TightSCF SlowConv RIJCOSX defgrid2
|  2>
|  3> %pal
|  4> nprocs 8
|  5> end
|  6>
|  7> %scf
|  8> MaxIter 1500
|  9> end
| 10>
| 11> %maxcore 3500
| 12>
| 13> !CPCM
| 14> %cpcm smd true
| 15> SMDsolvent "MeCN"
| 16> surfacetype gepol_ses
| 17> rsolv 2.19
| 18> end
| 19>
| 20> * xyz 0 1
| 21> C          -1.20884186796781     -0.02278058914418      0.00003742233159
| 22> C          -1.20709913160620      1.38045218788773      0.00016703364523
| 23> C           0.00003556987027      2.07238258705511      0.00002257197541
| 24> C           1.20714414585697      1.38040506278913     -0.00023783478174
| 25> C           1.20883517896309     -0.02282737272555     -0.00031075934043
| 26> C          -0.00001674938231     -0.72722788932514     -0.00021243594479
| 27> H          -0.00003875372447     -1.81890955720448     -0.00030359455707
| 28> C           2.45039282749013     -0.73822162648839     -0.00031862016213
| 29> N           3.45665781045797     -1.31294485312421      0.00119491286029
| 30> H           2.15765649045058      1.91893621365633     -0.00034701835738
| 31> H           0.00005970442079      3.16546819660540      0.00011390445176
| 32> H          -2.15759482922730      1.91901494079977      0.00036663554396
| 33> C          -2.45042247590246     -0.73813543850926      0.00010406543100
| 34> N          -3.45670371969924     -1.31283236227226     -0.00021618309569
| 35> *
| 36>
| 37>                          ****END OF INPUT****
 Total Charge           Charge          ....    0
 Multiplicity           Mult            ....    1
 Number of Electrons    NEL             ....   66
Dispersion correction           -0.028031593
FINAL SINGLE POINT ENERGY      -416.681382376281
Dispersion correction             ... done (  0.0 sec)
Dispersion correction           -0.028153006
FINAL SINGLE POINT ENERGY      -416.682218086810
Dispersion correction             ... done (  0.1 sec)
Dispersion correction           -0.028170798
FINAL SINGLE POINT ENERGY      -416.682229543225
Dispersion correction             ... done (  0.0 sec)
Dispersion correction           -0.028174011
FINAL SINGLE POINT ENERGY      -416.682232252849
Dispersion correction             ... done (  0.1 sec)
                    ***********************HURRAY********************

CARTESIAN COORDINATES (ANGSTROEM)
---------------------------------
  C     -1.198757   -0.020685    0.000148
  C     -1.202322    1.378107    0.000417
  C      0.000032    2.067879    0.000025
  C      1.202359    1.378063   -0.000469
  C      1.198757   -0.020727   -0.000327
  C     -0.000013   -0.730265   -0.000150
  H     -0.000030   -1.809254   -0.000241
  C      2.435537   -0.732667   -0.000172
  N      3.436017   -1.303824    0.001265
  H      2.140746    1.912288   -0.000627
  H      0.000057    3.147772    0.000092
  H     -2.140689    1.912364    0.000619
  C     -2.435563   -0.732578   -0.000035
  N     -3.436066   -1.303695   -0.000486

 Multiplicity           Mult            ....    1
 Number of Electrons    NEL             ....   66
 Basis Dimension        Dim             ....  552

ORBITAL ENERGIES
----------------

  NO   OCC          E(Eh)            E(eV)
   0   2.0000     -14.330987      -389.9660
   1   2.0000     -14.330984      -389.9659
   2   2.0000     -10.234637      -278.4986
   3   2.0000     -10.234616      -278.4981
   4   2.0000     -10.231173      -278.4044
   5   2.0000     -10.231164      -278.4041
   6   2.0000     -10.218032      -278.0468
   7   2.0000     -10.210373      -277.8384
   8   2.0000     -10.210342      -277.8375
   9   2.0000     -10.198488      -277.5150
  10   2.0000      -0.932662       -25.3790
  11   2.0000      -0.928227       -25.2583
  12   2.0000      -0.894651       -24.3447
  13   2.0000      -0.807577       -21.9753
  14   2.0000      -0.789129       -21.4733
  15   2.0000      -0.670466       -18.2443
  16   2.0000      -0.666063       -18.1245
  17   2.0000      -0.598162       -16.2768
  18   2.0000      -0.513725       -13.9792
  19   2.0000      -0.508378       -13.8337
  20   2.0000      -0.497023       -13.5247
  21   2.0000      -0.454787       -12.3754
  22   2.0000      -0.429645       -11.6912
  23   2.0000      -0.402358       -10.9487
  24   2.0000      -0.397888       -10.8271
  25   2.0000      -0.391922       -10.6648
  26   2.0000      -0.386815       -10.5258
  27   2.0000      -0.383110       -10.4250
  28   2.0000      -0.355428        -9.6717
  29   2.0000      -0.354966        -9.6591
  30   2.0000      -0.354413        -9.6441
  31   2.0000      -0.284483        -7.7412
  32   2.0000      -0.280328        -7.6281
  33   0.0000      -0.073788        -2.0079
  34   0.0000      -0.058316        -1.5869
  35   0.0000      -0.006216        -0.1691
  36   0.0000       0.006674         0.1816
  37   0.0000       0.011264         0.3065

MULLIKEN ATOMIC CHARGES
-----------------------
   0 C :    1.425054
   1 C :   -0.772763
   2 C :   -0.500145
   3 C :   -0.773500
   4 C :    1.426380
   5 C :   -0.937183
   6 H :    0.020936
   7 C :    0.432639
   8 N :   -0.804235
   9 H :    0.121199
  10 H :    0.611646
  11 H :    0.121652
  12 C :    0.432326
  13 N :   -0.804007
Sum of atomic charges:    0.0000000

LOEWDIN ATOMIC CHARGES
----------------------
   0 C :   -0.180345
   1 C :    0.235206
   2 C :    0.246247
   3 C :    0.235198
   4 C :   -0.180342
   5 C :    0.224131
   6 H :   -0.147186
   7 C :   -0.237135
   8 N :    0.252167
   9 H :   -0.151983
  10 H :   -0.159005
  11 H :   -0.151983
  12 C :   -0.237140
  13 N :    0.252170

  Mayer bond orders larger than 0.100000
B(  0-C ,  1-C ) :   0.2839 B(  0-C ,  2-C ) :   0.1099 B(  0-C ,  4-C ) :   0.2594
B(  0-C ,  5-C ) :   0.4445 B(  0-C ,  6-H ) :  -0.1820 B(  0-C , 11-H ) :  -0.1842
B(  0-C , 12-C ) :   0.5877 B(  1-C ,  2-C ) :   1.1880 B(  1-C ,  3-C ) :  -0.1987
B(  1-C ,  5-C ) :  -0.2001 B(  1-C , 11-H ) :   1.2681 B(  1-C , 12-C ) :   0.3472
B(  1-C , 13-N ) :   0.1070 B(  2-C ,  3-C ) :   1.1895 B(  2-C ,  4-C ) :   0.1105
B(  2-C , 10-H ) :   0.4570 B(  3-C ,  4-C ) :   0.2816 B(  3-C ,  5-C ) :  -0.1998
B(  3-C ,  7-C ) :   0.3489 B(  3-C ,  8-N ) :   0.1067 B(  3-C ,  9-H ) :   1.2691
B(  4-C ,  5-C ) :   0.4459 B(  4-C ,  6-H ) :  -0.1816 B(  4-C ,  7-C ) :   0.5864
B(  4-C ,  9-H ) :  -0.1851 B(  5-C ,  6-H ) :   1.3564 B(  5-C ,  7-C ) :   0.1266
B(  5-C , 12-C ) :   0.1274 B(  7-C ,  8-N ) :   1.7123 B(  7-C , 12-C ) :   0.2043
B( 12-C , 13-N ) :   1.7129

Dispersion correction           -0.028172869
FINAL SINGLE POINT ENERGY      -416.682233753349

DIPOLE MOMENT
-------------

Method             : SCF
Type of density    : Electron Density
Multiplicity       :   1
Irrep              :   0
Energy             :  -416.6540608846485725 Eh
Relativity type    :
Basis              : AO
                                X                 Y                 Z
Electronic contribution:     -0.000040214      -2.429290063      -0.000525347
Nuclear contribution   :      0.000084758       4.836804488      -0.000261492
                        -----------------------------------------
Total Dipole Moment    :      0.000044544       2.407514425      -0.000786838
                        -----------------------------------------
Magnitude (a.u.)       :      2.407514554
Magnitude (Debye)      :      6.119415678

Rotational constants in cm-1:             0.091336             0.030554             0.022895
Rotational constants in MHz :          2738.183186           915.997732           686.383577

                             ****ORCA TERMINATED NORMALLY****
TOTAL RUN TIME: 0 days 0 hours 15 minutes 46 seconds 504 msec
