                         Program Version 6.0.0  -   RELEASE  -
|  1> !PBE0 def2-SV(p) Opt Freq d3 TightSCF SlowConv RIJCOSX defgrid2
|  2>
|  3> %pal
|  4> nprocs 4
|  5> end
|  6>
|  7> %scf
|  8> MaxIter 1500
|  9> end
| 10>
| 11> %maxcore 3000
| 12>
| 13>
| 14>
| 15> * xyz 1 2
| 16> C     0.3748005    1.1135174   -0.0000017
| 17> C     1.2162412   -0.0278933   -0.0000154
| 18> C     0.3239960   -1.1401165   -0.0000189
| 19> N    -0.8826486   -0.6736706    0.0000182
| 20> N    -0.8708901    0.6648723   -0.0000142
| 21> H    -1.7447624    1.1921389   -0.0000205
| 22> H     0.5552613   -2.1889520    0.0000058
| 23> H     2.2908055   -0.0698276    0.0000366
| 24> H     0.6409232    2.1564939   -0.0000032
| 25> *
| 26>
| 27>                          ****END OF INPUT****
 Total Charge           Charge          ....    1
 Multiplicity           Mult            ....    2
 Number of Electrons    NEL             ....   35
Dispersion correction           -0.005613875
FINAL SINGLE POINT ENERGY      -225.427651455714
Dispersion correction             ... done (  0.0 sec)
Dispersion correction           -0.005623697
FINAL SINGLE POINT ENERGY      -225.432276824897
Dispersion correction             ... done (  0.0 sec)
Dispersion correction           -0.005627794
FINAL SINGLE POINT ENERGY      -225.433327701599
Dispersion correction             ... done (  0.0 sec)
FINAL SINGLE POINT ENERGY      -225.433394373115
Dispersion correction             ... done (  0.0 sec)
Dispersion correction           -0.005628811
FINAL SINGLE POINT ENERGY      -225.433412897881
Dispersion correction             ... done (  0.0 sec)
Dispersion correction           -0.005628725
FINAL SINGLE POINT ENERGY      -225.433418080857
Dispersion correction             ... done (  0.0 sec)
                    ***********************HURRAY********************

CARTESIAN COORDINATES (ANGSTROEM)
---------------------------------
  C      0.368277    1.129100    0.000012
  C      1.230212   -0.051475   -0.000011
  C      0.323355   -1.136035    0.000013
  N     -0.920441   -0.709933   -0.000016
  N     -0.851032    0.669758   -0.000018
  H     -1.727513    1.196556   -0.000031
  H      0.538892   -2.206265    0.000024
  H      2.322750   -0.058685   -0.000005
  H      0.619227    2.193541    0.000019

 Multiplicity           Mult            ....    2
 Number of Electrons    NEL             ....   35
 Basis Dimension        Dim             ....   78

ORBITAL ENERGIES
----------------
                 SPIN UP ORBITALS
  NO   OCC          E(Eh)            E(eV)
   0   1.0000     -14.731208      -400.8565
   1   1.0000     -14.682504      -399.5313
   2   1.0000     -10.567464      -287.5553
   3   1.0000     -10.530429      -286.5475
   4   1.0000     -10.496139      -285.6145
   5   1.0000      -1.343115       -36.5480
   6   1.0000      -1.116267       -30.3752
   7   1.0000      -1.065596       -28.9963
   8   1.0000      -0.892267       -24.2798
   9   1.0000      -0.868882       -23.6435
  10   1.0000      -0.825020       -22.4499
  11   1.0000      -0.734101       -19.9759
  12   1.0000      -0.714271       -19.4363
  13   1.0000      -0.707108       -19.2414
  14   1.0000      -0.668797       -18.1989
  15   1.0000      -0.556747       -15.1499
  16   1.0000      -0.553829       -15.0705
  17   1.0000      -0.548119       -14.9151
  18   0.0000      -0.256781        -6.9874
  19   0.0000      -0.193522        -5.2660
  20   0.0000      -0.131127        -3.5682
  21   0.0000      -0.093004        -2.5308
  22   0.0000      -0.071140        -1.9358

                 SPIN DOWN ORBITALS
  NO   OCC          E(Eh)            E(eV)
   0   1.0000     -14.731199      -400.8563
   1   1.0000     -14.674384      -399.3103
   2   1.0000     -10.563135      -287.4375
   3   1.0000     -10.520863      -286.2872
   4   1.0000     -10.499476      -285.7053
   5   1.0000      -1.333273       -36.2802
   6   1.0000      -1.109520       -30.1916
   7   1.0000      -1.042874       -28.3780
   8   1.0000      -0.881097       -23.9759
   9   1.0000      -0.867196       -23.5976
  10   1.0000      -0.817253       -22.2386
  11   1.0000      -0.709636       -19.3102
  12   1.0000      -0.702751       -19.1228
  13   1.0000      -0.702517       -19.1165
  14   1.0000      -0.665433       -18.1074
  15   1.0000      -0.546589       -14.8734
  16   1.0000      -0.537707       -14.6318
  17   0.0000      -0.414246       -11.2722
  18   0.0000      -0.213756        -5.8166
  19   0.0000      -0.162079        -4.4104
  20   0.0000      -0.130252        -3.5443
  21   0.0000      -0.088734        -2.4146

MULLIKEN ATOMIC CHARGES AND SPIN POPULATIONS
--------------------------------------------
   0 C :    0.168474    0.276467
   1 C :   -0.098794    0.630603
   2 C :    0.030167   -0.227365
   3 N :    0.010868    0.371883
   4 N :   -0.162693   -0.014055
   5 H :    0.352089   -0.002206
   6 H :    0.222906    0.007111
   7 H :    0.237573   -0.028843
   8 H :    0.239411   -0.013596
Sum of atomic charges         :    1.0000000

LOEWDIN ATOMIC CHARGES AND SPIN POPULATIONS
-------------------------------------------
   0 C :    0.073395    0.261961
   1 C :    0.022819    0.541544
   2 C :   -0.077138   -0.141259
   3 N :    0.060743    0.341945
   4 N :    0.038621    0.017969
   5 H :    0.301969   -0.001408
   6 H :    0.185685    0.003547
   7 H :    0.196082   -0.016163
   8 H :    0.197824   -0.008136

  Mayer bond orders larger than 0.100000
B(  0-C ,  1-C ) :   1.1186 B(  0-C ,  4-N ) :   1.5028 B(  0-C ,  8-H ) :   0.9274
B(  1-C ,  2-C ) :   1.2487 B(  1-C ,  3-N ) :   0.1264 B(  1-C ,  7-H ) :   0.9298
B(  2-C ,  3-N ) :   1.5837 B(  2-C ,  6-H ) :   0.9419 B(  3-N ,  4-N ) :   1.0465
B(  4-N ,  5-H ) :   0.8281

Dispersion correction           -0.005628670
FINAL SINGLE POINT ENERGY      -225.433418898859

DIPOLE MOMENT
-------------

Method             : SCF
Type of density    : Electron Density
Multiplicity       :   2
Irrep              :   0
Energy             :  -225.4277902291500482 Eh
Relativity type    :
Basis              : AO
                                X                 Y                 Z
Electronic contribution:     -0.955326934       0.088175235      -0.000010599
Nuclear contribution   :      1.633121789       1.062560564       0.000022858
                        -----------------------------------------
Total Dipole Moment    :      0.677794854       1.150735800       0.000012259
                        -----------------------------------------
Magnitude (a.u.)       :      1.335514412
Magnitude (Debye)      :      3.394607862

VIBRATIONAL FREQUENCIES
-----------------------

Scaling factor for frequencies =  1.000000000  (already applied!)

     0:       0.00 cm**-1
     1:       0.00 cm**-1
     2:       0.00 cm**-1
     3:       0.00 cm**-1
     4:       0.00 cm**-1
     5:       0.00 cm**-1
     6:     409.38 cm**-1
     7:     513.78 cm**-1
     8:     601.82 cm**-1
     9:     725.20 cm**-1
    10:     791.08 cm**-1
    11:     907.54 cm**-1
    12:     915.87 cm**-1
    13:     950.61 cm**-1
    14:     963.21 cm**-1
    15:    1002.54 cm**-1
    16:    1087.82 cm**-1
    17:    1179.20 cm**-1
    18:    1252.97 cm**-1
    19:    1328.43 cm**-1
    20:    1414.73 cm**-1
    21:    1488.42 cm**-1
    22:    1605.51 cm**-1
    23:    3264.02 cm**-1
    24:    3272.08 cm**-1
    25:    3284.55 cm**-1
    26:    3537.39 cm**-1

IR SPECTRUM
-----------

 Mode   freq       eps      Int      T**2         TX        TY        TZ
       cm**-1   L/(mol*cm) km/mol    a.u.
----------------------------------------------------------------------------
  6:    409.38   0.000558    2.82  0.000425  (-0.000007 -0.000001 -0.020621)
  7:    513.78   0.000051    0.26  0.000031  (-0.000031 -0.000003 -0.005582)
  8:    601.82   0.019356   97.81  0.010036  (-0.099055  0.014981  0.000010)
  9:    725.20   0.025843  130.60  0.011121  (-0.000002  0.000003 -0.105455)
 10:    791.08   0.001140    5.76  0.000450  ( 0.000028  0.000004  0.021207)
 11:    907.54   0.002313   11.69  0.000795  (-0.025098 -0.012865 -0.000004)
 12:    915.87   0.003666   18.53  0.001249  ( 0.000031  0.000004 -0.035342)
 13:    950.61   0.000113    0.57  0.000037  (-0.000009 -0.000001 -0.006084)
 14:    963.21   0.000761    3.85  0.000247  (-0.015670  0.001024  0.000007)
 15:   1002.54   0.001004    5.07  0.000312  ( 0.016571  0.006154 -0.000001)
 16:   1087.82   0.000558    2.82  0.000160  ( 0.000809  0.012624  0.000001)
 17:   1179.20   0.004327   21.87  0.001145  ( 0.026225 -0.021383 -0.000001)
 18:   1252.97   0.000481    2.43  0.000120  ( 0.001869  0.010785  0.000000)
 19:   1328.43   0.009830   49.68  0.002309  (-0.044144  0.018988  0.000001)
 20:   1414.73   0.004894   24.73  0.001080  (-0.032322 -0.005902 -0.000001)
 21:   1488.42   0.008559   43.25  0.001794  ( 0.024031  0.034885  0.000000)
 22:   1605.51   0.005032   25.43  0.000978  (-0.021566 -0.022647 -0.000000)
 23:   3264.02   0.006168   31.17  0.000590  ( 0.005270 -0.023704  0.000000)
 24:   3272.08   0.008887   44.91  0.000848  (-0.017885 -0.022971 -0.000000)
 25:   3284.55   0.006047   30.56  0.000575  ( 0.017465 -0.016417  0.000000)
 26:   3537.39   0.046118  233.06  0.004068  (-0.055764  0.030965 -0.000001)

--------------------------
THERMOCHEMISTRY AT 298.15K
--------------------------

Temperature         ...   298.15 K
Pressure            ...     1.00 atm
Total Mass          ...    68.08 AMU
Quasi RRHO          ...     True
Cut-Off Frequency   ...     1.00 cm^-1

Throughout the following assumptions are being made:
  (1) The electronic state is orbitally nondegenerate
      but the spin degeneracy is treated
  (2) There are no thermally accessible electronically excited states
  (3) Hindered rotations indicated by low frequency modes are not
      treated as such but are treated as vibrations and this may
      cause some error
  (4) All equations used are the standard statistical mechanics
      equations for an ideal gas
  (5) All vibrations are strictly harmonic

freq.     409.38  E(vib)   ...       0.19
freq.     513.78  E(vib)   ...       0.13
freq.     601.82  E(vib)   ...       0.10
freq.     725.20  E(vib)   ...       0.06
freq.     791.08  E(vib)   ...       0.05
freq.     907.54  E(vib)   ...       0.03
freq.     915.87  E(vib)   ...       0.03
freq.     950.61  E(vib)   ...       0.03
freq.     963.21  E(vib)   ...       0.03
freq.    1002.54  E(vib)   ...       0.02
freq.    1087.82  E(vib)   ...       0.02
freq.    1179.20  E(vib)   ...       0.01
freq.    1252.97  E(vib)   ...       0.01
freq.    1328.43  E(vib)   ...       0.01
freq.    1414.73  E(vib)   ...       0.00
freq.    1488.42  E(vib)   ...       0.00
freq.    1605.51  E(vib)   ...       0.00
freq.    3264.02  E(vib)   ...       0.00
freq.    3272.08  E(vib)   ...       0.00
freq.    3284.55  E(vib)   ...       0.00
freq.    3537.39  E(vib)   ...       0.00

------------
INNER ENERGY
------------

The inner energy is: U= E(el) + E(ZPE) + E(vib) + E(rot) + E(trans)
    E(el)   - is the total energy from the electronic structure calculation
              = E(kin-el) + E(nuc-el) + E(el-el) + E(nuc-nuc)
    E(ZPE)  - the the zero temperature vibrational energy from the frequency calculation
    E(vib)  - the the finite temperature correction to E(ZPE) due to population
              of excited vibrational states
    E(rot)  - is the rotational thermal energy
    E(trans)- is the translational thermal energy

Summary of contributions to the inner energy U:
Electronic energy                ...   -225.43341890 Eh
Zero point energy                ...      0.06947534 Eh      43.60 kcal/mol
Thermal vibrational correction   ...      0.00116746 Eh       0.73 kcal/mol
Thermal rotational correction    ...      0.00141627 Eh       0.89 kcal/mol
Thermal translational correction ...      0.00141627 Eh       0.89 kcal/mol
-----------------------------------------------------------------------
Total thermal energy                   -225.35994356 Eh

Summary of corrections to the electronic energy:
(perhaps to be used in another calculation)
Total thermal correction                  0.00400000 Eh       2.51 kcal/mol
Non-thermal (ZPE) correction              0.06947534 Eh      43.60 kcal/mol
-----------------------------------------------------------------------
Total correction                          0.07347534 Eh      46.11 kcal/mol

--------
ENTHALPY
--------

The enthalpy is H = U + kB*T
                kB is Boltzmann's constant
Total thermal energy              ...   -225.35994356 Eh
Thermal Enthalpy correction       ...      0.00094421 Eh       0.59 kcal/mol
-----------------------------------------------------------------------
Total Enthalpy                    ...   -225.35899935 Eh

Note: Rotational entropy computed according to Herzberg
Infrared and Raman Spectra, Chapter V,1, Van Nostrand Reinhold, 1945
Point Group:  Cs, Symmetry Number:   1
Rotational constants in cm-1:     0.324934     0.302591     0.156683

Vibrational entropy computed according to the QRRHO of S. Grimme
Chem.Eur.J. 2012 18 9955 using a reference frequency of 100.0 cm-1

-------
ENTROPY
-------

The entropy contributions are T*S = T*(S(el)+S(vib)+S(rot)+S(trans))
     S(el)   - electronic entropy
     S(vib)  - vibrational entropy
     S(rot)  - rotational entropy
     S(trans)- translational entropy
The entropies will be listed as multiplied by the temperature to get
units of energy

Electronic entropy                ...      0.00065446 Eh      0.41 kcal/mol
Vibrational entropy               ...      0.00155980 Eh      0.98 kcal/mol
Rotational entropy                ...      0.01148086 Eh      7.20 kcal/mol
Translational entropy             ...      0.01832668 Eh     11.50 kcal/mol
-----------------------------------------------------------------------
Final entropy term                ...      0.03202180 Eh     20.09 kcal/mol

In case the symmetry of your molecule has not been determined correctly
or in case you have a reason to use a different symmetry number we print
out the resulting rotational entropy values for sn=1,12:

 non-linear molecules -----------------------------------
|  sn= 1 | S(rot)=       0.01148086 Eh      7.20 kcal/mol|
|  sn= 2 | S(rot)=       0.01082641 Eh      6.79 kcal/mol|
|  sn= 3 | S(rot)=       0.01044357 Eh      6.55 kcal/mol|
|  sn= 4 | S(rot)=       0.01017195 Eh      6.38 kcal/mol|
|  sn= 5 | S(rot)=       0.00996126 Eh      6.25 kcal/mol|
|  sn= 6 | S(rot)=       0.00978912 Eh      6.14 kcal/mol|
|  sn= 7 | S(rot)=       0.00964357 Eh      6.05 kcal/mol|
|  sn= 8 | S(rot)=       0.00951749 Eh      5.97 kcal/mol|
|  sn= 9 | S(rot)=       0.00940628 Eh      5.90 kcal/mol|
|  sn=10 | S(rot)=       0.00930680 Eh      5.84 kcal/mol|
|  sn=11 | S(rot)=       0.00921681 Eh      5.78 kcal/mol|
|  sn=12 | S(rot)=       0.00913466 Eh      5.73 kcal/mol|
 linear molecules ---------------------------------------
|  Dinfh | S(rot)=       0.00707588 Eh      4.44 kcal/mol|
|  Cinfv | S(rot)=       0.00773033 Eh      4.85 kcal/mol|
 --------------------------------------------------------

-------------------
GIBBS FREE ENERGY
-------------------

The Gibbs free energy is G = H - T*S

Total enthalpy                    ...   -225.35899935 Eh
Total entropy correction          ...     -0.03202180 Eh    -20.09 kcal/mol
-----------------------------------------------------------------------
Final Gibbs free energy         ...   -225.39102115 Eh

For completeness - the Gibbs free energy minus the electronic energy
G-E(el)                           ...      0.04239775 Eh     26.60 kcal/mol

                             ****ORCA TERMINATED NORMALLY****
TOTAL RUN TIME: 0 days 0 hours 7 minutes 44 seconds 233 msec
