                         Program Version 6.0.0  -   RELEASE  -
|  1> !TPSSh aug-cc-pVTZ d3 TightSCF SlowConv RIJCOSX defgrid2
|  2>
|  3> %pal
|  4> nprocs 4
|  5> end
|  6>
|  7> %scf
|  8> MaxIter 1500
|  9> end
| 10>
| 11> %maxcore 3000
| 12>
| 13> !CPCM
| 14> %cpcm smd true
| 15> SMDsolvent "MeCN"
| 16> surfacetype gepol_ses
| 17> rsolv 2.19
| 18> end
| 19>
| 20> * xyz 0 1
| 21> C          -1.20884186796781     -0.02278058914418      0.00003742233159
| 22> C          -1.20709913160620      1.38045218788773      0.00016703364523
| 23> C           0.00003556987027      2.07238258705511      0.00002257197541
| 24> C           1.20714414585697      1.38040506278913     -0.00023783478174
| 25> C           1.20883517896309     -0.02282737272555     -0.00031075934043
| 26> C          -0.00001674938231     -0.72722788932514     -0.00021243594479
| 27> H          -0.00003875372447     -1.81890955720448     -0.00030359455707
| 28> C           2.45039282749013     -0.73822162648839     -0.00031862016213
| 29> N           3.45665781045797     -1.31294485312421      0.00119491286029
| 30> H           2.15765649045058      1.91893621365633     -0.00034701835738
| 31> H           0.00005970442079      3.16546819660540      0.00011390445176
| 32> H          -2.15759482922730      1.91901494079977      0.00036663554396
| 33> C          -2.45042247590246     -0.73813543850926      0.00010406543100
| 34> N          -3.45670371969924     -1.31283236227226     -0.00021618309569
| 35> *
| 36>
| 37>                          ****END OF INPUT****

CARTESIAN COORDINATES (ANGSTROEM)
---------------------------------
  C     -1.208842   -0.022781    0.000037
  C     -1.207099    1.380452    0.000167
  C      0.000036    2.072383    0.000023
  C      1.207144    1.380405   -0.000238
  C      1.208835   -0.022827   -0.000311
  C     -0.000017   -0.727228   -0.000212
  H     -0.000039   -1.818910   -0.000304
  C      2.450393   -0.738222   -0.000319
  N      3.456658   -1.312945    0.001195
  H      2.157656    1.918936   -0.000347
  H      0.000060    3.165468    0.000114
  H     -2.157595    1.919015    0.000367
  C     -2.450422   -0.738135    0.000104
  N     -3.456704   -1.312832   -0.000216

 Total Charge           Charge          ....    0
 Multiplicity           Mult            ....    1
 Number of Electrons    NEL             ....   66
 Basis Dimension        Dim             ....  552

ORBITAL ENERGIES
----------------

  NO   OCC          E(Eh)            E(eV)
   0   2.0000     -14.265081      -388.1726
   1   2.0000     -14.265080      -388.1726
   2   2.0000     -10.177801      -276.9520
   3   2.0000     -10.177788      -276.9517
   4   2.0000     -10.170567      -276.7552
   5   2.0000     -10.170563      -276.7551
   6   2.0000     -10.162331      -276.5311
   7   2.0000     -10.154457      -276.3168
   8   2.0000     -10.154440      -276.3163
   9   2.0000     -10.142948      -276.0037
  10   2.0000      -0.907481       -24.6938
  11   2.0000      -0.902485       -24.5579
  12   2.0000      -0.871158       -23.7054
  13   2.0000      -0.786164       -21.3926
  14   2.0000      -0.767691       -20.8899
  15   2.0000      -0.650253       -17.6943
  16   2.0000      -0.645794       -17.5729
  17   2.0000      -0.578218       -15.7341
  18   2.0000      -0.495903       -13.4942
  19   2.0000      -0.489648       -13.3240
  20   2.0000      -0.476198       -12.9580
  21   2.0000      -0.434808       -11.8317
  22   2.0000      -0.412653       -11.2289
  23   2.0000      -0.384113       -10.4523
  24   2.0000      -0.379495       -10.3266
  25   2.0000      -0.374661       -10.1950
  26   2.0000      -0.367715       -10.0060
  27   2.0000      -0.363173        -9.8824
  28   2.0000      -0.339336        -9.2338
  29   2.0000      -0.337650        -9.1879
  30   2.0000      -0.337132        -9.1738
  31   2.0000      -0.273583        -7.4446
  32   2.0000      -0.270151        -7.3512
  33   0.0000      -0.086311        -2.3486
  34   0.0000      -0.071167        -1.9365
  35   0.0000      -0.008446        -0.2298
  36   0.0000      -0.007037        -0.1915
  37   0.0000       0.006025         0.1640

MULLIKEN ATOMIC CHARGES
-----------------------
   0 C :    0.992324
   1 C :   -0.569285
   2 C :   -0.390087
   3 C :   -0.569136
   4 C :    0.991787
   5 C :   -0.660169
   6 H :   -0.081263
   7 C :    0.816608
   8 N :   -0.989696
   9 H :    0.067927
  10 H :    0.496102
  11 H :    0.068199
  12 C :    0.816563
  13 N :   -0.989874
Sum of atomic charges:    0.0000000

LOEWDIN ATOMIC CHARGES
----------------------
   0 C :   -0.180790
   1 C :    0.229158
   2 C :    0.241815
   3 C :    0.229158
   4 C :   -0.180792
   5 C :    0.220515
   6 H :   -0.142304
   7 C :   -0.235011
   8 N :    0.248665
   9 H :   -0.145971
  10 H :   -0.152127
  11 H :   -0.145970
  12 C :   -0.235011
  13 N :    0.248664

  Mayer bond orders larger than 0.100000
B(  0-C ,  1-C ) :   0.6624 B(  0-C ,  4-C ) :   0.1487 B(  0-C ,  5-C ) :   0.7166
B(  0-C , 12-C ) :   0.7839 B(  0-C , 13-N ) :   0.1661 B(  1-C ,  2-C ) :   1.3800
B(  1-C ,  3-C ) :  -0.1027 B(  1-C , 11-H ) :   1.0632 B(  1-C , 12-C ) :   0.2320
B(  1-C , 13-N ) :   0.1239 B(  2-C ,  3-C ) :   1.3812 B(  2-C , 10-H ) :   0.5392
B(  3-C ,  4-C ) :   0.6614 B(  3-C ,  7-C ) :   0.2319 B(  3-C ,  8-N ) :   0.1233
B(  3-C ,  9-H ) :   1.0634 B(  4-C ,  5-C ) :   0.7170 B(  4-C ,  7-C ) :   0.7845
B(  4-C ,  8-N ) :   0.1670 B(  5-C ,  6-H ) :   1.2411 B(  7-C ,  8-N ) :   1.0808
B(  7-C , 12-C ) :   0.1816 B( 12-C , 13-N ) :   1.0805

Dispersion correction           -0.018996589
FINAL SINGLE POINT ENERGY      -416.932026782134

DIPOLE MOMENT
-------------

Method             : SCF
Type of density    : Electron Density
Multiplicity       :   1
Irrep              :   0
Energy             :  -416.9130301936098135 Eh
Relativity type    :
Basis              : AO
                                X                 Y                 Z
Electronic contribution:     -0.000042850      -2.464433640      -0.000646139
Nuclear contribution   :      0.000083993       4.864690658      -0.000287721
                        -----------------------------------------
Total Dipole Moment    :      0.000041143       2.400257019      -0.000933860
                        -----------------------------------------
Magnitude (a.u.)       :      2.400257201
Magnitude (Debye)      :      6.100968952

Rotational constants in cm-1:             0.090653             0.030186             0.022645
Rotational constants in MHz :          2717.694225           904.950181           678.890264

                             ****ORCA TERMINATED NORMALLY****
TOTAL RUN TIME: 0 days 0 hours 3 minutes 53 seconds 876 msec
