                         Program Version 6.0.0  -   RELEASE  -
|  1> !B3LYP opt aug-cc-pVTZ d3 TightSCF SlowConv RIJCOSX defgrid2
|  2>
|  3> %pal
|  4> nprocs 8
|  5> end
|  6>
|  7> %scf
|  8> MaxIter 1500
|  9> end
| 10>
| 11> %maxcore 3500
| 12>
| 13> !CPCM
| 14> %cpcm smd true
| 15> SMDsolvent "MeCN"
| 16> surfacetype gepol_ses
| 17> rsolv 2.19
| 18> end
| 19>
| 20> * xyz 0 1
| 21> C           0.94968287453071     -1.27993729727395      0.00000683726847
| 22> C           2.32072584922403     -1.03066468402730     -0.00000570192654
| 23> C           2.79045486785265      0.28126328538775     -0.00000619644263
| 24> C           1.88129493900205      1.34320110702256      0.00000552102250
| 25> C           0.51414900986878      1.09690334373603      0.00001977591165
| 26> C           0.03124775758730     -0.22186358373352      0.00001975571628
| 27> C          -1.40109719375212     -0.51811607942485      0.00002773818787
| 28> N          -2.27722630544222      0.40983670208196      0.00003187543002
| 29> O          -3.54943597920683     -0.07892856387383      0.00003589961153
| 30> H          -4.10699565150034      0.71269395667835      0.00004041054052
| 31> H          -1.72077053189788     -1.57247842719527      0.00002621709873
| 32> H          -0.20517984986564      1.91961492482438      0.00002936627338
| 33> H           2.24665800678188      2.37456842670514      0.00000344087776
| 34> H           3.86637191838654      0.47947397298735     -0.00001641660649
| 35> H           3.02594458116043     -1.86704493909579     -0.00001599324974
| 36> H           0.58187010727067     -2.31112044479903      0.00000487028669
| 37> *
| 38>
| 39>                          ****END OF INPUT****
 Total Charge           Charge          ....    0
 Multiplicity           Mult            ....    1
 Number of Electrons    NEL             ....   64
Dispersion correction           -0.027352121
FINAL SINGLE POINT ENERGY      -400.832478241816
Dispersion correction             ... done (  0.0 sec)
Dispersion correction           -0.027391365
FINAL SINGLE POINT ENERGY      -400.833820101846
Dispersion correction             ... done (  0.1 sec)
Dispersion correction           -0.027402111
FINAL SINGLE POINT ENERGY      -400.834016046342
Dispersion correction             ... done (  0.1 sec)
Dispersion correction           -0.027395243
FINAL SINGLE POINT ENERGY      -400.834072483299
Dispersion correction             ... done (  0.1 sec)
Dispersion correction           -0.027392188
FINAL SINGLE POINT ENERGY      -400.834076441598
Dispersion correction             ... done (  0.1 sec)
                    ***********************HURRAY********************

CARTESIAN COORDINATES (ANGSTROEM)
---------------------------------
  C      0.939241   -1.265233   -0.000176
  C      2.309088   -1.030976   -0.000332
  C      2.790837    0.272238   -0.000128
  C      1.896101    1.342030    0.000360
  C      0.530241    1.112252    0.000459
  C      0.035723   -0.198746    0.000081
  C     -1.393757   -0.502689    0.000141
  N     -2.277887    0.413944   -0.001400
  O     -3.575480   -0.125787   -0.000777
  H     -4.143624    0.657721   -0.000197
  H     -1.689972   -1.550249    0.001943
  H     -0.160033    1.943712    0.000959
  H      2.269104    2.357367    0.000102
  H      3.856425    0.457288   -0.000525
  H      2.997458   -1.865055   -0.000547
  H      0.564229   -2.280416    0.000245

 Multiplicity           Mult            ....    1
 Number of Electrons    NEL             ....   64
 Basis Dimension        Dim             ....  575

ORBITAL ENERGIES
----------------

  NO   OCC          E(Eh)            E(eV)
   0   2.0000     -19.174155      -521.7553
   1   2.0000     -14.372538      -391.0966
   2   2.0000     -10.212686      -277.9013
   3   2.0000     -10.192833      -277.3611
   4   2.0000     -10.180002      -277.0119
   5   2.0000     -10.178404      -276.9685
   6   2.0000     -10.177801      -276.9520
   7   2.0000     -10.176914      -276.9279
   8   2.0000     -10.176623      -276.9200
   9   2.0000      -1.085347       -29.5338
  10   2.0000      -0.885645       -24.0996
  11   2.0000      -0.851732       -23.1768
  12   2.0000      -0.758268       -20.6335
  13   2.0000      -0.750488       -20.4218
  14   2.0000      -0.641046       -17.4437
  15   2.0000      -0.611322       -16.6349
  16   2.0000      -0.568914       -15.4809
  17   2.0000      -0.533788       -14.5251
  18   2.0000      -0.513701       -13.9785
  19   2.0000      -0.471011       -12.8169
  20   2.0000      -0.456473       -12.4213
  21   2.0000      -0.438121       -11.9219
  22   2.0000      -0.424239       -11.5441
  23   2.0000      -0.423094       -11.5130
  24   2.0000      -0.414341       -11.2748
  25   2.0000      -0.379162       -10.3175
  26   2.0000      -0.353072        -9.6076
  27   2.0000      -0.345338        -9.3971
  28   2.0000      -0.302772        -8.2388
  29   2.0000      -0.291692        -7.9373
  30   2.0000      -0.262269        -7.1367
  31   2.0000      -0.237096        -6.4517
  32   0.0000      -0.054456        -1.4818
  33   0.0000      -0.016890        -0.4596
  34   0.0000      -0.002833        -0.0771
  35   0.0000       0.003282         0.0893
  36   0.0000       0.012941         0.3521

MULLIKEN ATOMIC CHARGES
-----------------------
   0 C :   -0.985901
   1 C :   -0.571749
   2 C :   -0.205567
   3 C :   -0.707005
   4 C :   -0.653369
   5 C :    1.839233
   6 C :   -0.051960
   7 N :   -0.466147
   8 O :   -0.331010
   9 H :    0.173997
  10 H :    0.445514
  11 H :    0.023206
  12 H :    0.555801
  13 H :    0.388103
  14 H :    0.565314
  15 H :   -0.018462
Sum of atomic charges:    0.0000000

LOEWDIN ATOMIC CHARGES
----------------------
   0 C :    0.200624
   1 C :    0.200365
   2 C :    0.196748
   3 C :    0.198541
   4 C :    0.195393
   5 C :   -0.171584
   6 C :   -0.027503
   7 N :    0.139025
   8 O :    0.663296
   9 H :   -0.524190
  10 H :   -0.183244
  11 H :   -0.188810
  12 H :   -0.175490
  13 H :   -0.176035
  14 H :   -0.175416
  15 H :   -0.171720

  Mayer bond orders larger than 0.100000
B(  0-C ,  1-C ) :   1.1567 B(  0-C ,  2-C ) :  -0.1558 B(  0-C ,  4-C ) :  -0.4666
B(  0-C ,  6-C ) :   0.1328 B(  0-C , 11-H ) :   0.1311 B(  0-C , 13-H ) :   0.1036
B(  0-C , 14-H ) :  -0.2266 B(  0-C , 15-H ) :   1.7579 B(  1-C ,  2-C ) :   1.2492
B(  1-C ,  3-C ) :   0.1671 B(  1-C , 14-H ) :   0.4843 B(  1-C , 15-H ) :  -0.1397
B(  2-C ,  3-C ) :   1.1647 B(  2-C ,  4-C ) :  -0.1857 B(  2-C ,  5-C ) :  -0.1181
B(  2-C ,  6-C ) :   0.1407 B(  2-C , 13-H ) :   0.7643 B(  3-C ,  4-C ) :   1.1557
B(  3-C ,  5-C ) :   0.1270 B(  3-C , 12-H ) :   0.4665 B(  3-C , 15-H ) :  -0.1044
B(  4-C ,  5-C ) :   0.4511 B(  4-C ,  6-C ) :   0.2880 B(  4-C , 11-H ) :   1.3846
B(  4-C , 12-H ) :  -0.1166 B(  4-C , 15-H ) :   0.1268 B(  5-C ,  7-N ) :  -0.1305
B(  5-C , 11-H ) :  -0.2220 B(  5-C , 12-H ) :   0.1065 B(  5-C , 14-H ) :   0.1545
B(  5-C , 15-H ) :  -0.2828 B(  6-C ,  7-N ) :   1.1264 B(  6-C , 10-H ) :   0.6041
B(  6-C , 15-H ) :  -0.1124 B(  7-N ,  8-O ) :   0.6787 B(  8-O ,  9-H ) :   0.9894
B( 11-H , 15-H ) :   0.1896

Dispersion correction           -0.027391690
FINAL SINGLE POINT ENERGY      -400.834077028446

DIPOLE MOMENT
-------------

Method             : SCF
Type of density    : Electron Density
Multiplicity       :   1
Irrep              :   0
Energy             :  -400.8066853384179922 Eh
Relativity type    :
Basis              : AO
                                X                 Y                 Z
Electronic contribution:     -2.882854051       0.140174920      -0.001237281
Nuclear contribution   :      3.400872611      -0.275373227       0.003208703
                        -----------------------------------------
Total Dipole Moment    :      0.518018561      -0.135198307       0.001971422
                        -----------------------------------------
Magnitude (a.u.)       :      0.535374353
Magnitude (Debye)      :      1.360813459

Rotational constants in cm-1:             0.174352             0.029828             0.025471
Rotational constants in MHz :          5226.954434           894.233700           763.596733

                             ****ORCA TERMINATED NORMALLY****
TOTAL RUN TIME: 0 days 0 hours 19 minutes 47 seconds 684 msec
