                         Program Version 6.0.0  -   RELEASE  -
|  1> !PBE0 aug-cc-pVTZ d3 TightSCF SlowConv RIJCOSX defgrid2
|  2>
|  3> %pal
|  4> nprocs 4
|  5> end
|  6>
|  7> %scf
|  8> MaxIter 1500
|  9> end
| 10>
| 11> %maxcore 3000
| 12>
| 13> !CPCM
| 14> %cpcm smd true
| 15> SMDsolvent "MeCN"
| 16> surfacetype gepol_ses
| 17> rsolv 2.19
| 18> end
| 19>
| 20> * xyz 0 1
| 21> C           0.21548830233766     -1.31254052777573      0.00010422762952
| 22> C           1.59988954372279     -1.21584408900209     -0.00004926404309
| 23> C           2.20799859707677      0.04926876567316     -0.00017056079371
| 24> C           1.41929623512531      1.20975167076323     -0.00015034385102
| 25> C           0.03428838131423      1.10376838714684      0.00000853976851
| 26> C          -0.57189434190993     -0.15685634129961      0.00012888388170
| 27> C          -2.05244741323264     -0.32717869220259      0.00024717867959
| 28> O          -2.60855273307034     -1.39562203145168      0.00027570374344
| 29> O          -2.69833688538420      0.84120384412168      0.00023595438148
| 30> C          -4.11294581717618      0.76544881509859      0.00031914102461
| 31> H          -4.47359030585060      0.23317558937230     -0.89509819147298
| 32> H          -4.47329861249430      1.80336428589702      0.00085057660351
| 33> H          -4.47344996909725      0.23226341742374      0.89524607056349
| 34> H          -0.58911726931978      1.99981071426323      0.00001933079670
| 35> H           1.90124452922407      2.19015192252547     -0.00025667551397
| 36> C           3.63651162843124      0.15662159321331     -0.00028047012477
| 37> N           4.79247297713842      0.24396014896989      0.00010497590390
| 38> H           2.22105451043260     -2.11448267300194     -0.00006713475520
| 39> H          -0.28337085726787     -2.28467319973482      0.00020605757830
| 40> *
| 41>
| 42>                          ****END OF INPUT****

CARTESIAN COORDINATES (ANGSTROEM)
---------------------------------
  C      0.215488   -1.312541    0.000104
  C      1.599890   -1.215844   -0.000049
  C      2.207999    0.049269   -0.000171
  C      1.419296    1.209752   -0.000150
  C      0.034288    1.103768    0.000009
  C     -0.571894   -0.156856    0.000129
  C     -2.052447   -0.327179    0.000247
  O     -2.608553   -1.395622    0.000276
  O     -2.698337    0.841204    0.000236
  C     -4.112946    0.765449    0.000319
  H     -4.473590    0.233176   -0.895098
  H     -4.473299    1.803364    0.000851
  H     -4.473450    0.232263    0.895246
  H     -0.589117    1.999811    0.000019
  H      1.901245    2.190152   -0.000257
  C      3.636512    0.156622   -0.000280
  N      4.792473    0.243960    0.000105
  H      2.221055   -2.114483   -0.000067
  H     -0.283371   -2.284673    0.000206

 Total Charge           Charge          ....    0
 Multiplicity           Mult            ....    1
 Number of Electrons    NEL             ....   84
 Basis Dimension        Dim             ....  713

ORBITAL ENERGIES
----------------

  NO   OCC          E(Eh)            E(eV)
   0   2.0000     -19.265763      -524.2481
   1   2.0000     -19.206164      -522.6263
   2   2.0000     -14.401544      -391.8859
   3   2.0000     -10.363447      -282.0037
   4   2.0000     -10.288699      -279.9697
   5   2.0000     -10.285969      -279.8954
   6   2.0000     -10.271293      -279.4961
   7   2.0000     -10.265959      -279.3509
   8   2.0000     -10.260304      -279.1971
   9   2.0000     -10.260162      -279.1932
  10   2.0000     -10.254894      -279.0498
  11   2.0000     -10.253601      -279.0147
  12   2.0000      -1.153059       -31.3763
  13   2.0000      -1.061316       -28.8799
  14   2.0000      -0.953644       -25.9500
  15   2.0000      -0.913358       -24.8537
  16   2.0000      -0.829364       -22.5682
  17   2.0000      -0.795533       -21.6476
  18   2.0000      -0.757572       -20.6146
  19   2.0000      -0.688870       -18.7451
  20   2.0000      -0.650576       -17.7031
  21   2.0000      -0.597518       -16.2593
  22   2.0000      -0.582522       -15.8512
  23   2.0000      -0.556182       -15.1345
  24   2.0000      -0.515437       -14.0258
  25   2.0000      -0.509020       -13.8511
  26   2.0000      -0.487664       -13.2700
  27   2.0000      -0.474345       -12.9076
  28   2.0000      -0.455197       -12.3866
  29   2.0000      -0.448627       -12.2078
  30   2.0000      -0.434995       -11.8368
  31   2.0000      -0.415711       -11.3121
  32   2.0000      -0.415348       -11.3022
  33   2.0000      -0.396408       -10.7868
  34   2.0000      -0.386404       -10.5146
  35   2.0000      -0.373930       -10.1751
  36   2.0000      -0.373622       -10.1668
  37   2.0000      -0.360115        -9.7992
  38   2.0000      -0.327469        -8.9109
  39   2.0000      -0.308017        -8.3816
  40   2.0000      -0.290793        -7.9129
  41   2.0000      -0.288816        -7.8591
  42   0.0000      -0.081067        -2.2059
  43   0.0000      -0.029551        -0.8041
  44   0.0000      -0.000982        -0.0267
  45   0.0000       0.010326         0.2810
  46   0.0000       0.014244         0.3876

MULLIKEN ATOMIC CHARGES
-----------------------
   0 C :   -1.154103
   1 C :   -1.100150
   2 C :    1.520047
   3 C :   -1.268502
   4 C :   -0.390548
   5 C :    1.540703
   6 C :    0.785469
   7 O :   -0.871147
   8 O :   -0.335505
   9 C :   -0.682960
  10 H :    0.305248
  11 H :    0.289346
  12 H :    0.305544
  13 H :    0.374291
  14 H :    0.240315
  15 C :    0.713844
  16 N :   -0.804498
  17 H :    0.257777
  18 H :    0.274828
Sum of atomic charges:    0.0000000

LOEWDIN ATOMIC CHARGES
----------------------
   0 C :    0.217788
   1 C :    0.223656
   2 C :   -0.193429
   3 C :    0.222925
   4 C :    0.225026
   5 C :   -0.137788
   6 C :   -0.850682
   7 O :    0.497017
   8 O :    0.592003
   9 C :    0.337764
  10 H :   -0.168436
  11 H :   -0.168536
  12 H :   -0.168497
  13 H :   -0.170518
  14 H :   -0.147939
  15 C :   -0.240766
  16 N :    0.246837
  17 H :   -0.148058
  18 H :   -0.168366

  Mayer bond orders larger than 0.100000
B(  0-C ,  1-C ) :   1.7062 B(  0-C ,  3-C ) :   0.2262 B(  0-C ,  4-C ) :  -0.5695
B(  0-C ,  5-C ) :   0.4324 B(  0-C ,  6-C ) :   0.2780 B(  0-C , 15-C ) :  -0.1749
B(  0-C , 18-H ) :   0.8858 B(  1-C ,  2-C ) :   0.4629 B(  1-C ,  3-C ) :  -0.1229
B(  1-C ,  4-C ) :   0.1878 B(  1-C ,  5-C ) :  -0.3025 B(  1-C ,  6-C ) :  -0.1321
B(  1-C , 15-C ) :   0.3079 B(  1-C , 17-H ) :   1.0143 B(  2-C ,  3-C ) :   0.4074
B(  2-C ,  4-C ) :   0.1076 B(  2-C ,  5-C ) :  -0.1453 B(  2-C ,  6-C ) :   0.1912
B(  2-C , 14-H ) :  -0.1366 B(  2-C , 15-C ) :   0.6997 B(  2-C , 16-N ) :   0.3347
B(  2-C , 17-H ) :  -0.1251 B(  3-C ,  4-C ) :   1.2990 B(  3-C ,  5-C ) :  -0.2284
B(  3-C , 14-H ) :   1.0776 B(  3-C , 15-C ) :   0.3324 B(  4-C ,  5-C ) :   0.7344
B(  4-C ,  6-C ) :   0.1016 B(  4-C , 13-H ) :   0.8473 B(  4-C , 15-C ) :  -0.2168
B(  5-C ,  6-C ) :   0.2965 B(  5-C ,  8-O ) :   0.1625 B(  5-C , 15-C ) :   0.3502
B(  6-C ,  7-O ) :   1.1177 B(  6-C ,  8-O ) :   0.9091 B(  6-C , 15-C ) :   0.1096
B(  7-O , 18-H ) :   0.1454 B(  8-O ,  9-C ) :   0.9603 B(  9-C , 10-H ) :   0.8869
B(  9-C , 11-H ) :   0.9047 B(  9-C , 12-H ) :   0.8870 B( 13-H , 18-H ) :   0.1299
B( 14-H , 17-H ) :   0.1233 B( 15-C , 16-N ) :   1.4897

Dispersion correction           -0.017951917
FINAL SINGLE POINT ENERGY      -551.962129741602

DIPOLE MOMENT
-------------

Method             : SCF
Type of density    : Electron Density
Multiplicity       :   1
Irrep              :   0
Energy             :  -551.9441778245573005 Eh
Relativity type    :
Basis              : AO
                                X                 Y                 Z
Electronic contribution:      7.547619964      -1.160296643      -0.000315365
Nuclear contribution   :     -9.614807611       1.929707877       0.000342352
                        -----------------------------------------
Total Dipole Moment    :     -2.067187647       0.769411235       0.000026987
                        -----------------------------------------
Magnitude (a.u.)       :      2.205733079
Magnitude (Debye)      :      5.606527929

Rotational constants in cm-1:             0.115026             0.014673             0.013046
Rotational constants in MHz :          3448.390341           439.899337           391.107079

                             ****ORCA TERMINATED NORMALLY****
TOTAL RUN TIME: 0 days 0 hours 6 minutes 38 seconds 592 msec
