                         Program Version 6.0.0  -   RELEASE  -
|  1> !r2SCAN aug-cc-pVTZ d3 TightSCF SlowConv RIJCOSX defgrid2
|  2>
|  3> %pal
|  4> nprocs 4
|  5> end
|  6>
|  7> %scf
|  8> MaxIter 1500
|  9> end
| 10>
| 11> %maxcore 3000
| 12>
| 13> !CPCM
| 14> %cpcm smd true
| 15> SMDsolvent "MeCN"
| 16> surfacetype gepol_ses
| 17> rsolv 2.19
| 18> end
| 19>
| 20> * xyz 0 1
| 21> C          -0.72498712360752     -1.03199143591489     -0.00035587408950
| 22> C          -1.31725281953672      0.23700082940336     -0.00009216740947
| 23> C          -0.49927603036286      1.37741269983118     -0.00017815340748
| 24> C           0.87877130461947      1.25225114649976     -0.00046421372633
| 25> C           1.48912617012247     -0.01748708715836     -0.00062594889474
| 26> C           0.66252427774642     -1.14934366375667     -0.00064528665934
| 27> H           1.11889620163877     -2.14249327366435     -0.00083021648088
| 28> C           2.91104462440564     -0.14733894022628     -0.00063151415770
| 29> C           4.11990582812650     -0.25742637188868      0.00161358861277
| 30> H           5.19058139416864     -0.35415649223885      0.00097524906911
| 31> H           1.50779855780145      2.14601626186340     -0.00050473395896
| 32> H          -0.98017045333696      2.35860761783862      0.00000793066196
| 33> O          -2.64430351331883      0.45808400164866      0.00024605971359
| 34> C          -3.51534558275692     -0.63765175952228      0.00045178300619
| 35> H          -4.53490407246321     -0.22445155867607      0.00076695107216
| 36> H          -3.38161982455796     -1.26589006640153     -0.90098962915142
| 37> H          -3.38109122143507     -1.26596319208985      0.90176498266982
| 38> H          -1.33393961725331     -1.93771991554716     -0.00032660686979
| 39> *
| 40>
| 41>                          ****END OF INPUT****

CARTESIAN COORDINATES (ANGSTROEM)
---------------------------------
  C     -0.724987   -1.031991   -0.000356
  C     -1.317253    0.237001   -0.000092
  C     -0.499276    1.377413   -0.000178
  C      0.878771    1.252251   -0.000464
  C      1.489126   -0.017487   -0.000626
  C      0.662524   -1.149344   -0.000645
  H      1.118896   -2.142493   -0.000830
  C      2.911045   -0.147339   -0.000632
  C      4.119906   -0.257426    0.001614
  H      5.190581   -0.354156    0.000975
  H      1.507799    2.146016   -0.000505
  H     -0.980170    2.358608    0.000008
  O     -2.644304    0.458084    0.000246
  C     -3.515346   -0.637652    0.000452
  H     -4.534904   -0.224452    0.000767
  H     -3.381620   -1.265890   -0.900990
  H     -3.381091   -1.265963    0.901765
  H     -1.333940   -1.937720   -0.000327

 Total Charge           Charge          ....    0
 Multiplicity           Mult            ....    1
 Number of Electrons    NEL             ....   70
 Basis Dimension        Dim             ....  644

ORBITAL ENERGIES
----------------

  NO   OCC          E(Eh)            E(eV)
   0   2.0000     -18.998473      -516.9747
   1   2.0000     -10.108755      -275.0732
   2   2.0000     -10.080583      -274.3066
   3   2.0000     -10.067111      -273.9400
   4   2.0000     -10.052817      -273.5511
   5   2.0000     -10.052303      -273.5371
   6   2.0000     -10.050070      -273.4763
   7   2.0000     -10.044559      -273.3263
   8   2.0000     -10.043380      -273.2943
   9   2.0000     -10.036726      -273.1132
  10   2.0000      -1.048406       -28.5286
  11   2.0000      -0.834752       -22.7147
  12   2.0000      -0.757603       -20.6154
  13   2.0000      -0.725776       -19.7494
  14   2.0000      -0.707295       -19.2465
  15   2.0000      -0.664610       -18.0850
  16   2.0000      -0.590005       -16.0549
  17   2.0000      -0.576249       -15.6805
  18   2.0000      -0.519318       -14.1314
  19   2.0000      -0.500425       -13.6173
  20   2.0000      -0.465299       -12.6614
  21   2.0000      -0.460315       -12.5258
  22   2.0000      -0.438579       -11.9344
  23   2.0000      -0.415526       -11.3070
  24   2.0000      -0.395370       -10.7586
  25   2.0000      -0.386365       -10.5135
  26   2.0000      -0.366095        -9.9619
  27   2.0000      -0.363208        -9.8834
  28   2.0000      -0.332557        -9.0493
  29   2.0000      -0.320214        -8.7135
  30   2.0000      -0.298098        -8.1117
  31   2.0000      -0.269640        -7.3373
  32   2.0000      -0.262397        -7.1402
  33   2.0000      -0.248119        -6.7517
  34   2.0000      -0.203594        -5.5401
  35   0.0000      -0.055785        -1.5180
  36   0.0000      -0.044388        -1.2079
  37   0.0000       0.005745         0.1563
  38   0.0000       0.007497         0.2040
  39   0.0000       0.018334         0.4989

MULLIKEN ATOMIC CHARGES
-----------------------
   0 C :   -0.153571
   1 C :    1.407657
   2 C :   -0.866952
   3 C :   -1.209368
   4 C :    1.684902
   5 C :   -1.340488
   6 H :   -0.381012
   7 C :    1.153093
   8 C :   -0.762950
   9 H :    0.309848
  10 H :   -0.340480
  11 H :    0.557899
  12 O :   -0.694913
  13 C :   -0.634978
  14 H :    0.229451
  15 H :    0.258190
  16 H :    0.257610
  17 H :    0.526061
Sum of atomic charges:    0.0000000

LOEWDIN ATOMIC CHARGES
----------------------
   0 C :    0.213643
   1 C :   -0.397919
   2 C :    0.208713
   3 C :    0.186118
   4 C :   -0.239623
   5 C :    0.190706
   6 H :   -0.161157
   7 C :   -0.029320
   8 C :    0.392112
   9 H :   -0.287817
  10 H :   -0.162474
  11 H :   -0.168389
  12 O :    0.597452
  13 C :    0.331259
  14 H :   -0.168153
  15 H :   -0.159412
  16 H :   -0.159368
  17 H :   -0.186371

  Mayer bond orders larger than 0.100000
B(  0-C ,  1-C ) :   0.8663 B(  0-C ,  2-C ) :   0.2347 B(  0-C ,  4-C ) :   0.7877
B(  0-C ,  5-C ) :   0.8766 B(  0-C ,  6-H ) :  -0.2451 B(  0-C ,  7-C ) :  -0.2170
B(  0-C ,  8-C ) :  -0.1461 B(  0-C , 10-H ) :  -0.1554 B(  0-C , 11-H ) :  -0.1275
B(  0-C , 17-H ) :   0.2435 B(  1-C ,  2-C ) :   0.6337 B(  1-C ,  3-C ) :  -0.6132
B(  1-C ,  4-C ) :  -0.1205 B(  1-C ,  5-C ) :  -0.5523 B(  1-C ,  7-C ) :   0.2442
B(  1-C ,  8-C ) :   0.1304 B(  1-C , 11-H ) :   0.1869 B(  1-C , 12-O ) :   0.1977
B(  1-C , 17-H ) :   0.2034 B(  2-C ,  3-C ) :   1.2703 B(  2-C ,  4-C ) :   0.6047
B(  2-C ,  7-C ) :  -0.1324 B(  2-C ,  8-C ) :  -0.1055 B(  2-C , 10-H ) :  -0.1128
B(  2-C , 11-H ) :   0.2342 B(  2-C , 12-O ) :   0.3420 B(  3-C ,  5-C ) :  -0.7253
B(  3-C ,  6-H ) :   0.2472 B(  3-C ,  7-C ) :   0.5201 B(  3-C , 10-H ) :   2.2756
B(  4-C ,  6-H ) :  -0.3015 B(  4-C ,  7-C ) :  -0.2250 B(  4-C ,  8-C ) :   0.8514
B(  4-C , 10-H ) :  -0.1376 B(  4-C , 12-O ) :   0.1376 B(  5-C ,  6-H ) :   2.4098
B(  5-C ,  7-C ) :   0.4320 B(  5-C ,  8-C ) :  -0.1773 B(  5-C , 10-H ) :   0.2209
B(  6-H ,  7-C ) :  -0.2839 B(  6-H ,  8-C ) :  -0.4291 B(  6-H , 10-H ) :   0.5457
B(  6-H , 11-H ) :  -0.1071 B(  6-H , 17-H ) :  -0.1120 B(  7-C ,  8-C ) :   2.0928
B(  7-C ,  9-H ) :  -0.2208 B(  7-C , 10-H ) :  -0.3484 B(  7-C , 17-H ) :   0.1096
B(  8-C ,  9-H ) :   1.2003 B(  8-C , 10-H ) :  -0.4359 B(  8-C , 11-H ) :   0.1937
B(  8-C , 17-H ) :   0.2288 B( 10-H , 11-H ) :  -0.1180 B( 12-O , 13-C ) :   1.0281
B( 13-C , 14-H ) :   0.9812 B( 13-C , 15-H ) :   0.9129 B( 13-C , 16-H ) :   0.9133

Dispersion correction           -0.005492836
FINAL SINGLE POINT ENERGY      -422.845739282054

DIPOLE MOMENT
-------------

Method             : SCF
Type of density    : Electron Density
Multiplicity       :   1
Irrep              :   0
Energy             :  -422.8402464463167121 Eh
Relativity type    :
Basis              : AO
                                X                 Y                 Z
Electronic contribution:      4.369637933       1.965904984      -0.001243971
Nuclear contribution   :     -5.472543809      -2.520175441       0.001174688
                        -----------------------------------------
Total Dipole Moment    :     -1.102905876      -0.554270457      -0.000069283
                        -----------------------------------------
Magnitude (a.u.)       :      1.234348863
Magnitude (Debye)      :      3.137465471

Rotational constants in cm-1:             0.162149             0.023538             0.020637
Rotational constants in MHz :          4861.113339           705.666032           618.684466

                             ****ORCA TERMINATED NORMALLY****
TOTAL RUN TIME: 0 days 0 hours 3 minutes 30 seconds 324 msec
