                         Program Version 6.0.0  -   RELEASE  -
|  1> !r2SCANh aug-cc-pVTZ d3 TightSCF SlowConv RIJCOSX defgrid2
|  2>
|  3> %pal
|  4> nprocs 4
|  5> end
|  6>
|  7> %scf
|  8> MaxIter 1500
|  9> end
| 10>
| 11> %maxcore 3000
| 12>
| 13> !CPCM
| 14> %cpcm smd true
| 15> SMDsolvent "MeCN"
| 16> surfacetype gepol_ses
| 17> rsolv 2.19
| 18> end
| 19>
| 20> * xyz 0 1
| 21> C          -1.26495799748714      1.18303865458515      0.05080403605519
| 22> C          -2.60642333061191      1.31935448376271     -0.29959738324645
| 23> C          -3.44041280440145      0.20926539307814     -0.40161517964085
| 24> C          -2.90144082973563     -1.04973716221060     -0.13432170008440
| 25> C          -1.56825148928729     -1.19660014660261      0.22866378768858
| 26> C          -0.70934318580896     -0.08154664486827      0.33051202673951
| 27> N           0.61300953805947     -0.24105226876837      0.73119077146847
| 28> C           1.39986976374892     -1.37999096255953      0.29877427512661
| 29> H           2.04607670863121     -1.70992958583228      1.13451664570021
| 30> H           0.75114664396039     -2.22334685848636      0.02620697927589
| 31> C           2.27342120561242     -0.99223084807636     -0.89055156639513
| 32> H           1.61932266943223     -0.77011165873748     -1.76181164136710
| 33> H           2.95180872338646     -1.81692724050040     -1.16544343627529
| 34> O           3.08315300113024      0.11581273484299     -0.59570720798542
| 35> C           2.32868138086657      1.23424748204123     -0.20294123693064
| 36> H           3.04807602292032      2.03579294537700      0.03304751449273
| 37> H           1.68319853015679      1.57652212178956     -1.04065762734244
| 38> C           1.46842283993869      0.89253788749959      1.00660143146740
| 39> H           0.87499689376841      1.75339469243703      1.34646905231102
| 40> H           2.14234577335657      0.61412921846987      1.83973084130833
| 41> H          -1.19667964735529     -2.19528020638703      0.46959053777193
| 42> H          -3.53417239713040     -1.94099462889459     -0.19414702188547
| 43> H          -4.49070441202665      0.32074363292367     -0.68354523209589
| 44> H          -2.99695664778230      2.31986039355180     -0.51119940816597
| 45> H          -0.64456005334168      2.08028887156514      0.08361514200918
| 46> *
| 47>
| 48>                          ****END OF INPUT****

CARTESIAN COORDINATES (ANGSTROEM)
---------------------------------
  C     -1.264958    1.183039    0.050804
  C     -2.606423    1.319354   -0.299597
  C     -3.440413    0.209265   -0.401615
  C     -2.901441   -1.049737   -0.134322
  C     -1.568251   -1.196600    0.228664
  C     -0.709343   -0.081547    0.330512
  N      0.613010   -0.241052    0.731191
  C      1.399870   -1.379991    0.298774
  H      2.046077   -1.709930    1.134517
  H      0.751147   -2.223347    0.026207
  C      2.273421   -0.992231   -0.890552
  H      1.619323   -0.770112   -1.761812
  H      2.951809   -1.816927   -1.165443
  O      3.083153    0.115813   -0.595707
  C      2.328681    1.234247   -0.202941
  H      3.048076    2.035793    0.033048
  H      1.683199    1.576522   -1.040658
  C      1.468423    0.892538    1.006601
  H      0.874997    1.753395    1.346469
  H      2.142346    0.614129    1.839731
  H     -1.196680   -2.195280    0.469591
  H     -3.534172   -1.940995   -0.194147
  H     -4.490704    0.320744   -0.683545
  H     -2.996957    2.319860   -0.511199
  H     -0.644560    2.080289    0.083615

 Total Charge           Charge          ....    0
 Multiplicity           Mult            ....    1
 Number of Electrons    NEL             ....   88
 Basis Dimension        Dim             ....  851

ORBITAL ENERGIES
----------------

  NO   OCC          E(Eh)            E(eV)
   0   2.0000     -19.121945      -520.3346
   1   2.0000     -14.320089      -389.6694
   2   2.0000     -10.202033      -277.6114
   3   2.0000     -10.195733      -277.4400
   4   2.0000     -10.195682      -277.4386
   5   2.0000     -10.180700      -277.0309
   6   2.0000     -10.179824      -277.0071
   7   2.0000     -10.157774      -276.4071
   8   2.0000     -10.157738      -276.4061
   9   2.0000     -10.151942      -276.2484
  10   2.0000     -10.151734      -276.2427
  11   2.0000     -10.147267      -276.1212
  12   2.0000      -1.051631       -28.6163
  13   2.0000      -0.950923       -25.8759
  14   2.0000      -0.845747       -23.0139
  15   2.0000      -0.771440       -20.9920
  16   2.0000      -0.750794       -20.4301
  17   2.0000      -0.740301       -20.1446
  18   2.0000      -0.676512       -18.4088
  19   2.0000      -0.654992       -17.8232
  20   2.0000      -0.603871       -16.4322
  21   2.0000      -0.591149       -16.0860
  22   2.0000      -0.555128       -15.1058
  23   2.0000      -0.521623       -14.1941
  24   2.0000      -0.480907       -13.0861
  25   2.0000      -0.469681       -12.7807
  26   2.0000      -0.463930       -12.6242
  27   2.0000      -0.456685       -12.4270
  28   2.0000      -0.449563       -12.2332
  29   2.0000      -0.426684       -11.6107
  30   2.0000      -0.418361       -11.3842
  31   2.0000      -0.405305       -11.0289
  32   2.0000      -0.395853       -10.7717
  33   2.0000      -0.378249       -10.2927
  34   2.0000      -0.363999        -9.9049
  35   2.0000      -0.350790        -9.5455
  36   2.0000      -0.342541        -9.3210
  37   2.0000      -0.338674        -9.2158
  38   2.0000      -0.317658        -8.6439
  39   2.0000      -0.310417        -8.4469
  40   2.0000      -0.282682        -7.6922
  41   2.0000      -0.252268        -6.8645
  42   2.0000      -0.250302        -6.8111
  43   2.0000      -0.183645        -4.9972
  44   0.0000      -0.023327        -0.6348
  45   0.0000      -0.009349        -0.2544
  46   0.0000       0.009653         0.2627
  47   0.0000       0.021541         0.5862
  48   0.0000       0.023653         0.6436

MULLIKEN ATOMIC CHARGES
-----------------------
   0 C :   -0.320167
   1 C :   -0.926633
   2 C :   -0.563274
   3 C :   -0.663510
   4 C :   -0.804213
   5 C :    1.871484
   6 N :    0.054190
   7 C :   -0.634996
   8 H :    0.195298
   9 H :    0.202466
  10 C :   -0.114618
  11 H :    0.198152
  12 H :    0.273250
  13 O :   -0.689793
  14 C :   -0.049296
  15 H :    0.307542
  16 H :    0.235631
  17 C :   -0.697230
  18 H :    0.104724
  19 H :    0.197093
  20 H :    0.294879
  21 H :    0.357723
  22 H :    0.577820
  23 H :    0.330920
  24 H :    0.262557
Sum of atomic charges:    0.0000000

LOEWDIN ATOMIC CHARGES
----------------------
   0 C :    0.208573
   1 C :    0.171068
   2 C :    0.164795
   3 C :    0.170002
   4 C :    0.209546
   5 C :   -0.219831
   6 N :    0.272266
   7 C :    0.192182
   8 H :   -0.119349
   9 H :   -0.161052
  10 C :    0.037662
  11 H :   -0.133049
  12 H :   -0.141095
  13 O :    0.589710
  14 C :    0.035426
  15 H :   -0.139989
  16 H :   -0.136933
  17 C :    0.181079
  18 H :   -0.151554
  19 H :   -0.122420
  20 H :   -0.184845
  21 H :   -0.172302
  22 H :   -0.183432
  23 H :   -0.172042
  24 H :   -0.194416

  Mayer bond orders larger than 0.100000
B(  0-C ,  1-C ) :   0.9232 B(  0-C ,  2-C ) :   0.3430 B(  0-C ,  3-C ) :  -0.1934
B(  0-C ,  5-C ) :   0.2634 B(  0-C ,  6-N ) :  -0.3537 B(  0-C , 24-H ) :   0.7837
B(  1-C ,  2-C ) :   1.1812 B(  1-C ,  4-C ) :  -0.1649 B(  1-C ,  5-C ) :  -0.2793
B(  1-C , 23-H ) :   0.8123 B(  2-C ,  3-C ) :   1.0813 B(  2-C ,  4-C ) :   0.2941
B(  2-C ,  5-C ) :  -0.2592 B(  2-C , 22-H ) :   0.3889 B(  3-C ,  4-C ) :   1.1193
B(  3-C ,  5-C ) :  -0.2279 B(  3-C , 21-H ) :   0.7957 B(  4-C ,  5-C ) :   0.1251
B(  4-C , 17-C ) :   0.1105 B(  4-C , 20-H ) :   0.7564 B(  5-C ,  6-N ) :   0.2391
B(  5-C ,  7-C ) :  -0.1594 B(  6-N ,  7-C ) :   1.0587 B(  6-N , 17-C ) :   1.0411
B(  7-C ,  8-H ) :   0.9940 B(  7-C ,  9-H ) :   0.9403 B(  7-C , 10-C ) :   0.9071
B(  7-C , 13-O ) :   0.1130 B(  7-C , 17-C ) :   0.2546 B( 10-C , 11-H ) :   0.9879
B( 10-C , 12-H ) :   0.9032 B( 10-C , 13-O ) :   0.8477 B( 13-O , 14-C ) :   0.8004
B( 13-O , 17-C ) :   0.1124 B( 14-C , 15-H ) :   0.8842 B( 14-C , 16-H ) :   0.9776
B( 14-C , 17-C ) :   0.8188 B( 17-C , 18-H ) :   1.0890 B( 17-C , 19-H ) :   0.9094

Dispersion correction           -0.009123653
FINAL SINGLE POINT ENERGY      -518.732725257075

DIPOLE MOMENT
-------------

Method             : SCF
Type of density    : Electron Density
Multiplicity       :   1
Irrep              :   0
Energy             :  -518.7236016040196773 Eh
Relativity type    :
Basis              : AO
                                X                 Y                 Z
Electronic contribution:     -1.836674563      -0.101858114       0.516341513
Nuclear contribution   :      2.172114398       0.028135231      -0.411191187
                        -----------------------------------------
Total Dipole Moment    :      0.335439836      -0.073722883       0.105150326
                        -----------------------------------------
Magnitude (a.u.)       :      0.359181762
Magnitude (Debye)      :      0.912967483

Rotational constants in cm-1:             0.074060             0.019927             0.017479
Rotational constants in MHz :          2220.259535           597.392551           524.016525

                             ****ORCA TERMINATED NORMALLY****
TOTAL RUN TIME: 0 days 0 hours 12 minutes 22 seconds 62 msec
