                         Program Version 6.0.0  -   RELEASE  -
|  1> !r2SCAN freq aug-cc-pVTZ d3 TightSCF SlowConv RIJCOSX defgrid2
|  2>
|  3> %pal
|  4> nprocs 12
|  5> end
|  6>
|  7> %scf
|  8> MaxIter 1500
|  9> end
| 10>
| 11> %maxcore 5000
| 12>
| 13> !CPCM
| 14> %cpcm smd true
| 15> SMDsolvent "MeCN"
| 16> surfacetype gepol_ses
| 17> rsolv 2.19
| 18> end
| 19>
| 20> * xyz 1 2
| 21> C           0.95207304695970     -1.31274653948082      0.00171024324073
| 22> C           2.29693595426148     -1.05077025941702     -0.00180360108579
| 23> C           2.74564490562460      0.28301304035791     -0.00225072573757
| 24> C           1.84057587327552      1.35865144836522      0.00075312853233
| 25> C           0.49349138191659      1.11505530532339      0.00339032875006
| 26> C           0.02427360538368     -0.23465105169130      0.00357801703585
| 27> C          -1.35114047295599     -0.54560006513922      0.00316570414075
| 28> N          -2.23128475249055      0.43656983221899     -0.00034440256432
| 29> O          -3.47712826866962     -0.05748805846697     -0.00596459250763
| 30> H          -4.05700764986606      0.73073746919986     -0.00609077320268
| 31> H          -1.68440467003123     -1.58092442557466      0.00402864715704
| 32> H          -0.22168575875575      1.92564342902173      0.00569004353360
| 33> H           2.21389429341544      2.37373899666266      0.00037436507207
| 34> H           3.80964975281563      0.48364395035760     -0.00498226131459
| 35> H           3.01561755312080     -1.85894548055729     -0.00409223875939
| 36> H           0.57818810599576     -2.32855159118005      0.00302871770954
| 37> *
| 38>
| 39>                          ****END OF INPUT****

CARTESIAN COORDINATES (ANGSTROEM)
---------------------------------
  C      0.952073   -1.312747    0.001710
  C      2.296936   -1.050770   -0.001804
  C      2.745645    0.283013   -0.002251
  C      1.840576    1.358651    0.000753
  C      0.493491    1.115055    0.003390
  C      0.024274   -0.234651    0.003578
  C     -1.351140   -0.545600    0.003166
  N     -2.231285    0.436570   -0.000344
  O     -3.477128   -0.057488   -0.005965
  H     -4.057008    0.730737   -0.006091
  H     -1.684405   -1.580924    0.004029
  H     -0.221686    1.925643    0.005690
  H      2.213894    2.373739    0.000374
  H      3.809650    0.483644   -0.004982
  H      3.015618   -1.858945   -0.004092
  H      0.578188   -2.328552    0.003029

 Total Charge           Charge          ....    1
 Multiplicity           Mult            ....    2
 Number of Electrons    NEL             ....   63
 Basis Dimension        Dim             ....  575

ORBITAL ENERGIES
----------------
                 SPIN UP ORBITALS
  NO   OCC          E(Eh)            E(eV)
   0   1.0000     -19.084793      -519.3236
   1   1.0000     -14.292696      -388.9240
   2   1.0000     -10.131267      -275.6858
   3   1.0000     -10.117175      -275.3023
   4   1.0000     -10.100623      -274.8519
   5   1.0000     -10.090343      -274.5722
   6   1.0000     -10.088701      -274.5275
   7   1.0000     -10.078014      -274.2367
   8   1.0000     -10.075335      -274.1638
   9   1.0000      -1.145946       -31.1828
  10   1.0000      -0.903621       -24.5888
  11   1.0000      -0.861472       -23.4418
  12   1.0000      -0.772586       -21.0231
  13   1.0000      -0.760379       -20.6910
  14   1.0000      -0.663350       -18.0507
  15   1.0000      -0.618959       -16.8427
  16   1.0000      -0.585140       -15.9225
  17   1.0000      -0.552566       -15.0361
  18   1.0000      -0.524788       -14.2802
  19   1.0000      -0.490690       -13.3524
  20   1.0000      -0.474434       -12.9100
  21   1.0000      -0.465233       -12.6596
  22   1.0000      -0.444869       -12.1055
  23   1.0000      -0.427794       -11.6409
  24   1.0000      -0.421310       -11.4644
  25   1.0000      -0.402434       -10.9508
  26   1.0000      -0.359125        -9.7723
  27   1.0000      -0.347557        -9.4575
  28   1.0000      -0.332697        -9.0532
  29   1.0000      -0.309405        -8.4193
  30   1.0000      -0.282888        -7.6978
  31   1.0000      -0.269159        -7.3242
  32   0.0000      -0.140054        -3.8111
  33   0.0000      -0.070500        -1.9184
  34   0.0000      -0.038598        -1.0503
  35   0.0000       0.001174         0.0320
  36   0.0000       0.009508         0.2587

                 SPIN DOWN ORBITALS
  NO   OCC          E(Eh)            E(eV)
   0   1.0000     -19.077572      -519.1271
   1   1.0000     -14.284849      -388.7105
   2   1.0000     -10.131652      -275.6963
   3   1.0000     -10.114160      -275.2203
   4   1.0000     -10.095679      -274.7174
   5   1.0000     -10.088313      -274.5170
   6   1.0000     -10.087540      -274.4959
   7   1.0000     -10.078538      -274.2510
   8   1.0000     -10.076454      -274.1943
   9   1.0000      -1.133945       -30.8562
  10   1.0000      -0.893470       -24.3126
  11   1.0000      -0.852514       -23.1981
  12   1.0000      -0.763330       -20.7713
  13   1.0000      -0.756747       -20.5921
  14   1.0000      -0.657530       -17.8923
  15   1.0000      -0.616443       -16.7743
  16   1.0000      -0.580586       -15.7985
  17   1.0000      -0.547828       -14.9072
  18   1.0000      -0.522730       -14.2242
  19   1.0000      -0.487068       -13.2538
  20   1.0000      -0.462704       -12.5908
  21   1.0000      -0.442507       -12.0412
  22   1.0000      -0.441727       -12.0200
  23   1.0000      -0.427590       -11.6353
  24   1.0000      -0.419327       -11.4105
  25   1.0000      -0.384000       -10.4492
  26   1.0000      -0.358431        -9.7534
  27   1.0000      -0.345835        -9.4106
  28   1.0000      -0.311593        -8.4789
  29   1.0000      -0.302272        -8.2252
  30   1.0000      -0.278622        -7.5817
  31   0.0000      -0.229641        -6.2489
  32   0.0000      -0.112204        -3.0532
  33   0.0000      -0.062902        -1.7116
  34   0.0000      -0.018314        -0.4984
  35   0.0000       0.002479         0.0675

MULLIKEN ATOMIC CHARGES AND SPIN POPULATIONS
--------------------------------------------
   0 C :   -0.745679    0.050914
   1 C :   -0.516737   -0.040863
   2 C :   -0.090911    0.266806
   3 C :   -0.702352   -0.095727
   4 C :   -0.593324    0.118762
   5 C :    1.791678    0.212575
   6 C :    0.152322   -0.054040
   7 N :   -0.386628    0.297893
   8 O :   -0.178900    0.221491
   9 H :    0.215441   -0.012537
  10 H :    0.440017   -0.005013
  11 H :    0.076945    0.014604
  12 H :    0.539706   -0.008057
  13 H :    0.461788    0.023014
  14 H :    0.518831   -0.001794
  15 H :    0.017801    0.011972
Sum of atomic charges         :    1.0000000

LOEWDIN ATOMIC CHARGES AND SPIN POPULATIONS
-------------------------------------------
   0 C :    0.273356    0.056774
   1 C :    0.276642    0.040426
   2 C :    0.291330    0.140686
   3 C :    0.271705    0.029462
   4 C :    0.266585    0.074428
   5 C :   -0.103282    0.114619
   6 C :    0.086618    0.058435
   7 N :    0.220420    0.232206
   8 O :    0.754669    0.199608
   9 H :   -0.421515    0.013219
  10 H :   -0.149986   -0.004255
  11 H :   -0.170862    0.010452
  12 H :   -0.154763   -0.005025
  13 H :   -0.141502    0.032676
  14 H :   -0.152916   -0.001071
  15 H :   -0.146499    0.007359

  Mayer bond orders larger than 0.100000
B(  0-C ,  1-C ) :   1.2296 B(  0-C ,  4-C ) :  -0.4298 B(  0-C , 11-H ) :   0.1202
B(  0-C , 14-H ) :  -0.1686 B(  0-C , 15-H ) :   1.6015 B(  1-C ,  2-C ) :   1.0794
B(  1-C ,  3-C ) :   0.1233 B(  1-C ,  6-C ) :   0.1170 B(  1-C , 11-H ) :  -0.1063
B(  1-C , 14-H ) :   0.5097 B(  1-C , 15-H ) :  -0.1263 B(  2-C ,  3-C ) :   1.0329
B(  2-C ,  4-C ) :  -0.1226 B(  2-C ,  5-C ) :  -0.2258 B(  2-C ,  6-C ) :   0.1452
B(  2-C , 13-H ) :   0.6241 B(  3-C ,  4-C ) :   1.2591 B(  3-C , 12-H ) :   0.4666
B(  4-C ,  5-C ) :   0.2760 B(  4-C ,  6-C ) :   0.1396 B(  4-C , 11-H ) :   1.2370
B(  4-C , 15-H ) :   0.1318 B(  5-C ,  6-C ) :   0.2629 B(  5-C ,  8-O ) :   0.1148
B(  5-C , 11-H ) :  -0.1145 B(  5-C , 14-H ) :   0.1083 B(  5-C , 15-H ) :  -0.1647
B(  6-C ,  7-N ) :   0.7132 B(  6-C , 10-H ) :   0.5606 B(  6-C , 11-H ) :  -0.1001
B(  6-C , 15-H ) :  -0.1512 B(  7-N ,  8-O ) :   0.8263 B(  8-O ,  9-H ) :   0.9821
B( 11-H , 15-H ) :   0.1494

Dispersion correction           -0.004714536
FINAL SINGLE POINT ENERGY      -400.596465011400

DIPOLE MOMENT
-------------

Method             : SCF
Type of density    : Electron Density
Multiplicity       :   2
Irrep              :   0
Energy             :  -400.5917504752890181 Eh
Relativity type    :
Basis              : AO
                                X                 Y                 Z
Electronic contribution:     -3.283172950       0.150159953       0.002404861
Nuclear contribution   :      3.315756947      -0.253116683      -0.002023570
                        -----------------------------------------
Total Dipole Moment    :      0.032583997      -0.102956730       0.000381291
                        -----------------------------------------
Magnitude (a.u.)       :      0.107990511
Magnitude (Debye)      :      0.274490065

VIBRATIONAL FREQUENCIES
-----------------------

Scaling factor for frequencies =  1.000000000  (already applied!)

     0:       0.00 cm**-1
     1:       0.00 cm**-1
     2:       0.00 cm**-1
     3:       0.00 cm**-1
     4:       0.00 cm**-1
     5:       0.00 cm**-1
     6:      70.79 cm**-1
     7:     158.02 cm**-1
     8:     164.62 cm**-1
     9:     238.85 cm**-1
    10:     366.52 cm**-1
    11:     387.25 cm**-1
    12:     422.46 cm**-1
    13:     446.73 cm**-1
    14:     551.13 cm**-1
    15:     582.46 cm**-1
    16:     619.16 cm**-1
    17:     648.66 cm**-1
    18:     785.67 cm**-1
    19:     807.14 cm**-1
    20:     877.13 cm**-1
    21:     949.05 cm**-1
    22:     974.96 cm**-1
    23:    1002.53 cm**-1
    24:    1003.79 cm**-1
    25:    1013.20 cm**-1
    26:    1017.15 cm**-1
    27:    1086.36 cm**-1
    28:    1111.88 cm**-1
    29:    1157.27 cm**-1
    30:    1186.50 cm**-1
    31:    1247.93 cm**-1
    32:    1269.31 cm**-1
    33:    1337.50 cm**-1
    34:    1403.47 cm**-1
    35:    1438.73 cm**-1
    36:    1457.06 cm**-1
    37:    1503.65 cm**-1
    38:    1512.10 cm**-1
    39:    1531.78 cm**-1
    40:    1643.55 cm**-1
    41:    3142.47 cm**-1
    42:    3192.50 cm**-1
    43:    3196.73 cm**-1
    44:    3205.44 cm**-1
    45:    3213.10 cm**-1
    46:    3218.54 cm**-1
    47:    3545.12 cm**-1

IR SPECTRUM
-----------

 Mode   freq       eps      Int      T**2         TX        TY        TZ
       cm**-1   L/(mol*cm) km/mol    a.u.
----------------------------------------------------------------------------
  6:     70.79   0.000149    0.75  0.000656  (-0.001401 -0.000279 -0.025571)
  7:    158.02   0.000194    0.98  0.000383  (-0.009640  0.016923  0.001885)
  8:    164.62   0.000068    0.34  0.000128  (-0.003382  0.003457 -0.010235)
  9:    238.85   0.000106    0.53  0.000138  (-0.002435 -0.000312  0.011486)
 10:    366.52   0.000050    0.25  0.000043  (-0.000879 -0.000672  0.006453)
 11:    387.25   0.001360    6.87  0.001096  ( 0.031634  0.009743 -0.000716)
 12:    422.46   0.000309    1.56  0.000228  ( 0.001372  0.000336 -0.015042)
 13:    446.73   0.000751    3.80  0.000525  (-0.020632 -0.009480  0.003054)
 14:    551.13   0.046669  235.85  0.026425  ( 0.003937  0.000969 -0.162508)
 15:    582.46   0.000630    3.18  0.000337  ( 0.010074  0.015354  0.000236)
 16:    619.16   0.003354   16.95  0.001691  (-0.001933  0.000273 -0.041071)
 17:    648.66   0.021013  106.19  0.010109  ( 0.099817  0.012026  0.001011)
 18:    785.67   0.011628   58.76  0.004618  ( 0.000274 -0.000359  0.067958)
 19:    807.14   0.000051    0.26  0.000020  ( 0.000051  0.000235  0.004428)
 20:    877.13   0.000564    2.85  0.000201  ( 0.007405  0.012065  0.000345)
 21:    949.05   0.000283    1.43  0.000093  (-0.001405  0.000173  0.009537)
 22:    974.96   0.002205   11.14  0.000706  (-0.000639 -0.000473  0.026555)
 23:   1002.53   0.000176    0.89  0.000055  ( 0.005976 -0.000030  0.004368)
 24:   1003.79   0.007927   40.06  0.002464  (-0.049440 -0.004468  0.000429)
 25:   1013.20   0.003279   16.57  0.001010  (-0.031765 -0.000997  0.000237)
 26:   1017.15   0.000292    1.47  0.000090  ( 0.001550 -0.000053  0.009333)
 27:   1086.36   0.115481  583.59  0.033173  ( 0.179944 -0.028158  0.000516)
 28:   1111.88   0.032542  164.45  0.009133  (-0.091346 -0.028093 -0.000340)
 29:   1157.27   0.004006   20.24  0.001080  (-0.027149  0.018522 -0.000043)
 30:   1186.50   0.007688   38.85  0.002022  (-0.044777 -0.004118 -0.000077)
 31:   1247.93   0.055859  282.29  0.013968  (-0.112143 -0.037311 -0.000479)
 32:   1269.31   0.049684  251.08  0.012215  ( 0.110475  0.003156  0.000384)
 33:   1337.50   0.005196   26.26  0.001212  (-0.030079 -0.017539 -0.000191)
 34:   1403.47   0.002478   12.52  0.000551  (-0.002040  0.023384 -0.000005)
 35:   1438.73   0.014189   71.71  0.003078  ( 0.012680 -0.054008  0.000041)
 36:   1457.06   0.000734    3.71  0.000157  (-0.010488  0.006842  0.000546)
 37:   1503.65   0.027580  139.38  0.005724  (-0.074643  0.012342  0.000382)
 38:   1512.10   0.047650  240.80  0.009834  ( 0.098965  0.006302  0.000112)
 39:   1531.78   0.003793   19.17  0.000773  (-0.006790 -0.026956  0.000041)
 40:   1643.55   0.051624  260.89  0.009802  ( 0.098254  0.012169 -0.000024)
 41:   3142.47   0.000581    2.94  0.000058  ( 0.007525  0.001047  0.000072)
 42:   3192.50   0.000058    0.29  0.000006  ( 0.002351 -0.000341 -0.000108)
 43:   3196.73   0.000355    1.80  0.000035  (-0.005856  0.000629 -0.000063)
 44:   3205.44   0.000732    3.70  0.000071  ( 0.005071  0.006747  0.000105)
 45:   3213.10   0.001141    5.77  0.000111  ( 0.010355 -0.001902 -0.000051)
 46:   3218.54   0.001705    8.62  0.000165  (-0.012850  0.000423 -0.000060)
 47:   3545.12   0.262526  1326.70  0.023109  ( 0.145111 -0.045297  0.000190)

--------------------------
THERMOCHEMISTRY AT 298.15K
--------------------------

Temperature         ...   298.15 K
Pressure            ...     1.00 atm
Total Mass          ...   121.14 AMU
Quasi RRHO          ...     True
Cut-Off Frequency   ...     1.00 cm^-1

Throughout the following assumptions are being made:
  (1) The electronic state is orbitally nondegenerate
      but the spin degeneracy is treated
  (2) There are no thermally accessible electronically excited states
  (3) Hindered rotations indicated by low frequency modes are not
      treated as such but are treated as vibrations and this may
      cause some error
  (4) All equations used are the standard statistical mechanics
      equations for an ideal gas
  (5) All vibrations are strictly harmonic

freq.      70.79  E(vib)   ...       0.50
freq.     158.02  E(vib)   ...       0.40
freq.     164.62  E(vib)   ...       0.39
freq.     238.85  E(vib)   ...       0.32
freq.     366.52  E(vib)   ...       0.22
freq.     387.25  E(vib)   ...       0.20
freq.     422.46  E(vib)   ...       0.18
freq.     446.73  E(vib)   ...       0.17
freq.     551.13  E(vib)   ...       0.12
freq.     582.46  E(vib)   ...       0.11
freq.     619.16  E(vib)   ...       0.09
freq.     648.66  E(vib)   ...       0.08
freq.     785.67  E(vib)   ...       0.05
freq.     807.14  E(vib)   ...       0.05
freq.     877.13  E(vib)   ...       0.04
freq.     949.05  E(vib)   ...       0.03
freq.     974.96  E(vib)   ...       0.03
freq.    1002.53  E(vib)   ...       0.02
freq.    1003.79  E(vib)   ...       0.02
freq.    1013.20  E(vib)   ...       0.02
freq.    1017.15  E(vib)   ...       0.02
freq.    1086.36  E(vib)   ...       0.02
freq.    1111.88  E(vib)   ...       0.01
freq.    1157.27  E(vib)   ...       0.01
freq.    1186.50  E(vib)   ...       0.01
freq.    1247.93  E(vib)   ...       0.01
freq.    1269.31  E(vib)   ...       0.01
freq.    1337.50  E(vib)   ...       0.01
freq.    1403.47  E(vib)   ...       0.00
freq.    1438.73  E(vib)   ...       0.00
freq.    1457.06  E(vib)   ...       0.00
freq.    1503.65  E(vib)   ...       0.00
freq.    1512.10  E(vib)   ...       0.00
freq.    1531.78  E(vib)   ...       0.00
freq.    1643.55  E(vib)   ...       0.00
freq.    3142.47  E(vib)   ...       0.00
freq.    3192.50  E(vib)   ...       0.00
freq.    3196.73  E(vib)   ...       0.00
freq.    3205.44  E(vib)   ...       0.00
freq.    3213.10  E(vib)   ...       0.00
freq.    3218.54  E(vib)   ...       0.00
freq.    3545.12  E(vib)   ...       0.00

------------
INNER ENERGY
------------

The inner energy is: U= E(el) + E(ZPE) + E(vib) + E(rot) + E(trans)
    E(el)   - is the total energy from the electronic structure calculation
              = E(kin-el) + E(nuc-el) + E(el-el) + E(nuc-nuc)
    E(ZPE)  - the the zero temperature vibrational energy from the frequency calculation
    E(vib)  - the the finite temperature correction to E(ZPE) due to population
              of excited vibrational states
    E(rot)  - is the rotational thermal energy
    E(trans)- is the translational thermal energy

Summary of contributions to the inner energy U:
Electronic energy                ...   -400.59646501 Eh
Zero point energy                ...      0.12458901 Eh      78.18 kcal/mol
Thermal vibrational correction   ...      0.00501158 Eh       3.14 kcal/mol
Thermal rotational correction    ...      0.00141627 Eh       0.89 kcal/mol
Thermal translational correction ...      0.00141627 Eh       0.89 kcal/mol
-----------------------------------------------------------------------
Total thermal energy                   -400.46403188 Eh

Summary of corrections to the electronic energy:
(perhaps to be used in another calculation)
Total thermal correction                  0.00784412 Eh       4.92 kcal/mol
Non-thermal (ZPE) correction              0.12458901 Eh      78.18 kcal/mol
-----------------------------------------------------------------------
Total correction                          0.13243313 Eh      83.10 kcal/mol

--------
ENTHALPY
--------

The enthalpy is H = U + kB*T
                kB is Boltzmann's constant
Total thermal energy              ...   -400.46403188 Eh
Thermal Enthalpy correction       ...      0.00094421 Eh       0.59 kcal/mol
-----------------------------------------------------------------------
Total Enthalpy                    ...   -400.46308767 Eh

Note: Only C1 symmetry has been detected, increase convergence thresholds
      if your molecule has a higher symmetry. Symmetry factor of 1.0 is
      used for the rotational entropy correction.

Note: Rotational entropy computed according to Herzberg
Infrared and Raman Spectra, Chapter V,1, Van Nostrand Reinhold, 1945
Point Group:  C1, Symmetry Number:   1
Rotational constants in cm-1:     0.167493     0.031097     0.026228

Vibrational entropy computed according to the QRRHO of S. Grimme
Chem.Eur.J. 2012 18 9955 using a reference frequency of 100.0 cm-1

-------
ENTROPY
-------

The entropy contributions are T*S = T*(S(el)+S(vib)+S(rot)+S(trans))
     S(el)   - electronic entropy
     S(vib)  - vibrational entropy
     S(rot)  - rotational entropy
     S(trans)- translational entropy
The entropies will be listed as multiplied by the temperature to get
units of energy

Electronic entropy                ...      0.00065446 Eh      0.41 kcal/mol
Vibrational entropy               ...      0.00826556 Eh      5.19 kcal/mol
Rotational entropy                ...      0.01371165 Eh      8.60 kcal/mol
Translational entropy             ...      0.01914284 Eh     12.01 kcal/mol
-----------------------------------------------------------------------
Final entropy term                ...      0.04177450 Eh     26.21 kcal/mol

In case the symmetry of your molecule has not been determined correctly
or in case you have a reason to use a different symmetry number we print
out the resulting rotational entropy values for sn=1,12:

 non-linear molecules -----------------------------------
|  sn= 1 | S(rot)=       0.01371165 Eh      8.60 kcal/mol|
|  sn= 2 | S(rot)=       0.01305719 Eh      8.19 kcal/mol|
|  sn= 3 | S(rot)=       0.01267436 Eh      7.95 kcal/mol|
|  sn= 4 | S(rot)=       0.01240273 Eh      7.78 kcal/mol|
|  sn= 5 | S(rot)=       0.01219205 Eh      7.65 kcal/mol|
|  sn= 6 | S(rot)=       0.01201990 Eh      7.54 kcal/mol|
|  sn= 7 | S(rot)=       0.01187435 Eh      7.45 kcal/mol|
|  sn= 8 | S(rot)=       0.01174828 Eh      7.37 kcal/mol|
|  sn= 9 | S(rot)=       0.01163707 Eh      7.30 kcal/mol|
|  sn=10 | S(rot)=       0.01153759 Eh      7.24 kcal/mol|
|  sn=11 | S(rot)=       0.01144760 Eh      7.18 kcal/mol|
|  sn=12 | S(rot)=       0.01136544 Eh      7.13 kcal/mol|
 linear molecules ---------------------------------------
|  Dinfh | S(rot)=       0.00876350 Eh      5.50 kcal/mol|
|  Cinfv | S(rot)=       0.00941796 Eh      5.91 kcal/mol|
 --------------------------------------------------------

                             ****ORCA TERMINATED NORMALLY****
TOTAL RUN TIME: 0 days 0 hours 29 minutes 31 seconds 381 msec
