                         Program Version 6.0.0  -   RELEASE  -
|  1> !B3LYP aug-cc-pVTZ d3 TightSCF SlowConv RIJCOSX defgrid2
|  2>
|  3> %pal
|  4> nprocs 4
|  5> end
|  6>
|  7> %scf
|  8> MaxIter 1500
|  9> end
| 10>
| 11> %maxcore 3000
| 12>
| 13> !CPCM
| 14> %cpcm smd true
| 15> SMDsolvent "MeCN"
| 16> surfacetype gepol_ses
| 17> rsolv 2.19
| 18> end
| 19>
| 20> * xyz 1 2
| 21> C          -2.34552987536684     -1.21989010437598      0.39037314372658
| 22> C          -3.61895068813073     -0.68175269434440      0.38389142559167
| 23> C          -3.82314603181153      0.63223129507657     -0.05997707610989
| 24> C          -2.74291757400101      1.40018818267067     -0.51535069014080
| 25> C          -1.45991639594185      0.88100768107606     -0.50933331005631
| 26> C          -1.24682427758412     -0.43286197652402     -0.02997852330470
| 27> N          -0.00000583482740     -1.01085724580805     -0.00004772669115
| 28> C           1.24681241286631     -0.43287174597834      0.02990526482063
| 29> C           1.45990511527645      0.88100588629127      0.50923458111131
| 30> C           2.74292315008343      1.40015182716249      0.51533074845338
| 31> C           3.82316479830717      0.63215150787923      0.06005371973868
| 32> C           3.61896072254659     -0.68183818250133     -0.38379986432228
| 33> C           2.34552582381883     -1.21993769489926     -0.39035690905535
| 34> H           2.17816875399825     -2.24126262631785     -0.74631287979897
| 35> H           4.46447935418444     -1.28373988515481     -0.72627658434262
| 36> H           4.83264524497399      1.05187382862867      0.07202071830295
| 37> H           2.91442484546385      2.40736518053646      0.90385483105346
| 38> H           0.63238245735310      1.45557255022259      0.92936286739960
| 39> H          -0.00000303273582     -2.03154086007956     -0.00006285746572
| 40> H          -0.63240635676261      1.45553755141713     -0.92953302648471
| 41> H          -2.91442477275671      2.40739802155151     -0.90387838458025
| 42> H          -4.83260942910992      1.05198735407979     -0.07187345817988
| 43> H          -4.46446345632637     -1.28362150345028      0.72644056993610
| 44> H          -2.17818095351749     -2.24120514715858      0.74635382039827
| 45> *
| 46>
| 47>                          ****END OF INPUT****

CARTESIAN COORDINATES (ANGSTROEM)
---------------------------------
  C     -2.345530   -1.219890    0.390373
  C     -3.618951   -0.681753    0.383891
  C     -3.823146    0.632231   -0.059977
  C     -2.742918    1.400188   -0.515351
  C     -1.459916    0.881008   -0.509333
  C     -1.246824   -0.432862   -0.029979
  N     -0.000006   -1.010857   -0.000048
  C      1.246812   -0.432872    0.029905
  C      1.459905    0.881006    0.509235
  C      2.742923    1.400152    0.515331
  C      3.823165    0.632152    0.060054
  C      3.618961   -0.681838   -0.383800
  C      2.345526   -1.219938   -0.390357
  H      2.178169   -2.241263   -0.746313
  H      4.464479   -1.283740   -0.726277
  H      4.832645    1.051874    0.072021
  H      2.914425    2.407365    0.903855
  H      0.632382    1.455573    0.929363
  H     -0.000003   -2.031541   -0.000063
  H     -0.632406    1.455538   -0.929533
  H     -2.914425    2.407398   -0.903878
  H     -4.832609    1.051987   -0.071873
  H     -4.464463   -1.283622    0.726441
  H     -2.178181   -2.241205    0.746354

 Total Charge           Charge          ....    1
 Multiplicity           Mult            ....    2
 Number of Electrons    NEL             ....   89
 Basis Dimension        Dim             ....  851

ORBITAL ENERGIES
----------------
                 SPIN UP ORBITALS
  NO   OCC          E(Eh)            E(eV)
   0   1.0000     -14.427407      -392.5897
   1   1.0000     -10.260919      -279.2138
   2   1.0000     -10.260896      -279.2132
   3   1.0000     -10.210034      -277.8291
   4   1.0000     -10.209997      -277.8282
   5   1.0000     -10.209943      -277.8267
   6   1.0000     -10.209937      -277.8265
   7   1.0000     -10.206785      -277.7407
   8   1.0000     -10.206781      -277.7406
   9   1.0000     -10.199488      -277.5422
  10   1.0000     -10.199468      -277.5416
  11   1.0000     -10.199217      -277.5348
  12   1.0000     -10.199213      -277.5347
  13   1.0000      -1.021900       -27.8073
  14   1.0000      -0.890421       -24.2296
  15   1.0000      -0.869800       -23.6685
  16   1.0000      -0.793602       -21.5950
  17   1.0000      -0.780475       -21.2378
  18   1.0000      -0.772969       -21.0336
  19   1.0000      -0.745390       -20.2831
  20   1.0000      -0.662836       -18.0367
  21   1.0000      -0.657419       -17.8893
  22   1.0000      -0.625156       -17.0114
  23   1.0000      -0.608824       -16.5670
  24   1.0000      -0.564420       -15.3587
  25   1.0000      -0.561337       -15.2748
  26   1.0000      -0.523074       -14.2336
  27   1.0000      -0.503930       -13.7126
  28   1.0000      -0.488356       -13.2888
  29   1.0000      -0.471134       -12.8202
  30   1.0000      -0.459297       -12.4981
  31   1.0000      -0.455193       -12.3864
  32   1.0000      -0.447868       -12.1871
  33   1.0000      -0.445616       -12.1258
  34   1.0000      -0.435825       -11.8594
  35   1.0000      -0.401363       -10.9216
  36   1.0000      -0.389517       -10.5993
  37   1.0000      -0.379259       -10.3202
  38   1.0000      -0.373377       -10.1601
  39   1.0000      -0.367082        -9.9888
  40   1.0000      -0.358874        -9.7655
  41   1.0000      -0.290044        -7.8925
  42   1.0000      -0.287183        -7.8146
  43   1.0000      -0.284729        -7.7479
  44   1.0000      -0.241489        -6.5712
  45   0.0000      -0.053216        -1.4481
  46   0.0000      -0.039368        -1.0712
  47   0.0000      -0.036921        -1.0047
  48   0.0000      -0.016719        -0.4550
  49   0.0000      -0.008346        -0.2271

                 SPIN DOWN ORBITALS
  NO   OCC          E(Eh)            E(eV)
   0   1.0000     -14.418634      -392.3510
   1   1.0000     -10.261419      -279.2274
   2   1.0000     -10.261397      -279.2268
   3   1.0000     -10.207920      -277.7716
   4   1.0000     -10.207885      -277.7707
   5   1.0000     -10.207833      -277.7693
   6   1.0000     -10.207826      -277.7691
   7   1.0000     -10.203854      -277.6610
   8   1.0000     -10.203851      -277.6609
   9   1.0000     -10.200441      -277.5681
  10   1.0000     -10.200420      -277.5675
  11   1.0000     -10.200180      -277.5610
  12   1.0000     -10.200175      -277.5609
  13   1.0000      -1.007984       -27.4286
  14   1.0000      -0.886782       -24.1306
  15   1.0000      -0.864963       -23.5368
  16   1.0000      -0.789958       -21.4959
  17   1.0000      -0.777801       -21.1650
  18   1.0000      -0.770691       -20.9716
  19   1.0000      -0.737184       -20.0598
  20   1.0000      -0.658337       -17.9143
  21   1.0000      -0.655040       -17.8246
  22   1.0000      -0.622424       -16.9370
  23   1.0000      -0.605892       -16.4872
  24   1.0000      -0.562676       -15.3112
  25   1.0000      -0.558031       -15.1848
  26   1.0000      -0.520389       -14.1605
  27   1.0000      -0.500870       -13.6294
  28   1.0000      -0.480046       -13.0627
  29   1.0000      -0.469685       -12.7808
  30   1.0000      -0.453054       -12.3282
  31   1.0000      -0.453026       -12.3275
  32   1.0000      -0.444782       -12.1031
  33   1.0000      -0.444637       -12.0992
  34   1.0000      -0.425630       -11.5820
  35   1.0000      -0.391913       -10.6645
  36   1.0000      -0.387953       -10.5567
  37   1.0000      -0.377778       -10.2799
  38   1.0000      -0.366358        -9.9691
  39   1.0000      -0.365986        -9.9590
  40   1.0000      -0.343446        -9.3457
  41   1.0000      -0.281695        -7.6653
  42   1.0000      -0.279105        -7.5948
  43   1.0000      -0.272982        -7.4282
  44   0.0000      -0.173035        -4.7085
  45   0.0000      -0.043738        -1.1902
  46   0.0000      -0.033417        -0.9093
  47   0.0000      -0.030136        -0.8201
  48   0.0000      -0.008043        -0.2189

MULLIKEN ATOMIC CHARGES AND SPIN POPULATIONS
--------------------------------------------
   0 C :   -0.705642    0.126953
   1 C :   -0.464689   -0.064161
   2 C :   -0.321171    0.198929
   3 C :   -0.905925   -0.065117
   4 C :   -0.379636    0.140037
   5 C :    1.141414    0.007642
   6 N :   -0.518180    0.365562
   7 C :    1.147261    0.007206
   8 C :   -0.368456    0.139058
   9 C :   -0.902872   -0.064643
  10 C :   -0.337821    0.198766
  11 C :   -0.436988   -0.064558
  12 C :   -0.734296    0.126463
  13 H :    0.474264   -0.016181
  14 H :    0.401316   -0.000242
  15 H :    0.515388    0.000783
  16 H :    0.362921    0.003144
  17 H :    0.652053   -0.007692
  18 H :   -0.024949   -0.009854
  19 H :    0.656013   -0.008463
  20 H :    0.362970    0.003461
  21 H :    0.520567    0.000581
  22 H :    0.393898   -0.000612
  23 H :    0.472562   -0.017063
Sum of atomic charges         :    1.0000000

LOEWDIN ATOMIC CHARGES AND SPIN POPULATIONS
-------------------------------------------
   0 C :    0.262748    0.064871
   1 C :    0.226808    0.018999
   2 C :    0.232520    0.092966
   3 C :    0.231968    0.019632
   4 C :    0.249017    0.066402
   5 C :   -0.154564    0.067102
   6 N :    0.623938    0.237331
   7 C :   -0.154638    0.067094
   8 C :    0.249089    0.066356
   9 C :    0.231899    0.019622
  10 C :    0.232509    0.092916
  11 C :    0.226788    0.018992
  12 C :    0.262661    0.064823
  13 H :   -0.137931    0.012123
  14 H :   -0.153423   -0.005029
  15 H :   -0.151586    0.022616
  16 H :   -0.152187   -0.004634
  17 H :   -0.160818    0.013030
  18 H :   -0.208721    0.026655
  19 H :   -0.160960    0.013045
  20 H :   -0.152168   -0.004637
  21 H :   -0.151593    0.022629
  22 H :   -0.153419   -0.005033
  23 H :   -0.137937    0.012131

  Mayer bond orders larger than 0.100000
B(  0-C ,  1-C ) :   1.2756 B(  0-C ,  2-C ) :   0.1147 B(  0-C ,  5-C ) :   0.3877
B(  0-C , 23-H ) :   0.5002 B(  1-C ,  2-C ) :   1.0753 B(  1-C ,  5-C ) :  -0.2412
B(  1-C , 22-H ) :   0.7632 B(  2-C ,  3-C ) :   1.2317 B(  2-C ,  4-C ) :   0.1791
B(  2-C , 21-H ) :   0.5475 B(  3-C ,  4-C ) :   1.3631 B(  3-C ,  5-C ) :  -0.3335
B(  3-C , 20-H ) :   0.8003 B(  4-C ,  5-C ) :   0.5596 B(  4-C ,  6-N ) :  -0.1562
B(  4-C ,  7-C ) :   0.1558 B(  4-C , 17-H ) :  -0.1212 B(  4-C , 19-H ) :   0.3463
B(  5-C ,  6-N ) :   0.7471 B(  5-C ,  8-C ) :   0.1469 B(  5-C , 17-H ) :  -0.1407
B(  6-N ,  7-C ) :   0.7357 B(  6-N ,  8-C ) :  -0.1658 B(  6-N , 18-H ) :   1.3258
B(  7-C ,  8-C ) :   0.5578 B(  7-C ,  9-C ) :  -0.3283 B(  7-C , 11-C ) :  -0.2496
B(  7-C , 12-C ) :   0.3842 B(  7-C , 19-H ) :  -0.1146 B(  8-C ,  9-C ) :   1.3488
B(  8-C , 10-C ) :   0.1813 B(  8-C , 17-H ) :   0.3496 B(  8-C , 19-H ) :  -0.1260
B(  9-C , 10-C ) :   1.2441 B(  9-C , 16-H ) :   0.7997 B( 10-C , 11-C ) :   1.0660
B( 10-C , 12-C ) :   0.1253 B( 10-C , 15-H ) :   0.5532 B( 11-C , 12-C ) :   1.3166
B( 11-C , 14-H ) :   0.7537 B( 12-C , 13-H ) :   0.4933

Dispersion correction           -0.048650606
FINAL SINGLE POINT ENERGY      -518.391137775644

DIPOLE MOMENT
-------------

Method             : SCF
Type of density    : Electron Density
Multiplicity       :   2
Irrep              :   0
Energy             :  -518.3424871693766818 Eh
Relativity type    :
Basis              : AO
                                X                 Y                 Z
Electronic contribution:     -0.001058819      -1.447119309       0.003693779
Nuclear contribution   :      0.000010787       0.666083860       0.000129839
                        -----------------------------------------
Total Dipole Moment    :     -0.001048033      -0.781035449       0.003823619
                        -----------------------------------------
Magnitude (a.u.)       :      0.781045512
Magnitude (Debye)      :      1.985259920

Rotational constants in cm-1:             0.083302             0.013962             0.012406
Rotational constants in MHz :          2497.339782           418.559791           371.935015

                             ****ORCA TERMINATED NORMALLY****
TOTAL RUN TIME: 0 days 0 hours 9 minutes 15 seconds 289 msec
