                         Program Version 6.0.0  -   RELEASE  -
|  1> !PBE0 def2-SV(p) Opt Freq d3 TightSCF SlowConv RIJCOSX defgrid2
|  2>
|  3> %pal
|  4> nprocs 15
|  5> end
|  6>
|  7> %scf
|  8> MaxIter 1500
|  9> end
| 10>
| 11> %maxcore 3500
| 12>
| 13>
| 14>
| 15> * xyz -1 2
| 16> C        0.000000000      0.000000000      0.000000000
| 17> C        0.000000000      1.373319056      0.090541189
| 18> C        0.000000000      2.005801373      1.358202556
| 19> C        0.000000000      1.252280933      2.509901250
| 20> C        0.000000000     -0.167564122      2.452067234
| 21> C        0.000000000     -0.807631659      1.169203086
| 22> C        0.000000000     -2.227476714      1.111369070
| 23> C        0.000000000     -2.980997154      2.263067764
| 24> C        0.000000000     -2.348514836      3.530729131
| 25> C        0.000000000     -0.975195780      3.621270320
| 26> H        0.000000000     -0.487597890      4.592806506
| 27> H        0.000000000     -2.953782701      4.432518609
| 28> H        0.000000000     -4.065491075      2.204361841
| 29> H        0.000000000     -2.710489610      0.137545264
| 30> C        0.000000000      3.543550002      1.441444104
| 31> H       -1.020692000      3.941505213      1.471906292
| 32> H        0.518060000      3.894447577      2.341217560
| 33> H        0.502632000      3.990007252      0.575912090
| 34> C        0.000000000      2.231553308     -1.188143279
| 35> H        1.020692000      2.446529534     -1.524419232
| 36> H       -0.518060000      1.723670938     -2.009591316
| 37> H       -0.502632000      3.191575797     -1.024355113
| 38> O        0.000000000      1.892133153      3.799935799
| 39> O        0.000000000     -0.645926009     -1.287004115
| 40> *
| 41>
| 42>                          ****END OF INPUT****
 Total Charge           Charge          ....   -1
 Multiplicity           Mult            ....    2
 Number of Electrons    NEL             ....   99
Dispersion correction           -0.026265617
FINAL SINGLE POINT ENERGY      -612.606669417671
Dispersion correction             ... done (  0.1 sec)
Dispersion correction           -0.026348271
FINAL SINGLE POINT ENERGY      -612.651840894645
Dispersion correction             ... done (  0.1 sec)
Dispersion correction           -0.026412583
FINAL SINGLE POINT ENERGY      -612.668086169564
Dispersion correction             ... done (  0.1 sec)
FINAL SINGLE POINT ENERGY      -612.670838343896
FINAL SINGLE POINT ENERGY      -612.671483206053
FINAL SINGLE POINT ENERGY      -612.671715790027
FINAL SINGLE POINT ENERGY      -612.672100591274
FINAL SINGLE POINT ENERGY      -612.672337964486
FINAL SINGLE POINT ENERGY      -612.672563947543
FINAL SINGLE POINT ENERGY      -612.672622501650
Dispersion correction             ... done (  0.1 sec)
Dispersion correction           -0.026405172
FINAL SINGLE POINT ENERGY      -612.672634890222
Dispersion correction             ... done (  0.1 sec)
Dispersion correction           -0.026402425
FINAL SINGLE POINT ENERGY      -612.672637788394
Dispersion correction             ... done (  0.1 sec)
                    ***********************HURRAY********************

CARTESIAN COORDINATES (ANGSTROEM)
---------------------------------
  C     -0.060590   -0.027866   -0.066367
  C     -0.029153    1.412009    0.086696
  C      0.027984    2.032334    1.329818
  C      0.058918    1.288514    2.572229
  C      0.027885   -0.174428    2.444884
  C     -0.029128   -0.806048    1.178946
  C     -0.056001   -2.211900    1.114908
  C     -0.027782   -2.979122    2.266761
  C      0.028643   -2.350432    3.526929
  C      0.055743   -0.968757    3.606608
  H      0.099617   -0.441374    4.563975
  H      0.050974   -2.956102    4.440404
  H     -0.049098   -4.073206    2.201237
  H     -0.099845   -2.659714    0.117855
  C      0.061186    3.527612    1.446306
  H     -0.836319    3.999248    0.999731
  H      0.109558    3.796611    2.513646
  H      0.936304    3.964653    0.926465
  C     -0.060702    2.218025   -1.178306
  H      0.837068    2.858390   -1.284737
  H     -0.107919    1.526905   -2.035024
  H     -0.935798    2.896211   -1.216550
  O      0.109277    1.838850    3.696573
  O     -0.110824   -0.594706   -1.182501

 Multiplicity           Mult            ....    2
 Number of Electrons    NEL             ....   99
 Basis Dimension        Dim             ....  216

ORBITAL ENERGIES
----------------
                 SPIN UP ORBITALS
  NO   OCC          E(Eh)            E(eV)
   0   1.0000     -19.011964      -517.3418
   1   1.0000     -19.011950      -517.3415
   2   1.0000     -10.129780      -275.6453
   3   1.0000     -10.129670      -275.6423
   4   1.0000     -10.104648      -274.9614
   5   1.0000     -10.104273      -274.9512
   6   1.0000     -10.095529      -274.7133
   7   1.0000     -10.095422      -274.7104
   8   1.0000     -10.090054      -274.5643
   9   1.0000     -10.089699      -274.5547
  10   1.0000     -10.086437      -274.4659
  11   1.0000     -10.086352      -274.4636
  12   1.0000     -10.085244      -274.4335
  13   1.0000     -10.084811      -274.4217
  14   1.0000      -0.866542       -23.5798
  15   1.0000      -0.863492       -23.4968
  16   1.0000      -0.736641       -20.0450
  17   1.0000      -0.693521       -18.8717
  18   1.0000      -0.636728       -17.3263
  19   1.0000      -0.626072       -17.0363
  20   1.0000      -0.604483       -16.4488
  21   1.0000      -0.552010       -15.0210
  22   1.0000      -0.525550       -14.3010
  23   1.0000      -0.475707       -12.9446
  24   1.0000      -0.462182       -12.5766
  25   1.0000      -0.425682       -11.5834
  26   1.0000      -0.389934       -10.6106
  27   1.0000      -0.365120        -9.9354
  28   1.0000      -0.338345        -9.2068
  29   1.0000      -0.329835        -8.9753
  30   1.0000      -0.315995        -8.5986
  31   1.0000      -0.299678        -8.1547
  32   1.0000      -0.288723        -7.8565
  33   1.0000      -0.278046        -7.5660
  34   1.0000      -0.276223        -7.5164
  35   1.0000      -0.273470        -7.4415
  36   1.0000      -0.263387        -7.1671
  37   1.0000      -0.261565        -7.1175
  38   1.0000      -0.255381        -6.9493
  39   1.0000      -0.237694        -6.4680
  40   1.0000      -0.232220        -6.3190
  41   1.0000      -0.223240        -6.0747
  42   1.0000      -0.213495        -5.8095
  43   1.0000      -0.205573        -5.5939
  44   1.0000      -0.135878        -3.6974
  45   1.0000      -0.129546        -3.5251
  46   1.0000      -0.112244        -3.0543
  47   1.0000      -0.105789        -2.8787
  48   1.0000      -0.092978        -2.5301
  49   1.0000      -0.008669        -0.2359
  50   0.0000       0.116767         3.1774
  51   0.0000       0.129085         3.5126
  52   0.0000       0.192290         5.2325
  53   0.0000       0.197644         5.3782
  54   0.0000       0.213466         5.8087

                 SPIN DOWN ORBITALS
  NO   OCC          E(Eh)            E(eV)
   0   1.0000     -19.004541      -517.1398
   1   1.0000     -19.004526      -517.1394
   2   1.0000     -10.128696      -275.6158
   3   1.0000     -10.128590      -275.6129
   4   1.0000     -10.104204      -274.9494
   5   1.0000     -10.103824      -274.9390
   6   1.0000     -10.095676      -274.7173
   7   1.0000     -10.095570      -274.7144
   8   1.0000     -10.089280      -274.5433
   9   1.0000     -10.088916      -274.5334
  10   1.0000     -10.086604      -274.4705
  11   1.0000     -10.086519      -274.4681
  12   1.0000     -10.083705      -274.3916
  13   1.0000     -10.083251      -274.3792
  14   1.0000      -0.854296       -23.2466
  15   1.0000      -0.850773       -23.1507
  16   1.0000      -0.734515       -19.9872
  17   1.0000      -0.688798       -18.7431
  18   1.0000      -0.634373       -17.2622
  19   1.0000      -0.624428       -16.9916
  20   1.0000      -0.601191       -16.3592
  21   1.0000      -0.550075       -14.9683
  22   1.0000      -0.518382       -14.1059
  23   1.0000      -0.474901       -12.9227
  24   1.0000      -0.458086       -12.4652
  25   1.0000      -0.423456       -11.5228
  26   1.0000      -0.387833       -10.5535
  27   1.0000      -0.362814        -9.8727
  28   1.0000      -0.335876        -9.1397
  29   1.0000      -0.328561        -8.9406
  30   1.0000      -0.310179        -8.4404
  31   1.0000      -0.299444        -8.1483
  32   1.0000      -0.285286        -7.7630
  33   1.0000      -0.274451        -7.4682
  34   1.0000      -0.271389        -7.3849
  35   1.0000      -0.264273        -7.1912
  36   1.0000      -0.262582        -7.1452
  37   1.0000      -0.260111        -7.0780
  38   1.0000      -0.251122        -6.8334
  39   1.0000      -0.231373        -6.2960
  40   1.0000      -0.211791        -5.7631
  41   1.0000      -0.209595        -5.7034
  42   1.0000      -0.209345        -5.6966
  43   1.0000      -0.202940        -5.5223
  44   1.0000      -0.122166        -3.3243
  45   1.0000      -0.112254        -3.0546
  46   1.0000      -0.099087        -2.6963
  47   1.0000      -0.093352        -2.5402
  48   1.0000      -0.086400        -2.3511
  49   0.0000       0.073665         2.0045
  50   0.0000       0.123812         3.3691
  51   0.0000       0.143856         3.9145
  52   0.0000       0.192765         5.2454
  53   0.0000       0.197904         5.3852

MULLIKEN ATOMIC CHARGES AND SPIN POPULATIONS
--------------------------------------------
   0 C :    0.137851    0.068839
   1 C :   -0.174570    0.109116
   2 C :   -0.175550    0.109031
   3 C :    0.138026    0.068857
   4 C :   -0.036333    0.053153
   5 C :   -0.036471    0.053072
   6 C :   -0.148221   -0.009225
   7 C :   -0.091569    0.029977
   8 C :   -0.091353    0.030034
   9 C :   -0.148041   -0.009273
  10 H :    0.063914   -0.000827
  11 H :    0.050247   -0.002070
  12 H :    0.050381   -0.002067
  13 H :    0.064073   -0.000827
  14 C :   -0.272690   -0.014470
  15 H :    0.094749    0.005185
  16 H :    0.125353   -0.000862
  17 H :    0.094703    0.005118
  18 C :   -0.273473   -0.014477
  19 H :    0.094829    0.005174
  20 H :    0.125407   -0.000864
  21 H :    0.094616    0.005125
  22 O :   -0.342922    0.256118
  23 O :   -0.342956    0.256164
Sum of atomic charges         :   -1.0000000

LOEWDIN ATOMIC CHARGES AND SPIN POPULATIONS
-------------------------------------------
   0 C :   -0.001530    0.080942
   1 C :   -0.104711    0.093244
   2 C :   -0.104782    0.093192
   3 C :   -0.001504    0.080938
   4 C :   -0.064066    0.048681
   5 C :   -0.064087    0.048637
   6 C :   -0.116973   -0.002790
   7 C :   -0.163221    0.026745
   8 C :   -0.163144    0.026785
   9 C :   -0.116954   -0.002822
  10 H :    0.123403   -0.000417
  11 H :    0.105833   -0.000969
  12 H :    0.105856   -0.000967
  13 H :    0.123438   -0.000418
  14 C :   -0.335212   -0.003559
  15 H :    0.110313    0.004642
  16 H :    0.126214   -0.000449
  17 H :    0.110300    0.004581
  18 C :   -0.335244   -0.003562
  19 H :    0.110318    0.004634
  20 H :    0.126237   -0.000449
  21 H :    0.110251    0.004588
  22 O :   -0.290367    0.249374
  23 O :   -0.290368    0.249421

  Mayer bond orders larger than 0.100000
B(  0-C ,  1-C ) :   1.1757 B(  0-C ,  5-C ) :   1.0343 B(  0-C , 23-O ) :   1.8966
B(  1-C ,  2-C ) :   1.4928 B(  1-C , 18-C ) :   1.1371 B(  2-C ,  3-C ) :   1.1756
B(  2-C , 14-C ) :   1.1374 B(  3-C ,  4-C ) :   1.0341 B(  3-C , 22-O ) :   1.8967
B(  4-C ,  5-C ) :   1.2913 B(  4-C ,  9-C ) :   1.3685 B(  5-C ,  6-C ) :   1.3681
B(  6-C ,  7-C ) :   1.4076 B(  6-C , 13-H ) :   0.9493 B(  7-C ,  8-C ) :   1.2871
B(  7-C , 12-H ) :   0.9672 B(  8-C ,  9-C ) :   1.4073 B(  8-C , 11-H ) :   0.9675
B(  9-C , 10-H ) :   0.9492 B( 14-C , 15-H ) :   0.9368 B( 14-C , 16-H ) :   0.9184
B( 14-C , 17-H ) :   0.9369 B( 18-C , 19-H ) :   0.9370 B( 18-C , 20-H ) :   0.9184
B( 18-C , 21-H ) :   0.9370

Dispersion correction           -0.026402128
FINAL SINGLE POINT ENERGY      -612.672638227728

DIPOLE MOMENT
-------------

Method             : SCF
Type of density    : Electron Density
Multiplicity       :   2
Irrep              :   0
Energy             :  -612.6462360992768481 Eh
Relativity type    :
Basis              : AO
                                X                 Y                 Z
Electronic contribution:     -0.006243606      -6.613966480       3.300060546
Nuclear contribution   :      0.007077470       6.336292283      -3.161748014
                        -----------------------------------------
Total Dipole Moment    :      0.000833864      -0.277674198       0.138312531
                        -----------------------------------------
Magnitude (a.u.)       :      0.310216073
Magnitude (Debye)      :      0.788506593

VIBRATIONAL FREQUENCIES
-----------------------

Scaling factor for frequencies =  1.000000000  (already applied!)

     0:       0.00 cm**-1
     1:       0.00 cm**-1
     2:       0.00 cm**-1
     3:       0.00 cm**-1
     4:       0.00 cm**-1
     5:       0.00 cm**-1
     6:      78.30 cm**-1
     7:     113.96 cm**-1
     8:     124.07 cm**-1
     9:     157.75 cm**-1
    10:     164.40 cm**-1
    11:     184.51 cm**-1
    12:     254.16 cm**-1
    13:     290.60 cm**-1
    14:     312.45 cm**-1
    15:     344.00 cm**-1
    16:     394.62 cm**-1
    17:     432.91 cm**-1
    18:     433.26 cm**-1
    19:     435.02 cm**-1
    20:     460.64 cm**-1
    21:     528.63 cm**-1
    22:     537.12 cm**-1
    23:     620.70 cm**-1
    24:     675.87 cm**-1
    25:     690.12 cm**-1
    26:     705.88 cm**-1
    27:     713.52 cm**-1
    28:     794.79 cm**-1
    29:     836.01 cm**-1
    30:     836.32 cm**-1
    31:     905.82 cm**-1
    32:     925.40 cm**-1
    33:     998.20 cm**-1
    34:    1001.02 cm**-1
    35:    1013.36 cm**-1
    36:    1017.14 cm**-1
    37:    1032.41 cm**-1
    38:    1050.76 cm**-1
    39:    1065.94 cm**-1
    40:    1108.36 cm**-1
    41:    1129.44 cm**-1
    42:    1140.51 cm**-1
    43:    1215.44 cm**-1
    44:    1219.01 cm**-1
    45:    1282.16 cm**-1
    46:    1282.63 cm**-1
    47:    1359.55 cm**-1
    48:    1379.99 cm**-1
    49:    1429.00 cm**-1
    50:    1430.82 cm**-1
    51:    1459.80 cm**-1
    52:    1467.18 cm**-1
    53:    1476.97 cm**-1
    54:    1492.42 cm**-1
    55:    1497.34 cm**-1
    56:    1522.14 cm**-1
    57:    1579.63 cm**-1
    58:    1609.06 cm**-1
    59:    1611.20 cm**-1
    60:    1683.84 cm**-1
    61:    1690.72 cm**-1
    62:    2997.73 cm**-1
    63:    2998.65 cm**-1
    64:    3059.95 cm**-1
    65:    3063.25 cm**-1
    66:    3142.28 cm**-1
    67:    3143.56 cm**-1
    68:    3159.05 cm**-1
    69:    3178.97 cm**-1
    70:    3209.61 cm**-1
    71:    3212.12 cm**-1

IR SPECTRUM
-----------

 Mode   freq       eps      Int      T**2         TX        TY        TZ
       cm**-1   L/(mol*cm) km/mol    a.u.
----------------------------------------------------------------------------
  6:     78.30   0.001256    6.35  0.005006  (-0.070692  0.001337  0.002512)
  7:    113.96   0.000000    0.00  0.000000  ( 0.000469 -0.000048 -0.000072)
  8:    124.07   0.000000    0.00  0.000000  ( 0.000016 -0.000010  0.000070)
  9:    157.75   0.000000    0.00  0.000000  (-0.000161  0.000045 -0.000017)
 10:    164.40   0.000043    0.22  0.000082  ( 0.009031 -0.000013 -0.000331)
 11:    184.51   0.000234    1.18  0.000396  ( 0.019880 -0.000462 -0.000771)
 12:    254.16   0.000461    2.33  0.000566  ( 0.000990  0.010616  0.021277)
 13:    290.60   0.000061    0.31  0.000065  ( 0.008084 -0.000193 -0.000283)
 14:    312.45   0.000315    1.59  0.000315  ( 0.000022  0.015902 -0.007858)
 15:    344.00   0.000025    0.13  0.000022  ( 0.000174  0.002174  0.004210)
 16:    394.62   0.001558    7.87  0.001232  (-0.000005  0.031423 -0.015646)
 17:    432.91   0.000001    0.01  0.000001  (-0.000023 -0.000844 -0.000394)
 18:    433.26   0.000044    0.22  0.000032  (-0.000247 -0.002414 -0.005115)
 19:    435.02   0.001123    5.68  0.000806  (-0.000011 -0.025411  0.012654)
 20:    460.64   0.000070    0.35  0.000047  ( 0.006869 -0.000091 -0.000230)
 21:    528.63   0.000007    0.04  0.000004  (-0.000008 -0.001839  0.000949)
 22:    537.12   0.000000    0.00  0.000000  (-0.000050 -0.000077  0.000029)
 23:    620.70   0.003350   16.93  0.001684  ( 0.001670  0.018257  0.036715)
 24:    675.87   0.000162    0.82  0.000075  ( 0.000051 -0.007753  0.003831)
 25:    690.12   0.000353    1.78  0.000159  ( 0.000451  0.005630  0.011295)
 26:    705.88   0.000000    0.00  0.000000  ( 0.000178  0.000072  0.000007)
 27:    713.52   0.010431   52.72  0.004562  ( 0.067486 -0.001244 -0.002498)
 28:    794.79   0.002118   10.70  0.000831  (-0.028814  0.000449  0.001012)
 29:    836.01   0.001549    7.83  0.000578  ( 0.000978  0.010781  0.021474)
 30:    836.32   0.000006    0.03  0.000002  (-0.000032  0.000652  0.001407)
 31:    905.82   0.000000    0.00  0.000000  ( 0.000042 -0.000025  0.000018)
 32:    925.40   0.000048    0.24  0.000016  (-0.000003  0.003622 -0.001752)
 33:    998.20   0.000198    1.00  0.000062  (-0.007851  0.000052  0.000354)
 34:   1001.02   0.000152    0.77  0.000047  (-0.000247 -0.003058 -0.006161)
 35:   1013.36   0.000000    0.00  0.000000  ( 0.000100  0.000046  0.000003)
 36:   1017.14   0.006831   34.52  0.002096  ( 0.000047 -0.040974  0.020414)
 37:   1032.41   0.000118    0.60  0.000036  (-0.005964 -0.000116  0.000403)
 38:   1050.76   0.002856   14.44  0.000848  (-0.000042  0.026085 -0.012957)
 39:   1065.94   0.000000    0.00  0.000000  ( 0.000014 -0.000220  0.000094)
 40:   1108.36   0.001237    6.25  0.000348  ( 0.000755  0.008420  0.016634)
 41:   1129.44   0.001937    9.79  0.000535  (-0.000911 -0.010269 -0.020710)
 42:   1140.51   0.000473    2.39  0.000129  ( 0.000004  0.010129 -0.005168)
 43:   1215.44   0.000032    0.16  0.000008  (-0.000004  0.002586 -0.001194)
 44:   1219.01   0.000000    0.00  0.000000  ( 0.000024 -0.000035  0.000323)
 45:   1282.16   0.001794    9.06  0.000437  ( 0.000804  0.014257  0.015252)
 46:   1282.63   0.008510   43.01  0.002071  ( 0.000115 -0.039526  0.022544)
 47:   1359.55   0.003543   17.90  0.000813  ( 0.001207  0.012621  0.025542)
 48:   1379.99   0.001647    8.32  0.000372  ( 0.000003  0.017291 -0.008569)
 49:   1429.00   0.001370    6.92  0.000299  ( 0.000653  0.007780  0.015434)
 50:   1430.82   0.001014    5.12  0.000221  (-0.000011  0.013326 -0.006598)
 51:   1459.80   0.000967    4.88  0.000207  (-0.000021  0.012578 -0.006957)
 52:   1467.18   0.015361   77.63  0.003267  (-0.002479 -0.025633 -0.051031)
 53:   1476.97   0.000001    0.00  0.000000  (-0.000008  0.000276 -0.000179)
 54:   1492.42   0.002724   13.77  0.000570  ( 0.023838 -0.000491 -0.001061)
 55:   1497.34   0.011639   58.82  0.002426  ( 0.000023 -0.044103  0.021925)
 56:   1522.14   0.000212    1.07  0.000044  ( 0.000267  0.002978  0.005879)
 57:   1579.63   0.005563   28.11  0.001099  ( 0.000018  0.029740 -0.014644)
 58:   1609.06   0.083033  419.61  0.016104  (-0.005092 -0.056428 -0.113549)
 59:   1611.20   0.005790   29.26  0.001121  (-0.000007 -0.030216  0.014436)
 60:   1683.84   0.003388   17.12  0.000628  (-0.001010 -0.011167 -0.022409)
 61:   1690.72   0.000086    0.43  0.000016  ( 0.000018  0.003601 -0.001707)
 62:   2997.73   0.003403   17.20  0.000354  (-0.000178  0.006982 -0.017479)
 63:   2998.65   0.033427  168.93  0.003479  ( 0.000031 -0.054043  0.023623)
 64:   3059.95   0.012928   65.33  0.001318  (-0.036282  0.000651  0.001286)
 65:   3063.25   0.000105    0.53  0.000011  (-0.003226 -0.000360  0.000391)
 66:   3142.28   0.000160    0.81  0.000016  ( 0.000069  0.003905  0.000786)
 67:   3143.56   0.001109    5.61  0.000110  ( 0.000395  0.004035  0.009678)
 68:   3159.05   0.003180   16.07  0.000314  ( 0.000701  0.007903  0.015848)
 69:   3178.97   0.009965   50.36  0.000978  ( 0.000014 -0.027993  0.013951)
 70:   3209.61   0.001927    9.74  0.000187  (-0.000518 -0.005288 -0.012615)
 71:   3212.12   0.004584   23.17  0.000445  ( 0.000013  0.019147 -0.008874)

--------------------------
THERMOCHEMISTRY AT 298.15K
--------------------------

Temperature         ...   298.15 K
Pressure            ...     1.00 atm
Total Mass          ...   186.21 AMU
Quasi RRHO          ...     True
Cut-Off Frequency   ...     1.00 cm^-1

Throughout the following assumptions are being made:
  (1) The electronic state is orbitally nondegenerate
      but the spin degeneracy is treated
  (2) There are no thermally accessible electronically excited states
  (3) Hindered rotations indicated by low frequency modes are not
      treated as such but are treated as vibrations and this may
      cause some error
  (4) All equations used are the standard statistical mechanics
      equations for an ideal gas
  (5) All vibrations are strictly harmonic

freq.      78.30  E(vib)   ...       0.49
freq.     113.96  E(vib)   ...       0.44
freq.     124.07  E(vib)   ...       0.43
freq.     157.75  E(vib)   ...       0.40
freq.     164.40  E(vib)   ...       0.39
freq.     184.51  E(vib)   ...       0.37
freq.     254.16  E(vib)   ...       0.30
freq.     290.60  E(vib)   ...       0.27
freq.     312.45  E(vib)   ...       0.25
freq.     344.00  E(vib)   ...       0.23
freq.     394.62  E(vib)   ...       0.20
freq.     432.91  E(vib)   ...       0.17
freq.     433.26  E(vib)   ...       0.17
freq.     435.02  E(vib)   ...       0.17
freq.     460.64  E(vib)   ...       0.16
freq.     528.63  E(vib)   ...       0.13
freq.     537.12  E(vib)   ...       0.12
freq.     620.70  E(vib)   ...       0.09
freq.     675.87  E(vib)   ...       0.08
freq.     690.12  E(vib)   ...       0.07
freq.     705.88  E(vib)   ...       0.07
freq.     713.52  E(vib)   ...       0.07
freq.     794.79  E(vib)   ...       0.05
freq.     836.01  E(vib)   ...       0.04
freq.     836.32  E(vib)   ...       0.04
freq.     905.82  E(vib)   ...       0.03
freq.     925.40  E(vib)   ...       0.03
freq.     998.20  E(vib)   ...       0.02
freq.    1001.02  E(vib)   ...       0.02
freq.    1013.36  E(vib)   ...       0.02
freq.    1017.14  E(vib)   ...       0.02
freq.    1032.41  E(vib)   ...       0.02
freq.    1050.76  E(vib)   ...       0.02
freq.    1065.94  E(vib)   ...       0.02
freq.    1108.36  E(vib)   ...       0.02
freq.    1129.44  E(vib)   ...       0.01
freq.    1140.51  E(vib)   ...       0.01
freq.    1215.44  E(vib)   ...       0.01
freq.    1219.01  E(vib)   ...       0.01
freq.    1282.16  E(vib)   ...       0.01
freq.    1282.63  E(vib)   ...       0.01
freq.    1359.55  E(vib)   ...       0.01
freq.    1379.99  E(vib)   ...       0.01
freq.    1429.00  E(vib)   ...       0.00
freq.    1430.82  E(vib)   ...       0.00
freq.    1459.80  E(vib)   ...       0.00
freq.    1467.18  E(vib)   ...       0.00
freq.    1476.97  E(vib)   ...       0.00
freq.    1492.42  E(vib)   ...       0.00
freq.    1497.34  E(vib)   ...       0.00
freq.    1522.14  E(vib)   ...       0.00
freq.    1579.63  E(vib)   ...       0.00
freq.    1609.06  E(vib)   ...       0.00
freq.    1611.20  E(vib)   ...       0.00
freq.    1683.84  E(vib)   ...       0.00
freq.    1690.72  E(vib)   ...       0.00
freq.    2997.73  E(vib)   ...       0.00
freq.    2998.65  E(vib)   ...       0.00
freq.    3059.95  E(vib)   ...       0.00
freq.    3063.25  E(vib)   ...       0.00
freq.    3142.28  E(vib)   ...       0.00
freq.    3143.56  E(vib)   ...       0.00
freq.    3159.05  E(vib)   ...       0.00
freq.    3178.97  E(vib)   ...       0.00
freq.    3209.61  E(vib)   ...       0.00
freq.    3212.12  E(vib)   ...       0.00

------------
INNER ENERGY
------------

The inner energy is: U= E(el) + E(ZPE) + E(vib) + E(rot) + E(trans)
    E(el)   - is the total energy from the electronic structure calculation
              = E(kin-el) + E(nuc-el) + E(el-el) + E(nuc-nuc)
    E(ZPE)  - the the zero temperature vibrational energy from the frequency calculation
    E(vib)  - the the finite temperature correction to E(ZPE) due to population
              of excited vibrational states
    E(rot)  - is the rotational thermal energy
    E(trans)- is the translational thermal energy

Summary of contributions to the inner energy U:
Electronic energy                ...   -612.67263823 Eh
Zero point energy                ...      0.18763455 Eh     117.74 kcal/mol
Thermal vibrational correction   ...      0.00885803 Eh       5.56 kcal/mol
Thermal rotational correction    ...      0.00141627 Eh       0.89 kcal/mol
Thermal translational correction ...      0.00141627 Eh       0.89 kcal/mol
-----------------------------------------------------------------------
Total thermal energy                   -612.47331310 Eh

Summary of corrections to the electronic energy:
(perhaps to be used in another calculation)
Total thermal correction                  0.01169057 Eh       7.34 kcal/mol
Non-thermal (ZPE) correction              0.18763455 Eh     117.74 kcal/mol
-----------------------------------------------------------------------
Total correction                          0.19932513 Eh     125.08 kcal/mol

--------
ENTHALPY
--------

The enthalpy is H = U + kB*T
                kB is Boltzmann's constant
Total thermal energy              ...   -612.47331310 Eh
Thermal Enthalpy correction       ...      0.00094421 Eh       0.59 kcal/mol
-----------------------------------------------------------------------
Total Enthalpy                    ...   -612.47236889 Eh

Note: Only C1 symmetry has been detected, increase convergence thresholds
      if your molecule has a higher symmetry. Symmetry factor of 1.0 is
      used for the rotational entropy correction.

Note: Rotational entropy computed according to Herzberg
Infrared and Raman Spectra, Chapter V,1, Van Nostrand Reinhold, 1945
Point Group:  C1, Symmetry Number:   1
Rotational constants in cm-1:     0.036449     0.021992     0.013787

Vibrational entropy computed according to the QRRHO of S. Grimme
Chem.Eur.J. 2012 18 9955 using a reference frequency of 100.0 cm-1

-------
ENTROPY
-------

The entropy contributions are T*S = T*(S(el)+S(vib)+S(rot)+S(trans))
     S(el)   - electronic entropy
     S(vib)  - vibrational entropy
     S(rot)  - rotational entropy
     S(trans)- translational entropy
The entropies will be listed as multiplied by the temperature to get
units of energy

Electronic entropy                ...      0.00065446 Eh      0.41 kcal/mol
Vibrational entropy               ...      0.01489371 Eh      9.35 kcal/mol
Rotational entropy                ...      0.01489875 Eh      9.35 kcal/mol
Translational entropy             ...      0.01975174 Eh     12.39 kcal/mol
-----------------------------------------------------------------------

                             ****ORCA TERMINATED NORMALLY****
TOTAL RUN TIME: 0 days 0 hours 27 minutes 45 seconds 525 msec
