                         Program Version 6.0.0  -   RELEASE  -
|  1> !r2SCAN aug-cc-pVTZ d3 TightSCF SlowConv RIJCOSX defgrid2
|  2>
|  3> %pal
|  4> nprocs 4
|  5> end
|  6>
|  7> %scf
|  8> MaxIter 1500
|  9> end
| 10>
| 11> %maxcore 3000
| 12>
| 13> !CPCM
| 14> %cpcm smd true
| 15> SMDsolvent "MeCN"
| 16> surfacetype gepol_ses
| 17> rsolv 2.19
| 18> end
| 19>
| 20> * xyz 0 1
| 21> C          -0.32048925823531     -1.08595168044653      0.00000936001316
| 22> C           0.99134202132746     -0.71584755612509      0.00000868106802
| 23> C           0.99130010917711      0.71590356660469     -0.00000127622817
| 24> C          -0.32055285170877      1.08593010296315      0.00001410652456
| 25> O          -1.11730139846665     -0.00003401203653      0.00002911176710
| 26> H          -0.82672168713073      2.04926041846335      0.00001957189355
| 27> H           1.85496968086204      1.37963412608217     -0.00001317553983
| 28> H           1.85505107384009     -1.37952667121287      0.00000466755780
| 29> H          -0.82660178966524     -2.04931169429235      0.00001155294381
| 30> *
| 31>
| 32>                          ****END OF INPUT****

CARTESIAN COORDINATES (ANGSTROEM)
---------------------------------
  C     -0.320489   -1.085952    0.000009
  C      0.991342   -0.715848    0.000009
  C      0.991300    0.715904   -0.000001
  C     -0.320553    1.085930    0.000014
  O     -1.117301   -0.000034    0.000029
  H     -0.826722    2.049260    0.000020
  H      1.854970    1.379634   -0.000013
  H      1.855051   -1.379527    0.000005
  H     -0.826602   -2.049312    0.000012

 Total Charge           Charge          ....    0
 Multiplicity           Mult            ....    1
 Number of Electrons    NEL             ....   36
 Basis Dimension        Dim             ....  322

ORBITAL ENERGIES
----------------

  NO   OCC          E(Eh)            E(eV)
   0   2.0000     -19.029214      -517.8112
   1   2.0000     -10.081295      -274.3260
   2   2.0000     -10.081282      -274.3256
   3   2.0000     -10.035187      -273.0713
   4   2.0000     -10.034858      -273.0624
   5   2.0000      -1.086111       -29.5546
   6   2.0000      -0.765308       -20.8251
   7   2.0000      -0.712394       -19.3852
   8   2.0000      -0.566108       -15.4046
   9   2.0000      -0.530796       -14.4437
  10   2.0000      -0.505454       -13.7541
  11   2.0000      -0.427486       -11.6325
  12   2.0000      -0.408418       -11.1136
  13   2.0000      -0.370108       -10.0711
  14   2.0000      -0.363536        -9.8923
  15   2.0000      -0.338504        -9.2112
  16   2.0000      -0.261972        -7.1286
  17   2.0000      -0.211755        -5.7621
  18   0.0000      -0.020292        -0.5522
  19   0.0000       0.012946         0.3523
  20   0.0000       0.029993         0.8162
  21   0.0000       0.032114         0.8739
  22   0.0000       0.033470         0.9108

MULLIKEN ATOMIC CHARGES
-----------------------
   0 C :   -0.477817
   1 C :   -0.384114
   2 C :   -0.383452
   3 C :   -0.477899
   4 O :   -0.176507
   5 H :    0.593888
   6 H :    0.356012
   7 H :    0.355948
   8 H :    0.593941
Sum of atomic charges:    0.0000000

LOEWDIN ATOMIC CHARGES
----------------------
   0 C :   -0.061565
   1 C :    0.147949
   2 C :    0.147975
   3 C :   -0.061528
   4 O :    0.563872
   5 H :   -0.184650
   6 H :   -0.183696
   7 H :   -0.183701
   8 H :   -0.184656

  Mayer bond orders larger than 0.100000
B(  0-C ,  1-C ) :   1.1150 B(  0-C ,  4-O ) :   0.9563 B(  0-C ,  8-H ) :   0.5322
B(  1-C ,  2-C ) :   1.0447 B(  1-C ,  7-H ) :   0.9562 B(  2-C ,  3-C ) :   1.1148
B(  2-C ,  6-H ) :   0.9562 B(  3-C ,  4-O ) :   0.9563 B(  3-C ,  5-H ) :   0.5324

Dispersion correction           -0.001673002
FINAL SINGLE POINT ENERGY      -229.988376070370

DIPOLE MOMENT
-------------

Method             : SCF
Type of density    : Electron Density
Multiplicity       :   1
Irrep              :   0
Energy             :  -229.9867030682459585 Eh
Relativity type    :
Basis              : AO
                                X                 Y                 Z
Electronic contribution:     -1.639923886       0.000102423       0.001275349
Nuclear contribution   :      1.895786675       0.000056296      -0.000025910
                        -----------------------------------------
Total Dipole Moment    :      0.255862789       0.000158718       0.001249439
                        -----------------------------------------
Magnitude (a.u.)       :      0.255865889
Magnitude (Debye)      :      0.650359405

Rotational constants in cm-1:             0.318415             0.310107             0.157103
Rotational constants in MHz :          9545.838950          9296.781610          4709.832145

                             ****ORCA TERMINATED NORMALLY****
TOTAL RUN TIME: 0 days 0 hours 0 minutes 56 seconds 700 msec
