                         Program Version 6.0.0  -   RELEASE  -
|  1> !TPSSh aug-cc-pVTZ d3 TightSCF SlowConv RIJCOSX defgrid2
|  2>
|  3> %pal
|  4> nprocs 15
|  5> end
|  6>
|  7> %scf
|  8> MaxIter 1500
|  9> end
| 10>
| 11> %maxcore 3500
| 12>
| 13> !CPCM
| 14> %cpcm smd true
| 15> SMDsolvent "WATER"
| 16> surfacetype gepol_ses
| 17> rsolv 1.40
| 18> end
| 19>
| 20> * xyz 0 1
| 21> C          -0.70221578029714     -1.27137338689409     -1.64597061061339
| 22> C          -0.84845136777775     -1.37115966451546      2.54973958440251
| 23> C           0.15259783512686     -0.68335711742679      3.28861563215234
| 24> C           0.07599304676575     -0.73632666977901      4.69600426690252
| 25> C          -0.94794284945570     -1.44026936179531      5.29150860970573
| 26> C          -1.88482068115033     -2.08384823172722      4.45797199169649
| 27> N          -1.84062401823598     -2.05300130163141      3.14506781946973
| 28> H           0.83076678593274     -0.21756410750992      5.29593236316618
| 29> H          -1.03983766734326     -1.50382384093195      6.37916241782430
| 30> H          -2.71147090586821     -2.65207963836198      4.90545942856367
| 31> C          -0.79700541461204     -1.33574559017925      1.09594053855288
| 32> C           0.25272338782719     -0.61458983536816      0.46402567600272
| 33> C           0.27592476493802     -0.59903395891095     -0.94615465995929
| 34> C          -1.69468523511231     -1.95299131995214     -0.91309590762066
| 35> N          -1.74344800729213     -1.98614929368638      0.39960781073108
| 36> H           1.07040887752629     -0.05329454733419     -1.46544045359095
| 37> H          -0.71690094151293     -1.28186330233680     -2.73919465539259
| 38> H          -2.48671429614632     -2.49728707022392     -1.44500129727560
| 39> C           1.19105099618849      0.03039450570530      2.60874274845559
| 40> C           1.23921917155320      0.06350156660395      1.24952954829313
| 41> H           1.94654977095063      0.54952317690862      3.20655609141936
| 42> H           2.03412974399493      0.60974382634704      0.73244528911423
| 43> *
| 44>
| 45>                          ****END OF INPUT****

CARTESIAN COORDINATES (ANGSTROEM)
---------------------------------
  C     -0.702216   -1.271373   -1.645971
  C     -0.848451   -1.371160    2.549740
  C      0.152598   -0.683357    3.288616
  C      0.075993   -0.736327    4.696004
  C     -0.947943   -1.440269    5.291509
  C     -1.884821   -2.083848    4.457972
  N     -1.840624   -2.053001    3.145068
  H      0.830767   -0.217564    5.295932
  H     -1.039838   -1.503824    6.379162
  H     -2.711471   -2.652080    4.905459
  C     -0.797005   -1.335746    1.095941
  C      0.252723   -0.614590    0.464026
  C      0.275925   -0.599034   -0.946155
  C     -1.694685   -1.952991   -0.913096
  N     -1.743448   -1.986149    0.399608
  H      1.070409   -0.053295   -1.465440
  H     -0.716901   -1.281863   -2.739195
  H     -2.486714   -2.497287   -1.445001
  C      1.191051    0.030395    2.608743
  C      1.239219    0.063502    1.249530
  H      1.946550    0.549523    3.206556
  H      2.034130    0.609744    0.732445

 Total Charge           Charge          ....    0
 Multiplicity           Mult            ....    1
 Number of Electrons    NEL             ....   94
 Basis Dimension        Dim             ....  828

ORBITAL ENERGIES
----------------

  NO   OCC          E(Eh)            E(eV)
   0   2.0000     -14.250267      -387.7695
   1   2.0000     -14.250245      -387.7689
   2   2.0000     -10.157962      -276.4122
   3   2.0000     -10.157649      -276.4037
   4   2.0000     -10.151762      -276.2435
   5   2.0000     -10.151739      -276.2428
   6   2.0000     -10.136798      -275.8363
   7   2.0000     -10.136781      -275.8358
   8   2.0000     -10.134376      -275.7704
   9   2.0000     -10.134367      -275.7702
  10   2.0000     -10.126329      -275.5514
  11   2.0000     -10.125681      -275.5338
  12   2.0000     -10.125024      -275.5159
  13   2.0000     -10.125013      -275.5156
  14   2.0000      -0.942035       -25.6341
  15   2.0000      -0.919127       -25.0107
  16   2.0000      -0.831334       -22.6217
  17   2.0000      -0.790501       -21.5106
  18   2.0000      -0.782867       -21.3029
  19   2.0000      -0.730343       -19.8736
  20   2.0000      -0.726989       -19.7824
  21   2.0000      -0.638570       -17.3764
  22   2.0000      -0.628555       -17.1038
  23   2.0000      -0.614163       -16.7122
  24   2.0000      -0.583177       -15.8691
  25   2.0000      -0.536197       -14.5907
  26   2.0000      -0.516982       -14.0678
  27   2.0000      -0.496013       -13.4972
  28   2.0000      -0.467310       -12.7162
  29   2.0000      -0.464140       -12.6299
  30   2.0000      -0.448340       -12.1999
  31   2.0000      -0.419929       -11.4269
  32   2.0000      -0.419407       -11.4127
  33   2.0000      -0.402312       -10.9475
  34   2.0000      -0.389448       -10.5974
  35   2.0000      -0.388723       -10.5777
  36   2.0000      -0.381107       -10.3704
  37   2.0000      -0.379508       -10.3269
  38   2.0000      -0.351238        -9.5577
  39   2.0000      -0.335686        -9.1345
  40   2.0000      -0.332307        -9.0425
  41   2.0000      -0.294079        -8.0023
  42   2.0000      -0.289916        -7.8890
  43   2.0000      -0.255778        -6.9601
  44   2.0000      -0.240910        -6.5555
  45   2.0000      -0.238094        -6.4789
  46   2.0000      -0.227283        -6.1847
  47   0.0000      -0.072307        -1.9676
  48   0.0000      -0.071178        -1.9369
  49   0.0000      -0.030429        -0.8280
  50   0.0000      -0.004457        -0.1213
  51   0.0000      -0.003633        -0.0989

MULLIKEN ATOMIC CHARGES
-----------------------
   0 C :   -0.202787
   1 C :    1.368949
   2 C :    1.221196
   3 C :   -0.880822
   4 C :   -0.204228
   5 C :   -0.485690
   6 N :   -1.040212
   7 H :    0.335350
   8 H :    0.218441
   9 H :    0.309037
  10 C :    1.368367
  11 C :    1.217152
  12 C :   -0.882285
  13 C :   -0.482511
  14 N :   -1.035431
  15 H :    0.340374
  16 H :    0.218583
  17 H :    0.307757
  18 C :   -0.923173
  19 C :   -0.923182
  20 H :    0.076117
  21 H :    0.079001
Sum of atomic charges:   -0.0000000

LOEWDIN ATOMIC CHARGES
----------------------
   0 C :    0.220701
   1 C :   -0.286099
   2 C :   -0.118184
   3 C :    0.226619
   4 C :    0.220735
   5 C :    0.009470
   6 N :    0.370050
   7 H :   -0.149475
   8 H :   -0.166080
   9 H :   -0.180450
  10 C :   -0.286077
  11 C :   -0.118129
  12 C :    0.226653
  13 C :    0.009544
  14 N :    0.370119
  15 H :   -0.149488
  16 H :   -0.166113
  17 H :   -0.180430
  18 C :    0.231912
  19 C :    0.231889
  20 H :   -0.158575
  21 H :   -0.158590

  Mayer bond orders larger than 0.100000
B(  0-C , 11-C ) :  -0.1585 B(  0-C , 12-C ) :   1.5732 B(  0-C , 13-C ) :   0.8755
B(  0-C , 14-N ) :  -0.2262 B(  0-C , 16-H ) :   0.8916 B(  1-C ,  2-C ) :   0.8700
B(  1-C ,  3-C ) :   0.3986 B(  1-C ,  5-C ) :  -0.1461 B(  1-C ,  6-N ) :  -1.6423
B(  1-C ,  9-H ) :   0.1818 B(  1-C , 10-C ) :   0.3862 B(  1-C , 11-C ) :   0.2676
B(  1-C , 14-N ) :   0.5606 B(  1-C , 18-C ) :  -0.3974 B(  2-C ,  3-C ) :   0.2163
B(  2-C ,  4-C ) :  -0.1622 B(  2-C ,  5-C ) :  -0.4084 B(  2-C ,  7-H ) :   0.2157
B(  2-C , 10-C ) :   0.2677 B(  2-C , 11-C ) :  -0.2787 B(  2-C , 18-C ) :   0.2216
B(  2-C , 20-H ) :   0.1240 B(  3-C ,  4-C ) :   1.5761 B(  3-C ,  5-C ) :   0.3454
B(  3-C ,  6-N ) :   0.1378 B(  3-C ,  7-H ) :   0.6964 B(  3-C , 18-C ) :   0.2648
B(  4-C ,  5-C ) :   0.8731 B(  4-C ,  6-N ) :  -0.2262 B(  4-C ,  8-H ) :   0.8927
B(  5-C ,  6-N ) :   2.0946 B(  5-C ,  9-H ) :   0.6302 B(  5-C , 19-C ) :   0.1169
B(  6-N , 10-C ) :   0.5547 B(  6-N , 14-N ) :  -0.3700 B( 10-C , 11-C ) :   0.8703
B( 10-C , 12-C ) :   0.3991 B( 10-C , 13-C ) :  -0.1477 B( 10-C , 14-N ) :  -1.6422
B( 10-C , 17-H ) :   0.1828 B( 10-C , 19-C ) :  -0.3975 B( 11-C , 12-C ) :   0.2323
B( 11-C , 13-C ) :  -0.4074 B( 11-C , 15-H ) :   0.2169 B( 11-C , 19-C ) :   0.2156
B( 11-C , 21-H ) :   0.1231 B( 12-C , 13-C ) :   0.3451 B( 12-C , 14-N ) :   0.1362
B( 12-C , 15-H ) :   0.6877 B( 12-C , 19-C ) :   0.2619 B( 13-C , 14-N ) :   2.0839
B( 13-C , 17-H ) :   0.6323 B( 13-C , 18-C ) :   0.1176 B( 18-C , 19-C ) :   1.9157
B( 18-C , 20-H ) :   1.0909 B( 19-C , 21-H ) :   1.0876

Dispersion correction           -0.034318198
FINAL SINGLE POINT ENERGY      -571.887800891517

DIPOLE MOMENT
-------------

Method             : SCF
Type of density    : Electron Density
Multiplicity       :   1
Irrep              :   0
Energy             :  -571.8534826934675266 Eh
Relativity type    :
Basis              : AO
                                X                 Y                 Z
Electronic contribution:     -1.237714212      -0.849320942      -0.064513925
Nuclear contribution   :      2.959925509       2.031814141       0.154119783
                        -----------------------------------------
Total Dipole Moment    :      1.722211297       1.182493199       0.089605857
                        -----------------------------------------
Magnitude (a.u.)       :      2.091011987
Magnitude (Debye)      :      5.314930086

Rotational constants in cm-1:             0.054161             0.019423             0.014296
Rotational constants in MHz :          1623.694457           582.293820           428.591246

                             ****ORCA TERMINATED NORMALLY****
TOTAL RUN TIME: 0 days 0 hours 4 minutes 48 seconds 894 msec
