                         Program Version 6.0.0  -   RELEASE  -
|  1> !PBE0 opt aug-cc-pVTZ d3 TightSCF SlowConv RIJCOSX defgrid2
|  2>
|  3> %pal
|  4> nprocs 8
|  5> end
|  6>
|  7> %scf
|  8> MaxIter 1500
|  9> end
| 10>
| 11> %maxcore 3500
| 12>
| 13> !CPCM
| 14> %cpcm smd true
| 15> SMDsolvent "MeCN"
| 16> surfacetype gepol_ses
| 17> rsolv 2.19
| 18> end
| 19>
| 20> * xyz 0 1
| 21>   C           2.40151675442959     -0.84798585379100      0.65753895397887
| 22>   C           1.27266424852961     -0.39481725673195     -0.03583141869382
| 23>   C           1.38011588468201      0.78238816818387     -0.78741687955246
| 24>   C           2.58394783406903      1.47326480307467     -0.85979269046365
| 25>   C           3.70131083914128      1.00832651393014     -0.17045773225976
| 26>   C           3.60452235841405     -0.15428446437148      0.59022014490624
| 27>   H           4.46427632456242     -0.51593666886599      1.14150423927602
| 28>   H           4.63713557146549      1.55173882888937     -0.21931795906959
| 29>   H           2.64948680121802      2.37641308570170     -1.45463453632497
| 30>   H           0.51737616648935      1.15050278742381     -1.32885639310577
| 31>   C          -0.00001304597097     -1.15621871764186      0.00018757468695
| 32>   C           0.00005304400368     -2.49840698904332      0.00014554926908
| 33>   H          -0.92182010055571     -3.06314745934077      0.06701575757582
| 34>   H           0.92198753283710     -3.06304217067142     -0.06678377972214
| 35>   C          -1.27274475342979     -0.39491342174637      0.03611225862761
| 36>   C          -2.40142785222447     -0.84793215190418     -0.65761946587989
| 37>   C          -3.60437014035580     -0.15407643932380     -0.59067195932158
| 38>   C          -3.70128640460221      1.00849870338361      0.17003867439614
| 39>   C          -2.58413111853620      1.47320474173454      0.85985101573710
| 40>   C          -1.38039040462091      0.78217919703926      0.78779983749973
| 41>   H          -0.51785455417022      1.15005732928396      1.32970971316195
| 42>   H          -2.64977022861671      2.37627771772743      1.45478992245956
| 43>   H          -4.63705678031490      1.55203765026455      0.21859473287916
| 44>   H          -4.46396463126485     -0.51556504621463     -1.14230583063618
| 45>   H          -2.32700387529532     -1.74064187324053     -1.26685971631834
| 46>   H           2.32721043011644     -1.74071501374962      1.26676348689389
| 47> *
| 48>
| 49>                          ****END OF INPUT****
 Total Charge           Charge          ....    0
 Multiplicity           Mult            ....    1
 Number of Electrons    NEL             ....   96
Dispersion correction           -0.029016480
FINAL SINGLE POINT ENERGY      -540.271837133025
Dispersion correction             ... done (  0.1 sec)
Dispersion correction           -0.029055202
FINAL SINGLE POINT ENERGY      -540.272076236584
Dispersion correction             ... done (  0.1 sec)
Dispersion correction           -0.029073010
FINAL SINGLE POINT ENERGY      -540.272074744482
Dispersion correction             ... done (  0.0 sec)
                    ***********************HURRAY********************

CARTESIAN COORDINATES (ANGSTROEM)
---------------------------------
  C      2.390759   -0.835823    0.664998
  C      1.270062   -0.392645   -0.038569
  C      1.381966    0.770952   -0.801590
  C      2.583116    1.458187   -0.875851
  C      3.692699    1.003431   -0.176181
  C      3.590947   -0.145417    0.596428
  H      4.447176   -0.500158    1.157676
  H      4.629246    1.545680   -0.226923
  H      2.652274    2.353824   -1.481622
  H      0.522842    1.134180   -1.352424
  C      0.000012   -1.151355   -0.000248
  C     -0.000047   -2.488597   -0.000259
  H     -0.922188   -3.052858    0.068103
  H      0.922014   -3.053003   -0.068625
  C     -1.269969   -0.392525    0.038148
  C     -2.390891   -0.835762   -0.665040
  C     -3.591155   -0.145581   -0.595939
  C     -3.692728    1.003318    0.176605
  C     -2.582881    1.458350    0.875690
  C     -1.381762    0.771135    0.801068
  H     -0.522601    1.134278    1.351903
  H     -2.651774    2.354037    1.481452
  H     -4.629324    1.545378    0.227723
  H     -4.447606   -0.500668   -1.156712
  H     -2.313474   -1.720539   -1.285564
  H      2.313060   -1.720611    1.285478

 Multiplicity           Mult            ....    1
 Number of Electrons    NEL             ....   96
 Basis Dimension        Dim             ....  920

ORBITAL ENERGIES
----------------

  NO   OCC          E(Eh)            E(eV)
   0   2.0000     -10.245343      -278.7899
   1   2.0000     -10.241713      -278.6912
   2   2.0000     -10.241695      -278.6907
   3   2.0000     -10.228945      -278.3437
   4   2.0000     -10.228921      -278.3431
   5   2.0000     -10.228795      -278.3397
   6   2.0000     -10.228790      -278.3395
   7   2.0000     -10.228336      -278.3272
   8   2.0000     -10.228334      -278.3271
   9   2.0000     -10.227982      -278.3175
  10   2.0000     -10.227980      -278.3175
  11   2.0000     -10.227523      -278.3050
  12   2.0000     -10.227518      -278.3049
  13   2.0000     -10.217786      -278.0401
  14   2.0000      -0.902163       -24.5491
  15   2.0000      -0.885430       -24.0938
  16   2.0000      -0.833723       -22.6868
  17   2.0000      -0.774757       -21.0822
  18   2.0000      -0.774525       -21.0759
  19   2.0000      -0.768790       -20.9198
  20   2.0000      -0.742569       -20.2063
  21   2.0000      -0.653342       -17.7783
  22   2.0000      -0.629830       -17.1385
  23   2.0000      -0.620777       -16.8922
  24   2.0000      -0.617760       -16.8101
  25   2.0000      -0.569995       -15.5104
  26   2.0000      -0.542476       -14.7615
  27   2.0000      -0.516752       -14.0615
  28   2.0000      -0.482458       -13.1284
  29   2.0000      -0.477999       -13.0070
  30   2.0000      -0.466324       -12.6893
  31   2.0000      -0.455495       -12.3947
  32   2.0000      -0.452949       -12.3254
  33   2.0000      -0.433061       -11.7842
  34   2.0000      -0.432615       -11.7721
  35   2.0000      -0.429873       -11.6974
  36   2.0000      -0.395976       -10.7750
  37   2.0000      -0.390168       -10.6170
  38   2.0000      -0.389336       -10.5944
  39   2.0000      -0.367284        -9.9943
  40   2.0000      -0.356158        -9.6916
  41   2.0000      -0.348461        -9.4821
  42   2.0000      -0.342688        -9.3250
  43   2.0000      -0.316751        -8.6192
  44   2.0000      -0.275567        -7.4986
  45   2.0000      -0.271403        -7.3853
  46   2.0000      -0.268561        -7.3079
  47   2.0000      -0.237946        -6.4748
  48   0.0000      -0.042557        -1.1580
  49   0.0000      -0.019669        -0.5352
  50   0.0000      -0.015050        -0.4095
  51   0.0000      -0.001605        -0.0437
  52   0.0000       0.001028         0.0280

MULLIKEN ATOMIC CHARGES
-----------------------
   0 C :   -1.329404
   1 C :    2.012981
   2 C :   -0.816833
   3 C :   -0.936720
   4 C :   -0.284931
   5 C :   -0.857904
   6 H :    0.752992
   7 H :    0.563281
   8 H :    0.585534
   9 H :    0.158774
  10 C :    0.878705
  11 C :   -1.318752
  12 H :    0.303703
  13 H :    0.303367
  14 C :    2.025933
  15 C :   -1.291319
  16 C :   -0.822695
  17 C :   -0.272153
  18 C :   -0.917075
  19 C :   -0.830232
  20 H :    0.156643
  21 H :    0.589819
  22 H :    0.589936
  23 H :    0.588749
  24 H :    0.098547
  25 H :    0.069053
Sum of atomic charges:   -0.0000000

LOEWDIN ATOMIC CHARGES
----------------------
   0 C :    0.206906
   1 C :   -0.147815
   2 C :    0.204744
   3 C :    0.199968
   4 C :    0.190106
   5 C :    0.198102
   6 H :   -0.172541
   7 H :   -0.174353
   8 H :   -0.171953
   9 H :   -0.164744
  10 C :   -0.146151
  11 C :    0.554230
  12 H :   -0.199981
  13 H :   -0.199950
  14 C :   -0.147727
  15 C :    0.206915
  16 C :    0.198095
  17 C :    0.190155
  18 C :    0.200041
  19 C :    0.204668
  20 H :   -0.164862
  21 H :   -0.171921
  22 H :   -0.174392
  23 H :   -0.172530
  24 H :   -0.172502
  25 H :   -0.172507

  Mayer bond orders larger than 0.100000
B(  0-C ,  1-C ) :   0.2325 B(  0-C ,  2-C ) :  -0.6485 B(  0-C ,  3-C ) :   0.1765
B(  0-C ,  4-C ) :  -0.1835 B(  0-C ,  5-C ) :   1.5765 B(  0-C ,  6-H ) :  -0.1774
B(  0-C ,  9-H ) :   0.1225 B(  0-C , 10-C ) :   0.2838 B(  0-C , 14-C ) :  -0.1258
B(  0-C , 22-H ) :   0.1147 B(  0-C , 25-H ) :   1.5911 B(  1-C ,  2-C ) :   0.6240
B(  1-C ,  3-C ) :  -0.1087 B(  1-C ,  4-C ) :  -0.1433 B(  1-C ,  8-H ) :   0.1111
B(  1-C , 11-C ) :  -0.2579 B(  1-C , 14-C ) :  -0.2055 B(  1-C , 15-C ) :  -0.1373
B(  2-C ,  3-C ) :   1.4471 B(  2-C ,  4-C ) :  -0.1251 B(  2-C ,  9-H ) :   1.3291
B(  2-C , 10-C ) :   0.1432 B(  2-C , 11-C ) :   0.1032 B(  2-C , 19-C ) :   0.1339
B(  3-C ,  4-C ) :   1.4173 B(  3-C ,  5-C ) :   0.2732 B(  3-C ,  8-H ) :   0.3460
B(  4-C ,  5-C ) :   1.3162 B(  4-C ,  6-H ) :   0.1184 B(  4-C ,  7-H ) :   0.4786
B(  4-C ,  8-H ) :   0.1135 B(  4-C , 10-C ) :   0.2114 B(  5-C ,  9-H ) :  -0.1065
B(  9-H , 10-C ) :  -0.1328 B(  9-H , 25-H ) :   0.2163 B( 10-C , 11-C ) :   0.9731
B( 10-C , 15-C ) :   0.2964 B( 10-C , 17-C ) :   0.1948 B( 10-C , 19-C ) :   0.1353
B( 10-C , 20-H ) :  -0.1338 B( 10-C , 24-H ) :  -0.1554 B( 10-C , 25-H ) :  -0.1690
B( 11-C , 12-H ) :   0.9377 B( 11-C , 13-H ) :   0.9369 B( 11-C , 14-C ) :  -0.2618
B( 11-C , 19-C ) :   0.1114 B( 14-C , 15-C ) :   0.2419 B( 14-C , 17-C ) :  -0.1658
B( 14-C , 18-C ) :  -0.1054 B( 14-C , 19-C ) :   0.6096 B( 14-C , 21-H ) :   0.1180
B( 15-C , 16-C ) :   1.5139 B( 15-C , 17-C ) :  -0.1663 B( 15-C , 18-C ) :   0.1477
B( 15-C , 19-C ) :  -0.6439 B( 15-C , 23-H ) :  -0.1616 B( 15-C , 24-H ) :   1.5238
B( 16-C , 17-C ) :   1.2808 B( 16-C , 18-C ) :   0.2486 B( 16-C , 23-H ) :   0.3905
B( 17-C , 18-C ) :   1.4338 B( 17-C , 19-C ) :  -0.1266 B( 17-C , 22-H ) :   0.4570
B( 18-C , 19-C ) :   1.4304 B( 18-C , 21-H ) :   0.3328 B( 19-C , 20-H ) :   1.3355
B( 20-H , 24-H ) :   0.1999

Dispersion correction           -0.029068176
FINAL SINGLE POINT ENERGY      -540.272076504052

DIPOLE MOMENT
-------------

Method             : SCF
Type of density    : Electron Density
Multiplicity       :   1
Irrep              :   0
Energy             :  -540.2430083278545681 Eh
Relativity type    :
Basis              : AO
                                X                 Y                 Z
Electronic contribution:     -0.000500822       0.606530958      -0.001577461
Nuclear contribution   :     -0.000406746      -0.478772781       0.000960956
                        -----------------------------------------
Total Dipole Moment    :     -0.000907568       0.127758176      -0.000616506
                        -----------------------------------------
Magnitude (a.u.)       :      0.127762887
Magnitude (Debye)      :      0.324747452

Rotational constants in cm-1:             0.053905             0.014073             0.012264
Rotational constants in MHz :          1616.028283           421.885451           367.667036

                             ****ORCA TERMINATED NORMALLY****
TOTAL RUN TIME: 0 days 0 hours 35 minutes 18 seconds 186 msec
