                         Program Version 6.0.0  -   RELEASE  -
|  1> !r2SCANh aug-cc-pVTZ d3 TightSCF SlowConv RIJCOSX defgrid2
|  2>
|  3> %pal
|  4> nprocs 4
|  5> end
|  6>
|  7> %scf
|  8> MaxIter 1500
|  9> end
| 10>
| 11> %maxcore 3000
| 12>
| 13> !CPCM
| 14> %cpcm smd true
| 15> SMDsolvent "MeCN"
| 16> surfacetype gepol_ses
| 17> rsolv 2.19
| 18> end
| 19>
| 20> * xyz 0 2
| 21> S          -0.00010950333410      1.33232152061846      0.00000284685572
| 22> C          -1.36367602339461      0.23464932550616     -0.00507122495906
| 23> C          -2.63111207479134      0.80918677441119     -0.00931514148930
| 24> C          -3.79749598688692      0.01748913706240     -0.01353133573099
| 25> C          -3.62690722369362     -1.39108123583356     -0.01295952620618
| 26> C          -2.36711161265690     -1.94934818919206     -0.00874256384629
| 27> H          -2.23684953206305     -3.03459019141420     -0.00838133626109
| 28> C          -1.17821016281749     -1.17668732648083     -0.00472311773149
| 29> N          -0.00002243259599     -1.83446497066754     -0.00098097198001
| 30> C           1.17812817196274     -1.17662234567149      0.00321348810966
| 31> C           2.36706725678156     -1.94922452722425      0.00667750909652
| 32> C           3.62683749655594     -1.39090083721577      0.01126100122058
| 33> C           3.79735129127031      0.01767608816689      0.01293153169759
| 34> C           2.63092897415049      0.80931688655999      0.00908647542932
| 35> C           1.36351983422924      0.23472394637557      0.00444992884257
| 36> H           2.70292817680075      1.89826895685548      0.00952338683142
| 37> N           5.04756390584320      0.58778935524973      0.01788863149424
| 38> C           5.18172091093512      2.01927291145544      0.01839451021747
| 39> H           4.72362917020845      2.48089047963546     -0.87882697554764
| 40> H           4.71362444681400      2.48052031071610      0.91057955441826
| 41> H           6.24845927057729      2.28645848294775      0.02468300648574
| 42> C           6.21890311032700     -0.24765571266402      0.01987377959494
| 43> H           7.11746405207368      0.38638280457377      0.02575541170059
| 44> H           6.26272829635460     -0.90187803580692      0.91268866293187
| 45> H           6.27030724212294     -0.89602611228501     -0.87693708029874
| 46> H           4.49368813972706     -2.05282067647445      0.01344982462292
| 47> H           2.23685254993858     -3.03447155031151      0.00547512817034
| 48> H          -4.49372906017109     -2.05303540820711     -0.01582821380380
| 49> N          -5.04773346330895      0.58755010330840     -0.01787016769593
| 50> C          -6.21904670194275     -0.24792774805618     -0.02103570915344
| 51> H          -6.26948350136630     -0.89843815146211      0.87422819476414
| 52> H          -6.26381702737160     -0.90001046584191     -0.91541895496807
| 53> H          -7.11762903933965      0.38609970182385     -0.02430714598305
| 54> C          -5.18193217827922      2.01902912759794     -0.01996728409317
| 55> H          -4.72352139465997      2.48160383072144      0.87657566790498
| 56> H          -4.71418178558910      2.47935235497991     -0.91283316827598
| 57> H          -6.24867837130277      2.28618639267493     -0.02606269937327
| 58> H          -2.70315182110753      1.89814199356804     -0.00903802299134
| 59> *
| 60>
| 61>                          ****END OF INPUT****

CARTESIAN COORDINATES (ANGSTROEM)
---------------------------------
  S     -0.000110    1.332322    0.000003
  C     -1.363676    0.234649   -0.005071
  C     -2.631112    0.809187   -0.009315
  C     -3.797496    0.017489   -0.013531
  C     -3.626907   -1.391081   -0.012960
  C     -2.367112   -1.949348   -0.008743
  H     -2.236850   -3.034590   -0.008381
  C     -1.178210   -1.176687   -0.004723
  N     -0.000022   -1.834465   -0.000981
  C      1.178128   -1.176622    0.003213
  C      2.367067   -1.949225    0.006678
  C      3.626837   -1.390901    0.011261
  C      3.797351    0.017676    0.012932
  C      2.630929    0.809317    0.009086
  C      1.363520    0.234724    0.004450
  H      2.702928    1.898269    0.009523
  N      5.047564    0.587789    0.017889
  C      5.181721    2.019273    0.018395
  H      4.723629    2.480890   -0.878827
  H      4.713624    2.480520    0.910580
  H      6.248459    2.286458    0.024683
  C      6.218903   -0.247656    0.019874
  H      7.117464    0.386383    0.025755
  H      6.262728   -0.901878    0.912689
  H      6.270307   -0.896026   -0.876937
  H      4.493688   -2.052821    0.013450
  H      2.236853   -3.034472    0.005475
  H     -4.493729   -2.053035   -0.015828
  N     -5.047733    0.587550   -0.017870
  C     -6.219047   -0.247928   -0.021036
  H     -6.269484   -0.898438    0.874228
  H     -6.263817   -0.900010   -0.915419
  H     -7.117629    0.386100   -0.024307
  C     -5.181932    2.019029   -0.019967
  H     -4.723521    2.481604    0.876576
  H     -4.714182    2.479352   -0.912833
  H     -6.248678    2.286186   -0.026063
  H     -2.703152    1.898142   -0.009038

 Total Charge           Charge          ....    0
 Multiplicity           Mult            ....    2
 Number of Electrons    NEL             ....  151
 Basis Dimension        Dim             .... 1338

ORBITAL ENERGIES
----------------
                 SPIN UP ORBITALS
  NO   OCC          E(Eh)            E(eV)
   0   1.0000     -88.927034     -2419.8276
   1   1.0000     -14.334585      -390.0639
   2   1.0000     -14.334579      -390.0637
   3   1.0000     -14.294618      -388.9763
   4   1.0000     -10.206373      -277.7295
   5   1.0000     -10.206362      -277.7292
   6   1.0000     -10.203071      -277.6397
   7   1.0000     -10.203063      -277.6395
   8   1.0000     -10.191421      -277.3227
   9   1.0000     -10.191418      -277.3226
  10   1.0000     -10.178354      -276.9671
  11   1.0000     -10.178325      -276.9663
  12   1.0000     -10.178290      -276.9653
  13   1.0000     -10.178280      -276.9651
  14   1.0000     -10.160431      -276.4794
  15   1.0000     -10.160425      -276.4792
  16   1.0000     -10.159758      -276.4611
  17   1.0000     -10.159725      -276.4602
  18   1.0000     -10.157039      -276.3871
  19   1.0000     -10.157033      -276.3869
  20   1.0000      -7.992299      -217.4815
  21   1.0000      -5.913426      -160.9125
  22   1.0000      -5.909852      -160.8153
  23   1.0000      -5.907205      -160.7432
  24   1.0000      -0.962423       -26.1889
  25   1.0000      -0.961816       -26.1723
  26   1.0000      -0.943244       -25.6670
  27   1.0000      -0.856849       -23.3160
  28   1.0000      -0.847320       -23.0567
  29   1.0000      -0.805601       -21.9215
  30   1.0000      -0.760653       -20.6984
  31   1.0000      -0.755249       -20.5514
  32   1.0000      -0.734369       -19.9832
  33   1.0000      -0.716771       -19.5043
  34   1.0000      -0.716444       -19.4954
  35   1.0000      -0.682431       -18.5699
  36   1.0000      -0.664653       -18.0861
  37   1.0000      -0.630752       -17.1636
  38   1.0000      -0.602364       -16.3912
  39   1.0000      -0.601355       -16.3637
  40   1.0000      -0.581484       -15.8230
  41   1.0000      -0.538054       -14.6412
  42   1.0000      -0.534989       -14.5578
  43   1.0000      -0.504239       -13.7210
  44   1.0000      -0.495709       -13.4889
  45   1.0000      -0.492581       -13.4038
  46   1.0000      -0.468935       -12.7604
  47   1.0000      -0.458110       -12.4658
  48   1.0000      -0.457475       -12.4485
  49   1.0000      -0.440740       -11.9931
  50   1.0000      -0.432134       -11.7590
  51   1.0000      -0.426175       -11.5968
  52   1.0000      -0.421762       -11.4767
  53   1.0000      -0.417065       -11.3489
  54   1.0000      -0.408220       -11.1082
  55   1.0000      -0.406047       -11.0491
  56   1.0000      -0.387194       -10.5361
  57   1.0000      -0.387182       -10.5358
  58   1.0000      -0.382873       -10.4185
  59   1.0000      -0.382647       -10.4123
  60   1.0000      -0.374025       -10.1777
  61   1.0000      -0.371533       -10.1099
  62   1.0000      -0.364609        -9.9215
  63   1.0000      -0.359200        -9.7743
  64   1.0000      -0.352643        -9.5959
  65   1.0000      -0.340982        -9.2786
  66   1.0000      -0.330946        -9.0055
  67   1.0000      -0.326419        -8.8823
  68   1.0000      -0.323761        -8.8100
  69   1.0000      -0.290879        -7.9152
  70   1.0000      -0.267077        -7.2675
  71   1.0000      -0.253902        -6.9090
  72   1.0000      -0.248624        -6.7654
  73   1.0000      -0.209999        -5.7144
  74   1.0000      -0.193952        -5.2777
  75   1.0000      -0.146702        -3.9920
  76   0.0000      -0.037197        -1.0122
  77   0.0000      -0.033335        -0.9071
  78   0.0000      -0.015397        -0.4190
  79   0.0000       0.003268         0.0889
  80   0.0000       0.005160         0.1404

                 SPIN DOWN ORBITALS
  NO   OCC          E(Eh)            E(eV)
   0   1.0000     -88.926335     -2419.8086
   1   1.0000     -14.332187      -389.9986
   2   1.0000     -14.332180      -389.9985
   3   1.0000     -14.284475      -388.7003
   4   1.0000     -10.204608      -277.6815
   5   1.0000     -10.204597      -277.6812
   6   1.0000     -10.200504      -277.5698
   7   1.0000     -10.200496      -277.5696
   8   1.0000     -10.192839      -277.3612
   9   1.0000     -10.192835      -277.3612
  10   1.0000     -10.178504      -276.9712
  11   1.0000     -10.178475      -276.9704
  12   1.0000     -10.178439      -276.9694
  13   1.0000     -10.178429      -276.9691
  14   1.0000     -10.161045      -276.4961
  15   1.0000     -10.161012      -276.4952
  16   1.0000     -10.158430      -276.4249
  17   1.0000     -10.158424      -276.4248
  18   1.0000     -10.157537      -276.4006
  19   1.0000     -10.157531      -276.4005
  20   1.0000      -7.991800      -217.4679
  21   1.0000      -5.913102      -160.9037
  22   1.0000      -5.909581      -160.8079
  23   1.0000      -5.905100      -160.6859
  24   1.0000      -0.958820       -26.0908
  25   1.0000      -0.958355       -26.0782
  26   1.0000      -0.932777       -25.3822
  27   1.0000      -0.854147       -23.2425
  28   1.0000      -0.840603       -22.8740
  29   1.0000      -0.802814       -21.8457
  30   1.0000      -0.759441       -20.6654
  31   1.0000      -0.752712       -20.4823
  32   1.0000      -0.732712       -19.9381
  33   1.0000      -0.716061       -19.4850
  34   1.0000      -0.713767       -19.4226
  35   1.0000      -0.681263       -18.5381
  36   1.0000      -0.665209       -18.1013
  37   1.0000      -0.627074       -17.0635
  38   1.0000      -0.600476       -16.3398
  39   1.0000      -0.598437       -16.2843
  40   1.0000      -0.579171       -15.7600
  41   1.0000      -0.535831       -14.5807
  42   1.0000      -0.533959       -14.5298
  43   1.0000      -0.502742       -13.6803
  44   1.0000      -0.493877       -13.4391
  45   1.0000      -0.491994       -13.3878
  46   1.0000      -0.468152       -12.7391
  47   1.0000      -0.453176       -12.3316
  48   1.0000      -0.452728       -12.3194
  49   1.0000      -0.439882       -11.9698
  50   1.0000      -0.430960       -11.7270
  51   1.0000      -0.425171       -11.5695
  52   1.0000      -0.416469       -11.3327
  53   1.0000      -0.408255       -11.1092
  54   1.0000      -0.407667       -11.0932
  55   1.0000      -0.405172       -11.0253
  56   1.0000      -0.386609       -10.5202
  57   1.0000      -0.386599       -10.5199
  58   1.0000      -0.382360       -10.4045
  59   1.0000      -0.381917       -10.3925
  60   1.0000      -0.370395       -10.0789
  61   1.0000      -0.367411        -9.9978
  62   1.0000      -0.363515        -9.8917
  63   1.0000      -0.358573        -9.7573
  64   1.0000      -0.351745        -9.5715
  65   1.0000      -0.328173        -8.9300
  66   1.0000      -0.323990        -8.8162
  67   1.0000      -0.323158        -8.7936
  68   1.0000      -0.316331        -8.6078
  69   1.0000      -0.281277        -7.6539
  70   1.0000      -0.261106        -7.1051
  71   1.0000      -0.245606        -6.6833
  72   1.0000      -0.232928        -6.3383
  73   1.0000      -0.204248        -5.5579
  74   1.0000      -0.187508        -5.1023
  75   0.0000      -0.099012        -2.6942
  76   0.0000      -0.030539        -0.8310
  77   0.0000      -0.023198        -0.6313
  78   0.0000      -0.008480        -0.2308
  79   0.0000       0.004055         0.1103

MULLIKEN ATOMIC CHARGES AND SPIN POPULATIONS
--------------------------------------------
   0 S :   -0.004193    0.119113
   1 C :    1.062096    0.194298
   2 C :   -1.152131   -0.146149
   3 C :    1.393620    0.184157
   4 C :    0.114470   -0.102782
   5 C :   -0.979737    0.127966
   6 H :    0.227584    0.004070
   7 C :    0.472277   -0.058678
   8 N :   -1.042033    0.373592
   9 C :    0.431440   -0.059221
  10 C :   -0.985434    0.128127
  11 C :    0.150139   -0.102994
  12 C :    1.418884    0.184091
  13 C :   -1.209339   -0.145953
  14 C :    1.056979    0.194152
  15 H :   -0.143151   -0.011417
  16 N :   -0.263499    0.077313
  17 C :   -0.982333   -0.015629
  18 H :    0.251351    0.006405
  19 H :    0.250731    0.006410
  20 H :    0.315651    0.000033
  21 C :   -0.952182   -0.014533
  22 H :    0.322993    0.000412
  23 H :    0.225520    0.006237
  24 H :    0.227918    0.006269
  25 H :    0.151646   -0.010437
  26 H :    0.230145    0.004117
  27 H :    0.145815   -0.010504
  28 N :   -0.263113    0.077355
  29 C :   -0.943529   -0.014524
  30 H :    0.225752    0.006275
  31 H :    0.226087    0.006239
  32 H :    0.326527    0.000410
  33 C :   -0.980795   -0.015602
  34 H :    0.251318    0.006409
  35 H :    0.249047    0.006385
  36 H :    0.315777    0.000032
  37 H :   -0.142297   -0.011442
Sum of atomic charges         :    0.0000000

LOEWDIN ATOMIC CHARGES AND SPIN POPULATIONS
-------------------------------------------
   0 S :    1.328107    0.104163
   1 C :   -0.488274    0.068168
   2 C :    0.129596   -0.004594
   3 C :   -0.227162    0.048050
   4 C :    0.216782    0.015344
   5 C :    0.186817    0.051226
   6 H :   -0.175177    0.008754
   7 C :   -0.398130    0.050062
   8 N :    0.356088    0.250197
   9 C :   -0.398134    0.050058
  10 C :    0.186817    0.051220
  11 C :    0.216801    0.015336
  12 C :   -0.227142    0.048044
  13 C :    0.129545   -0.004595
  14 C :   -0.488296    0.068177
  15 H :   -0.214193   -0.006574
  16 N :    0.235343    0.066498
  17 C :    0.482722    0.009296
  18 H :   -0.139867    0.002571
  19 H :   -0.140151    0.002554
  20 H :   -0.159606    0.000009
  21 C :    0.482807    0.008966
  22 H :   -0.160259   -0.000036
  23 H :   -0.140811    0.002487
  24 H :   -0.140367    0.002501
  25 H :   -0.192204   -0.002467
  26 H :   -0.175173    0.008753
  27 H :   -0.192207   -0.002466
  28 N :    0.235352    0.066513
  29 C :    0.482809    0.008968
  30 H :   -0.140527    0.002493
  31 H :   -0.140638    0.002496
  32 H :   -0.160277   -0.000036
  33 C :    0.482736    0.009298
  34 H :   -0.139949    0.002567
  35 H :   -0.140086    0.002559
  36 H :   -0.159578    0.000010
  37 H :   -0.214114   -0.006572

  Mayer bond orders larger than 0.100000
B(  0-S ,  1-C ) :   0.1524 B(  0-S ,  2-C ) :   0.1343 B(  0-S ,  7-C ) :   0.3509
B(  0-S ,  8-N ) :  -0.1727 B(  0-S ,  9-C ) :   0.3573 B(  0-S , 13-C ) :   0.1340
B(  0-S , 14-C ) :   0.1733 B(  1-C ,  4-C ) :  -0.4646 B(  1-C ,  7-C ) :   0.5961
B(  1-C , 12-C ) :   0.1033 B(  1-C , 13-C ) :   0.2101 B(  1-C , 14-C ) :  -0.3905
B(  1-C , 28-N ) :   0.3236 B(  1-C , 33-C ) :   0.1681 B(  1-C , 37-H ) :  -0.1108
B(  2-C ,  3-C ) :   0.1752 B(  2-C ,  5-C ) :  -0.2333 B(  2-C ,  7-C ) :   0.5876
B(  2-C ,  9-C ) :  -0.2097 B(  2-C , 14-C ) :   0.2182 B(  2-C , 25-H ) :  -0.1032
B(  2-C , 28-N ) :  -0.5298 B(  2-C , 29-C ) :   0.1937 B(  2-C , 33-C ) :  -0.3001
B(  2-C , 37-H ) :   1.4707 B(  3-C ,  4-C ) :   0.4796 B(  3-C ,  5-C ) :  -0.2627
B(  3-C ,  6-H ) :   0.1191 B(  3-C ,  9-C ) :  -0.1575 B(  3-C , 27-H ) :  -0.1522
B(  3-C , 28-N ) :  -0.2211 B(  3-C , 29-C ) :  -0.1931 B(  3-C , 33-C ) :  -0.2383
B(  3-C , 37-H ) :  -0.1582 B(  4-C ,  5-C ) :   0.6666 B(  4-C ,  7-C ) :   0.6418
B(  4-C ,  8-N ) :   0.1496 B(  4-C , 27-H ) :   0.9903 B(  4-C , 28-N ) :  -0.6159
B(  4-C , 29-C ) :  -0.2335 B(  5-C ,  6-H ) :   0.9109 B(  5-C ,  7-C ) :  -0.5935
B(  5-C ,  8-N ) :   0.3961 B(  5-C ,  9-C ) :   0.4295 B(  5-C , 28-N ) :   0.1203
B(  6-H ,  8-N ) :   0.2288 B(  6-H ,  9-C ) :  -0.1806 B(  7-C ,  8-N ) :  -0.1087
B(  7-C ,  9-C ) :   0.8705 B(  7-C , 10-C ) :   0.4480 B(  7-C , 12-C ) :  -0.1898
B(  7-C , 13-C ) :  -0.1941 B(  7-C , 14-C ) :  -0.1057 B(  7-C , 26-H ) :  -0.1803
B(  7-C , 28-N ) :  -0.2107 B(  7-C , 37-H ) :  -0.1108 B(  8-N , 10-C ) :   0.3722
B(  8-N , 11-C ) :   0.1507 B(  8-N , 26-H ) :   0.2394 B(  9-C , 10-C ) :  -0.5948
B(  9-C , 11-C ) :   0.6354 B(  9-C , 13-C ) :   0.6029 B(  9-C , 14-C ) :   0.5801
B(  9-C , 15-H ) :  -0.1073 B(  9-C , 16-N ) :  -0.2040 B( 10-C , 11-C ) :   0.6653
B( 10-C , 12-C ) :  -0.2816 B( 10-C , 13-C ) :  -0.2310 B( 10-C , 16-N ) :   0.1177
B( 10-C , 26-H ) :   0.9124 B( 11-C , 12-C ) :   0.5184 B( 11-C , 14-C ) :  -0.4681
B( 11-C , 16-N ) :  -0.6838 B( 11-C , 21-C ) :  -0.2528 B( 11-C , 25-H ) :   0.9912
B( 12-C , 13-C ) :   0.1583 B( 12-C , 15-H ) :  -0.1560 B( 12-C , 16-N ) :  -0.2504
B( 12-C , 17-C ) :  -0.2689 B( 12-C , 21-C ) :  -0.1820 B( 12-C , 25-H ) :  -0.1578
B( 12-C , 26-H ) :   0.1173 B( 13-C , 15-H ) :   1.4634 B( 13-C , 16-N ) :  -0.4645
B( 13-C , 17-C ) :  -0.2778 B( 13-C , 21-C ) :   0.1965 B( 14-C , 15-H ) :  -0.1108
B( 14-C , 16-N ) :   0.3195 B( 14-C , 17-C ) :   0.1672 B( 15-H , 17-C ) :  -0.1589
B( 16-N , 17-C ) :   1.3032 B( 16-N , 20-H ) :  -0.1093 B( 16-N , 21-C ) :   1.3397
B( 17-C , 18-H ) :   0.9691 B( 17-C , 19-H ) :   0.9698 B( 17-C , 20-H ) :   0.8611
B( 21-C , 22-H ) :   0.8093 B( 21-C , 23-H ) :   1.0146 B( 21-C , 24-H ) :   1.0119
B( 21-C , 25-H ) :  -0.2282 B( 27-H , 29-C ) :  -0.2279 B( 28-N , 29-C ) :   1.3360
B( 28-N , 33-C ) :   1.2985 B( 28-N , 36-H ) :  -0.1078 B( 29-C , 30-H ) :   1.0141
B( 29-C , 31-H ) :   1.0145 B( 29-C , 32-H ) :   0.8035 B( 33-C , 34-H ) :   0.9694
B( 33-C , 35-H ) :   0.9708 B( 33-C , 36-H ) :   0.8613 B( 33-C , 37-H ) :  -0.1609

Dispersion correction           -0.016851612
FINAL SINGLE POINT ENERGY     -1182.784319478143

DIPOLE MOMENT
-------------

Method             : SCF
Type of density    : Electron Density
Multiplicity       :   2
Irrep              :   0
Energy             : -1182.7674678660871450 Eh
Relativity type    :
Basis              : AO
                                X                 Y                 Z
Electronic contribution:     -0.000632771      -3.192721784       0.004937124
Nuclear contribution   :     -0.000087217       5.020383448      -0.005360537
                        -----------------------------------------
Total Dipole Moment    :     -0.000719987       1.827661664      -0.000423413
                        -----------------------------------------
Magnitude (a.u.)       :      1.827661855
Magnitude (Debye)      :      4.645547248

Rotational constants in cm-1:             0.035055             0.004401             0.003922
Rotational constants in MHz :          1050.925207           131.948316           117.581806

                             ****ORCA TERMINATED NORMALLY****
TOTAL RUN TIME: 0 days 0 hours 41 minutes 5 seconds 26 msec
