                         Program Version 6.0.0  -   RELEASE  -
|  1> !r2SCANh aug-cc-pVTZ d3 TightSCF SlowConv RIJCOSX defgrid2
|  2>
|  3> %pal
|  4> nprocs 15
|  5> end
|  6>
|  7> %scf
|  8> MaxIter 1500
|  9> end
| 10>
| 11> %maxcore 3500
| 12>
| 13> !CPCM
| 14> %cpcm smd true
| 15> SMDsolvent "WATER"
| 16> surfacetype gepol_ses
| 17> rsolv 1.40
| 18> end
| 19>
| 20> * xyz 0 2
| 21> O           1.88690927477882      3.74806898805585      1.42790289574278
| 22> N           2.66570902784045      2.77513380487914      1.23314234100198
| 23> C           3.71807770622021      2.91486477310037      0.20083862291935
| 24> C           4.06679330721770      1.52187309981258     -0.33561683406574
| 25> C           4.26235980542420      0.51991448657483      0.75657521226637
| 26> C           3.67404864254557      0.65032800080598      1.94644397870158
| 27> C           2.73307636235429      1.76248913631005      2.31086399015079
| 28> C           4.95112257605395      3.58551917484617      0.81923431194237
| 29> C           3.16091226951920      3.78193702577193     -0.92132048240517
| 30> C           3.17395858898893      2.44345537325049      3.61369764885195
| 31> C           1.32073939913320      1.18748524121188      2.48092813116148
| 32> H           4.97513017363378      1.60092795230428     -0.95867141911157
| 33> H           3.26044945528291      1.18093042448815     -1.01431485641457
| 34> H           4.90234278810831     -0.34794900982598      0.56007401454088
| 35> H           3.82972945021685     -0.10316520119785      2.72741095147656
| 36> H           4.65258295126461      4.52123052785349      1.32092945486630
| 37> H           5.44112718582814      2.92720008818477      1.55542007959442
| 38> H           5.68693306335011      3.83067566104788      0.03349341051902
| 39> H           2.94941849475266      4.80089518300529     -0.56613909595122
| 40> H           2.22162992414553      3.35760034153928     -1.31367493520621
| 41> H           3.89642864117668      3.83221617465297     -1.74256230977595
| 42> H           2.49710932074295      3.28563400859979      3.82950614292032
| 43> H           4.20428697805417      2.82730905875215      3.53671032500385
| 44> H           3.13322334174784      1.72739398341330      4.45203000678507
| 45> H           0.61667710656740      2.00289288566967      2.71131797235433
| 46> H           0.99501687952592      0.68921661071683      1.55267423468629
| 47> H           1.30310628552554      0.45079320617666      3.30164820744471
| 48> *
| 49>
| 50>                          ****END OF INPUT****

CARTESIAN COORDINATES (ANGSTROEM)
---------------------------------
  O      1.886909    3.748069    1.427903
  N      2.665709    2.775134    1.233142
  C      3.718078    2.914865    0.200839
  C      4.066793    1.521873   -0.335617
  C      4.262360    0.519914    0.756575
  C      3.674049    0.650328    1.946444
  C      2.733076    1.762489    2.310864
  C      4.951123    3.585519    0.819234
  C      3.160912    3.781937   -0.921320
  C      3.173959    2.443455    3.613698
  C      1.320739    1.187485    2.480928
  H      4.975130    1.600928   -0.958671
  H      3.260449    1.180930   -1.014315
  H      4.902343   -0.347949    0.560074
  H      3.829729   -0.103165    2.727411
  H      4.652583    4.521231    1.320929
  H      5.441127    2.927200    1.555420
  H      5.686933    3.830676    0.033493
  H      2.949418    4.800895   -0.566139
  H      2.221630    3.357600   -1.313675
  H      3.896429    3.832216   -1.742562
  H      2.497109    3.285634    3.829506
  H      4.204287    2.827309    3.536710
  H      3.133223    1.727394    4.452030
  H      0.616677    2.002893    2.711318
  H      0.995017    0.689217    1.552674
  H      1.303106    0.450793    3.301648

 Total Charge           Charge          ....    0
 Multiplicity           Mult            ....    2
 Number of Electrons    NEL             ....   85
 Basis Dimension        Dim             ....  874

ORBITAL ENERGIES
----------------
                 SPIN UP ORBITALS
  NO   OCC          E(Eh)            E(eV)
   0   1.0000     -19.122422      -520.3475
   1   1.0000     -14.403758      -391.9462
   2   1.0000     -10.209295      -277.8090
   3   1.0000     -10.206385      -277.7299
   4   1.0000     -10.157837      -276.4088
   5   1.0000     -10.157503      -276.3997
   6   1.0000     -10.155412      -276.3428
   7   1.0000     -10.145275      -276.0670
   8   1.0000     -10.145221      -276.0655
   9   1.0000     -10.144911      -276.0571
  10   1.0000     -10.141730      -275.9705
  11   1.0000      -1.119018       -30.4500
  12   1.0000      -0.879652       -23.9365
  13   1.0000      -0.822099       -22.3704
  14   1.0000      -0.770156       -20.9570
  15   1.0000      -0.720150       -19.5963
  16   1.0000      -0.689702       -18.7678
  17   1.0000      -0.680195       -18.5090
  18   1.0000      -0.677525       -18.4364
  19   1.0000      -0.595552       -16.2058
  20   1.0000      -0.578872       -15.7519
  21   1.0000      -0.503902       -13.7119
  22   1.0000      -0.488969       -13.3055
  23   1.0000      -0.487394       -13.2627
  24   1.0000      -0.461228       -12.5507
  25   1.0000      -0.440315       -11.9816
  26   1.0000      -0.430032       -11.7018
  27   1.0000      -0.426817       -11.6143
  28   1.0000      -0.401747       -10.9321
  29   1.0000      -0.394903       -10.7459
  30   1.0000      -0.389137       -10.5889
  31   1.0000      -0.377491       -10.2720
  32   1.0000      -0.364397        -9.9158
  33   1.0000      -0.362957        -9.8766
  34   1.0000      -0.359586        -9.7848
  35   1.0000      -0.354357        -9.6426
  36   1.0000      -0.335788        -9.1373
  37   1.0000      -0.333277        -9.0689
  38   1.0000      -0.326911        -8.8957
  39   1.0000      -0.305302        -8.3077
  40   1.0000      -0.256482        -6.9792
  41   1.0000      -0.244724        -6.6593
  42   1.0000      -0.191951        -5.2233
  43   0.0000      -0.005133        -0.1397
  44   0.0000       0.010911         0.2969
  45   0.0000       0.021787         0.5929
  46   0.0000       0.024590         0.6691
  47   0.0000       0.027618         0.7515

                 SPIN DOWN ORBITALS
  NO   OCC          E(Eh)            E(eV)
   0   1.0000     -19.107406      -519.9390
   1   1.0000     -14.388448      -391.5296
   2   1.0000     -10.209898      -277.8254
   3   1.0000     -10.206942      -277.7450
   4   1.0000     -10.157726      -276.4058
   5   1.0000     -10.157481      -276.3991
   6   1.0000     -10.155330      -276.3406
   7   1.0000     -10.144849      -276.0554
   8   1.0000     -10.144557      -276.0474
   9   1.0000     -10.144047      -276.0336
  10   1.0000     -10.141600      -275.9670
  11   1.0000      -1.095319       -29.8051
  12   1.0000      -0.869758       -23.6673
  13   1.0000      -0.821217       -22.3464
  14   1.0000      -0.764198       -20.7949
  15   1.0000      -0.706096       -19.2139
  16   1.0000      -0.687029       -18.6950
  17   1.0000      -0.678673       -18.4676
  18   1.0000      -0.677063       -18.4238
  19   1.0000      -0.592556       -16.1243
  20   1.0000      -0.575074       -15.6486
  21   1.0000      -0.494042       -13.4436
  22   1.0000      -0.486497       -13.2383
  23   1.0000      -0.473610       -12.8876
  24   1.0000      -0.443778       -12.0758
  25   1.0000      -0.435094       -11.8395
  26   1.0000      -0.426685       -11.6107
  27   1.0000      -0.421637       -11.4733
  28   1.0000      -0.400480       -10.8976
  29   1.0000      -0.387697       -10.5498
  30   1.0000      -0.385042       -10.4775
  31   1.0000      -0.375541       -10.2190
  32   1.0000      -0.363664        -9.8958
  33   1.0000      -0.358159        -9.7460
  34   1.0000      -0.353859        -9.6290
  35   1.0000      -0.348656        -9.4874
  36   1.0000      -0.334028        -9.0894
  37   1.0000      -0.327232        -8.9044
  38   1.0000      -0.308756        -8.4017
  39   1.0000      -0.303106        -8.2479
  40   1.0000      -0.245920        -6.6918
  41   1.0000      -0.243652        -6.6301
  42   0.0000      -0.069461        -1.8901
  43   0.0000      -0.004746        -0.1292
  44   0.0000       0.011748         0.3197
  45   0.0000       0.022851         0.6218
  46   0.0000       0.025032         0.6812

MULLIKEN ATOMIC CHARGES AND SPIN POPULATIONS
--------------------------------------------
   0 O :   -1.089909    0.493893
   1 N :    0.435192    0.532518
   2 C :    2.279445   -0.070335
   3 C :   -0.375207   -0.006397
   4 C :   -0.707461   -0.009254
   5 C :   -0.615799    0.004350
   6 C :    1.873744   -0.070781
   7 C :   -1.095549    0.043049
   8 C :   -1.437255    0.007087
   9 C :   -1.267069    0.042332
  10 C :   -1.364519    0.020428
  11 H :    0.103958   -0.000124
  12 H :    0.216503   -0.003920
  13 H :    0.704340    0.000399
  14 H :    0.207659   -0.000585
  15 H :    0.182731   -0.001407
  16 H :    0.259249    0.002231
  17 H :    0.108077    0.011524
  18 H :    0.152885   -0.005168
  19 H :    0.164972    0.003017
  20 H :    0.163403   -0.000477
  21 H :    0.137942   -0.000896
  22 H :    0.269060   -0.000069
  23 H :    0.129666    0.002446
  24 H :    0.170246   -0.002086
  25 H :    0.218609    0.007304
  26 H :    0.175087    0.000919
Sum of atomic charges         :   -0.0000000

LOEWDIN ATOMIC CHARGES AND SPIN POPULATIONS
-------------------------------------------
   0 O :    0.383771    0.433761
   1 N :   -0.123037    0.412110
   2 C :   -0.457808    0.040796
   3 C :    0.276572    0.004888
   4 C :    0.242506   -0.000782
   5 C :    0.220985    0.002125
   6 C :   -0.481154    0.038232
   7 C :    0.595665    0.021543
   8 C :    0.562307   -0.000083
   9 C :    0.584373    0.016877
  10 C :    0.578792    0.008605
  11 H :   -0.122866    0.000594
  12 H :   -0.122031    0.001106
  13 H :   -0.157434   -0.000371
  14 H :   -0.147656    0.000051
  15 H :   -0.143909    0.001284
  16 H :   -0.160955    0.001890
  17 H :   -0.137411    0.006748
  18 H :   -0.173155   -0.000517
  19 H :   -0.148810    0.000369
  20 H :   -0.140994   -0.000273
  21 H :   -0.166664    0.001723
  22 H :   -0.158408    0.001612
  23 H :   -0.142898    0.004384
  24 H :   -0.171181   -0.000125
  25 H :   -0.144461    0.001670
  26 H :   -0.144137    0.001782

  Mayer bond orders larger than 0.100000
B(  0-O ,  1-N ) :   0.6226 B(  0-O ,  6-C ) :  -0.1393 B(  1-N ,  2-C ) :   0.6392
B(  1-N ,  3-C ) :   0.3580 B(  1-N ,  6-C ) :   0.8859 B(  1-N ,  8-C ) :  -0.1868
B(  2-C ,  3-C ) :   0.1641 B(  2-C ,  4-C ) :   0.2148 B(  2-C ,  5-C ) :   0.2245
B(  2-C ,  7-C ) :   0.1233 B(  2-C ,  8-C ) :  -0.2223 B(  2-C , 18-H ) :  -0.1144
B(  3-C ,  4-C ) :   0.5507 B(  3-C ,  7-C ) :   0.1375 B(  3-C , 11-H ) :   0.9720
B(  3-C , 12-H ) :   0.9780 B(  3-C , 13-H ) :   0.2340 B(  4-C ,  5-C ) :   1.5348
B(  5-C ,  6-C ) :   0.5955 B(  5-C ,  9-C ) :  -0.1215 B(  5-C , 14-H ) :   1.1219
B(  6-C ,  9-C ) :   0.2208 B(  6-C , 13-H ) :  -0.1103 B(  7-C ,  8-C ) :   0.2174
B(  7-C , 15-H ) :   1.0132 B(  7-C , 16-H ) :   0.9735 B(  7-C , 17-H ) :   1.0875
B(  8-C , 18-H ) :   1.1032 B(  8-C , 19-H ) :   1.1262 B(  8-C , 20-H ) :   1.0816
B(  9-C , 10-C ) :   0.2436 B(  9-C , 21-H ) :   1.1056 B(  9-C , 22-H ) :   0.9512
B(  9-C , 23-H ) :   1.1343 B( 10-C , 24-H ) :   1.0852 B( 10-C , 25-H ) :   1.0341
B( 10-C , 26-H ) :   1.0899

Dispersion correction           -0.009986699
FINAL SINGLE POINT ENERGY      -482.380251259437

DIPOLE MOMENT
-------------

Method             : SCF
Type of density    : Electron Density
Multiplicity       :   2
Irrep              :   0
Energy             :  -482.3702645600244523 Eh
Relativity type    :
Basis              : AO
                                X                 Y                 Z
Electronic contribution:     -1.681837524      -0.879127133      -0.442267880
Nuclear contribution   :      2.934205534      -0.334114235       0.179164827
                        -----------------------------------------
Total Dipole Moment    :      1.252368011      -1.213241369      -0.263103053
                        -----------------------------------------
Magnitude (a.u.)       :      1.763406779
Magnitude (Debye)      :      4.482223825

Rotational constants in cm-1:             0.051691             0.036550             0.029790
Rotational constants in MHz :          1549.648951          1095.742777           893.076591

                             ****ORCA TERMINATED NORMALLY****
TOTAL RUN TIME: 0 days 0 hours 8 minutes 19 seconds 325 msec
