                         Program Version 6.0.0  -   RELEASE  -
|  1> !B3LYP aug-cc-pVTZ d3 TightSCF SlowConv RIJCOSX defgrid2
|  2>
|  3> %pal
|  4> nprocs 4
|  5> end
|  6>
|  7> %scf
|  8> MaxIter 1500
|  9> end
| 10>
| 11> %maxcore 3000
| 12>
| 13> !CPCM
| 14> %cpcm smd true
| 15> SMDsolvent "MeCN"
| 16> surfacetype gepol_ses
| 17> rsolv 2.19
| 18> end
| 19>
| 20> * xyz 1 2
| 21> C           1.84281234672153     -0.00006597869847      0.01285546623039
| 22> C           1.14355368564506     -1.23902490190253      0.00158488089103
| 23> C          -0.22635786234437     -1.24013111711704     -0.01699413586169
| 24> C          -0.95506719113591     -0.00029607647166     -0.02822657050256
| 25> C          -2.42493771335276     -0.00015694603531     -0.01540251479795
| 26> H          -2.85288988584861      0.90688759110700     -0.47308067341050
| 27> H          -2.85357110348468     -0.91037144459146     -0.46576655952987
| 28> H          -2.75683389603493      0.00504463864823      1.05046901822320
| 29> C          -0.22649470626097      1.23969602067318     -0.01458794729593
| 30> C           1.14339815090709      1.23878434923716      0.00398375524291
| 31> H           1.70466297579754      2.17704577622432      0.01138483317017
| 32> H          -0.78522490872320      2.18007136225477     -0.02327385957075
| 33> H          -0.78496408789097     -2.18055191214167     -0.02751919353185
| 34> H           1.70496196149810     -2.17721430622763      0.00716529435102
| 35> H           2.93762583450709      0.00000044504112      0.02964230639238
| 36> *
| 37>
| 38>                          ****END OF INPUT****

CARTESIAN COORDINATES (ANGSTROEM)
---------------------------------
  C      1.842812   -0.000066    0.012855
  C      1.143554   -1.239025    0.001585
  C     -0.226358   -1.240131   -0.016994
  C     -0.955067   -0.000296   -0.028227
  C     -2.424938   -0.000157   -0.015403
  H     -2.852890    0.906888   -0.473081
  H     -2.853571   -0.910371   -0.465767
  H     -2.756834    0.005045    1.050469
  C     -0.226495    1.239696   -0.014588
  C      1.143398    1.238784    0.003984
  H      1.704663    2.177046    0.011385
  H     -0.785225    2.180071   -0.023274
  H     -0.784964   -2.180552   -0.027519
  H      1.704962   -2.177214    0.007165
  H      2.937626    0.000000    0.029642

 Total Charge           Charge          ....    1
 Multiplicity           Mult            ....    2
 Number of Electrons    NEL             ....   49
 Basis Dimension        Dim             ....  506

ORBITAL ENERGIES
----------------
                 SPIN UP ORBITALS
  NO   OCC          E(Eh)            E(eV)
   0   1.0000     -10.271743      -279.5083
   1   1.0000     -10.254611      -279.0422
   2   1.0000     -10.227558      -278.3060
   3   1.0000     -10.227507      -278.3046
   4   1.0000     -10.223557      -278.1971
   5   1.0000     -10.223499      -278.1955
   6   1.0000     -10.194196      -277.3982
   7   1.0000      -0.909448       -24.7473
   8   1.0000      -0.822035       -22.3687
   9   1.0000      -0.794357       -21.6156
  10   1.0000      -0.722155       -19.6508
  11   1.0000      -0.645947       -17.5771
  12   1.0000      -0.626122       -17.0376
  13   1.0000      -0.545956       -14.8562
  14   1.0000      -0.507715       -13.8156
  15   1.0000      -0.487665       -13.2700
  16   1.0000      -0.461835       -12.5672
  17   1.0000      -0.456362       -12.4183
  18   1.0000      -0.446581       -12.1521
  19   1.0000      -0.410954       -11.1826
  20   1.0000      -0.400904       -10.9091
  21   1.0000      -0.388811       -10.5801
  22   1.0000      -0.375710       -10.2236
  23   1.0000      -0.304293        -8.2802
  24   1.0000      -0.301126        -8.1941
  25   0.0000      -0.078264        -2.1297
  26   0.0000      -0.051397        -1.3986
  27   0.0000      -0.006983        -0.1900
  28   0.0000       0.006365         0.1732
  29   0.0000       0.010553         0.2872

                 SPIN DOWN ORBITALS
  NO   OCC          E(Eh)            E(eV)
   0   1.0000     -10.266175      -279.3568
   1   1.0000     -10.248356      -278.8719
   2   1.0000     -10.226336      -278.2727
   3   1.0000     -10.226295      -278.2716
   4   1.0000     -10.223798      -278.2037
   5   1.0000     -10.223750      -278.2024
   6   1.0000     -10.194075      -277.3949
   7   1.0000      -0.899386       -24.4735
   8   1.0000      -0.809231       -22.0203
   9   1.0000      -0.792222       -21.5575
  10   1.0000      -0.713647       -19.4193
  11   1.0000      -0.640633       -17.4325
  12   1.0000      -0.619048       -16.8452
  13   1.0000      -0.543047       -14.7771
  14   1.0000      -0.504144       -13.7185
  15   1.0000      -0.484023       -13.1709
  16   1.0000      -0.461281       -12.5521
  17   1.0000      -0.442094       -12.0300
  18   1.0000      -0.436812       -11.8863
  19   1.0000      -0.409064       -11.1312
  20   1.0000      -0.387127       -10.5343
  21   1.0000      -0.377783       -10.2800
  22   1.0000      -0.372470       -10.1354
  23   1.0000      -0.299152        -8.1403
  24   0.0000      -0.215097        -5.8531
  25   0.0000      -0.042952        -1.1688
  26   0.0000      -0.038934        -1.0594
  27   0.0000      -0.006673        -0.1816
  28   0.0000       0.006691         0.1821

MULLIKEN ATOMIC CHARGES AND SPIN POPULATIONS
--------------------------------------------
   0 C :   -0.148130    0.427702
   1 C :   -0.474527   -0.021295
   2 C :   -0.730236    0.069347
   3 C :    1.301150    0.434608
   4 C :   -0.627520   -0.028751
   5 H :    0.243994    0.008175
   6 H :    0.243430    0.007692
   7 H :    0.290537    0.056826
   8 C :   -0.731097    0.070300
   9 C :   -0.474781   -0.022051
  10 H :    0.551515    0.003587
  11 H :    0.279247   -0.005626
  12 H :    0.276144   -0.005756
  13 H :    0.553947    0.003608
  14 H :    0.446327    0.001634
Sum of atomic charges         :    1.0000000

LOEWDIN ATOMIC CHARGES AND SPIN POPULATIONS
-------------------------------------------
   0 C :    0.309996    0.228154
   1 C :    0.277785    0.075037
   2 C :    0.291645    0.097633
   3 C :   -0.033904    0.224308
   4 C :    0.629677    0.083658
   5 H :   -0.135361    0.008815
   6 H :   -0.135630    0.008604
   7 H :   -0.106342    0.029977
   8 C :    0.291608    0.097821
   9 C :    0.277724    0.074812
  10 H :   -0.139039    0.001524
  11 H :   -0.132923    0.009920
  12 H :   -0.133043    0.009865
  13 H :   -0.139000    0.001593
  14 H :   -0.123193    0.048278

  Mayer bond orders larger than 0.100000
B(  0-C ,  1-C ) :   1.0303 B(  0-C ,  9-C ) :   1.0278 B(  0-C , 14-H ) :   0.7020
B(  1-C ,  2-C ) :   1.4523 B(  1-C ,  9-C ) :   0.1073 B(  1-C , 13-H ) :   0.4841
B(  2-C ,  3-C ) :   0.5435 B(  2-C , 12-H ) :   0.9646 B(  3-C ,  4-C ) :   0.5235
B(  3-C ,  8-C ) :   0.5437 B(  4-C ,  5-H ) :   0.9492 B(  4-C ,  6-H ) :   0.9501
B(  4-C ,  7-H ) :   0.8809 B(  8-C ,  9-C ) :   1.4535 B(  8-C , 11-H ) :   0.9595
B(  9-C , 10-H ) :   0.4873

Dispersion correction           -0.024162156
FINAL SINGLE POINT ENERGY      -271.285151149671

DIPOLE MOMENT
-------------

Method             : SCF
Type of density    : Electron Density
Multiplicity       :   2
Irrep              :   0
Energy             :  -271.2609889934680041 Eh
Relativity type    :
Basis              : AO
                                X                 Y                 Z
Electronic contribution:      3.476230442      -0.000880925      -0.055616621
Nuclear contribution   :     -3.446153110       0.001949667       0.148888103
                        -----------------------------------------
Total Dipole Moment    :      0.030077332       0.001068742       0.093271482
                        -----------------------------------------
Magnitude (a.u.)       :      0.098006926
Magnitude (Debye)      :      0.249113808

Rotational constants in cm-1:             0.175281             0.085805             0.058230
Rotational constants in MHz :          5254.798892          2572.379074          1745.693725

                             ****ORCA TERMINATED NORMALLY****
TOTAL RUN TIME: 0 days 0 hours 4 minutes 7 seconds 258 msec
