                         Program Version 6.0.0  -   RELEASE  -
|  1> !B3LYP opt aug-cc-pVTZ d3 TightSCF SlowConv RIJCOSX defgrid2
|  2>
|  3> %pal
|  4> nprocs 8
|  5> end
|  6>
|  7> %scf
|  8> MaxIter 1500
|  9> end
| 10>
| 11> %maxcore 3500
| 12>
| 13> !CPCM
| 14> %cpcm smd true
| 15> SMDsolvent "MeCN"
| 16> surfacetype gepol_ses
| 17> rsolv 2.19
| 18> end
| 19>
| 20> * xyz 1 2
| 21> C          -0.22428548195010     -1.24213438922305     -0.03849982740281
| 22> C           1.14800811610277     -1.22870080724969      0.00227297677880
| 23> C           1.84566180598227     -0.00004019353139      0.02297012210753
| 24> C           1.14805042698559      1.22864411313713      0.00227054482980
| 25> C          -0.22424154749405      1.24212983950181     -0.03850931873892
| 26> C          -0.94084900168795      0.00001024661649     -0.05989305493678
| 27> N          -2.26985305582395      0.00003075135377     -0.09979281491323
| 28> H          -2.80165535396914      0.86997483968693     -0.11591197867223
| 29> H          -2.80167508667297     -0.86990117124685     -0.11590823438470
| 30> H          -0.77890173993705      2.18488554366972     -0.05504522287995
| 31> H           1.70373713208460      2.16980587419055      0.01885237386387
| 32> H           2.93889913121278     -0.00005967561260      0.05550059305168
| 33> H           1.70365895934134     -2.16988118368011      0.01885253182221
| 34> H          -0.77898600417414     -2.18486378761269     -0.05503389052528
| 35> *
| 36>
| 37>                          ****END OF INPUT****
 Total Charge           Charge          ....    1
 Multiplicity           Mult            ....    2
 Number of Electrons    NEL             ....   49
Dispersion correction           -0.022790345
FINAL SINGLE POINT ENERGY      -287.379053267465
Dispersion correction             ... done (  0.0 sec)
Dispersion correction           -0.022887204
FINAL SINGLE POINT ENERGY      -287.379885120504
Dispersion correction             ... done (  0.1 sec)
Dispersion correction           -0.022896745
FINAL SINGLE POINT ENERGY      -287.379888566313
Dispersion correction             ... done (  0.0 sec)
Dispersion correction           -0.022899905
FINAL SINGLE POINT ENERGY      -287.379892194708
Dispersion correction             ... done (  0.0 sec)
                    ***********************HURRAY********************

CARTESIAN COORDINATES (ANGSTROEM)
---------------------------------
  C     -0.222805   -1.238150   -0.039030
  C      1.143849   -1.223009    0.002290
  C      1.837214   -0.000040    0.023183
  C      1.143890    1.222952    0.002291
  C     -0.222764    1.238146   -0.039040
  C     -0.934350    0.000010   -0.059889
  N     -2.257698    0.000031   -0.098228
  H     -2.783148    0.864188   -0.115001
  H     -2.783179   -0.864110   -0.114981
  H     -0.780352    2.163647   -0.056152
  H      1.695170    2.151438    0.018912
  H      2.917077   -0.000057    0.055003
  H      1.695093   -2.151516    0.018903
  H     -0.780430   -2.163630   -0.056136

 Multiplicity           Mult            ....    2
 Number of Electrons    NEL             ....   49
 Basis Dimension        Dim             ....  483

ORBITAL ENERGIES
----------------
                 SPIN UP ORBITALS
  NO   OCC          E(Eh)            E(eV)
   0   1.0000     -14.408446      -392.0737
   1   1.0000     -10.278277      -279.6861
   2   1.0000     -10.223021      -278.1825
   3   1.0000     -10.218413      -278.0571
   4   1.0000     -10.218409      -278.0570
   5   1.0000     -10.206683      -277.7380
   6   1.0000     -10.206681      -277.7379
   7   1.0000      -1.001176       -27.2434
   8   1.0000      -0.884819       -24.0771
   9   1.0000      -0.790726       -21.5168
  10   1.0000      -0.770374       -20.9629
  11   1.0000      -0.656258       -17.8577
  12   1.0000      -0.652222       -17.7479
  13   1.0000      -0.573361       -15.6019
  14   1.0000      -0.565766       -15.3953
  15   1.0000      -0.522143       -14.2082
  16   1.0000      -0.472471       -12.8566
  17   1.0000      -0.463429       -12.6105
  18   1.0000      -0.457256       -12.4426
  19   1.0000      -0.453815       -12.3489
  20   1.0000      -0.396046       -10.7770
  21   1.0000      -0.375748       -10.2246
  22   1.0000      -0.374645       -10.1946
  23   1.0000      -0.299647        -8.1538
  24   1.0000      -0.261549        -7.1171
  25   0.0000      -0.044083        -1.1995
  26   0.0000      -0.042528        -1.1572
  27   0.0000      -0.008138        -0.2214
  28   0.0000       0.004737         0.1289
  29   0.0000       0.010132         0.2757

                 SPIN DOWN ORBITALS
  NO   OCC          E(Eh)            E(eV)
   0   1.0000     -14.400147      -391.8479
   1   1.0000     -10.277699      -279.6704
   2   1.0000     -10.217551      -278.0337
   3   1.0000     -10.215280      -277.9719
   4   1.0000     -10.215280      -277.9719
   5   1.0000     -10.208104      -277.7766
   6   1.0000     -10.208097      -277.7764
   7   1.0000      -0.987000       -26.8576
   8   1.0000      -0.876755       -23.8577
   9   1.0000      -0.787142       -21.4192
  10   1.0000      -0.756989       -20.5987
  11   1.0000      -0.652822       -17.7642
  12   1.0000      -0.645807       -17.5733
  13   1.0000      -0.570752       -15.5309
  14   1.0000      -0.560631       -15.2556
  15   1.0000      -0.517726       -14.0880
  16   1.0000      -0.468854       -12.7582
  17   1.0000      -0.460852       -12.5404
  18   1.0000      -0.456437       -12.4203
  19   1.0000      -0.425736       -11.5849
  20   1.0000      -0.393740       -10.7142
  21   1.0000      -0.372693       -10.1415
  22   1.0000      -0.343342        -9.3428
  23   1.0000      -0.290538        -7.9059
  24   0.0000      -0.175351        -4.7715
  25   0.0000      -0.032542        -0.8855
  26   0.0000      -0.019023        -0.5176
  27   0.0000      -0.007534        -0.2050
  28   0.0000       0.005282         0.1437

MULLIKEN ATOMIC CHARGES AND SPIN POPULATIONS
--------------------------------------------
   0 C :   -0.656591    0.195095
   1 C :   -0.360290   -0.099931
   2 C :   -0.356459    0.360484
   3 C :   -0.359845   -0.099926
   4 C :   -0.656226    0.195095
   5 C :    1.163186    0.095603
   6 N :   -0.337404    0.364635
   7 H :    0.060769   -0.005667
   8 H :    0.061295   -0.005663
   9 H :    0.584548   -0.004717
  10 H :    0.382674    0.002555
  11 H :    0.508445    0.004619
  12 H :    0.381459    0.002542
  13 H :    0.584439   -0.004723
Sum of atomic charges         :    1.0000000

LOEWDIN ATOMIC CHARGES AND SPIN POPULATIONS
-------------------------------------------
   0 C :    0.285998    0.109012
   1 C :    0.250045    0.043409
   2 C :    0.269555    0.177992
   3 C :    0.250044    0.043409
   4 C :    0.285999    0.109011
   5 C :   -0.159055    0.131393
   6 N :    0.969895    0.250581
   7 H :   -0.199511    0.033240
   8 H :   -0.199508    0.033239
   9 H :   -0.144941    0.019678
  10 H :   -0.156722   -0.006718
  11 H :   -0.150136    0.042796
  12 H :   -0.156723   -0.006718
  13 H :   -0.144941    0.019678

  Mayer bond orders larger than 0.100000
B(  0-C ,  1-C ) :   1.4666 B(  0-C ,  2-C ) :   0.2384 B(  0-C ,  4-C ) :   0.2949
B(  0-C ,  5-C ) :   0.6168 B(  0-C ,  6-N ) :  -0.1254 B(  0-C , 13-H ) :   0.2935
B(  1-C ,  2-C ) :   1.0315 B(  1-C ,  3-C ) :  -0.1112 B(  1-C ,  5-C ) :  -0.2281
B(  1-C , 12-H ) :   0.8013 B(  2-C ,  3-C ) :   1.0310 B(  2-C ,  4-C ) :   0.2380
B(  2-C , 11-H ) :   0.5673 B(  3-C ,  4-C ) :   1.4669 B(  3-C ,  5-C ) :  -0.2280
B(  3-C , 10-H ) :   0.7997 B(  4-C ,  5-C ) :   0.6158 B(  4-C ,  6-N ) :  -0.1276
B(  4-C ,  9-H ) :   0.2936 B(  5-C ,  6-N ) :   1.0178 B(  6-N ,  7-H ) :   1.1215
B(  6-N ,  8-H ) :   1.1203

Dispersion correction           -0.022899663
FINAL SINGLE POINT ENERGY      -287.379893214392

DIPOLE MOMENT
-------------

Method             : SCF
Type of density    : Electron Density
Multiplicity       :   2
Irrep              :   0
Energy             :  -287.3569935514755116 Eh
Relativity type    :
Basis              : AO
                                X                 Y                 Z
Electronic contribution:     -0.866915974       0.000020600      -0.025753920
Nuclear contribution   :     -0.818268317       0.000011225      -0.026306476
                        -----------------------------------------
Total Dipole Moment    :     -1.685184291       0.000031825      -0.052060395
                        -----------------------------------------
Magnitude (a.u.)       :      1.685988250
Magnitude (Debye)      :      4.285441562

Rotational constants in cm-1:             0.181206             0.090427             0.060324
Rotational constants in MHz :          5432.432170          2710.928707          1808.459531

                             ****ORCA TERMINATED NORMALLY****
TOTAL RUN TIME: 0 days 0 hours 15 minutes 9 seconds 30 msec
