                         Program Version 6.0.0  -   RELEASE  -
|  1> !PBE0 def2-SV(p) Opt Freq d3 TightSCF SlowConv RIJCOSX defgrid2
|  2>
|  3> %pal
|  4> nprocs 4
|  5> end
|  6>
|  7> %scf
|  8> MaxIter 1500
|  9> end
| 10>
| 11> %maxcore 3000
| 12>
| 13>
| 14>
| 15> * xyz 0 1
| 16> C     2.3758739   -0.8230796    0.6782974
| 17> C     1.2561440   -0.4196813   -0.0455205
| 18> C     1.3444757    0.7288025   -0.8303905
| 19> C     2.5229721    1.4490930   -0.8941619
| 20> C     3.6304795    1.0389430   -0.1695816
| 21> C     3.5520184   -0.0977088    0.6183817
| 22> H     4.4103007   -0.4183988    1.1911064
| 23> H     4.5493073    1.6048522   -0.2157695
| 24> H     2.5778253    2.3346509   -1.5107281
| 25> H     0.4836886    1.0496189   -1.3998671
| 26> C    -0.0000061   -1.1909958    0.0000063
| 27> C    -0.0000273   -2.5245055    0.0000078
| 28> H    -0.9143278   -3.0904514    0.0518421
| 29> H     0.9142333   -3.0905139   -0.0517961
| 30> C    -1.2561535   -0.4196707    0.0455214
| 31> C    -2.3758434   -0.8230191   -0.6783834
| 32> C    -3.5519894   -0.0976466   -0.6184911
| 33> C    -3.6304899    1.0389610    0.1695298
| 34> C    -2.5230212    1.4490611    0.8941973
| 35> C    -1.3445253    0.7287674    0.8304549
| 36> H    -0.4837676    1.0495468    1.4000024
| 37> H    -2.5779046    2.3345903    1.5108015
| 38> H    -4.5493161    1.6048767    0.2156896
| 39> H    -4.4102343   -0.4183037   -1.1912876
| 40> H    -2.3148827   -1.7002420   -1.3057987
| 41> H     2.3149403   -1.7003406    1.3056610
| 42> *
| 43>
| 44>                          ****END OF INPUT****
 Total Charge           Charge          ....    0
 Multiplicity           Mult            ....    1
 Number of Electrons    NEL             ....   96
Dispersion correction           -0.029233126
FINAL SINGLE POINT ENERGY      -539.668655600640
Dispersion correction             ... done (  0.1 sec)
Dispersion correction           -0.028963510
FINAL SINGLE POINT ENERGY      -539.671959682641
Dispersion correction             ... done (  0.0 sec)
Dispersion correction           -0.028955984
FINAL SINGLE POINT ENERGY      -539.672031183398
Dispersion correction             ... done (  0.0 sec)
Dispersion correction           -0.028937865
FINAL SINGLE POINT ENERGY      -539.672046281463
Dispersion correction             ... done (  0.1 sec)
Dispersion correction           -0.028940346
FINAL SINGLE POINT ENERGY      -539.672047507747
Dispersion correction             ... done (  0.1 sec)
                    ***********************HURRAY********************

CARTESIAN COORDINATES (ANGSTROEM)
---------------------------------
  C      2.397495   -0.831498    0.676694
  C      1.271724   -0.400480   -0.039699
  C      1.382592    0.763036   -0.816423
  C      2.585764    1.459637   -0.890731
  C      3.700305    1.014124   -0.179877
  C      3.600561   -0.133069    0.606542
  H      4.464661   -0.482099    1.179961
  H      4.643840    1.565406   -0.232767
  H      2.654154    2.358881   -1.510384
  H      0.512644    1.116807   -1.377218
  C     -0.000011   -1.164175   -0.000023
  C     -0.000019   -2.509967   -0.000033
  H     -0.932251   -3.078868    0.080645
  H      0.932204   -3.078882   -0.080716
  C     -1.271742   -0.400473    0.039668
  C     -2.397510   -0.831463   -0.676747
  C     -3.600574   -0.133031   -0.606579
  C     -3.700317    1.014140    0.179873
  C     -2.585777    1.459622    0.890749
  C     -1.382610    0.763016    0.816429
  H     -0.512664    1.116760    1.377245
  H     -2.654164    2.358845    1.510430
  H     -4.643849    1.565425    0.232776
  H     -4.464672   -0.482042   -1.180012
  H     -2.316941   -1.716196   -1.314803
  H      2.316926   -1.716251    1.314722

 Multiplicity           Mult            ....    1
 Number of Electrons    NEL             ....   96
 Basis Dimension        Dim             ....  220

ORBITAL ENERGIES
----------------

  NO   OCC          E(Eh)            E(eV)
   0   2.0000     -10.251835      -278.9666
   1   2.0000     -10.248495      -278.8757
   2   2.0000     -10.248466      -278.8749
   3   2.0000     -10.238516      -278.6042
   4   2.0000     -10.238514      -278.6041
   5   2.0000     -10.238160      -278.5945
   6   2.0000     -10.238159      -278.5945
   7   2.0000     -10.237810      -278.5850
   8   2.0000     -10.237809      -278.5850
   9   2.0000     -10.237553      -278.5780
  10   2.0000     -10.237546      -278.5778
  11   2.0000     -10.236908      -278.5604
  12   2.0000     -10.236893      -278.5600
  13   2.0000     -10.228889      -278.3422
  14   2.0000      -0.890721       -24.2378
  15   2.0000      -0.874470       -23.7955
  16   2.0000      -0.823496       -22.4085
  17   2.0000      -0.765436       -20.8286
  18   2.0000      -0.765368       -20.8267
  19   2.0000      -0.759539       -20.6681
  20   2.0000      -0.733470       -19.9587
  21   2.0000      -0.647954       -17.6317
  22   2.0000      -0.624995       -17.0070
  23   2.0000      -0.615808       -16.7570
  24   2.0000      -0.613250       -16.6874
  25   2.0000      -0.567559       -15.4441
  26   2.0000      -0.542226       -14.7547
  27   2.0000      -0.516341       -14.0503
  28   2.0000      -0.483141       -13.1469
  29   2.0000      -0.478840       -13.0299
  30   2.0000      -0.467088       -12.7101
  31   2.0000      -0.456955       -12.4344
  32   2.0000      -0.454845       -12.3770
  33   2.0000      -0.436154       -11.8684
  34   2.0000      -0.435729       -11.8568
  35   2.0000      -0.432176       -11.7601
  36   2.0000      -0.399041       -10.8585
  37   2.0000      -0.386602       -10.5200
  38   2.0000      -0.385769       -10.4973
  39   2.0000      -0.371969       -10.1218
  40   2.0000      -0.360961        -9.8223
  41   2.0000      -0.353106        -9.6085
  42   2.0000      -0.346919        -9.4402
  43   2.0000      -0.313403        -8.5281
  44   2.0000      -0.272743        -7.4217
  45   2.0000      -0.268772        -7.3137
  46   2.0000      -0.266075        -7.2403
  47   2.0000      -0.235629        -6.4118
  48   0.0000      -0.037500        -1.0204
  49   0.0000      -0.012780        -0.3478
  50   0.0000      -0.009018        -0.2454
  51   0.0000       0.003454         0.0940
  52   0.0000       0.059416         1.6168

MULLIKEN ATOMIC CHARGES
-----------------------
   0 C :   -0.134439
   1 C :    0.025794
   2 C :   -0.120883
   3 C :   -0.094813
   4 C :   -0.088008
   5 C :   -0.092490
   6 H :    0.096568
   7 H :    0.098016
   8 H :    0.097334
   9 H :    0.109052
  10 C :    0.029496
  11 C :   -0.268138
  12 H :    0.130752
  13 H :    0.130751
  14 C :    0.025794
  15 C :   -0.134438
  16 C :   -0.092492
  17 C :   -0.088007
  18 C :   -0.094813
  19 C :   -0.120881
  20 H :    0.109052
  21 H :    0.097333
  22 H :    0.098016
  23 H :    0.096569
  24 H :    0.092437
  25 H :    0.092437
Sum of atomic charges:   -0.0000000

LOEWDIN ATOMIC CHARGES
----------------------
   0 C :   -0.116612
   1 C :   -0.036212
   2 C :   -0.114017
   3 C :   -0.127073
   4 C :   -0.127986
   5 C :   -0.127266
   6 H :    0.129680
   7 H :    0.129336
   8 H :    0.129971
   9 H :    0.135240
  10 C :   -0.030086
  11 C :   -0.239520
  12 H :    0.128938
  13 H :    0.128938
  14 C :   -0.036212
  15 C :   -0.116612
  16 C :   -0.127266
  17 C :   -0.127987
  18 C :   -0.127073
  19 C :   -0.114017
  20 H :    0.135239
  21 H :    0.129971
  22 H :    0.129337
  23 H :    0.129680
  24 H :    0.130805
  25 H :    0.130805

  Mayer bond orders larger than 0.100000
B(  0-C ,  1-C ) :   1.3876 B(  0-C ,  5-C ) :   1.3888 B(  0-C , 25-H ) :   0.9570
B(  1-C ,  2-C ) :   1.3859 B(  1-C , 10-C ) :   1.0038 B(  2-C ,  3-C ) :   1.3962
B(  2-C ,  9-H ) :   0.9519 B(  3-C ,  4-C ) :   1.3871 B(  3-C ,  8-H ) :   0.9627
B(  4-C ,  5-C ) :   1.3901 B(  4-C ,  7-H ) :   0.9638 B(  5-C ,  6-H ) :   0.9623
B( 10-C , 11-C ) :   1.9667 B( 10-C , 14-C ) :   1.0038 B( 11-C , 12-H ) :   0.9096
B( 11-C , 13-H ) :   0.9096 B( 14-C , 15-C ) :   1.3876 B( 14-C , 19-C ) :   1.3859
B( 15-C , 16-C ) :   1.3888 B( 15-C , 24-H ) :   0.9570 B( 16-C , 17-C ) :   1.3901
B( 16-C , 23-H ) :   0.9623 B( 17-C , 18-C ) :   1.3871 B( 17-C , 22-H ) :   0.9638
B( 18-C , 19-C ) :   1.3962 B( 18-C , 21-H ) :   0.9627 B( 19-C , 20-H ) :   0.9519

Dispersion correction           -0.028939982
FINAL SINGLE POINT ENERGY      -539.672047488654

DIPOLE MOMENT
-------------

Method             : SCF
Type of density    : Electron Density
Multiplicity       :   1
Irrep              :   0
Energy             :  -539.6431075064595007 Eh
Relativity type    :
Basis              : AO
                                X                 Y                 Z
Electronic contribution:      0.000010437       0.585458449      -0.000008150
Nuclear contribution   :     -0.000009105      -0.465365266       0.000012542
                        -----------------------------------------
Total Dipole Moment    :      0.000001332       0.120093183       0.000004392
                        -----------------------------------------
Magnitude (a.u.)       :      0.120093183
Magnitude (Debye)      :      0.305252613

VIBRATIONAL FREQUENCIES
-----------------------

Scaling factor for frequencies =  1.000000000  (already applied!)

     0:       0.00 cm**-1
     1:       0.00 cm**-1
     2:       0.00 cm**-1
     3:       0.00 cm**-1
     4:       0.00 cm**-1
     5:       0.00 cm**-1
     6:      42.66 cm**-1
     7:      63.14 cm**-1
     8:      79.60 cm**-1
     9:     139.75 cm**-1
    10:     221.46 cm**-1
    11:     235.92 cm**-1
    12:     299.04 cm**-1
    13:     342.43 cm**-1
    14:     419.16 cm**-1
    15:     424.11 cm**-1
    16:     451.73 cm**-1
    17:     463.03 cm**-1
    18:     581.23 cm**-1
    19:     600.99 cm**-1
    20:     626.86 cm**-1
    21:     631.11 cm**-1
    22:     659.81 cm**-1
    23:     711.60 cm**-1
    24:     722.98 cm**-1
    25:     726.98 cm**-1
    26:     743.80 cm**-1
    27:     804.10 cm**-1
    28:     810.62 cm**-1
    29:     855.76 cm**-1
    30:     867.62 cm**-1
    31:     869.02 cm**-1
    32:     924.38 cm**-1
    33:     951.95 cm**-1
    34:     952.25 cm**-1
    35:    1001.54 cm**-1
    36:    1002.18 cm**-1
    37:    1018.15 cm**-1
    38:    1018.50 cm**-1
    39:    1023.90 cm**-1
    40:    1023.91 cm**-1
    41:    1061.60 cm**-1
    42:    1064.48 cm**-1
    43:    1092.10 cm**-1
    44:    1111.78 cm**-1
    45:    1116.14 cm**-1
    46:    1172.63 cm**-1
    47:    1172.80 cm**-1
    48:    1191.53 cm**-1
    49:    1196.64 cm**-1
    50:    1200.98 cm**-1
    51:    1327.56 cm**-1
    52:    1337.55 cm**-1
    53:    1374.14 cm**-1
    54:    1399.24 cm**-1
    55:    1399.59 cm**-1
    56:    1431.33 cm**-1
    57:    1492.03 cm**-1
    58:    1493.06 cm**-1
    59:    1541.41 cm**-1
    60:    1551.03 cm**-1
    61:    1662.02 cm**-1
    62:    1664.12 cm**-1
    63:    1693.09 cm**-1
    64:    1694.57 cm**-1
    65:    1709.19 cm**-1
    66:    3169.47 cm**-1
    67:    3191.73 cm**-1
    68:    3191.87 cm**-1
    69:    3199.31 cm**-1
    70:    3199.65 cm**-1
    71:    3208.07 cm**-1
    72:    3208.40 cm**-1
    73:    3214.05 cm**-1
    74:    3214.40 cm**-1
    75:    3221.22 cm**-1
    76:    3221.41 cm**-1
    77:    3256.55 cm**-1

IR SPECTRUM
-----------

 Mode   freq       eps      Int      T**2         TX        TY        TZ
       cm**-1   L/(mol*cm) km/mol    a.u.
----------------------------------------------------------------------------
  6:     42.66   0.000007    0.04  0.000053  (-0.000897  0.000005  0.007247)
  7:     63.14   0.000006    0.03  0.000028  ( 0.000000 -0.005279 -0.000003)
  8:     79.60   0.000033    0.17  0.000130  (-0.000000  0.011402 -0.000002)
  9:    139.75   0.000293    1.48  0.000653  (-0.001516 -0.000000 -0.025518)
 10:    221.46   0.000028    0.14  0.000040  ( 0.000000  0.006320 -0.000001)
 11:    235.92   0.000037    0.18  0.000048  (-0.004250 -0.000000 -0.005505)
 12:    299.04   0.000023    0.12  0.000024  (-0.000000  0.004950 -0.000001)
 13:    342.43   0.000266    1.34  0.000242  (-0.015529  0.000000 -0.001134)
 14:    419.16   0.000002    0.01  0.000002  ( 0.001045  0.000002 -0.000664)
 15:    424.11   0.000032    0.16  0.000024  ( 0.000001 -0.004863  0.000000)
 16:    451.73   0.000069    0.35  0.000048  (-0.000001 -0.006921  0.000003)
 17:    463.03   0.000793    4.01  0.000534  ( 0.004782 -0.000000 -0.022612)
 18:    581.23   0.001056    5.34  0.000567  (-0.000004  0.023809  0.000000)
 19:    600.99   0.002823   14.27  0.001466  (-0.035714 -0.000003  0.013796)
 20:    626.86   0.000299    1.51  0.000149  (-0.010679 -0.000000  0.005894)
 21:    631.11   0.000000    0.00  0.000000  ( 0.000004  0.000074 -0.000002)
 22:    659.81   0.001408    7.12  0.000666  ( 0.018680  0.000000 -0.017807)
 23:    711.60   0.000403    2.04  0.000177  ( 0.000002 -0.013289 -0.000005)
 24:    722.98   0.010554   53.33  0.004555  ( 0.029159 -0.000004 -0.060870)
 25:    726.98   0.003987   20.15  0.001712  ( 0.000004  0.041372 -0.000008)
 26:    743.80   0.000014    0.07  0.000006  ( 0.000002 -0.002431 -0.000002)
 27:    804.10   0.006054   30.59  0.002349  (-0.000699  0.000001 -0.048465)
 28:    810.62   0.002888   14.60  0.001112  (-0.000000 -0.033346 -0.000002)
 29:    855.76   0.000013    0.07  0.000005  ( 0.000308  0.000000 -0.002194)
 30:    867.62   0.000094    0.47  0.000034  (-0.005798  0.000006  0.000154)
 31:    869.02   0.000033    0.17  0.000012  (-0.000008 -0.003436  0.000001)
 32:    924.38   0.006677   33.74  0.002254  ( 0.011086 -0.000001  0.046164)
 33:    951.95   0.000240    1.21  0.000079  (-0.000024  0.008876  0.000020)
 34:    952.25   0.000145    0.73  0.000048  (-0.005404 -0.000039  0.004283)
 35:   1001.54   0.000140    0.71  0.000044  (-0.006564  0.000006 -0.000698)
 36:   1002.18   0.000024    0.12  0.000007  (-0.000015 -0.002716 -0.000001)
 37:   1018.15   0.000319    1.61  0.000098  ( 0.009660  0.000011  0.002088)
 38:   1018.50   0.000037    0.19  0.000011  (-0.000032  0.003382 -0.000007)
 39:   1023.90   0.000070    0.36  0.000021  (-0.004348  0.000105  0.001595)
 40:   1023.91   0.000004    0.02  0.000001  (-0.000449 -0.001037  0.000163)
 41:   1061.60   0.002633   13.31  0.000774  ( 0.027821  0.000007 -0.000387)
 42:   1064.48   0.000247    1.25  0.000073  (-0.000025  0.008517 -0.000001)
 43:   1092.10   0.000578    2.92  0.000165  (-0.009477  0.000000 -0.008685)
 44:   1111.78   0.000950    4.80  0.000267  ( 0.000003  0.016333  0.000007)
 45:   1116.14   0.000821    4.15  0.000230  (-0.001669  0.000007 -0.015063)
 46:   1172.63   0.000001    0.01  0.000000  ( 0.000507  0.000009 -0.000100)
 47:   1172.80   0.000003    0.01  0.000001  ( 0.000006 -0.000827 -0.000001)
 48:   1191.53   0.000042    0.21  0.000011  (-0.000001  0.003308  0.000000)
 49:   1196.64   0.000557    2.82  0.000145  ( 0.012032 -0.000001 -0.000750)
 50:   1200.98   0.000078    0.39  0.000020  (-0.000002 -0.004500  0.000000)
 51:   1327.56   0.000472    2.39  0.000111  ( 0.009322  0.000000 -0.004914)
 52:   1337.55   0.000120    0.60  0.000028  (-0.000000 -0.005282 -0.000000)
 53:   1374.14   0.003228   16.31  0.000733  (-0.027017  0.000000  0.001782)
 54:   1399.24   0.000000    0.00  0.000000  (-0.000016 -0.000239  0.000003)
 55:   1399.59   0.001760    8.89  0.000392  (-0.019473 -0.000000  0.003621)
 56:   1431.33   0.001463    7.40  0.000319  ( 0.000000 -0.017862 -0.000000)
 57:   1492.03   0.001983   10.02  0.000415  ( 0.015499  0.000005  0.013210)
 58:   1493.06   0.000771    3.90  0.000161  (-0.000006  0.012696 -0.000005)
 59:   1541.41   0.001486    7.51  0.000301  ( 0.000000 -0.017348 -0.000000)
 60:   1551.03   0.001941    9.81  0.000390  ( 0.019653  0.000001 -0.002055)
 61:   1662.02   0.000851    4.30  0.000160  (-0.000001 -0.012643  0.000002)
 62:   1664.12   0.000254    1.28  0.000048  ( 0.000439 -0.000005 -0.006888)
 63:   1693.09   0.000474    2.39  0.000087  ( 0.009345 -0.000002 -0.000033)
 64:   1694.57   0.000159    0.81  0.000029  (-0.000005 -0.005418 -0.000000)
 65:   1709.19   0.002108   10.65  0.000385  ( 0.000000 -0.019619 -0.000000)
 66:   3169.47   0.000221    1.12  0.000022  ( 0.000001  0.004663  0.000000)
 67:   3191.73   0.000488    2.47  0.000048  ( 0.006856  0.000057 -0.000841)
 68:   3191.87   0.000083    0.42  0.000008  ( 0.000130 -0.002840 -0.000015)
 69:   3199.31   0.000262    1.32  0.000026  ( 0.002330 -0.000042  0.004487)
 70:   3199.65   0.000267    1.35  0.000026  ( 0.000017  0.005102  0.000033)
 71:   3208.07   0.002824   14.27  0.000275  ( 0.016431 -0.000002 -0.002176)
 72:   3208.40   0.000891    4.50  0.000087  ( 0.000000 -0.009309 -0.000003)
 73:   3214.05   0.003666   18.53  0.000356  (-0.010763  0.000109 -0.015495)
 74:   3214.40   0.002311   11.68  0.000224  (-0.000082 -0.014979 -0.000111)
 75:   3221.22   0.002995   15.13  0.000290  (-0.017023 -0.000107  0.000560)
 76:   3221.41   0.000721    3.64  0.000070  (-0.000221  0.008353  0.000010)
 77:   3256.55   0.000948    4.79  0.000091  (-0.009483  0.000000  0.000950)

--------------------------
THERMOCHEMISTRY AT 298.15K
--------------------------

Temperature         ...   298.15 K
Pressure            ...     1.00 atm
Total Mass          ...   180.25 AMU
Quasi RRHO          ...     True
Cut-Off Frequency   ...     1.00 cm^-1

Throughout the following assumptions are being made:
  (1) The electronic state is orbitally nondegenerate
  (2) There are no thermally accessible electronically excited states
  (3) Hindered rotations indicated by low frequency modes are not
      treated as such but are treated as vibrations and this may
      cause some error
  (4) All equations used are the standard statistical mechanics
      equations for an ideal gas
  (5) All vibrations are strictly harmonic

freq.      42.66  E(vib)   ...       0.53
freq.      63.14  E(vib)   ...       0.51
freq.      79.60  E(vib)   ...       0.49
freq.     139.75  E(vib)   ...       0.41
freq.     221.46  E(vib)   ...       0.33
freq.     235.92  E(vib)   ...       0.32
freq.     299.04  E(vib)   ...       0.26
freq.     342.43  E(vib)   ...       0.23
freq.     419.16  E(vib)   ...       0.18
freq.     424.11  E(vib)   ...       0.18
freq.     451.73  E(vib)   ...       0.16
freq.     463.03  E(vib)   ...       0.16
freq.     581.23  E(vib)   ...       0.11
freq.     600.99  E(vib)   ...       0.10
freq.     626.86  E(vib)   ...       0.09
freq.     631.11  E(vib)   ...       0.09
freq.     659.81  E(vib)   ...       0.08
freq.     711.60  E(vib)   ...       0.07
freq.     722.98  E(vib)   ...       0.07
freq.     726.98  E(vib)   ...       0.06
freq.     743.80  E(vib)   ...       0.06
freq.     804.10  E(vib)   ...       0.05
freq.     810.62  E(vib)   ...       0.05
freq.     855.76  E(vib)   ...       0.04
freq.     867.62  E(vib)   ...       0.04
freq.     869.02  E(vib)   ...       0.04
freq.     924.38  E(vib)   ...       0.03
freq.     951.95  E(vib)   ...       0.03
freq.     952.25  E(vib)   ...       0.03
freq.    1001.54  E(vib)   ...       0.02
freq.    1002.18  E(vib)   ...       0.02
freq.    1018.15  E(vib)   ...       0.02
freq.    1018.50  E(vib)   ...       0.02
freq.    1023.90  E(vib)   ...       0.02
freq.    1023.91  E(vib)   ...       0.02
freq.    1061.60  E(vib)   ...       0.02
freq.    1064.48  E(vib)   ...       0.02
freq.    1092.10  E(vib)   ...       0.02
freq.    1111.78  E(vib)   ...       0.01
freq.    1116.14  E(vib)   ...       0.01
freq.    1172.63  E(vib)   ...       0.01
freq.    1172.80  E(vib)   ...       0.01
freq.    1191.53  E(vib)   ...       0.01
freq.    1196.64  E(vib)   ...       0.01
freq.    1200.98  E(vib)   ...       0.01
freq.    1327.56  E(vib)   ...       0.01
freq.    1337.55  E(vib)   ...       0.01
freq.    1374.14  E(vib)   ...       0.01
freq.    1399.24  E(vib)   ...       0.00
freq.    1399.59  E(vib)   ...       0.00
freq.    1431.33  E(vib)   ...       0.00
freq.    1492.03  E(vib)   ...       0.00
freq.    1493.06  E(vib)   ...       0.00
freq.    1541.41  E(vib)   ...       0.00
freq.    1551.03  E(vib)   ...       0.00
freq.    1662.02  E(vib)   ...       0.00
freq.    1664.12  E(vib)   ...       0.00
freq.    1693.09  E(vib)   ...       0.00
freq.    1694.57  E(vib)   ...       0.00
freq.    1709.19  E(vib)   ...       0.00
freq.    3169.47  E(vib)   ...       0.00
freq.    3191.73  E(vib)   ...       0.00
freq.    3191.87  E(vib)   ...       0.00
freq.    3199.31  E(vib)   ...       0.00
freq.    3199.65  E(vib)   ...       0.00
freq.    3208.07  E(vib)   ...       0.00
freq.    3208.40  E(vib)   ...       0.00
freq.    3214.05  E(vib)   ...       0.00
freq.    3214.40  E(vib)   ...       0.00
freq.    3221.22  E(vib)   ...       0.00
freq.    3221.41  E(vib)   ...       0.00
freq.    3256.55  E(vib)   ...       0.00

------------
INNER ENERGY
------------

The inner energy is: U= E(el) + E(ZPE) + E(vib) + E(rot) + E(trans)
    E(el)   - is the total energy from the electronic structure calculation
              = E(kin-el) + E(nuc-el) + E(el-el) + E(nuc-nuc)
    E(ZPE)  - the the zero temperature vibrational energy from the frequency calculation
    E(vib)  - the the finite temperature correction to E(ZPE) due to population
              of excited vibrational states
    E(rot)  - is the rotational thermal energy
    E(trans)- is the translational thermal energy

Summary of contributions to the inner energy U:
Electronic energy                ...   -539.67204749 Eh
Zero point energy                ...      0.21633029 Eh     135.75 kcal/mol
Thermal vibrational correction   ...      0.00815516 Eh       5.12 kcal/mol
Thermal rotational correction    ...      0.00141627 Eh       0.89 kcal/mol
Thermal translational correction ...      0.00141627 Eh       0.89 kcal/mol
-----------------------------------------------------------------------
Total thermal energy                   -539.44472950 Eh

Summary of corrections to the electronic energy:
(perhaps to be used in another calculation)
Total thermal correction                  0.01098770 Eh       6.89 kcal/mol
Non-thermal (ZPE) correction              0.21633029 Eh     135.75 kcal/mol
-----------------------------------------------------------------------
Total correction                          0.22731799 Eh     142.64 kcal/mol

--------
ENTHALPY
--------

The enthalpy is H = U + kB*T
                kB is Boltzmann's constant
Total thermal energy              ...   -539.44472950 Eh
Thermal Enthalpy correction       ...      0.00094421 Eh       0.59 kcal/mol
-----------------------------------------------------------------------
Total Enthalpy                    ...   -539.44378529 Eh

Note: Rotational entropy computed according to Herzberg
Infrared and Raman Spectra, Chapter V,1, Van Nostrand Reinhold, 1945
Point Group:  C2, Symmetry Number:   2
Rotational constants in cm-1:     0.053104     0.013986     0.012201

Vibrational entropy computed according to the QRRHO of S. Grimme
Chem.Eur.J. 2012 18 9955 using a reference frequency of 100.0 cm-1

-------
ENTROPY
-------

The entropy contributions are T*S = T*(S(el)+S(vib)+S(rot)+S(trans))
     S(el)   - electronic entropy
     S(vib)  - vibrational entropy
     S(rot)  - rotational entropy
     S(trans)- translational entropy
The entropies will be listed as multiplied by the temperature to get
units of energy

Electronic entropy                ...      0.00000000 Eh      0.00 kcal/mol
Vibrational entropy               ...      0.01364758 Eh      8.56 kcal/mol
Rotational entropy                ...      0.01433801 Eh      9.00 kcal/mol
Translational entropy             ...      0.01970567 Eh     12.37 kcal/mol
-----------------------------------------------------------------------

                             ****ORCA TERMINATED NORMALLY****
TOTAL RUN TIME: 0 days 0 hours 12 minutes 16 seconds 544 msec
