                         Program Version 6.0.0  -   RELEASE  -
|  1> !r2SCAN freq aug-cc-pVTZ d3 TightSCF SlowConv RIJCOSX defgrid2
|  2>
|  3> %pal
|  4> nprocs 12
|  5> end
|  6>
|  7> %scf
|  8> MaxIter 1500
|  9> end
| 10>
| 11> %maxcore 5000
| 12>
| 13> !CPCM
| 14> %cpcm smd true
| 15> SMDsolvent "MeCN"
| 16> surfacetype gepol_ses
| 17> rsolv 2.19
| 18> end
| 19>
| 20> * xyz 0 1
| 21> C           1.35417777117907     -0.65406995240560      0.79948726944426
| 22> C           2.60438513280883     -1.25994276894922      0.84954003747904
| 23> C           3.68344790380097     -0.71999641049965      0.15497211057626
| 24> C           3.50660738351577      0.43947194664888     -0.59401215387855
| 25> C           2.26060390365759      1.05304135560245     -0.65888291426072
| 26> C           1.19171004686849      0.49898658044043      0.03645013929688
| 27> O          -0.00001641304932      1.19288277645614      0.00010190817305
| 28> C          -1.19171118388442      0.49900233774687     -0.03638058606476
| 29> C          -2.26073143386919      1.05309671680890      0.65874573635241
| 30> C          -3.50672129933369      0.43951119140539      0.59370893351233
| 31> C          -3.68343750339537     -0.72003192620985     -0.15518626198969
| 32> C          -2.60425130219278     -1.26007972735717     -0.84947443996517
| 33> C          -1.35407111022235     -0.65417339438681     -0.79927336088568
| 34> H          -0.51726340198580     -1.06965515696509     -1.34679672259882
| 35> H          -2.73380230233493     -2.15751438471684     -1.44311666275030
| 36> H          -4.65433657701428     -1.19810235944476     -0.20028196634197
| 37> H          -4.34007086552899      0.87022201246994      1.13631011439279
| 38> H          -2.10719151371809      1.95492125572489      1.23885613902283
| 39> H           2.10696960257248      1.95483629764118     -1.23902045617933
| 40> H           4.33987477531195      0.87015227662086     -1.13676761059202
| 41> H           4.65436181626334     -1.19805192085525      0.19996962143919
| 42> H           2.73406310958975     -2.15728853568205      1.44329395480944
| 43> H           0.51745176096101     -1.06946241009361      1.34721687100852
| 44> *
| 45>
| 46>                          ****END OF INPUT****

CARTESIAN COORDINATES (ANGSTROEM)
---------------------------------
  C      1.354178   -0.654070    0.799487
  C      2.604385   -1.259943    0.849540
  C      3.683448   -0.719996    0.154972
  C      3.506607    0.439472   -0.594012
  C      2.260604    1.053041   -0.658883
  C      1.191710    0.498987    0.036450
  O     -0.000016    1.192883    0.000102
  C     -1.191711    0.499002   -0.036381
  C     -2.260731    1.053097    0.658746
  C     -3.506721    0.439511    0.593709
  C     -3.683438   -0.720032   -0.155186
  C     -2.604251   -1.260080   -0.849474
  C     -1.354071   -0.654173   -0.799273
  H     -0.517263   -1.069655   -1.346797
  H     -2.733802   -2.157514   -1.443117
  H     -4.654337   -1.198102   -0.200282
  H     -4.340071    0.870222    1.136310
  H     -2.107192    1.954921    1.238856
  H      2.106970    1.954836   -1.239020
  H      4.339875    0.870152   -1.136768
  H      4.654362   -1.198052    0.199970
  H      2.734063   -2.157289    1.443294
  H      0.517452   -1.069462    1.347217

 Total Charge           Charge          ....    0
 Multiplicity           Mult            ....    1
 Number of Electrons    NEL             ....   90
 Basis Dimension        Dim             ....  828

ORBITAL ENERGIES
----------------

  NO   OCC          E(Eh)            E(eV)
   0   2.0000     -19.003759      -517.1186
   1   2.0000     -10.104519      -274.9579
   2   2.0000     -10.104487      -274.9571
   3   2.0000     -10.042983      -273.2835
   4   2.0000     -10.042955      -273.2827
   5   2.0000     -10.042630      -273.2739
   6   2.0000     -10.042607      -273.2732
   7   2.0000     -10.041091      -273.2320
   8   2.0000     -10.041041      -273.2306
   9   2.0000     -10.039489      -273.1884
  10   2.0000     -10.039467      -273.1878
  11   2.0000     -10.036076      -273.0955
  12   2.0000     -10.036058      -273.0950
  13   2.0000      -1.050474       -28.5848
  14   2.0000      -0.833473       -22.6799
  15   2.0000      -0.819405       -22.2971
  16   2.0000      -0.735730       -20.0202
  17   2.0000      -0.722479       -19.6597
  18   2.0000      -0.718541       -19.5525
  19   2.0000      -0.695403       -18.9229
  20   2.0000      -0.606577       -16.5058
  21   2.0000      -0.588185       -16.0053
  22   2.0000      -0.576664       -15.6918
  23   2.0000      -0.550696       -14.9852
  24   2.0000      -0.516949       -14.0669
  25   2.0000      -0.478920       -13.0321
  26   2.0000      -0.455745       -12.4015
  27   2.0000      -0.447354       -12.1731
  28   2.0000      -0.439031       -11.9466
  29   2.0000      -0.413514       -11.2523
  30   2.0000      -0.409371       -11.1396
  31   2.0000      -0.393850       -10.7172
  32   2.0000      -0.393073       -10.6961
  33   2.0000      -0.377614       -10.2754
  34   2.0000      -0.371188       -10.1005
  35   2.0000      -0.345090        -9.3904
  36   2.0000      -0.334022        -9.0892
  37   2.0000      -0.328469        -8.9381
  38   2.0000      -0.327533        -8.9126
  39   2.0000      -0.308149        -8.3852
  40   2.0000      -0.302584        -8.2337
  41   2.0000      -0.247716        -6.7407
  42   2.0000      -0.241664        -6.5760
  43   2.0000      -0.238739        -6.4964
  44   2.0000      -0.206655        -5.6234
  45   0.0000      -0.047994        -1.3060
  46   0.0000      -0.040019        -1.0890
  47   0.0000      -0.033386        -0.9085
  48   0.0000      -0.022367        -0.6086
  49   0.0000       0.006184         0.1683

MULLIKEN ATOMIC CHARGES
-----------------------
   0 C :   -0.440610
   1 C :   -0.617203
   2 C :   -0.514532
   3 C :   -0.380929
   4 C :   -1.299055
   5 C :    1.475350
   6 O :   -0.811331
   7 C :    1.474119
   8 C :   -1.299059
   9 C :   -0.381562
  10 C :   -0.514142
  11 C :   -0.617532
  12 C :   -0.438637
  13 H :    0.521862
  14 H :    0.340777
  15 H :    0.468908
  16 H :    0.362807
  17 H :    0.487554
  18 H :    0.487661
  19 H :    0.362424
  20 H :    0.469019
  21 H :    0.340558
  22 H :    0.523552
Sum of atomic charges:    0.0000000

LOEWDIN ATOMIC CHARGES
----------------------
   0 C :    0.200547
   1 C :    0.192014
   2 C :    0.187408
   3 C :    0.185292
   4 C :    0.205471
   5 C :   -0.398037
   6 O :    0.622404
   7 C :   -0.398091
   8 C :    0.205449
   9 C :    0.185292
  10 C :    0.187422
  11 C :    0.192026
  12 C :    0.200473
  13 H :   -0.172624
  14 H :   -0.175867
  15 H :   -0.182999
  16 H :   -0.177248
  17 H :   -0.175109
  18 H :   -0.175113
  19 H :   -0.177265
  20 H :   -0.183012
  21 H :   -0.175889
  22 H :   -0.172540

  Mayer bond orders larger than 0.100000
B(  0-C ,  1-C ) :   1.0381 B(  0-C ,  2-C ) :   0.1187 B(  0-C ,  3-C ) :  -0.1272
B(  0-C ,  4-C ) :   0.4266 B(  0-C ,  5-C ) :   0.7900 B(  0-C ,  7-C ) :  -0.1223
B(  0-C , 12-C ) :   0.3170 B(  0-C , 22-H ) :   0.3602 B(  1-C ,  2-C ) :   1.1667
B(  1-C ,  4-C ) :  -0.2169 B(  1-C ,  5-C ) :  -0.3263 B(  1-C , 21-H ) :   0.8530
B(  2-C ,  3-C ) :   1.1664 B(  2-C ,  4-C ) :   0.4925 B(  2-C ,  5-C ) :  -0.1593
B(  2-C , 20-H ) :   0.5951 B(  3-C ,  4-C ) :   1.1884 B(  3-C ,  5-C ) :  -0.3491
B(  3-C , 19-H ) :   0.8004 B(  4-C ,  6-O ) :   0.1733 B(  4-C , 18-H ) :   0.2764
B(  5-C ,  6-O ) :   0.5083 B(  5-C , 12-C ) :  -0.1231 B(  5-C , 18-H ) :   0.1001
B(  6-O ,  7-C ) :   0.5085 B(  6-O ,  8-C ) :   0.1731 B(  7-C ,  9-C ) :  -0.3484
B(  7-C , 10-C ) :  -0.1594 B(  7-C , 11-C ) :  -0.3257 B(  7-C , 12-C ) :   0.7901
B(  8-C ,  9-C ) :   1.1885 B(  8-C , 10-C ) :   0.4919 B(  8-C , 11-C ) :  -0.2168
B(  8-C , 12-C ) :   0.4248 B(  8-C , 17-H ) :   0.2768 B(  9-C , 10-C ) :   1.1665
B(  9-C , 12-C ) :  -0.1271 B(  9-C , 16-H ) :   0.7996 B( 10-C , 11-C ) :   1.1667
B( 10-C , 12-C ) :   0.1178 B( 10-C , 15-H ) :   0.5954 B( 11-C , 12-C ) :   1.0380
B( 11-C , 14-H ) :   0.8523 B( 12-C , 13-H ) :   0.3621

Dispersion correction           -0.008290217
FINAL SINGLE POINT ENERGY      -538.422037453967

DIPOLE MOMENT
-------------

Method             : SCF
Type of density    : Electron Density
Multiplicity       :   1
Irrep              :   0
Energy             :  -538.4137472371180593 Eh
Relativity type    :
Basis              : AO
                                X                 Y                 Z
Electronic contribution:     -0.000587453       2.491668307       0.000302125
Nuclear contribution   :      0.000058523      -3.007823337      -0.000183103
                        -----------------------------------------
Total Dipole Moment    :     -0.000528930      -0.516155031       0.000119022
                        -----------------------------------------
Magnitude (a.u.)       :      0.516155316
Magnitude (Debye)      :      1.311962549

VIBRATIONAL FREQUENCIES
-----------------------

Scaling factor for frequencies =  1.000000000  (already applied!)

     0:       0.00 cm**-1
     1:       0.00 cm**-1
     2:       0.00 cm**-1
     3:       0.00 cm**-1
     4:       0.00 cm**-1
     5:       0.00 cm**-1
     6:       1.03 cm**-1
     7:      39.58 cm**-1
     8:      87.45 cm**-1
     9:     213.20 cm**-1
    10:     237.38 cm**-1
    11:     316.44 cm**-1
    12:     383.08 cm**-1
    13:     416.77 cm**-1
    14:     421.28 cm**-1
    15:     484.26 cm**-1
    16:     506.01 cm**-1
    17:     576.02 cm**-1
    18:     612.12 cm**-1
    19:     625.54 cm**-1
    20:     635.39 cm**-1
    21:     707.66 cm**-1
    22:     709.82 cm**-1
    23:     760.27 cm**-1
    24:     763.89 cm**-1
    25:     807.68 cm**-1
    26:     836.77 cm**-1
    27:     837.05 cm**-1
    28:     881.85 cm**-1
    29:     910.37 cm**-1
    30:     915.68 cm**-1
    31:     981.98 cm**-1
    32:     982.36 cm**-1
    33:    1001.41 cm**-1
    34:    1002.09 cm**-1
    35:    1016.93 cm**-1
    36:    1016.95 cm**-1
    37:    1040.24 cm**-1
    38:    1040.79 cm**-1
    39:    1090.75 cm**-1
    40:    1093.47 cm**-1
    41:    1158.78 cm**-1
    42:    1159.09 cm**-1
    43:    1169.70 cm**-1
    44:    1170.44 cm**-1
    45:    1211.49 cm**-1
    46:    1230.73 cm**-1
    47:    1318.81 cm**-1
    48:    1333.27 cm**-1
    49:    1365.90 cm**-1
    50:    1373.72 cm**-1
    51:    1472.07 cm**-1
    52:    1481.40 cm**-1
    53:    1501.99 cm**-1
    54:    1512.97 cm**-1
    55:    1615.63 cm**-1
    56:    1621.00 cm**-1
    57:    1627.32 cm**-1
    58:    1636.59 cm**-1
    59:    3163.33 cm**-1
    60:    3163.48 cm**-1
    61:    3170.67 cm**-1
    62:    3170.84 cm**-1
    63:    3181.06 cm**-1
    64:    3181.24 cm**-1
    65:    3186.88 cm**-1
    66:    3187.33 cm**-1
    67:    3191.91 cm**-1
    68:    3192.08 cm**-1

IR SPECTRUM
-----------

 Mode   freq       eps      Int      T**2         TX        TY        TZ
       cm**-1   L/(mol*cm) km/mol    a.u.
----------------------------------------------------------------------------
  6:      1.03   0.000000    0.00  0.000000  ( 0.000000  0.000000  0.000000)
  7:     39.58   0.000024    0.12  0.000190  (-0.000223 -0.013771  0.000143)
  8:     87.45   0.000083    0.42  0.000296  ( 0.000021 -0.017191  0.000079)
  9:    213.20   0.000610    3.08  0.000892  ( 0.029255 -0.000020  0.006050)
 10:    237.38   0.000024    0.12  0.000031  (-0.000007 -0.005576  0.000094)
 11:    316.44   0.000177    0.89  0.000174  ( 0.000022  0.013197  0.000095)
 12:    383.08   0.001639    8.29  0.001336  (-0.035171 -0.000010  0.009926)
 13:    416.77   0.000202    1.02  0.000152  (-0.011937  0.000010 -0.003012)
 14:    421.28   0.000011    0.05  0.000008  ( 0.000082  0.002837  0.000009)
 15:    484.26   0.004162   21.03  0.002682  ( 0.000055  0.051788  0.000115)
 16:    506.01   0.009689   48.96  0.005975  ( 0.051024  0.000035  0.058066)
 17:    576.02   0.000138    0.70  0.000075  ( 0.000949 -0.000006 -0.008581)
 18:    612.12   0.000168    0.85  0.000085  (-0.000001 -0.009244 -0.000087)
 19:    625.54   0.000316    1.60  0.000158  ( 0.007664  0.000005 -0.009953)
 20:    635.39   0.000519    2.62  0.000255  ( 0.000006 -0.015964  0.000032)
 21:    707.66   0.017960   90.76  0.007920  ( 0.036557  0.000169  0.081139)
 22:    709.82   0.009214   46.56  0.004051  (-0.000055  0.063647 -0.000065)
 23:    760.27   0.002782   14.06  0.001142  (-0.000004 -0.033790  0.000073)
 24:    763.89   0.030021  151.71  0.012264  (-0.006487 -0.000023 -0.110554)
 25:    807.68   0.007665   38.74  0.002962  ( 0.000018  0.054420  0.000044)
 26:    836.77   0.000148    0.75  0.000055  ( 0.000035  0.007422 -0.000035)
 27:    837.05   0.000155    0.79  0.000058  ( 0.007172 -0.000094  0.002544)
 28:    881.85   0.016285   82.30  0.005763  (-0.075912  0.000024  0.000419)
 29:    910.37   0.003083   15.58  0.001057  ( 0.013209 -0.000033  0.029704)
 30:    915.68   0.001783    9.01  0.000608  ( 0.000015  0.024653  0.000059)
 31:    981.98   0.000043    0.22  0.000014  (-0.003348 -0.000007  0.001540)
 32:    982.36   0.000011    0.06  0.000004  ( 0.000035  0.001875 -0.000058)
 33:   1001.41   0.000124    0.63  0.000039  ( 0.004988  0.000029  0.003703)
 34:   1002.09   0.000019    0.10  0.000006  (-0.000019  0.002453 -0.000008)
 35:   1016.93   0.000004    0.02  0.000001  ( 0.000539  0.000995 -0.000078)
 36:   1016.95   0.000112    0.57  0.000034  (-0.000087  0.005858 -0.000022)
 37:   1040.24   0.000597    3.02  0.000179  ( 0.000284 -0.013380 -0.000059)
 38:   1040.79   0.006050   30.58  0.001814  ( 0.042521  0.000091  0.002458)
 39:   1090.75   0.004576   23.12  0.001309  ( 0.012544  0.000150 -0.033937)
 40:   1093.47   0.005170   26.13  0.001475  (-0.000034  0.038411  0.000274)
 41:   1158.78   0.000107    0.54  0.000029  ( 0.001481  0.000127 -0.005152)
 42:   1159.09   0.000208    1.05  0.000056  (-0.000047  0.007478  0.000104)
 43:   1169.70   0.001213    6.13  0.000324  (-0.000346  0.017982 -0.000128)
 44:   1170.44   0.014791   74.75  0.003944  (-0.062785 -0.000101  0.001267)
 45:   1211.49   0.002403   12.15  0.000619  (-0.000047  0.024881 -0.000017)
 46:   1230.73   0.186783  943.92  0.047360  (-0.217571 -0.000063 -0.004798)
 47:   1318.81   0.000437    2.21  0.000104  (-0.009755 -0.000019  0.002887)
 48:   1333.27   0.000331    1.67  0.000078  (-0.000015  0.008806 -0.000123)
 49:   1365.90   0.002408   12.17  0.000550  ( 0.022743 -0.000014 -0.005730)
 50:   1373.72   0.000011    0.05  0.000002  (-0.000027 -0.001565  0.000005)
 51:   1472.07   0.000539    2.73  0.000114  (-0.008212  0.000009 -0.006850)
 52:   1481.40   0.000327    1.65  0.000069  ( 0.000073 -0.008296 -0.000031)
 53:   1501.99   0.070995  358.78  0.014751  (-0.121337 -0.000085 -0.005268)
 54:   1512.97   0.005364   27.11  0.001106  ( 0.000058 -0.033263  0.000031)
 55:   1615.63   0.030114  152.18  0.005817  ( 0.075672 -0.000018  0.009498)
 56:   1621.00   0.010558   53.35  0.002033  (-0.040021  0.000033  0.020757)
 57:   1627.32   0.006125   30.96  0.001175  (-0.000131 -0.034273 -0.000078)
 58:   1636.59   0.000000    0.00  0.000000  (-0.000000 -0.000269  0.000024)
 59:   3163.33   0.000693    3.50  0.000068  ( 0.007935 -0.000529  0.002269)
 60:   3163.48   0.000192    0.97  0.000019  ( 0.000972  0.004237  0.000264)
 61:   3170.67   0.002299   11.62  0.000226  (-0.007681 -0.001479  0.012850)
 62:   3170.84   0.002452   12.39  0.000241  (-0.000723  0.015469  0.001224)
 63:   3181.06   0.008398   42.44  0.000824  ( 0.028286 -0.002373  0.004261)
 64:   3181.24   0.003794   19.17  0.000372  ( 0.003571  0.018952  0.000503)
 65:   3186.88   0.004397   22.22  0.000431  ( 0.013140  0.000974 -0.016029)
 66:   3187.33   0.002616   13.22  0.000256  ( 0.000864 -0.015951 -0.000965)
 67:   3191.91   0.002732   13.81  0.000267  (-0.016340  0.000283  0.000258)
 68:   3192.08   0.000173    0.87  0.000017  (-0.001150 -0.003945 -0.000112)

--------------------------
THERMOCHEMISTRY AT 298.15K
--------------------------

Temperature         ...   298.15 K
Pressure            ...     1.00 atm
Total Mass          ...   170.21 AMU
Quasi RRHO          ...     True
Cut-Off Frequency   ...     1.00 cm^-1

Throughout the following assumptions are being made:
  (1) The electronic state is orbitally nondegenerate
  (2) There are no thermally accessible electronically excited states
  (3) Hindered rotations indicated by low frequency modes are not
      treated as such but are treated as vibrations and this may
      cause some error
  (4) All equations used are the standard statistical mechanics
      equations for an ideal gas
  (5) All vibrations are strictly harmonic

freq.       1.03  E(vib)   ...       0.59
freq.      39.58  E(vib)   ...       0.54
freq.      87.45  E(vib)   ...       0.48
freq.     213.20  E(vib)   ...       0.34
freq.     237.38  E(vib)   ...       0.32
freq.     316.44  E(vib)   ...       0.25
freq.     383.08  E(vib)   ...       0.20
freq.     416.77  E(vib)   ...       0.18
freq.     421.28  E(vib)   ...       0.18
freq.     484.26  E(vib)   ...       0.15
freq.     506.01  E(vib)   ...       0.14
freq.     576.02  E(vib)   ...       0.11
freq.     612.12  E(vib)   ...       0.10
freq.     625.54  E(vib)   ...       0.09
freq.     635.39  E(vib)   ...       0.09
freq.     707.66  E(vib)   ...       0.07
freq.     709.82  E(vib)   ...       0.07
freq.     760.27  E(vib)   ...       0.06
freq.     763.89  E(vib)   ...       0.06
freq.     807.68  E(vib)   ...       0.05
freq.     836.77  E(vib)   ...       0.04
freq.     837.05  E(vib)   ...       0.04
freq.     881.85  E(vib)   ...       0.04
freq.     910.37  E(vib)   ...       0.03
freq.     915.68  E(vib)   ...       0.03
freq.     981.98  E(vib)   ...       0.02
freq.     982.36  E(vib)   ...       0.02
freq.    1001.41  E(vib)   ...       0.02
freq.    1002.09  E(vib)   ...       0.02
freq.    1016.93  E(vib)   ...       0.02
freq.    1016.95  E(vib)   ...       0.02
freq.    1040.24  E(vib)   ...       0.02
freq.    1040.79  E(vib)   ...       0.02
freq.    1090.75  E(vib)   ...       0.02
freq.    1093.47  E(vib)   ...       0.02
freq.    1158.78  E(vib)   ...       0.01
freq.    1159.09  E(vib)   ...       0.01
freq.    1169.70  E(vib)   ...       0.01
freq.    1170.44  E(vib)   ...       0.01
freq.    1211.49  E(vib)   ...       0.01
freq.    1230.73  E(vib)   ...       0.01
freq.    1318.81  E(vib)   ...       0.01
freq.    1333.27  E(vib)   ...       0.01
freq.    1365.90  E(vib)   ...       0.01
freq.    1373.72  E(vib)   ...       0.01
freq.    1472.07  E(vib)   ...       0.00
freq.    1481.40  E(vib)   ...       0.00
freq.    1501.99  E(vib)   ...       0.00
freq.    1512.97  E(vib)   ...       0.00
freq.    1615.63  E(vib)   ...       0.00
freq.    1621.00  E(vib)   ...       0.00
freq.    1627.32  E(vib)   ...       0.00
freq.    1636.59  E(vib)   ...       0.00
freq.    3163.33  E(vib)   ...       0.00
freq.    3163.48  E(vib)   ...       0.00
freq.    3170.67  E(vib)   ...       0.00
freq.    3170.84  E(vib)   ...       0.00
freq.    3181.06  E(vib)   ...       0.00
freq.    3181.24  E(vib)   ...       0.00
freq.    3186.88  E(vib)   ...       0.00
freq.    3187.33  E(vib)   ...       0.00
freq.    3191.91  E(vib)   ...       0.00
freq.    3192.08  E(vib)   ...       0.00

------------
INNER ENERGY
------------

The inner energy is: U= E(el) + E(ZPE) + E(vib) + E(rot) + E(trans)
    E(el)   - is the total energy from the electronic structure calculation
              = E(kin-el) + E(nuc-el) + E(el-el) + E(nuc-nuc)
    E(ZPE)  - the the zero temperature vibrational energy from the frequency calculation
    E(vib)  - the the finite temperature correction to E(ZPE) due to population
              of excited vibrational states
    E(rot)  - is the rotational thermal energy
    E(trans)- is the translational thermal energy

Summary of contributions to the inner energy U:
Electronic energy                ...   -538.42203745 Eh
Zero point energy                ...      0.18385558 Eh     115.37 kcal/mol
Thermal vibrational correction   ...      0.00726714 Eh       4.56 kcal/mol
Thermal rotational correction    ...      0.00141627 Eh       0.89 kcal/mol
Thermal translational correction ...      0.00141627 Eh       0.89 kcal/mol
-----------------------------------------------------------------------
Total thermal energy                   -538.22808219 Eh

Summary of corrections to the electronic energy:
(perhaps to be used in another calculation)
Total thermal correction                  0.01009969 Eh       6.34 kcal/mol
Non-thermal (ZPE) correction              0.18385558 Eh     115.37 kcal/mol
-----------------------------------------------------------------------
Total correction                          0.19395526 Eh     121.71 kcal/mol

--------
ENTHALPY
--------

The enthalpy is H = U + kB*T
                kB is Boltzmann's constant
Total thermal energy              ...   -538.22808219 Eh
Thermal Enthalpy correction       ...      0.00094421 Eh       0.59 kcal/mol
-----------------------------------------------------------------------
Total Enthalpy                    ...   -538.22713798 Eh

Note: Only C1 symmetry has been detected, increase convergence thresholds
      if your molecule has a higher symmetry. Symmetry factor of 1.0 is
      used for the rotational entropy correction.

Note: Rotational entropy computed according to Herzberg
Infrared and Raman Spectra, Chapter V,1, Van Nostrand Reinhold, 1945
Point Group:  C1, Symmetry Number:   1
Rotational constants in cm-1:     0.080075     0.014568     0.013638

Vibrational entropy computed according to the QRRHO of S. Grimme
Chem.Eur.J. 2012 18 9955 using a reference frequency of 100.0 cm-1

-------
ENTROPY
-------

The entropy contributions are T*S = T*(S(el)+S(vib)+S(rot)+S(trans))
     S(el)   - electronic entropy
     S(vib)  - vibrational entropy
     S(rot)  - rotational entropy
     S(trans)- translational entropy
The entropies will be listed as multiplied by the temperature to get
units of energy

Electronic entropy                ...      0.00000000 Eh      0.00 kcal/mol
Vibrational entropy               ...      0.01370845 Eh      8.60 kcal/mol
Rotational entropy                ...      0.01472678 Eh      9.24 kcal/mol
Translational entropy             ...      0.01962451 Eh     12.31 kcal/mol
-----------------------------------------------------------------------
Final entropy term                ...      0.04805974 Eh     30.16 kcal/mol

In case the symmetry of your molecule has not been determined correctly
or in case you have a reason to use a different symmetry number we print

                             ****ORCA TERMINATED NORMALLY****
TOTAL RUN TIME: 0 days 0 hours 41 minutes 27 seconds 127 msec
