                         Program Version 6.0.0  -   RELEASE  -
|  1> !B3LYP aug-cc-pVTZ d3 TightSCF SlowConv RIJCOSX defgrid2
|  2>
|  3> %pal
|  4> nprocs 4
|  5> end
|  6>
|  7> %scf
|  8> MaxIter 1500
|  9> end
| 10>
| 11> %maxcore 3000
| 12>
| 13> !CPCM
| 14> %cpcm smd true
| 15> SMDsolvent "MeCN"
| 16> surfacetype gepol_ses
| 17> rsolv 2.19
| 18> end
| 19>
| 20> * xyz 1 2
| 21> C           0.87744843065952     -1.21883020305656     -0.00000377931808
| 22> C           1.23614385256415      0.16954678831828     -0.00005753568123
| 23> C           0.19424149048169      1.13860709962105     -0.00010423188513
| 24> C          -1.13871229830849      0.78765011017298     -0.00010761886515
| 25> C          -1.47639805753200     -0.61212175919558     -0.00004559988331
| 26> C          -0.44313247207265     -1.58385318757954     -0.00000224391858
| 27> H          -0.71685810144297     -2.64212602539406      0.00003056402544
| 28> C          -2.89571606376255     -1.03893857261662      0.00008867922043
| 29> H          -3.00213765434000     -2.13324643661373     -0.00058232712929
| 30> H          -3.42610981706820     -0.62983884560970     -0.88112182092760
| 31> H          -3.42539618531857     -0.63109402296886      0.88234176195400
| 32> C          -2.21290888782919      1.82515453001126     -0.00014347524999
| 33> H          -2.86411247883622      1.72648441322314      0.88680265880356
| 34> H          -2.86402349010390      1.72654581117049     -0.88716064088710
| 35> H          -1.78890328618740      2.84026297434392     -0.00008728403417
| 36> H           0.46977060139751      2.19725330423840     -0.00014030748002
| 37> C           2.58814654556121      0.62001515372005     -0.00006319236512
| 38> C           3.70337676945614     -0.17841322402212     -0.00002927580579
| 39> H           3.65253331490638     -1.27227115038024      0.00001025225905
| 40> H           4.70281234102144      0.26973736826902     -0.00003315173613
| 41> H           2.73668489690756      1.70605493317894     -0.00009332036310
| 42> H           1.65048734984656     -1.99000785883051      0.00003538926729
| 43> *
| 44>
| 45>                          ****END OF INPUT****

CARTESIAN COORDINATES (ANGSTROEM)
---------------------------------
  C      0.877448   -1.218830   -0.000004
  C      1.236144    0.169547   -0.000058
  C      0.194241    1.138607   -0.000104
  C     -1.138712    0.787650   -0.000108
  C     -1.476398   -0.612122   -0.000046
  C     -0.443132   -1.583853   -0.000002
  H     -0.716858   -2.642126    0.000031
  C     -2.895716   -1.038939    0.000089
  H     -3.002138   -2.133246   -0.000582
  H     -3.426110   -0.629839   -0.881122
  H     -3.425396   -0.631094    0.882342
  C     -2.212909    1.825155   -0.000143
  H     -2.864112    1.726484    0.886803
  H     -2.864023    1.726546   -0.887161
  H     -1.788903    2.840263   -0.000087
  H      0.469771    2.197253   -0.000140
  C      2.588147    0.620015   -0.000063
  C      3.703377   -0.178413   -0.000029
  H      3.652533   -1.272271    0.000010
  H      4.702812    0.269737   -0.000033
  H      2.736685    1.706055   -0.000093
  H      1.650487   -1.990008    0.000035

 Total Charge           Charge          ....    1
 Multiplicity           Mult            ....    2
 Number of Electrons    NEL             ....   71
 Basis Dimension        Dim             ....  736

ORBITAL ENERGIES
----------------
                 SPIN UP ORBITALS
  NO   OCC          E(Eh)            E(eV)
   0   1.0000     -10.246424      -278.8194
   1   1.0000     -10.242805      -278.7209
   2   1.0000     -10.230425      -278.3840
   3   1.0000     -10.225382      -278.2468
   4   1.0000     -10.223406      -278.1930
   5   1.0000     -10.221150      -278.1316
   6   1.0000     -10.210170      -277.8328
   7   1.0000     -10.206853      -277.7426
   8   1.0000     -10.183777      -277.1147
   9   1.0000     -10.178224      -276.9636
  10   1.0000      -0.905631       -24.6435
  11   1.0000      -0.845616       -23.0104
  12   1.0000      -0.799692       -21.7607
  13   1.0000      -0.784454       -21.3461
  14   1.0000      -0.726306       -19.7638
  15   1.0000      -0.696640       -18.9565
  16   1.0000      -0.639476       -17.4010
  17   1.0000      -0.628182       -17.0937
  18   1.0000      -0.573856       -15.6154
  19   1.0000      -0.531286       -14.4570
  20   1.0000      -0.514574       -14.0023
  21   1.0000      -0.481034       -13.0896
  22   1.0000      -0.457861       -12.4590
  23   1.0000      -0.456997       -12.4355
  24   1.0000      -0.447327       -12.1724
  25   1.0000      -0.439211       -11.9515
  26   1.0000      -0.410355       -11.1663
  27   1.0000      -0.405514       -11.0346
  28   1.0000      -0.402845       -10.9620
  29   1.0000      -0.400311       -10.8930
  30   1.0000      -0.390588       -10.6284
  31   1.0000      -0.370314       -10.0768
  32   1.0000      -0.360974        -9.8226
  33   1.0000      -0.335766        -9.1367
  34   1.0000      -0.285497        -7.7688
  35   1.0000      -0.266276        -7.2457
  36   0.0000      -0.095218        -2.5910
  37   0.0000      -0.039288        -1.0691
  38   0.0000      -0.007103        -0.1933
  39   0.0000       0.000981         0.0267
  40   0.0000       0.002356         0.0641

                 SPIN DOWN ORBITALS
  NO   OCC          E(Eh)            E(eV)
   0   1.0000     -10.241972      -278.6982
   1   1.0000     -10.239668      -278.6355
   2   1.0000     -10.226156      -278.2679
   3   1.0000     -10.224285      -278.2169
   4   1.0000     -10.222970      -278.1812
   5   1.0000     -10.219346      -278.0825
   6   1.0000     -10.210120      -277.8315
   7   1.0000     -10.207464      -277.7592
   8   1.0000     -10.183885      -277.1176
   9   1.0000     -10.178237      -276.9639
  10   1.0000      -0.899279       -24.4706
  11   1.0000      -0.837918       -22.8009
  12   1.0000      -0.798180       -21.7196
  13   1.0000      -0.775062       -21.0905
  14   1.0000      -0.722309       -19.6550
  15   1.0000      -0.691602       -18.8194
  16   1.0000      -0.635007       -17.2794
  17   1.0000      -0.624377       -16.9902
  18   1.0000      -0.569703       -15.5024
  19   1.0000      -0.529460       -14.4073
  20   1.0000      -0.511868       -13.9286
  21   1.0000      -0.478217       -13.0129
  22   1.0000      -0.455335       -12.3903
  23   1.0000      -0.447561       -12.1787
  24   1.0000      -0.444851       -12.1050
  25   1.0000      -0.438237       -11.9250
  26   1.0000      -0.406422       -11.0593
  27   1.0000      -0.403456       -10.9786
  28   1.0000      -0.399870       -10.8810
  29   1.0000      -0.388944       -10.5837
  30   1.0000      -0.387701       -10.5499
  31   1.0000      -0.369315       -10.0496
  32   1.0000      -0.358812        -9.7638
  33   1.0000      -0.312106        -8.4928
  34   1.0000      -0.280796        -7.6409
  35   0.0000      -0.192891        -5.2488
  36   0.0000      -0.069156        -1.8818
  37   0.0000      -0.030386        -0.8268
  38   0.0000      -0.006840        -0.1861
  39   0.0000       0.002761         0.0751

MULLIKEN ATOMIC CHARGES AND SPIN POPULATIONS
--------------------------------------------
   0 C :   -0.237558    0.114565
   1 C :    2.031794    0.211776
   2 C :   -1.003089    0.000086
   3 C :    0.679331    0.014316
   4 C :    0.881663    0.338703
   5 C :   -1.140267   -0.062379
   6 H :    0.105649    0.005012
   7 C :   -0.748239   -0.023352
   8 H :    0.112866   -0.006084
   9 H :    0.245705    0.023650
  10 H :    0.248036    0.023675
  11 C :   -0.748379   -0.003965
  12 H :    0.241671    0.003012
  13 H :    0.241984    0.003012
  14 H :    0.108410   -0.000483
  15 H :   -0.257355    0.001977
  16 C :    0.028758    0.000944
  17 C :   -0.847213    0.376946
  18 H :    0.326653   -0.001879
  19 H :    0.279848   -0.013954
  20 H :    0.197157    0.011381
  21 H :    0.252577   -0.016959
Sum of atomic charges         :    1.0000000

LOEWDIN ATOMIC CHARGES AND SPIN POPULATIONS
-------------------------------------------
   0 C :    0.276849    0.084883
   1 C :   -0.078578    0.124077
   2 C :    0.279406    0.038026
   3 C :   -0.048854    0.057294
   4 C :   -0.031952    0.156236
   5 C :    0.283229    0.043406
   6 H :   -0.144062   -0.002374
   7 C :    0.611759    0.051324
   8 H :   -0.146838    0.001351
   9 H :   -0.131953    0.012321
  10 H :   -0.131850    0.012343
  11 C :    0.595840    0.006299
  12 H :   -0.140742    0.001917
  13 H :   -0.140746    0.001916
  14 H :   -0.151486    0.000036
  15 H :   -0.142039    0.001542
  16 C :    0.252199    0.084290
  17 C :    0.639568    0.221104
  18 H :   -0.178940    0.043523
  19 H :   -0.161282    0.048698
  20 H :   -0.153752    0.000171
  21 H :   -0.155775    0.011618

  Mayer bond orders larger than 0.100000
B(  0-C ,  1-C ) :   0.2076 B(  0-C ,  2-C ) :  -0.8059 B(  0-C ,  3-C ) :  -0.1676
B(  0-C ,  5-C ) :   0.9582 B(  0-C , 16-C ) :   0.3371 B(  0-C , 21-H ) :   1.3576
B(  1-C ,  2-C ) :  -0.3894 B(  1-C ,  3-C ) :   0.4388 B(  1-C ,  4-C ) :  -0.4666
B(  1-C ,  7-C ) :   0.1039 B(  1-C , 15-H ) :  -0.3831 B(  1-C , 16-C ) :   0.1079
B(  1-C , 17-C ) :  -0.1168 B(  2-C ,  3-C ) :   0.8093 B(  2-C ,  4-C ) :  -0.2692
B(  2-C ,  5-C ) :   0.2272 B(  2-C , 11-C ) :  -0.2527 B(  2-C , 15-H ) :   2.2387
B(  2-C , 20-H ) :  -0.1390 B(  3-C ,  4-C ) :   1.1801 B(  3-C ,  5-C ) :   0.2467
B(  3-C ,  7-C ) :   0.1309 B(  3-C , 12-H ) :  -0.1055 B(  3-C , 13-H ) :  -0.1033
B(  3-C , 15-H ) :  -0.1662 B(  3-C , 20-H ) :   0.1537 B(  3-C , 21-H ) :  -0.2274
B(  4-C ,  5-C ) :   0.5453 B(  4-C ,  7-C ) :   0.3611 B(  4-C , 11-C ) :   0.3923
B(  4-C , 16-C ) :   0.2088 B(  4-C , 21-H ) :  -0.1097 B(  5-C ,  6-H ) :   1.1076
B(  5-C ,  7-C ) :  -0.2041 B(  5-C , 17-C ) :  -0.1095 B(  5-C , 21-H ) :  -0.1561
B(  7-C ,  8-H ) :   1.0583 B(  7-C ,  9-H ) :   0.9799 B(  7-C , 10-H ) :   0.9750
B( 11-C , 12-H ) :   0.9935 B( 11-C , 13-H ) :   0.9921 B( 11-C , 14-H ) :   1.0472
B( 15-H , 16-C ) :  -0.1669 B( 15-H , 20-H ) :  -0.1099 B( 16-C , 17-C ) :   0.8354
B( 16-C , 20-H ) :   1.0014 B( 17-C , 18-H ) :   1.0041 B( 17-C , 19-H ) :   0.8857
B( 17-C , 20-H ) :  -0.2092

Dispersion correction           -0.039357411
FINAL SINGLE POINT ENERGY      -388.002412069342

DIPOLE MOMENT
-------------

Method             : SCF
Type of density    : Electron Density
Multiplicity       :   2
Irrep              :   0
Energy             :  -387.9630546580271471 Eh
Relativity type    :
Basis              : AO
                                X                 Y                 Z
Electronic contribution:      5.466067901      -1.257697652      -0.000604940
Nuclear contribution   :     -4.597722468       1.088585918       0.000480466
                        -----------------------------------------
Total Dipole Moment    :      0.868345433      -0.169111734      -0.000124474
                        -----------------------------------------
Magnitude (a.u.)       :      0.884659587
Magnitude (Debye)      :      2.248625969

Rotational constants in cm-1:             0.095239             0.029097             0.022475
Rotational constants in MHz :          2855.203991           872.315502           673.794268

                             ****ORCA TERMINATED NORMALLY****
TOTAL RUN TIME: 0 days 0 hours 9 minutes 28 seconds 847 msec
