                         Program Version 6.0.0  -   RELEASE  -
|  1> !PBE0 def2-SV(p) Opt Freq d3 TightSCF SlowConv RIJCOSX defgrid2
|  2>
|  3> %pal
|  4> nprocs 4
|  5> end
|  6>
|  7> %scf
|  8> MaxIter 1500
|  9> end
| 10>
| 11> %maxcore 3000
| 12>
| 13>
| 14>
| 15> * xyz 1 2
| 16> C     1.7147273    1.0599142   -0.0355873
| 17> C     0.5699729    1.8177932    0.0014404
| 18> C    -0.6845057    1.2132328    0.0155998
| 19> C    -0.7996957   -0.2046253   -0.0073131
| 20> C     0.3551128   -0.9763087   -0.0398411
| 21> C     1.6203803   -0.3736738   -0.0574068
| 22> N     2.7350288   -1.1041732   -0.0972124
| 23> H     2.6869770   -2.1151929   -0.1132655
| 24> H     3.6469114   -0.6642079   -0.1143493
| 25> H     0.2542556   -2.0497770   -0.0539478
| 26> O    -1.9548355   -0.8614354    0.0014357
| 27> C    -3.1924881   -0.1723372    0.0129398
| 28> H    -3.9529550   -0.9506151    0.0119418
| 29> H    -3.3081108    0.4488280   -0.8783833
| 30> H    -3.3000148    0.4378848    0.9127355
| 31> H    -1.5682047    1.8308233    0.0458602
| 32> H     0.6350090    2.8942980    0.0191262
| 33> H     2.6870875    1.5274598   -0.0486195
| 34> *
| 35>
| 36>                          ****END OF INPUT****
 Total Charge           Charge          ....    1
 Multiplicity           Mult            ....    2
 Number of Electrons    NEL             ....   65
Dispersion correction           -0.015073098
FINAL SINGLE POINT ENERGY      -401.096769566433
Dispersion correction             ... done (  0.1 sec)
Dispersion correction           -0.015053496
FINAL SINGLE POINT ENERGY      -401.098285348777
Dispersion correction             ... done (  0.1 sec)
Dispersion correction           -0.015048331
FINAL SINGLE POINT ENERGY      -401.098400512220
Dispersion correction             ... done (  0.1 sec)
Dispersion correction           -0.015046508
FINAL SINGLE POINT ENERGY      -401.098433033588
Dispersion correction             ... done (  0.1 sec)
Dispersion correction           -0.015046478
FINAL SINGLE POINT ENERGY      -401.098436151309
Dispersion correction             ... done (  0.1 sec)
                    ***********************HURRAY********************

CARTESIAN COORDINATES (ANGSTROEM)
---------------------------------
  C      1.714971    1.061719   -0.035145
  C      0.567195    1.823928   -0.002948
  C     -0.688931    1.207606    0.006742
  C     -0.800340   -0.228008   -0.016737
  C      0.348440   -1.003309   -0.049173
  C      1.610616   -0.381384   -0.059046
  N      2.736284   -1.095802   -0.090736
  H      2.715451   -2.113438   -0.108818
  H      3.649633   -0.648059   -0.098117
  H      0.251233   -2.090970   -0.066960
  O     -1.953749   -0.855876   -0.008510
  C     -3.192669   -0.161726    0.019679
  H     -3.966583   -0.940296    0.016141
  H     -3.308960    0.472126   -0.875742
  H     -3.285348    0.440309    0.939509
  H     -1.588383    1.825819    0.032688
  H      0.633032    2.914581    0.015315
  H      2.702760    1.530668   -0.042988

 Multiplicity           Mult            ....    2
 Number of Electrons    NEL             ....   65
 Basis Dimension        Dim             ....  144

ORBITAL ENERGIES
----------------
                 SPIN UP ORBITALS
  NO   OCC          E(Eh)            E(eV)
   0   1.0000     -19.419632      -528.4351
   1   1.0000     -14.628568      -398.0636
   2   1.0000     -10.495496      -285.5970
   3   1.0000     -10.492638      -285.5192
   4   1.0000     -10.443784      -284.1898
   5   1.0000     -10.442595      -284.1575
   6   1.0000     -10.424932      -283.6768
   7   1.0000     -10.422998      -283.6242
   8   1.0000     -10.408737      -283.2361
   9   1.0000      -1.274089       -34.6697
  10   1.0000      -1.168792       -31.8045
  11   1.0000      -1.055016       -28.7085
  12   1.0000      -0.964506       -26.2455
  13   1.0000      -0.944169       -25.6921
  14   1.0000      -0.889577       -24.2066
  15   1.0000      -0.828476       -22.5440
  16   1.0000      -0.806521       -21.9466
  17   1.0000      -0.746195       -20.3050
  18   1.0000      -0.738439       -20.0939
  19   1.0000      -0.694587       -18.9007
  20   1.0000      -0.682236       -18.5646
  21   1.0000      -0.667604       -18.1664
  22   1.0000      -0.654220       -17.8022
  23   1.0000      -0.625542       -17.0219
  24   1.0000      -0.615137       -16.7387
  25   1.0000      -0.594308       -16.1719
  26   1.0000      -0.580278       -15.7902
  27   1.0000      -0.560931       -15.2637
  28   1.0000      -0.552242       -15.0273
  29   1.0000      -0.510980       -13.9045
  30   1.0000      -0.504745       -13.7348
  31   1.0000      -0.430022       -11.7015
  32   1.0000      -0.425233       -11.5712
  33   0.0000      -0.183352        -4.9893
  34   0.0000      -0.179328        -4.8798
  35   0.0000      -0.099117        -2.6971
  36   0.0000      -0.072858        -1.9826
  37   0.0000      -0.065274        -1.7762

                 SPIN DOWN ORBITALS
  NO   OCC          E(Eh)            E(eV)
   0   1.0000     -19.418739      -528.4107
   1   1.0000     -14.621980      -397.8843
   2   1.0000     -10.495029      -285.5842
   3   1.0000     -10.493326      -285.5379
   4   1.0000     -10.436195      -283.9833
   5   1.0000     -10.435958      -283.9768
   6   1.0000     -10.426054      -283.7074
   7   1.0000     -10.424982      -283.6782
   8   1.0000     -10.408208      -283.2217
   9   1.0000      -1.272482       -34.6260
  10   1.0000      -1.157654       -31.5014
  11   1.0000      -1.045955       -28.4619
  12   1.0000      -0.962228       -26.1835
  13   1.0000      -0.929233       -25.2857
  14   1.0000      -0.884891       -24.0791
  15   1.0000      -0.824290       -22.4301
  16   1.0000      -0.803121       -21.8540
  17   1.0000      -0.742249       -20.1976
  18   1.0000      -0.736311       -20.0360
  19   1.0000      -0.689876       -18.7725
  20   1.0000      -0.679013       -18.4769
  21   1.0000      -0.664398       -18.0792
  22   1.0000      -0.648618       -17.6498
  23   1.0000      -0.625194       -17.0124
  24   1.0000      -0.592574       -16.1248
  25   1.0000      -0.591073       -16.0839
  26   1.0000      -0.577393       -15.7117
  27   1.0000      -0.559241       -15.2177
  28   1.0000      -0.534994       -14.5579
  29   1.0000      -0.503331       -13.6963
  30   1.0000      -0.489859       -13.3297
  31   1.0000      -0.413663       -11.2563
  32   0.0000      -0.324491        -8.8298
  33   0.0000      -0.168519        -4.5856
  34   0.0000      -0.152196        -4.1415
  35   0.0000      -0.096094        -2.6148
  36   0.0000      -0.071163        -1.9364

MULLIKEN ATOMIC CHARGES AND SPIN POPULATIONS
--------------------------------------------
   0 C :   -0.052151    0.441233
   1 C :   -0.085017   -0.249650
   2 C :   -0.118599    0.551391
   3 C :    0.265955   -0.061880
   4 C :   -0.168480    0.034910
   5 C :    0.153610    0.031210
   6 N :   -0.309464    0.289067
   7 H :    0.314609   -0.012785
   8 H :    0.312462   -0.012361
   9 H :    0.135289   -0.002697
  10 O :   -0.272896    0.030660
  11 C :   -0.192603   -0.003943
  12 H :    0.198402   -0.000067
  13 H :    0.169953    0.002099
  14 H :    0.170077    0.002111
  15 H :    0.161424   -0.026465
  16 H :    0.167347    0.008492
  17 H :    0.150081   -0.021323
Sum of atomic charges         :    1.0000000

LOEWDIN ATOMIC CHARGES AND SPIN POPULATIONS
-------------------------------------------
   0 C :   -0.062652    0.353149
   1 C :   -0.092741   -0.134573
   2 C :   -0.051510    0.434676
   3 C :    0.081458   -0.010768
   4 C :   -0.168152    0.032783
   5 C :    0.060008    0.057539
   6 N :   -0.164324    0.273955
   7 H :    0.278483   -0.008012
   8 H :    0.276555   -0.007756
   9 H :    0.165927   -0.001712
  10 O :   -0.045053    0.029689
  11 C :   -0.194668   -0.001588
  12 H :    0.153716   -0.000044
  13 H :    0.133516    0.001271
  14 H :    0.133570    0.001281
  15 H :    0.165800   -0.012985
  16 H :    0.167741    0.004134
  17 H :    0.162324   -0.011040

  Mayer bond orders larger than 0.100000
B(  0-C ,  1-C ) :   1.4653 B(  0-C ,  5-C ) :   1.1082 B(  0-C , 17-H ) :   0.9507
B(  1-C ,  2-C ) :   1.3258 B(  1-C , 16-H ) :   0.9470 B(  2-C ,  3-C ) :   1.1292
B(  2-C , 15-H ) :   0.9438 B(  3-C ,  4-C ) :   1.4358 B(  3-C , 10-O ) :   1.2366
B(  4-C ,  5-C ) :   1.2435 B(  4-C ,  9-H ) :   0.9565 B(  5-C ,  6-N ) :   1.4399
B(  6-N ,  7-H ) :   0.8464 B(  6-N ,  8-H ) :   0.8468 B( 10-O , 11-C ) :   0.8871
B( 11-C , 12-H ) :   0.9454 B( 11-C , 13-H ) :   0.9382 B( 11-C , 14-H ) :   0.9382

Dispersion correction           -0.015046535
FINAL SINGLE POINT ENERGY      -401.098436731652

DIPOLE MOMENT
-------------

Method             : SCF
Type of density    : Electron Density
Multiplicity       :   2
Irrep              :   0
Energy             :  -401.0833901970597708 Eh
Relativity type    :
Basis              : AO
                                X                 Y                 Z
Electronic contribution:      3.371033793      -1.140653758      -0.066468176
Nuclear contribution   :     -2.044978462       1.271551477       0.044658972
                        -----------------------------------------
Total Dipole Moment    :      1.326055331       0.130897719      -0.021809204
                        -----------------------------------------
Magnitude (a.u.)       :      1.332678730
Magnitude (Debye)      :      3.387400129

VIBRATIONAL FREQUENCIES
-----------------------

Scaling factor for frequencies =  1.000000000  (already applied!)

     0:       0.00 cm**-1
     1:       0.00 cm**-1
     2:       0.00 cm**-1
     3:       0.00 cm**-1
     4:       0.00 cm**-1
     5:       0.00 cm**-1
     6:      97.90 cm**-1
     7:     175.90 cm**-1
     8:     206.95 cm**-1
     9:     234.59 cm**-1
    10:     236.18 cm**-1
    11:     363.27 cm**-1
    12:     414.47 cm**-1
    13:     445.17 cm**-1
    14:     514.73 cm**-1
    15:     544.97 cm**-1
    16:     566.48 cm**-1
    17:     587.39 cm**-1
    18:     610.39 cm**-1
    19:     662.18 cm**-1
    20:     746.31 cm**-1
    21:     784.44 cm**-1
    22:     873.43 cm**-1
    23:     890.84 cm**-1
    24:     937.23 cm**-1
    25:     988.22 cm**-1
    26:     999.16 cm**-1
    27:    1050.51 cm**-1
    28:    1088.25 cm**-1
    29:    1134.46 cm**-1
    30:    1170.06 cm**-1
    31:    1170.72 cm**-1
    32:    1206.49 cm**-1
    33:    1301.60 cm**-1
    34:    1344.32 cm**-1
    35:    1406.05 cm**-1
    36:    1450.92 cm**-1
    37:    1477.57 cm**-1
    38:    1484.47 cm**-1
    39:    1489.20 cm**-1
    40:    1504.05 cm**-1
    41:    1556.03 cm**-1
    42:    1598.63 cm**-1
    43:    1661.02 cm**-1
    44:    1688.59 cm**-1
    45:    3052.96 cm**-1
    46:    3153.44 cm**-1
    47:    3209.01 cm**-1
    48:    3221.23 cm**-1
    49:    3231.34 cm**-1
    50:    3237.02 cm**-1
    51:    3249.88 cm**-1
    52:    3524.91 cm**-1
    53:    3630.22 cm**-1

IR SPECTRUM
-----------

 Mode   freq       eps      Int      T**2         TX        TY        TZ
       cm**-1   L/(mol*cm) km/mol    a.u.
----------------------------------------------------------------------------
  6:     97.90   0.001912    9.66  0.006095  (-0.000933  0.001392 -0.078054)
  7:    175.90   0.000579    2.93  0.001027  ( 0.000564 -0.000609  0.032035)
  8:    206.95   0.000441    2.23  0.000665  (-0.000977  0.000582 -0.025761)
  9:    234.59   0.000926    4.68  0.001232  (-0.025627 -0.023922 -0.001718)
 10:    236.18   0.000142    0.72  0.000187  ( 0.002977  0.003315 -0.012948)
 11:    363.27   0.001028    5.19  0.000883  (-0.027633  0.010911  0.000625)
 12:    414.47   0.000235    1.19  0.000177  ( 0.000484 -0.000377  0.013299)
 13:    445.17   0.003577   18.07  0.002507  ( 0.047320 -0.016326 -0.001211)
 14:    514.73   0.001622    8.20  0.000983  ( 0.031307 -0.001749 -0.000502)
 15:    544.97   0.003261   16.48  0.001867  (-0.000671  0.000809 -0.043197)
 16:    566.48   0.004219   21.32  0.002324  (-0.047899 -0.005468  0.000171)
 17:    587.39   0.016398   82.87  0.008712  (-0.001054  0.001669 -0.093316)
 18:    610.39   0.022828  115.36  0.011671  ( 0.002018 -0.001968  0.107995)
 19:    662.18   0.000089    0.45  0.000042  ( 0.000256 -0.000182  0.006475)
 20:    746.31   0.001369    6.92  0.000572  ( 0.010654 -0.021411 -0.000566)
 21:    784.44   0.004168   21.06  0.001658  ( 0.000564 -0.000694  0.040711)
 22:    873.43   0.009992   50.49  0.003570  (-0.000872  0.001065 -0.059733)
 23:    890.84   0.000258    1.30  0.000090  (-0.000432  0.000269 -0.009486)
 24:    937.23   0.006755   34.14  0.002249  (-0.041682  0.022604  0.000997)
 25:    988.22   0.000560    2.83  0.000177  (-0.012453  0.004669  0.000284)
 26:    999.16   0.000093    0.47  0.000029  (-0.000082  0.000075 -0.005398)
 27:   1050.51   0.011275   56.98  0.003349  (-0.052536  0.024247  0.001192)
 28:   1088.25   0.001710    8.64  0.000490  ( 0.017873 -0.013070 -0.000399)
 29:   1134.46   0.002208   11.16  0.000607  ( 0.011172 -0.021958 -0.000581)
 30:   1170.06   0.007035   35.55  0.001876  ( 0.042599 -0.007824 -0.000645)
 31:   1170.72   0.000102    0.52  0.000027  (-0.001434  0.000238  0.005010)
 32:   1206.49   0.000727    3.68  0.000188  ( 0.008626 -0.010661 -0.000323)
 33:   1301.60   0.008310   41.99  0.001992  (-0.044612 -0.001267  0.000667)
 34:   1344.32   0.031144  157.39  0.007230  (-0.084902 -0.004431  0.001285)
 35:   1406.05   0.047864  241.89  0.010623  (-0.102638  0.009229  0.001825)
 36:   1450.92   0.000492    2.49  0.000106  ( 0.004221 -0.009379 -0.000203)
 37:   1477.57   0.006061   30.63  0.001280  (-0.030086 -0.019361 -0.000033)
 38:   1484.47   0.005944   30.04  0.001250  ( 0.035293  0.002005 -0.000087)
 39:   1489.20   0.003900   19.71  0.000817  ( 0.000348  0.000670 -0.028579)
 40:   1504.05   0.016473   83.25  0.003418  (-0.058449  0.000777  0.000992)
 41:   1556.03   0.011428   57.75  0.002292  ( 0.047662 -0.004413 -0.000851)
 42:   1598.63   0.050275  254.07  0.009814  (-0.098385 -0.011518  0.001379)
 43:   1661.02   0.034198  172.82  0.006425  (-0.079605 -0.009309  0.001101)
 44:   1688.59   0.053679  271.27  0.009920  ( 0.091577 -0.039101 -0.002223)
 45:   3052.96   0.005534   27.96  0.000566  ( 0.021214 -0.010740 -0.000513)
 46:   3153.44   0.001179    5.96  0.000117  ( 0.000234 -0.000218  0.010797)
 47:   3209.01   0.000054    0.27  0.000005  ( 0.002232 -0.000474 -0.000056)
 48:   3221.23   0.000145    0.73  0.000014  (-0.001434 -0.003469 -0.000035)
 49:   3231.34   0.001050    5.30  0.000101  (-0.001825 -0.009900 -0.000157)
 50:   3237.02   0.000254    1.28  0.000024  ( 0.001685  0.004654  0.000055)
 51:   3249.88   0.000888    4.49  0.000085  (-0.000263 -0.009227 -0.000172)
 52:   3524.91   0.086407  436.66  0.007650  (-0.076234  0.042824  0.002034)
 53:   3630.22   0.020979  106.02  0.001803  ( 0.026575  0.033123  0.000154)

--------------------------
THERMOCHEMISTRY AT 298.15K
--------------------------

Temperature         ...   298.15 K
Pressure            ...     1.00 atm
Total Mass          ...   123.15 AMU
Quasi RRHO          ...     True
Cut-Off Frequency   ...     1.00 cm^-1

Throughout the following assumptions are being made:
  (1) The electronic state is orbitally nondegenerate
      but the spin degeneracy is treated
  (2) There are no thermally accessible electronically excited states
  (3) Hindered rotations indicated by low frequency modes are not
      treated as such but are treated as vibrations and this may
      cause some error
  (4) All equations used are the standard statistical mechanics
      equations for an ideal gas
  (5) All vibrations are strictly harmonic

freq.      97.90  E(vib)   ...       0.46
freq.     175.90  E(vib)   ...       0.38
freq.     206.95  E(vib)   ...       0.35
freq.     234.59  E(vib)   ...       0.32
freq.     236.18  E(vib)   ...       0.32
freq.     363.27  E(vib)   ...       0.22
freq.     414.47  E(vib)   ...       0.19
freq.     445.17  E(vib)   ...       0.17
freq.     514.73  E(vib)   ...       0.13
freq.     544.97  E(vib)   ...       0.12
freq.     566.48  E(vib)   ...       0.11
freq.     587.39  E(vib)   ...       0.10
freq.     610.39  E(vib)   ...       0.10
freq.     662.18  E(vib)   ...       0.08
freq.     746.31  E(vib)   ...       0.06
freq.     784.44  E(vib)   ...       0.05
freq.     873.43  E(vib)   ...       0.04
freq.     890.84  E(vib)   ...       0.04
freq.     937.23  E(vib)   ...       0.03
freq.     988.22  E(vib)   ...       0.02
freq.     999.16  E(vib)   ...       0.02
freq.    1050.51  E(vib)   ...       0.02
freq.    1088.25  E(vib)   ...       0.02
freq.    1134.46  E(vib)   ...       0.01
freq.    1170.06  E(vib)   ...       0.01
freq.    1170.72  E(vib)   ...       0.01
freq.    1206.49  E(vib)   ...       0.01
freq.    1301.60  E(vib)   ...       0.01
freq.    1344.32  E(vib)   ...       0.01
freq.    1406.05  E(vib)   ...       0.00
freq.    1450.92  E(vib)   ...       0.00
freq.    1477.57  E(vib)   ...       0.00
freq.    1484.47  E(vib)   ...       0.00
freq.    1489.20  E(vib)   ...       0.00
freq.    1504.05  E(vib)   ...       0.00
freq.    1556.03  E(vib)   ...       0.00
freq.    1598.63  E(vib)   ...       0.00
freq.    1661.02  E(vib)   ...       0.00
freq.    1688.59  E(vib)   ...       0.00
freq.    3052.96  E(vib)   ...       0.00
freq.    3153.44  E(vib)   ...       0.00
freq.    3209.01  E(vib)   ...       0.00
freq.    3221.23  E(vib)   ...       0.00
freq.    3231.34  E(vib)   ...       0.00
freq.    3237.02  E(vib)   ...       0.00
freq.    3249.88  E(vib)   ...       0.00
freq.    3524.91  E(vib)   ...       0.00
freq.    3630.22  E(vib)   ...       0.00

------------
INNER ENERGY
------------

The inner energy is: U= E(el) + E(ZPE) + E(vib) + E(rot) + E(trans)
    E(el)   - is the total energy from the electronic structure calculation
              = E(kin-el) + E(nuc-el) + E(el-el) + E(nuc-nuc)
    E(ZPE)  - the the zero temperature vibrational energy from the frequency calculation
    E(vib)  - the the finite temperature correction to E(ZPE) due to population
              of excited vibrational states
    E(rot)  - is the rotational thermal energy
    E(trans)- is the translational thermal energy

Summary of contributions to the inner energy U:
Electronic energy                ...   -401.09843673 Eh
Zero point energy                ...      0.15075354 Eh      94.60 kcal/mol
Thermal vibrational correction   ...      0.00546409 Eh       3.43 kcal/mol
Thermal rotational correction    ...      0.00141627 Eh       0.89 kcal/mol
Thermal translational correction ...      0.00141627 Eh       0.89 kcal/mol
-----------------------------------------------------------------------
Total thermal energy                   -400.93938656 Eh

Summary of corrections to the electronic energy:
(perhaps to be used in another calculation)
Total thermal correction                  0.00829663 Eh       5.21 kcal/mol
Non-thermal (ZPE) correction              0.15075354 Eh      94.60 kcal/mol
-----------------------------------------------------------------------
Total correction                          0.15905017 Eh      99.81 kcal/mol

--------
ENTHALPY
--------

The enthalpy is H = U + kB*T
                kB is Boltzmann's constant
Total thermal energy              ...   -400.93938656 Eh
Thermal Enthalpy correction       ...      0.00094421 Eh       0.59 kcal/mol
-----------------------------------------------------------------------
Total Enthalpy                    ...   -400.93844235 Eh

Note: Only C1 symmetry has been detected, increase convergence thresholds
      if your molecule has a higher symmetry. Symmetry factor of 1.0 is
      used for the rotational entropy correction.

Note: Rotational entropy computed according to Herzberg
Infrared and Raman Spectra, Chapter V,1, Van Nostrand Reinhold, 1945
Point Group:  C1, Symmetry Number:   1
Rotational constants in cm-1:     0.119593     0.037937     0.028965

Vibrational entropy computed according to the QRRHO of S. Grimme
Chem.Eur.J. 2012 18 9955 using a reference frequency of 100.0 cm-1

-------
ENTROPY
-------

The entropy contributions are T*S = T*(S(el)+S(vib)+S(rot)+S(trans))
     S(el)   - electronic entropy
     S(vib)  - vibrational entropy
     S(rot)  - rotational entropy
     S(trans)- translational entropy
The entropies will be listed as multiplied by the temperature to get
units of energy

Electronic entropy                ...      0.00065446 Eh      0.41 kcal/mol
Vibrational entropy               ...      0.00886587 Eh      5.56 kcal/mol
Rotational entropy                ...      0.01372995 Eh      8.62 kcal/mol
Translational entropy             ...      0.01916621 Eh     12.03 kcal/mol
-----------------------------------------------------------------------
Final entropy term                ...      0.04241650 Eh     26.62 kcal/mol

In case the symmetry of your molecule has not been determined correctly
or in case you have a reason to use a different symmetry number we print
out the resulting rotational entropy values for sn=1,12:

 non-linear molecules -----------------------------------
|  sn= 1 | S(rot)=       0.01372995 Eh      8.62 kcal/mol|
|  sn= 2 | S(rot)=       0.01307550 Eh      8.20 kcal/mol|
|  sn= 3 | S(rot)=       0.01269266 Eh      7.96 kcal/mol|
|  sn= 4 | S(rot)=       0.01242104 Eh      7.79 kcal/mol|
|  sn= 5 | S(rot)=       0.01221035 Eh      7.66 kcal/mol|
|  sn= 6 | S(rot)=       0.01203821 Eh      7.55 kcal/mol|
|  sn= 7 | S(rot)=       0.01189266 Eh      7.46 kcal/mol|
|  sn= 8 | S(rot)=       0.01176658 Eh      7.38 kcal/mol|
|  sn= 9 | S(rot)=       0.01165537 Eh      7.31 kcal/mol|
|  sn=10 | S(rot)=       0.01155589 Eh      7.25 kcal/mol|
|  sn=11 | S(rot)=       0.01146590 Eh      7.19 kcal/mol|

                             ****ORCA TERMINATED NORMALLY****
TOTAL RUN TIME: 0 days 0 hours 9 minutes 48 seconds 618 msec
