                         Program Version 6.0.0  -   RELEASE  -
|  1> !r2SCAN opt aug-cc-pVTZ d3 TightSCF SlowConv RIJCOSX defgrid2
|  2>
|  3> %pal
|  4> nprocs 8
|  5> end
|  6>
|  7> %scf
|  8> MaxIter 1500
|  9> end
| 10>
| 11> %maxcore 3500
| 12>
| 13> !CPCM
| 14> %cpcm smd true
| 15> SMDsolvent "MeCN"
| 16> surfacetype gepol_ses
| 17> rsolv 2.19
| 18> end
| 19>
| 20> * xyz 1 2
| 21> C           2.42348472290459     -0.91745853608407      0.59245240880380
| 22> C           1.25995896348321     -0.39202749196625     -0.02333100512405
| 23> C           1.34845533499414      0.85031226217091     -0.70354304574749
| 24> C           2.54901795106357      1.53889253592779     -0.75588972072195
| 25> C           3.68078809059867      1.01347219167219     -0.12249703890860
| 26> C           3.61293527426724     -0.21317645517309      0.55511971135216
| 27> H           4.49963825852970     -0.61051765955941      1.05572901180402
| 28> H           4.62917087127076      1.55697433746367     -0.16496199627931
| 29> H           2.61592640542583      2.48137948500377     -1.30532606762871
| 30> H           0.47393529747941      1.23580556067586     -1.23411925330570
| 31> C          -0.00001731418985     -1.11439032518152     -0.00002747562644
| 32> C          -0.00002568960524     -2.50679262514812     -0.00005487800504
| 33> H          -0.93480054732863     -3.07584961343870     -0.00342574946663
| 34> H           0.93474533226452     -3.07585703929259      0.00329162420143
| 35> C          -1.25998231282226     -0.39200541574857      0.02329276572865
| 36> C          -2.42352655120021     -0.91741544935804     -0.59247757528391
| 37> C          -3.61296415978219     -0.21311035984979     -0.55512705740855
| 38> C          -3.68079177573927      1.01353038434026      0.12250956134291
| 39> C          -2.54900448879428      1.53892565378929      0.75589582496725
| 40> C          -1.34845157706727      0.85032505299238      0.70352498564033
| 41> H          -0.47391984231340      1.23578710201298      1.23410367351677
| 42> H          -2.61589448475022      2.48140107327864      1.30534730547376
| 43> H          -4.62916722704471      1.55704319189423      0.16499523284128
| 44> H          -4.49967994828211     -0.61043350047146     -1.05572841225155
| 45> H          -2.37320187697182     -1.85878167189054     -1.14547741375033
| 46> H           2.37313869360983     -1.85882668805983      1.14544868383589
| 47> *
| 48>
| 49>                          ****END OF INPUT****
 Total Charge           Charge          ....    1
 Multiplicity           Mult            ....    2
 Number of Electrons    NEL             ....   95
Dispersion correction           -0.010389633
FINAL SINGLE POINT ENERGY      -540.383082695594
Dispersion correction             ... done (  0.0 sec)
Dispersion correction           -0.010429047
FINAL SINGLE POINT ENERGY      -540.384256551388
Dispersion correction             ... done (  0.0 sec)
Dispersion correction           -0.010407846
FINAL SINGLE POINT ENERGY      -540.384262504237
Dispersion correction             ... done (  0.1 sec)
Dispersion correction           -0.010418536
FINAL SINGLE POINT ENERGY      -540.384336965945
Dispersion correction             ... done (  0.1 sec)
                    ***********************HURRAY********************

CARTESIAN COORDINATES (ANGSTROEM)
---------------------------------
  C      2.418652   -0.931584    0.564354
  C      1.258736   -0.383601   -0.027335
  C      1.349347    0.868260   -0.678540
  C      2.550491    1.546661   -0.723787
  C      3.680121    1.002411   -0.111695
  C      3.608255   -0.234989    0.534694
  H      4.486975   -0.645810    1.014909
  H      4.621933    1.535866   -0.147783
  H      2.618079    2.492114   -1.246248
  H      0.482789    1.267331   -1.189393
  C     -0.000007   -1.099734    0.000069
  C     -0.000023   -2.486961    0.000088
  H     -0.924872   -3.046575   -0.023172
  H      0.924804   -3.046608    0.023395
  C     -1.258749   -0.383591    0.027443
  C     -2.418584   -0.931482   -0.564470
  C     -3.608166   -0.234834   -0.534990
  C     -3.680104    1.002525    0.111459
  C     -2.550575    1.546663    0.723843
  C     -1.349472    0.868190    0.678768
  H     -0.483075    1.267246    1.189923
  H     -2.618214    2.492069    1.246379
  H     -4.621890    1.536034    0.147381
  H     -4.486811   -0.645585   -1.015401
  H     -2.362616   -1.878339   -1.085091
  H      2.362744   -1.878471    1.084925

 Multiplicity           Mult            ....    2
 Number of Electrons    NEL             ....   95
 Basis Dimension        Dim             ....  920

ORBITAL ENERGIES
----------------
                 SPIN UP ORBITALS
  NO   OCC          E(Eh)            E(eV)
   0   1.0000     -10.114228      -275.2221
   1   1.0000     -10.100425      -274.8465
   2   1.0000     -10.091296      -274.5981
   3   1.0000     -10.091290      -274.5979
   4   1.0000     -10.072237      -274.0795
   5   1.0000     -10.072237      -274.0795
   6   1.0000     -10.071581      -274.0616
   7   1.0000     -10.071544      -274.0607
   8   1.0000     -10.070264      -274.0258
   9   1.0000     -10.070263      -274.0258
  10   1.0000     -10.060966      -273.7728
  11   1.0000     -10.060962      -273.7727
  12   1.0000     -10.060483      -273.7597
  13   1.0000     -10.060473      -273.7594
  14   1.0000      -0.876674       -23.8555
  15   1.0000      -0.851197       -23.1623
  16   1.0000      -0.812849       -22.1187
  17   1.0000      -0.747950       -20.3528
  18   1.0000      -0.746871       -20.3234
  19   1.0000      -0.738853       -20.1052
  20   1.0000      -0.723819       -19.6961
  21   1.0000      -0.641268       -17.4498
  22   1.0000      -0.607634       -16.5346
  23   1.0000      -0.597476       -16.2582
  24   1.0000      -0.591432       -16.0937
  25   1.0000      -0.549557       -14.9542
  26   1.0000      -0.519706       -14.1419
  27   1.0000      -0.498086       -13.5536
  28   1.0000      -0.463266       -12.6061
  29   1.0000      -0.462849       -12.5948
  30   1.0000      -0.444645       -12.0994
  31   1.0000      -0.435213       -11.8427
  32   1.0000      -0.433692       -11.8014
  33   1.0000      -0.414337       -11.2747
  34   1.0000      -0.413040       -11.2394
  35   1.0000      -0.412611       -11.2277
  36   1.0000      -0.383894       -10.4463
  37   1.0000      -0.381391       -10.3782
  38   1.0000      -0.375432       -10.2160
  39   1.0000      -0.349338        -9.5060
  40   1.0000      -0.339160        -9.2290
  41   1.0000      -0.336714        -9.1625
  42   1.0000      -0.329187        -8.9576
  43   1.0000      -0.322525        -8.7763
  44   1.0000      -0.271464        -7.3869
  45   1.0000      -0.268429        -7.3043
  46   1.0000      -0.262774        -7.1504
  47   1.0000      -0.252327        -6.8662
  48   0.0000      -0.123300        -3.3552
  49   0.0000      -0.074314        -2.0222
  50   0.0000      -0.063880        -1.7383
  51   0.0000      -0.051006        -1.3879
  52   0.0000      -0.009974        -0.2714

                 SPIN DOWN ORBITALS
  NO   OCC          E(Eh)            E(eV)
   0   1.0000     -10.114987      -275.2428
   1   1.0000     -10.090569      -274.5783
   2   1.0000     -10.089977      -274.5622
   3   1.0000     -10.089970      -274.5620
   4   1.0000     -10.070561      -274.0339
   5   1.0000     -10.070524      -274.0329
   6   1.0000     -10.070049      -274.0200
   7   1.0000     -10.070048      -274.0199
   8   1.0000     -10.069377      -274.0017
   9   1.0000     -10.069375      -274.0016
  10   1.0000     -10.061429      -273.7854
  11   1.0000     -10.061426      -273.7853
  12   1.0000     -10.061033      -273.7746
  13   1.0000     -10.061024      -273.7744
  14   1.0000      -0.872720       -23.7479
  15   1.0000      -0.848223       -23.0813
  16   1.0000      -0.806896       -21.9568
  17   1.0000      -0.745569       -20.2880
  18   1.0000      -0.743914       -20.2429
  19   1.0000      -0.736154       -20.0318
  20   1.0000      -0.709601       -19.3092
  21   1.0000      -0.633787       -17.2462
  22   1.0000      -0.605542       -16.4776
  23   1.0000      -0.593866       -16.1599
  24   1.0000      -0.589738       -16.0476
  25   1.0000      -0.546569       -14.8729
  26   1.0000      -0.519225       -14.1288
  27   1.0000      -0.495933       -13.4950
  28   1.0000      -0.461835       -12.5672
  29   1.0000      -0.460959       -12.5433
  30   1.0000      -0.443116       -12.0578
  31   1.0000      -0.432348       -11.7648
  32   1.0000      -0.431987       -11.7550
  33   1.0000      -0.413364       -11.2482
  34   1.0000      -0.412431       -11.2228
  35   1.0000      -0.410422       -11.1681
  36   1.0000      -0.381043       -10.3687
  37   1.0000      -0.374632       -10.1943
  38   1.0000      -0.368320       -10.0225
  39   1.0000      -0.348929        -9.4948
  40   1.0000      -0.338817        -9.2197
  41   1.0000      -0.330932        -9.0051
  42   1.0000      -0.328122        -8.9287
  43   1.0000      -0.309384        -8.4188
  44   1.0000      -0.266772        -7.2592
  45   1.0000      -0.260754        -7.0955
  46   1.0000      -0.257978        -7.0199
  47   0.0000      -0.211683        -5.7602
  48   0.0000      -0.090414        -2.4603
  49   0.0000      -0.065309        -1.7772
  50   0.0000      -0.059398        -1.6163
  51   0.0000      -0.046396        -1.2625

MULLIKEN ATOMIC CHARGES AND SPIN POPULATIONS
--------------------------------------------
   0 C :   -1.066484    0.036834
   1 C :    2.571418    0.148936
   2 C :   -0.605901    0.055253
   3 C :   -1.007698   -0.043148
   4 C :   -0.129750    0.136703
   5 C :   -0.813258   -0.039368
   6 H :    0.471629   -0.000553
   7 H :    0.543702    0.004365
   8 H :    0.471594   -0.000703
   9 H :    0.088765    0.001768
  10 C :    0.777056   -0.133229
  11 C :   -1.082474    0.451333
  12 H :    0.242060    0.037763
  13 H :    0.242102    0.037761
  14 C :    2.571939    0.148862
  15 C :   -1.066310    0.036847
  16 C :   -0.813158   -0.039381
  17 C :   -0.129717    0.136682
  18 C :   -1.007138   -0.043149
  19 C :   -0.607193    0.055299
  20 H :    0.088122    0.001749
  21 H :    0.471722   -0.000694
  22 H :    0.543515    0.004365
  23 H :    0.471638   -0.000557
  24 H :   -0.113052    0.003132
  25 H :   -0.113130    0.003133
Sum of atomic charges         :    1.0000000

LOEWDIN ATOMIC CHARGES AND SPIN POPULATIONS
-------------------------------------------
   0 C :    0.255643    0.033870
   1 C :   -0.092801    0.055000
   2 C :    0.244282    0.037953
   3 C :    0.251748    0.013326
   4 C :    0.249516    0.061977
   5 C :    0.249598    0.014643
   6 H :   -0.162049   -0.002045
   7 H :   -0.156997    0.015162
   8 H :   -0.161167   -0.002420
   9 H :   -0.160433    0.006462
  10 C :   -0.057439    0.096541
  11 C :    0.692935    0.297175
  12 H :   -0.167582    0.063479
  13 H :   -0.167588    0.063479
  14 C :   -0.092806    0.054979
  15 C :    0.255652    0.033865
  16 C :    0.249599    0.014637
  17 C :    0.249516    0.061962
  18 C :    0.251753    0.013323
  19 C :    0.244203    0.037947
  20 H :   -0.160486    0.006461
  21 H :   -0.161155   -0.002420
  22 H :   -0.156997    0.015158
  23 H :   -0.162048   -0.002046
  24 H :   -0.167444    0.005766
  25 H :   -0.167453    0.005765

  Mayer bond orders larger than 0.100000
B(  0-C ,  1-C ) :  -0.3525 B(  0-C ,  2-C ) :  -0.8273 B(  0-C ,  4-C ) :  -0.1368
B(  0-C ,  5-C ) :   1.2925 B(  0-C ,  6-H ) :  -0.1437 B(  0-C , 10-C ) :   0.3798
B(  0-C , 25-H ) :   1.8093 B(  1-C ,  2-C ) :   0.2773 B(  1-C ,  3-C ) :  -0.1529
B(  1-C ,  4-C ) :  -0.2323 B(  1-C ,  5-C ) :  -0.1084 B(  1-C , 10-C ) :  -0.2206
B(  1-C , 11-C ) :  -0.3724 B(  1-C , 14-C ) :  -0.2768 B(  1-C , 25-H ) :  -0.1583
B(  2-C ,  3-C ) :   1.2852 B(  2-C ,  9-H ) :   1.4260 B(  2-C , 10-C ) :   0.3300
B(  2-C , 11-C ) :   0.1154 B(  2-C , 19-C ) :   0.1319 B(  3-C ,  4-C ) :   1.2003
B(  3-C ,  5-C ) :   0.3435 B(  3-C ,  8-H ) :   0.4443 B(  3-C , 25-H ) :  -0.1261
B(  4-C ,  5-C ) :   1.0776 B(  4-C ,  7-H ) :   0.4946 B(  4-C , 10-C ) :   0.1968
B(  5-C ,  6-H ) :   0.5137 B(  5-C ,  9-H ) :  -0.1493 B(  5-C , 10-C ) :   0.1159
B(  9-H , 10-C ) :  -0.1026 B(  9-H , 25-H ) :   0.1681 B( 10-C , 11-C ) :   0.5433
B( 10-C , 14-C ) :  -0.2205 B( 10-C , 15-C ) :   0.3797 B( 10-C , 16-C ) :   0.1159
B( 10-C , 17-C ) :   0.1966 B( 10-C , 19-C ) :   0.3305 B( 10-C , 20-H ) :  -0.1022
B( 10-C , 24-H ) :  -0.2160 B( 10-C , 25-H ) :  -0.2160 B( 11-C , 12-H ) :   0.9635
B( 11-C , 13-H ) :   0.9634 B( 11-C , 14-C ) :  -0.3722 B( 11-C , 19-C ) :   0.1153
B( 14-C , 15-C ) :  -0.3521 B( 14-C , 16-C ) :  -0.1081 B( 14-C , 17-C ) :  -0.2319
B( 14-C , 18-C ) :  -0.1524 B( 14-C , 19-C ) :   0.2769 B( 14-C , 24-H ) :  -0.1583
B( 15-C , 16-C ) :   1.2922 B( 15-C , 17-C ) :  -0.1369 B( 15-C , 19-C ) :  -0.8275
B( 15-C , 23-H ) :  -0.1436 B( 15-C , 24-H ) :   1.8091 B( 16-C , 17-C ) :   1.0776
B( 16-C , 18-C ) :   0.3434 B( 16-C , 20-H ) :  -0.1493 B( 16-C , 23-H ) :   0.5138
B( 17-C , 18-C ) :   1.2000 B( 17-C , 22-H ) :   0.4949 B( 18-C , 19-C ) :   1.2852
B( 18-C , 21-H ) :   0.4441 B( 18-C , 24-H ) :  -0.1260 B( 19-C , 20-H ) :   1.4269
B( 20-H , 24-H ) :   0.1683

Dispersion correction           -0.010419532
FINAL SINGLE POINT ENERGY      -540.384335876486

DIPOLE MOMENT
-------------

Method             : SCF
Type of density    : Electron Density
Multiplicity       :   2
Irrep              :   0
Energy             :  -540.3739163448641420 Eh
Relativity type    :
Basis              : AO
                                X                 Y                 Z
Electronic contribution:     -0.000180946      -0.225623390      -0.000515049
Nuclear contribution   :     -0.000076465      -0.592983985      -0.000079286
                        -----------------------------------------
Total Dipole Moment    :     -0.000257410      -0.818607376      -0.000594336
                        -----------------------------------------
Magnitude (a.u.)       :      0.818607632
Magnitude (Debye)      :      2.080735241

Rotational constants in cm-1:             0.054323             0.014328             0.012136
Rotational constants in MHz :          1628.550340           429.537668           363.830887

                             ****ORCA TERMINATED NORMALLY****
TOTAL RUN TIME: 0 days 0 hours 28 minutes 18 seconds 922 msec
