                         Program Version 6.0.0  -   RELEASE  -
|  1> !PBE0 aug-cc-pVTZ d3 TightSCF SlowConv RIJCOSX defgrid2
|  2>
|  3> %pal
|  4> nprocs 4
|  5> end
|  6>
|  7> %scf
|  8> MaxIter 1500
|  9> end
| 10>
| 11> %maxcore 3000
| 12>
| 13> !CPCM
| 14> %cpcm smd true
| 15> SMDsolvent "MeCN"
| 16> surfacetype gepol_ses
| 17> rsolv 2.19
| 18> end
| 19>
| 20> * xyz 0 1
| 21>   C          -1.20570013774955     -1.10039697930563      0.01543175480109
| 22>   C           0.00111933111067     -1.79372463480323      0.03716937828290
| 23>   C           1.21118544677794     -1.10088196681091      0.03388616244552
| 24>   C           1.22835326598804      0.29682839071349      0.00494538015242
| 25>   C           2.52368903063881      1.05844071578900     -0.03593104667324
| 26>   H           2.48341162103777      1.96024689395608      0.59889265106332
| 27>   H           3.36770598220524      0.43706826741282      0.30599555459239
| 28>   H           2.75516930508487      1.39410942865254     -1.06399807973417
| 29>   C           0.00347119857744      0.97499778484913     -0.01291371518520
| 30>   C          -1.22031342403745      0.30000889914392     -0.00614524998718
| 31>   C          -2.51971268891073      1.05570005797022      0.00936042521607
| 32>   H          -2.39731022829722      2.08016889230358     -0.37956919154311
| 33>   H          -2.91823280700184      1.13851573828558      1.03779552551247
| 34>   H          -3.28893296665078      0.54842098009693     -0.59747808691160
| 35>   H           0.00394355087374      2.07111276662115     -0.03278330541863
| 36>   H           2.15666081819569     -1.65279950277184      0.05208747237142
| 37>   H           0.00027512568056     -2.88802960033678      0.05674445713596
| 38>   H          -2.15204978452320     -1.65147955576605      0.01700562287958
| 39> *
| 40>
| 41>                          ****END OF INPUT****

CARTESIAN COORDINATES (ANGSTROEM)
---------------------------------
  C     -1.205700   -1.100397    0.015432
  C      0.001119   -1.793725    0.037169
  C      1.211185   -1.100882    0.033886
  C      1.228353    0.296828    0.004945
  C      2.523689    1.058441   -0.035931
  H      2.483412    1.960247    0.598893
  H      3.367706    0.437068    0.305996
  H      2.755169    1.394109   -1.063998
  C      0.003471    0.974998   -0.012914
  C     -1.220313    0.300009   -0.006145
  C     -2.519713    1.055700    0.009360
  H     -2.397310    2.080169   -0.379569
  H     -2.918233    1.138516    1.037796
  H     -3.288933    0.548421   -0.597478
  H      0.003944    2.071113   -0.032783
  H      2.156661   -1.652800    0.052087
  H      0.000275   -2.888030    0.056744
  H     -2.152050   -1.651480    0.017006

 Total Charge           Charge          ....    0
 Multiplicity           Mult            ....    1
 Number of Electrons    NEL             ....   58
 Basis Dimension        Dim             ....  598

ORBITAL ENERGIES
----------------

  NO   OCC          E(Eh)            E(eV)
   0   2.0000     -10.238025      -278.5908
   1   2.0000     -10.237894      -278.5873
   2   2.0000     -10.227183      -278.2958
   3   2.0000     -10.222184      -278.1598
   4   2.0000     -10.222135      -278.1584
   5   2.0000     -10.221440      -278.1395
   6   2.0000     -10.214828      -277.9596
   7   2.0000     -10.214812      -277.9592
   8   2.0000      -0.884433       -24.0666
   9   2.0000      -0.802459       -21.8360
  10   2.0000      -0.779013       -21.1980
  11   2.0000      -0.705431       -19.1958
  12   2.0000      -0.694685       -18.9033
  13   2.0000      -0.611425       -16.6377
  14   2.0000      -0.583672       -15.8825
  15   2.0000      -0.512595       -13.9484
  16   2.0000      -0.481127       -13.0921
  17   2.0000      -0.452338       -12.3087
  18   2.0000      -0.432989       -11.7822
  19   2.0000      -0.418390       -11.3850
  20   2.0000      -0.417421       -11.3586
  21   2.0000      -0.411565       -11.1992
  22   2.0000      -0.397736       -10.8229
  23   2.0000      -0.376877       -10.2553
  24   2.0000      -0.358273        -9.7491
  25   2.0000      -0.344684        -9.3793
  26   2.0000      -0.340936        -9.2773
  27   2.0000      -0.259773        -7.0688
  28   2.0000      -0.250767        -6.8237
  29   0.0000      -0.009869        -0.2686
  30   0.0000      -0.006098        -0.1659
  31   0.0000       0.002553         0.0695
  32   0.0000       0.014925         0.4061
  33   0.0000       0.016995         0.4625

MULLIKEN ATOMIC CHARGES
-----------------------
   0 C :   -0.883219
   1 C :   -0.627211
   2 C :   -0.810291
   3 C :    0.846518
   4 C :   -0.680653
   5 H :    0.256131
   6 H :    0.252915
   7 H :    0.262378
   8 C :   -1.194872
   9 C :    0.870649
  10 C :   -0.726187
  11 H :    0.253384
  12 H :    0.260576
  13 H :    0.259772
  14 H :    0.277432
  15 H :    0.337250
  16 H :    0.684515
  17 H :    0.360913
Sum of atomic charges:   -0.0000000

LOEWDIN ATOMIC CHARGES
----------------------
   0 C :    0.192446
   1 C :    0.179667
   2 C :    0.193471
   3 C :   -0.150134
   4 C :    0.566285
   5 H :   -0.159840
   6 H :   -0.166497
   7 H :   -0.150164
   8 C :    0.215316
   9 C :   -0.150314
  10 C :    0.566166
  11 H :   -0.165560
  12 H :   -0.149936
  13 H :   -0.160992
  14 H :   -0.157971
  15 H :   -0.167625
  16 H :   -0.169778
  17 H :   -0.164540

  Mayer bond orders larger than 0.100000
B(  0-C ,  1-C ) :   1.2743 B(  0-C ,  9-C ) :   0.7530 B(  0-C , 17-H ) :   0.8185
B(  1-C ,  2-C ) :   1.2710 B(  1-C ,  3-C ) :   0.1070 B(  1-C ,  9-C ) :   0.1220
B(  1-C , 16-H ) :   0.2270 B(  2-C ,  3-C ) :   0.7558 B(  2-C , 15-H ) :   0.8983
B(  3-C ,  4-C ) :   0.5684 B(  3-C ,  8-C ) :   0.7851 B(  3-C ,  9-C ) :   0.2525
B(  4-C ,  5-H ) :   0.9369 B(  4-C ,  6-H ) :   0.9263 B(  4-C ,  7-H ) :   0.9423
B(  4-C ,  8-C ) :   0.1154 B(  8-C ,  9-C ) :   0.7550 B(  8-C , 14-H ) :   0.8751
B(  9-C , 10-C ) :   0.5845 B( 10-C , 11-H ) :   0.9360 B( 10-C , 12-H ) :   0.9412
B( 10-C , 13-H ) :   0.9247

Dispersion correction           -0.015023061
FINAL SINGLE POINT ENERGY      -310.629864832182

DIPOLE MOMENT
-------------

Method             : SCF
Type of density    : Electron Density
Multiplicity       :   1
Irrep              :   0
Energy             :  -310.6148417712026344 Eh
Relativity type    :
Basis              : AO
                                X                 Y                 Z
Electronic contribution:      0.002649730      -3.014763611       0.050870401
Nuclear contribution   :     -0.014413012       3.246643755      -0.053120895
                        -----------------------------------------
Total Dipole Moment    :     -0.011763282       0.231880144      -0.002250495
                        -----------------------------------------
Magnitude (a.u.)       :      0.232189235
Magnitude (Debye)      :      0.590178133

Rotational constants in cm-1:             0.119041             0.058741             0.039927
Rotational constants in MHz :          3568.763708          1760.997706          1196.993882

                             ****ORCA TERMINATED NORMALLY****
TOTAL RUN TIME: 0 days 0 hours 4 minutes 37 seconds 482 msec
