                         Program Version 6.0.0  -   RELEASE  -
|  1> !r2SCANh aug-cc-pVTZ d3 TightSCF SlowConv RIJCOSX defgrid2
|  2>
|  3> %pal
|  4> nprocs 15
|  5> end
|  6>
|  7> %scf
|  8> MaxIter 1500
|  9> end
| 10>
| 11> %maxcore 3500
| 12>
| 13> !CPCM
| 14> %cpcm smd true
| 15> SMDsolvent "WATER"
| 16> surfacetype gepol_ses
| 17> rsolv 1.40
| 18> end
| 19>
| 20> * xyz -1 2
| 21> C          -0.06058974015319     -0.02786640637996     -0.06636687374245
| 22> C          -0.02915253757207      1.41200889322469      0.08669635331984
| 23> C           0.02798442423532      2.03233434330205      1.32981811902407
| 24> C           0.05891841826264      1.28851377532912      2.57222906271290
| 25> C           0.02788466230184     -0.17442785622153      2.44488354658359
| 26> C          -0.02912762559812     -0.80604792656199      1.17894588306731
| 27> C          -0.05600083532212     -2.21190043304611      1.11490808218194
| 28> C          -0.02778223638882     -2.97912152092029      2.26676120872945
| 29> C           0.02864253401367     -2.35043181295908      3.52692854346035
| 30> C           0.05574276936416     -0.96875665770795      3.60660845784379
| 31> H           0.09961725693663     -0.44137362844551      4.56397519772263
| 32> H           0.05097367878843     -2.95610213708649      4.44040440744309
| 33> H          -0.04909796692647     -4.07320599895043      2.20123731713864
| 34> H          -0.09984497496410     -2.65971392423461      0.11785465933687
| 35> C           0.06118565181994      3.52761243856941      1.44630550499102
| 36> H          -0.83631875455019      3.99924775120952      0.99973118694746
| 37> H           0.10955815705607      3.79661097587730      2.51364550587021
| 38> H           0.93630443757164      3.96465252836867      0.92646488630537
| 39> C          -0.06070223464566      2.21802482702039     -1.17830606330920
| 40> H           0.83706819273596      2.85838996312933     -1.28473705482212
| 41> H          -0.10791860033235      1.52690469530484     -2.03502370536211
| 42> H          -0.93579834377862      2.89621056380490     -1.21654993473529
| 43> O           0.10927738480662      1.83885022543947      3.69657300623271
| 44> O          -0.11082371766120     -0.59470609206575     -1.18250068694010
| 45> *
| 46>
| 47>                          ****END OF INPUT****

CARTESIAN COORDINATES (ANGSTROEM)
---------------------------------
  C     -0.060590   -0.027866   -0.066367
  C     -0.029153    1.412009    0.086696
  C      0.027984    2.032334    1.329818
  C      0.058918    1.288514    2.572229
  C      0.027885   -0.174428    2.444884
  C     -0.029128   -0.806048    1.178946
  C     -0.056001   -2.211900    1.114908
  C     -0.027782   -2.979122    2.266761
  C      0.028643   -2.350432    3.526929
  C      0.055743   -0.968757    3.606608
  H      0.099617   -0.441374    4.563975
  H      0.050974   -2.956102    4.440404
  H     -0.049098   -4.073206    2.201237
  H     -0.099845   -2.659714    0.117855
  C      0.061186    3.527612    1.446306
  H     -0.836319    3.999248    0.999731
  H      0.109558    3.796611    2.513646
  H      0.936304    3.964653    0.926465
  C     -0.060702    2.218025   -1.178306
  H      0.837068    2.858390   -1.284737
  H     -0.107919    1.526905   -2.035024
  H     -0.935798    2.896211   -1.216550
  O      0.109277    1.838850    3.696573
  O     -0.110824   -0.594706   -1.182501

 Total Charge           Charge          ....   -1
 Multiplicity           Mult            ....    2
 Number of Electrons    NEL             ....   99
 Basis Dimension        Dim             ....  874

ORBITAL ENERGIES
----------------
                 SPIN UP ORBITALS
  NO   OCC          E(Eh)            E(eV)
   0   1.0000     -19.075485      -519.0703
   1   1.0000     -19.075433      -519.0689
   2   1.0000     -10.207173      -277.7513
   3   1.0000     -10.207135      -277.7503
   4   1.0000     -10.158299      -276.4214
   5   1.0000     -10.157838      -276.4088
   6   1.0000     -10.157734      -276.4060
   7   1.0000     -10.157290      -276.3939
   8   1.0000     -10.155257      -276.3386
   9   1.0000     -10.155182      -276.3365
  10   1.0000     -10.155170      -276.3362
  11   1.0000     -10.154716      -276.3239
  12   1.0000     -10.137842      -275.8647
  13   1.0000     -10.137828      -275.8643
  14   1.0000      -1.012654       -27.5557
  15   1.0000      -1.010357       -27.4932
  16   1.0000      -0.857233       -23.3265
  17   1.0000      -0.816104       -22.2073
  18   1.0000      -0.754480       -20.5305
  19   1.0000      -0.747181       -20.3318
  20   1.0000      -0.721597       -19.6357
  21   1.0000      -0.665907       -18.1203
  22   1.0000      -0.649648       -17.6778
  23   1.0000      -0.590783       -16.0760
  24   1.0000      -0.578469       -15.7409
  25   1.0000      -0.544522       -14.8172
  26   1.0000      -0.504326       -13.7234
  27   1.0000      -0.478412       -13.0183
  28   1.0000      -0.457276       -12.4431
  29   1.0000      -0.435354       -11.8466
  30   1.0000      -0.430047       -11.7022
  31   1.0000      -0.413866       -11.2619
  32   1.0000      -0.408633       -11.1195
  33   1.0000      -0.408473       -11.1151
  34   1.0000      -0.389055       -10.5867
  35   1.0000      -0.388977       -10.5846
  36   1.0000      -0.372398       -10.1335
  37   1.0000      -0.370607       -10.0847
  38   1.0000      -0.361667        -9.8415
  39   1.0000      -0.361608        -9.8398
  40   1.0000      -0.344123        -9.3641
  41   1.0000      -0.341922        -9.3042
  42   1.0000      -0.324233        -8.8228
  43   1.0000      -0.320055        -8.7091
  44   1.0000      -0.264842        -7.2067
  45   1.0000      -0.252130        -6.8608
  46   1.0000      -0.241830        -6.5805
  47   1.0000      -0.234432        -6.3792
  48   1.0000      -0.226502        -6.1634
  49   1.0000      -0.149993        -4.0815
  50   0.0000      -0.043455        -1.1825
  51   0.0000      -0.024440        -0.6650
  52   0.0000       0.006788         0.1847
  53   0.0000       0.019965         0.5433
  54   0.0000       0.022941         0.6242

                 SPIN DOWN ORBITALS
  NO   OCC          E(Eh)            E(eV)
   0   1.0000     -19.068625      -518.8837
   1   1.0000     -19.068565      -518.8820
   2   1.0000     -10.204714      -277.6844
   3   1.0000     -10.204683      -277.6835
   4   1.0000     -10.157879      -276.4099
   5   1.0000     -10.157417      -276.3974
   6   1.0000     -10.157170      -276.3907
   7   1.0000     -10.156726      -276.3786
   8   1.0000     -10.155073      -276.3336
   9   1.0000     -10.155064      -276.3333
  10   1.0000     -10.153734      -276.2972
  11   1.0000     -10.153188      -276.2823
  12   1.0000     -10.137972      -275.8682
  13   1.0000     -10.137958      -275.8679
  14   1.0000      -1.001792       -27.2601
  15   1.0000      -0.999348       -27.1936
  16   1.0000      -0.854847       -23.2616
  17   1.0000      -0.811332       -22.0775
  18   1.0000      -0.752172       -20.4676
  19   1.0000      -0.744845       -20.2683
  20   1.0000      -0.717517       -19.5246
  21   1.0000      -0.663785       -18.0625
  22   1.0000      -0.641723       -17.4622
  23   1.0000      -0.589823       -16.0499
  24   1.0000      -0.574415       -15.6306
  25   1.0000      -0.540870       -14.7178
  26   1.0000      -0.502519       -13.6742
  27   1.0000      -0.475583       -12.9413
  28   1.0000      -0.454675       -12.3723
  29   1.0000      -0.434473       -11.8226
  30   1.0000      -0.418388       -11.3849
  31   1.0000      -0.410356       -11.1664
  32   1.0000      -0.406726       -11.0676
  33   1.0000      -0.405760       -11.0413
  34   1.0000      -0.381682       -10.3861
  35   1.0000      -0.377312       -10.2672
  36   1.0000      -0.371093       -10.0979
  37   1.0000      -0.369624       -10.0580
  38   1.0000      -0.360485        -9.8093
  39   1.0000      -0.343729        -9.3533
  40   1.0000      -0.341061        -9.2807
  41   1.0000      -0.331426        -9.0186
  42   1.0000      -0.322814        -8.7842
  43   1.0000      -0.318672        -8.6715
  44   1.0000      -0.245392        -6.6775
  45   1.0000      -0.245138        -6.6705
  46   1.0000      -0.236484        -6.4351
  47   1.0000      -0.223740        -6.0883
  48   1.0000      -0.221233        -6.0201
  49   0.0000      -0.097333        -2.6486
  50   0.0000      -0.034515        -0.9392
  51   0.0000      -0.011690        -0.3181
  52   0.0000       0.007678         0.2089
  53   0.0000       0.020499         0.5578

MULLIKEN ATOMIC CHARGES AND SPIN POPULATIONS
--------------------------------------------
   0 C :    1.213330    0.134678
   1 C :    0.145991    0.085510
   2 C :    0.136347    0.084890
   3 C :    1.213180    0.135166
   4 C :    1.170844    0.023903
   5 C :    1.167664    0.025112
   6 C :   -1.230021    0.016135
   7 C :   -0.443710    0.025320
   8 C :   -0.430453    0.025044
   9 C :   -1.223375    0.016259
  10 H :   -0.035067   -0.009307
  11 H :    0.629132   -0.000413
  12 H :    0.632850   -0.000361
  13 H :   -0.037153   -0.009453
  14 C :   -1.010507   -0.003727
  15 H :    0.165345    0.006171
  16 H :    0.200915   -0.004951
  17 H :    0.164197    0.006102
  18 C :   -1.012578   -0.003841
  19 H :    0.167322    0.006219
  20 H :    0.199483   -0.004835
  21 H :    0.167326    0.006126
  22 O :   -1.478304    0.219995
  23 O :   -1.472758    0.220257
Sum of atomic charges         :   -1.0000000

LOEWDIN ATOMIC CHARGES AND SPIN POPULATIONS
-------------------------------------------
   0 C :   -0.607104    0.127849
   1 C :   -0.131825    0.084625
   2 C :   -0.131805    0.084498
   3 C :   -0.607234    0.127908
   4 C :   -0.150984    0.046565
   5 C :   -0.150954    0.046560
   6 C :    0.182295    0.012785
   7 C :    0.187543    0.018689
   8 C :    0.187560    0.018662
   9 C :    0.182215    0.012805
  10 H :   -0.198004    0.000731
  11 H :   -0.174161    0.003296
  12 H :   -0.174162    0.003306
  13 H :   -0.197918    0.000719
  14 C :    0.541729    0.011986
  15 H :   -0.154717    0.002607
  16 H :   -0.221436   -0.001222
  17 H :   -0.155165    0.002569
  18 C :    0.541776    0.012031
  19 H :   -0.154858    0.002612
  20 H :   -0.221595   -0.001224
  21 H :   -0.155023    0.002582
  22 O :    0.381761    0.189453
  23 O :    0.382067    0.189608

  Mayer bond orders larger than 0.100000
B(  0-C ,  1-C ) :   1.3048 B(  0-C ,  2-C ) :  -0.5423 B(  0-C ,  3-C ) :   1.0190
B(  0-C ,  4-C ) :  -0.4857 B(  0-C ,  5-C ) :   0.7461 B(  0-C ,  6-C ) :   0.6219
B(  0-C ,  9-C ) :  -0.1317 B(  0-C , 20-H ) :  -0.1027 B(  0-C , 23-O ) :  -0.3162
B(  1-C ,  2-C ) :   1.0577 B(  1-C ,  3-C ) :  -0.5384 B(  1-C ,  4-C ) :  -0.1457
B(  1-C ,  5-C ) :   0.6925 B(  1-C , 18-C ) :   0.1761 B(  1-C , 19-H ) :  -0.1753
B(  1-C , 21-H ) :  -0.1764 B(  1-C , 22-O ) :   0.1005 B(  1-C , 23-O ) :   0.3435
B(  2-C ,  3-C ) :   1.3134 B(  2-C ,  4-C ) :   0.6831 B(  2-C ,  5-C ) :  -0.1299
B(  2-C , 14-C ) :   0.1668 B(  2-C , 15-H ) :  -0.1778 B(  2-C , 17-H ) :  -0.1820
B(  2-C , 22-O ) :   0.3520 B(  2-C , 23-O ) :   0.1036 B(  3-C ,  4-C ) :   0.7366
B(  3-C ,  5-C ) :  -0.4647 B(  3-C ,  6-C ) :  -0.1493 B(  3-C ,  9-C ) :   0.6272
B(  3-C , 16-H ) :  -0.1012 B(  3-C , 22-O ) :  -0.3201 B(  4-C ,  5-C ) :   0.7723
B(  4-C ,  6-C ) :  -0.6605 B(  4-C ,  7-C ) :  -0.2069 B(  4-C ,  9-C ) :  -0.4358
B(  4-C , 10-H ) :  -0.1672 B(  4-C , 22-O ) :   0.3396 B(  5-C ,  6-C ) :  -0.4562
B(  5-C ,  8-C ) :  -0.2009 B(  5-C ,  9-C ) :  -0.6838 B(  5-C , 13-H ) :  -0.1696
B(  5-C , 23-O ) :   0.3497 B(  6-C ,  7-C ) :   1.1529 B(  6-C , 12-H ) :  -0.1411
B(  6-C , 13-H ) :   1.2682 B(  7-C ,  8-C ) :   0.9905 B(  7-C , 12-H ) :   0.3002
B(  8-C ,  9-C ) :   1.1316 B(  8-C , 11-H ) :   0.3112 B(  9-C , 10-H ) :   1.2613
B(  9-C , 11-H ) :  -0.1433 B( 10-H , 22-O ) :   0.2138 B( 13-H , 23-O ) :   0.2143
B( 14-C , 15-H ) :   1.1193 B( 14-C , 16-H ) :   0.9110 B( 14-C , 17-H ) :   1.1218
B( 18-C , 19-H ) :   1.1145 B( 18-C , 20-H ) :   0.9189 B( 18-C , 21-H ) :   1.1146

Dispersion correction           -0.009740490
FINAL SINGLE POINT ENERGY      -613.762686021637

DIPOLE MOMENT
-------------

Method             : SCF
Type of density    : Electron Density
Multiplicity       :   2
Irrep              :   0
Energy             :  -613.7529455313883773 Eh
Relativity type    :
Basis              : AO
                                X                 Y                 Z
Electronic contribution:     -0.006352889      -6.771173380       3.375251635
Nuclear contribution   :      0.007077470       6.336292283      -3.161748014
                        -----------------------------------------
Total Dipole Moment    :      0.000724581      -0.434881098       0.213503621
                        -----------------------------------------
Magnitude (a.u.)       :      0.484464540
Magnitude (Debye)      :      1.231410998

Rotational constants in cm-1:             0.036449             0.021992             0.013787
Rotational constants in MHz :          1092.703549           659.301071           413.332938

                             ****ORCA TERMINATED NORMALLY****
TOTAL RUN TIME: 0 days 0 hours 8 minutes 32 seconds 663 msec
