                         Program Version 6.0.0  -   RELEASE  -
|  1> !TPSSh aug-cc-pVTZ d3 TightSCF SlowConv RIJCOSX defgrid2
|  2>
|  3> %pal
|  4> nprocs 4
|  5> end
|  6>
|  7> %scf
|  8> MaxIter 1500
|  9> end
| 10>
| 11> %maxcore 3000
| 12>
| 13> !CPCM
| 14> %cpcm smd true
| 15> SMDsolvent "MeCN"
| 16> surfacetype gepol_ses
| 17> rsolv 2.19
| 18> end
| 19>
| 20> * xyz 1 2
| 21> C           2.57979434838040     -0.76512868779033      0.55002877373972
| 22> N           1.26500932172402     -1.28908125363632      0.40636602507995
| 23> C           0.28298609020251     -0.62522563405020     -0.18777766408559
| 24> N           0.31055121241113      0.70973986743819     -0.21944975029898
| 25> C          -0.90428464054798      1.50462363713153     -0.44239867601191
| 26> C          -2.03947642318260      1.21762022221086      0.53873406977095
| 27> C          -2.86207876844258     -0.03194236210921      0.24124470818338
| 28> C          -2.09231646642057     -1.34422284732392      0.30081277590326
| 29> C          -0.89800263393673     -1.40686847310809     -0.66426598959003
| 30> H          -1.19352492058052     -1.04767852417754     -1.66637286512155
| 31> H          -0.55567841992770     -2.44756644418100     -0.76734795095617
| 32> H          -1.73641294806257     -1.54754065839741      1.32696955727058
| 33> H          -2.77055233723731     -2.17340424344339      0.04048078954003
| 34> H          -3.70277523981103     -0.07756392292857      0.95370276319110
| 35> H          -3.31960998926737      0.07384959946049     -0.76068861915501
| 36> H          -1.62677902226913      1.18604117824051      1.56422468629433
| 37> H          -2.70692750664589      2.09548743827220      0.50583543871622
| 38> H          -1.23343592081792      1.34322694259980     -1.48570258502121
| 39> H          -0.59336721164102      2.55553341754968     -0.36087201839100
| 40> C           1.54294297274965      1.42951819328861      0.10261663203758
| 41> C           2.75435971769682      0.56347028127833     -0.16667570355996
| 42> H           3.66676062867917      1.07905197663072      0.17154765035364
| 43> H           2.85358487208654      0.39538376428371     -1.25327533388472
| 44> H           1.55803196576022      2.33719006220635     -0.52185668580850
| 45> H           1.49212710050547      1.76061659958086      1.15811318961915
| 46> H           2.78164201792086     -0.70742891166271      1.63950028346109
| 47> H           3.28595160067412     -1.53996281736316      0.18807279872366
| 48> *
| 49>
| 50>                          ****END OF INPUT****

CARTESIAN COORDINATES (ANGSTROEM)
---------------------------------
  C      2.579794   -0.765129    0.550029
  N      1.265009   -1.289081    0.406366
  C      0.282986   -0.625226   -0.187778
  N      0.310551    0.709740   -0.219450
  C     -0.904285    1.504624   -0.442399
  C     -2.039476    1.217620    0.538734
  C     -2.862079   -0.031942    0.241245
  C     -2.092316   -1.344223    0.300813
  C     -0.898003   -1.406868   -0.664266
  H     -1.193525   -1.047679   -1.666373
  H     -0.555678   -2.447566   -0.767348
  H     -1.736413   -1.547541    1.326970
  H     -2.770552   -2.173404    0.040481
  H     -3.702775   -0.077564    0.953703
  H     -3.319610    0.073850   -0.760689
  H     -1.626779    1.186041    1.564225
  H     -2.706928    2.095487    0.505835
  H     -1.233436    1.343227   -1.485703
  H     -0.593367    2.555533   -0.360872
  C      1.542943    1.429518    0.102617
  C      2.754360    0.563470   -0.166676
  H      3.666761    1.079052    0.171548
  H      2.853585    0.395384   -1.253275
  H      1.558032    2.337190   -0.521857
  H      1.492127    1.760617    1.158113
  H      2.781642   -0.707429    1.639500
  H      3.285952   -1.539963    0.188073

 Total Charge           Charge          ....    1
 Multiplicity           Mult            ....    2
 Number of Electrons    NEL             ....   83
 Basis Dimension        Dim             ....  874

ORBITAL ENERGIES
----------------
                 SPIN UP ORBITALS
  NO   OCC          E(Eh)            E(eV)
   0   1.0000     -14.358919      -390.7260
   1   1.0000     -14.313057      -389.4781
   2   1.0000     -10.231883      -278.4237
   3   1.0000     -10.174503      -276.8623
   4   1.0000     -10.171904      -276.7916
   5   1.0000     -10.166403      -276.6419
   6   1.0000     -10.138058      -275.8706
   7   1.0000     -10.131333      -275.6876
   8   1.0000     -10.125012      -275.5156
   9   1.0000     -10.122184      -275.4386
  10   1.0000     -10.114368      -275.2259
  11   1.0000      -1.022941       -27.8356
  12   1.0000      -0.927073       -25.2269
  13   1.0000      -0.819957       -22.3122
  14   1.0000      -0.786426       -21.3997
  15   1.0000      -0.762398       -20.7459
  16   1.0000      -0.698611       -19.0102
  17   1.0000      -0.684539       -18.6273
  18   1.0000      -0.669813       -18.2265
  19   1.0000      -0.602130       -16.3848
  20   1.0000      -0.570307       -15.5188
  21   1.0000      -0.527810       -14.3624
  22   1.0000      -0.524138       -14.2625
  23   1.0000      -0.505499       -13.7553
  24   1.0000      -0.490783       -13.3549
  25   1.0000      -0.453288       -12.3346
  26   1.0000      -0.449560       -12.2331
  27   1.0000      -0.442083       -12.0297
  28   1.0000      -0.430786       -11.7223
  29   1.0000      -0.426146       -11.5960
  30   1.0000      -0.402109       -10.9420
  31   1.0000      -0.399337       -10.8665
  32   1.0000      -0.397481       -10.8160
  33   1.0000      -0.374039       -10.1781
  34   1.0000      -0.364821        -9.9273
  35   1.0000      -0.346974        -9.4416
  36   1.0000      -0.333808        -9.0834
  37   1.0000      -0.319613        -8.6971
  38   1.0000      -0.315959        -8.5977
  39   1.0000      -0.310130        -8.4391
  40   1.0000      -0.291885        -7.9426
  41   1.0000      -0.272408        -7.4126
  42   0.0000      -0.051209        -1.3935
  43   0.0000      -0.007962        -0.2167
  44   0.0000       0.003150         0.0857
  45   0.0000       0.005095         0.1386
  46   0.0000       0.006518         0.1774

                 SPIN DOWN ORBITALS
  NO   OCC          E(Eh)            E(eV)
   0   1.0000     -14.350668      -390.5015
   1   1.0000     -14.298854      -389.0916
   2   1.0000     -10.234196      -278.4866
   3   1.0000     -10.174745      -276.8689
   4   1.0000     -10.172100      -276.7969
   5   1.0000     -10.166632      -276.6481
   6   1.0000     -10.137787      -275.8632
   7   1.0000     -10.131218      -275.6844
   8   1.0000     -10.124579      -275.5038
   9   1.0000     -10.122255      -275.4406
  10   1.0000     -10.114367      -275.2259
  11   1.0000      -1.009717       -27.4758
  12   1.0000      -0.904592       -24.6152
  13   1.0000      -0.819319       -22.2948
  14   1.0000      -0.785357       -21.3706
  15   1.0000      -0.759566       -20.6688
  16   1.0000      -0.696114       -18.9422
  17   1.0000      -0.679511       -18.4904
  18   1.0000      -0.667289       -18.1579
  19   1.0000      -0.600108       -16.3298
  20   1.0000      -0.567670       -15.4471
  21   1.0000      -0.523150       -14.2356
  22   1.0000      -0.519747       -14.1430
  23   1.0000      -0.498226       -13.5574
  24   1.0000      -0.481157       -13.0929
  25   1.0000      -0.449483       -12.2311
  26   1.0000      -0.442707       -12.0467
  27   1.0000      -0.438268       -11.9259
  28   1.0000      -0.424842       -11.5605
  29   1.0000      -0.421018       -11.4565
  30   1.0000      -0.399434       -10.8692
  31   1.0000      -0.396941       -10.8013
  32   1.0000      -0.388116       -10.5612
  33   1.0000      -0.368023       -10.0144
  34   1.0000      -0.361179        -9.8282
  35   1.0000      -0.344444        -9.3728
  36   1.0000      -0.331345        -9.0164
  37   1.0000      -0.319253        -8.6873
  38   1.0000      -0.315380        -8.5819
  39   1.0000      -0.304565        -8.2876
  40   1.0000      -0.273717        -7.4482
  41   0.0000      -0.180754        -4.9186
  42   0.0000      -0.034528        -0.9395
  43   0.0000      -0.007191        -0.1957
  44   0.0000       0.003564         0.0970
  45   0.0000       0.005518         0.1501

MULLIKEN ATOMIC CHARGES AND SPIN POPULATIONS
--------------------------------------------
   0 C :    0.219497   -0.053547
   1 N :   -0.774345    0.657666
   2 C :    0.623024   -0.139221
   3 N :    0.309922    0.336397
   4 C :    0.047000   -0.047055
   5 C :    0.167695    0.026973
   6 C :    0.146066    0.001194
   7 C :    0.018217   -0.003713
   8 C :    0.308902    0.033175
   9 H :    0.070900   -0.005029
  10 H :   -0.173978    0.008185
  11 H :    0.008999    0.000843
  12 H :   -0.103557   -0.000728
  13 H :   -0.066192   -0.000523
  14 H :    0.055230   -0.002017
  15 H :    0.024858    0.002935
  16 H :   -0.129958    0.004002
  17 H :    0.040156    0.036754
  18 H :   -0.092190    0.000663
  19 C :   -0.010613   -0.047368
  20 C :    0.098690    0.015378
  21 H :   -0.004264    0.006183
  22 H :   -0.006487   -0.004467
  23 H :    0.048343    0.022293
  24 H :    0.090422    0.026283
  25 H :    0.064820    0.054112
  26 H :    0.018840    0.070631
Sum of atomic charges         :    1.0000000

LOEWDIN ATOMIC CHARGES AND SPIN POPULATIONS
-------------------------------------------
   0 C :    0.171014    0.108543
   1 N :    0.523896    0.424605
   2 C :   -0.303137    0.078772
   3 N :    0.356176    0.206117
   4 C :    0.276103    0.036211
   5 C :    0.322579    0.010502
   6 C :    0.291676    0.001465
   7 C :    0.304576   -0.000957
   8 C :    0.322398   -0.000747
   9 H :   -0.116721   -0.000916
  10 H :   -0.132481    0.003076
  11 H :   -0.122767   -0.000194
  12 H :   -0.124232   -0.000200
  13 H :   -0.126522    0.000224
  14 H :   -0.125875    0.000238
  15 H :   -0.115847    0.001408
  16 H :   -0.121074    0.001900
  17 H :   -0.099453    0.011955
  18 H :   -0.124223    0.000863
  19 C :    0.265557    0.036043
  20 C :    0.326561    0.008491
  21 H :   -0.111170    0.001640
  22 H :   -0.115173   -0.000342
  23 H :   -0.107238    0.008037
  24 H :   -0.084880    0.010629
  25 H :   -0.116169    0.024334
  26 H :   -0.113576    0.028302

  Mayer bond orders larger than 0.100000
B(  0-C ,  1-N ) :   0.8932 B(  0-C , 20-C ) :   1.0407 B(  0-C , 25-H ) :   0.8634
B(  0-C , 26-H ) :   0.9121 B(  1-N ,  3-N ) :   0.1705 B(  1-N ,  8-C ) :   0.2123
B(  2-C ,  3-N ) :   1.0743 B(  2-C ,  8-C ) :   0.7100 B(  2-C ,  9-H ) :   0.1212
B(  3-N ,  4-C ) :   0.9643 B(  3-N , 19-C ) :   0.8204 B(  4-C ,  5-C ) :   1.0014
B(  4-C , 17-H ) :   0.8941 B(  4-C , 18-H ) :   1.0167 B(  5-C ,  6-C ) :   1.0421
B(  5-C , 15-H ) :   0.9554 B(  5-C , 16-H ) :   0.9648 B(  6-C ,  7-C ) :   1.0312
B(  6-C , 13-H ) :   0.9790 B(  6-C , 14-H ) :   0.9148 B(  7-C ,  8-C ) :   1.0588
B(  7-C , 11-H ) :   0.9439 B(  7-C , 12-H ) :   1.0076 B(  8-C ,  9-H ) :   0.9124
B(  8-C , 10-H ) :   0.9620 B( 17-H , 18-H ) :  -0.1068 B( 19-C , 20-C ) :   1.0881
B( 19-C , 23-H ) :   0.9720 B( 19-C , 24-H ) :   0.8873 B( 20-C , 21-H ) :   0.9276
B( 20-C , 22-H ) :   1.0053

Dispersion correction           -0.034096676
FINAL SINGLE POINT ENERGY      -462.144783224854

DIPOLE MOMENT
-------------

Method             : SCF
Type of density    : Electron Density
Multiplicity       :   2
Irrep              :   0
Energy             :  -462.1106865485191406 Eh
Relativity type    :
Basis              : AO
                                X                 Y                 Z
Electronic contribution:      4.409905033      -1.718530286      -0.447343153
Nuclear contribution   :     -3.417837470       2.910727643       0.034174869
                        -----------------------------------------
Total Dipole Moment    :      0.992067563       1.192197357      -0.413168284
                        -----------------------------------------
Magnitude (a.u.)       :      1.605067170
Magnitude (Debye)      :      4.079756521

Rotational constants in cm-1:             0.070248             0.029206             0.022723
Rotational constants in MHz :          2105.969827           875.585908           681.207949

                             ****ORCA TERMINATED NORMALLY****
TOTAL RUN TIME: 0 days 0 hours 17 minutes 39 seconds 86 msec
