                         Program Version 6.0.0  -   RELEASE  -
|  1> !r2SCAN aug-cc-pVTZ d3 TightSCF SlowConv RIJCOSX defgrid2
|  2>
|  3> %pal
|  4> nprocs 4
|  5> end
|  6>
|  7> %scf
|  8> MaxIter 1500
|  9> end
| 10>
| 11> %maxcore 3000
| 12>
| 13> !CPCM
| 14> %cpcm smd true
| 15> SMDsolvent "MeCN"
| 16> surfacetype gepol_ses
| 17> rsolv 2.19
| 18> end
| 19>
| 20> * xyz -1 2
| 21> C           0.48430727092939     -1.21516905318477      0.00018212657990
| 22> C           1.86893489645764     -1.23471525883061      0.00003208773951
| 23> C           2.62346115159641     -0.04459960429403     -0.00011347347240
| 24> C           1.91719196899144      1.18166812135145     -0.00009858652004
| 25> C           0.53848704808454      1.21700668050313      0.00004693720302
| 26> C          -0.25134605739008      0.01820867284039      0.00018913172850
| 27> C          -1.68142459571573      0.11401828572460      0.00025810009938
| 28> O          -2.30904371905977      1.20375222206345     -0.00021388182496
| 29> C          -2.48201195396780     -1.18785928153366     -0.00008271887877
| 30> H          -3.55195535151616     -0.92055571828390     -0.00040503473791
| 31> H          -2.27639676371142     -1.81970454990542      0.88827366491426
| 32> H          -2.27584482297506     -1.81958543160251     -0.88839650427297
| 33> H          -0.00899519579743      2.16434489361400      0.00006122664782
| 34> H           2.47845175619435      2.12626372992034     -0.00020253099996
| 35> H           3.71827539321824     -0.06872896483531     -0.00023193512716
| 36> H           2.38810382970115     -2.20294221124226      0.00002680569261
| 37> H          -0.05769635503973     -2.16717953230489      0.00028068522919
| 38> *
| 39>
| 40>                          ****END OF INPUT****

CARTESIAN COORDINATES (ANGSTROEM)
---------------------------------
  C      0.484307   -1.215169    0.000182
  C      1.868935   -1.234715    0.000032
  C      2.623461   -0.044600   -0.000113
  C      1.917192    1.181668   -0.000099
  C      0.538487    1.217007    0.000047
  C     -0.251346    0.018209    0.000189
  C     -1.681425    0.114018    0.000258
  O     -2.309044    1.203752   -0.000214
  C     -2.482012   -1.187859   -0.000083
  H     -3.551955   -0.920556   -0.000405
  H     -2.276397   -1.819705    0.888274
  H     -2.275845   -1.819585   -0.888397
  H     -0.008995    2.164345    0.000061
  H      2.478452    2.126264   -0.000203
  H      3.718275   -0.068729   -0.000232
  H      2.388104   -2.202942    0.000027
  H     -0.057696   -2.167180    0.000281

 Total Charge           Charge          ....   -1
 Multiplicity           Mult            ....    2
 Number of Electrons    NEL             ....   65
 Basis Dimension        Dim             ....  598

ORBITAL ENERGIES
----------------
                 SPIN UP ORBITALS
  NO   OCC          E(Eh)            E(eV)
   0   1.0000     -18.875951      -513.6407
   1   1.0000     -10.049961      -273.4734
   2   1.0000     -10.016834      -272.5719
   3   1.0000     -10.016734      -272.5692
   4   1.0000     -10.013586      -272.4835
   5   1.0000     -10.009355      -272.3684
   6   1.0000     -10.008336      -272.3407
   7   1.0000     -10.004879      -272.2466
   8   1.0000     -10.004842      -272.2456
   9   1.0000      -0.928445       -25.2643
  10   1.0000      -0.789974       -21.4963
  11   1.0000      -0.702442       -19.1144
  12   1.0000      -0.687740       -18.7144
  13   1.0000      -0.654609       -17.8128
  14   1.0000      -0.569638       -15.5006
  15   1.0000      -0.537407       -14.6236
  16   1.0000      -0.485610       -13.2141
  17   1.0000      -0.443171       -12.0593
  18   1.0000      -0.395693       -10.7674
  19   1.0000      -0.388698       -10.5770
  20   1.0000      -0.376861       -10.2549
  21   1.0000      -0.374742       -10.1972
  22   1.0000      -0.359834        -9.7916
  23   1.0000      -0.331621        -9.0239
  24   1.0000      -0.324964        -8.8427
  25   1.0000      -0.322252        -8.7689
  26   1.0000      -0.295780        -8.0486
  27   1.0000      -0.287319        -7.8184
  28   1.0000      -0.271070        -7.3762
  29   1.0000      -0.223317        -6.0768
  30   1.0000      -0.215022        -5.8511
  31   1.0000      -0.173516        -4.7216
  32   1.0000      -0.078603        -2.1389
  33   0.0000      -0.015117        -0.4114
  34   0.0000       0.005086         0.1384
  35   0.0000       0.020877         0.5681
  36   0.0000       0.024237         0.6595
  37   0.0000       0.027371         0.7448

                 SPIN DOWN ORBITALS
  NO   OCC          E(Eh)            E(eV)
   0   1.0000     -18.869667      -513.4697
   1   1.0000     -10.045229      -273.3446
   2   1.0000     -10.018163      -272.6081
   3   1.0000     -10.017950      -272.6023
   4   1.0000     -10.011013      -272.4135
   5   1.0000     -10.005610      -272.2665
   6   1.0000     -10.005285      -272.2576
   7   1.0000     -10.004488      -272.2360
   8   1.0000     -10.003346      -272.2049
   9   1.0000      -0.918299       -24.9882
  10   1.0000      -0.785842       -21.3838
  11   1.0000      -0.695223       -18.9180
  12   1.0000      -0.684164       -18.6170
  13   1.0000      -0.651749       -17.7350
  14   1.0000      -0.559638       -15.2285
  15   1.0000      -0.536294       -14.5933
  16   1.0000      -0.481506       -13.1024
  17   1.0000      -0.438273       -11.9260
  18   1.0000      -0.393675       -10.7124
  19   1.0000      -0.385180       -10.4813
  20   1.0000      -0.375940       -10.2299
  21   1.0000      -0.363746        -9.8980
  22   1.0000      -0.359097        -9.7715
  23   1.0000      -0.328032        -8.9262
  24   1.0000      -0.320891        -8.7319
  25   1.0000      -0.315428        -8.5832
  26   1.0000      -0.293316        -7.9815
  27   1.0000      -0.269939        -7.3454
  28   1.0000      -0.266157        -7.2425
  29   1.0000      -0.215056        -5.8520
  30   1.0000      -0.195068        -5.3081
  31   1.0000      -0.168662        -4.5895
  32   0.0000      -0.041342        -1.1250
  33   0.0000      -0.010696        -0.2911
  34   0.0000       0.007946         0.2162
  35   0.0000       0.023393         0.6365
  36   0.0000       0.026612         0.7241

MULLIKEN ATOMIC CHARGES AND SPIN POPULATIONS
--------------------------------------------
   0 C :   -0.749752    0.259184
   1 C :   -0.699563   -0.152259
   2 C :   -0.346285    0.354969
   3 C :   -0.554317   -0.147956
   4 C :   -1.187346    0.254645
   5 C :    1.914521    0.055682
   6 C :    0.634076    0.247863
   7 O :   -1.071091    0.222256
   8 C :   -0.544358   -0.055796
   9 H :    0.124445   -0.007463
  10 H :    0.200838    0.021537
  11 H :    0.201838    0.021556
  12 H :   -0.078557   -0.017547
  13 H :    0.428511   -0.008498
  14 H :    0.478147   -0.024180
  15 H :    0.446839   -0.012144
  16 H :   -0.197946   -0.011850
Sum of atomic charges         :   -1.0000000

LOEWDIN ATOMIC CHARGES AND SPIN POPULATIONS
-------------------------------------------
   0 C :    0.142355    0.089895
   1 C :    0.120650    0.031891
   2 C :    0.131945    0.137127
   3 C :    0.119008    0.029914
   4 C :    0.127910    0.090084
   5 C :   -0.215988    0.125218
   6 C :   -0.675773    0.185737
   7 O :    0.337907    0.192472
   8 C :    0.496392    0.034758
   9 H :   -0.205538   -0.000857
  10 H :   -0.179883    0.008985
  11 H :   -0.179916    0.008992
  12 H :   -0.219014    0.019558
  13 H :   -0.192943   -0.004829
  14 H :   -0.208007    0.036285
  15 H :   -0.191482   -0.004169
  16 H :   -0.207624    0.018939

  Mayer bond orders larger than 0.100000
B(  0-C ,  1-C ) :   0.9389 B(  0-C ,  2-C ) :  -0.1344 B(  0-C ,  3-C ) :  -0.1066
B(  0-C ,  4-C ) :  -0.4339 B(  0-C ,  6-C ) :   0.2872 B(  0-C , 12-H ) :   0.1829
B(  0-C , 15-H ) :  -0.1475 B(  0-C , 16-H ) :   1.8668 B(  1-C ,  2-C ) :   0.9333
B(  1-C ,  3-C ) :   0.1239 B(  1-C ,  5-C ) :   0.2498 B(  1-C , 12-H ) :  -0.1225
B(  1-C , 15-H ) :   0.6306 B(  1-C , 16-H ) :  -0.1722 B(  2-C ,  3-C ) :   0.8776
B(  2-C ,  6-C ) :   0.1898 B(  2-C , 14-H ) :   0.6160 B(  3-C ,  4-C ) :   1.2794
B(  3-C ,  5-C ) :   0.1118 B(  3-C , 12-H ) :  -0.1149 B(  3-C , 13-H ) :   0.6775
B(  3-C , 16-H ) :  -0.1176 B(  4-C ,  5-C ) :  -0.2303 B(  4-C ,  6-C ) :   0.3473
B(  4-C , 12-H ) :   1.4243 B(  4-C , 13-H ) :  -0.1638 B(  4-C , 14-H ) :   0.1503
B(  4-C , 16-H ) :   0.1778 B(  5-C ,  6-C ) :   0.3966 B(  5-C ,  7-O ) :   0.1811
B(  5-C , 12-H ) :  -0.2138 B(  5-C , 16-H ) :  -0.3598 B(  6-C ,  7-O ) :   0.5378
B(  6-C ,  8-C ) :   0.8485 B(  6-C , 12-H ) :  -0.1157 B(  6-C , 13-H ) :   0.1562
B(  6-C , 15-H ) :   0.1139 B(  6-C , 16-H ) :  -0.1577 B(  7-O , 12-H ) :   0.1677
B(  8-C ,  9-H ) :   0.9769 B(  8-C , 10-H ) :   0.9832 B(  8-C , 11-H ) :   0.9826
B( 12-H , 16-H ) :   0.1412

Dispersion correction           -0.005133921
FINAL SINGLE POINT ENERGY      -384.916843132179

DIPOLE MOMENT
-------------

Method             : SCF
Type of density    : Electron Density
Multiplicity       :   2
Irrep              :   0
Energy             :  -384.9117092115707237 Eh
Relativity type    :
Basis              : AO
                                X                 Y                 Z
Electronic contribution:      0.993801208       3.006804152       0.000803512
Nuclear contribution   :      0.371773726      -4.441970232      -0.000619392
                        -----------------------------------------
Total Dipole Moment    :      1.365574934      -1.435166080       0.000184120
                        -----------------------------------------
Magnitude (a.u.)       :      1.981034228
Magnitude (Debye)      :      5.035388838

Rotational constants in cm-1:             0.121326             0.040165             0.030348
Rotational constants in MHz :          3637.264281          1204.105692           909.812230

                             ****ORCA TERMINATED NORMALLY****
TOTAL RUN TIME: 0 days 0 hours 4 minutes 33 seconds 257 msec
