                         Program Version 6.0.0  -   RELEASE  -
|  1> !r2SCANh aug-cc-pVTZ d3 TightSCF SlowConv RIJCOSX defgrid2
|  2>
|  3> %pal
|  4> nprocs 4
|  5> end
|  6>
|  7> %scf
|  8> MaxIter 1500
|  9> end
| 10>
| 11> %maxcore 3000
| 12>
| 13> !CPCM
| 14> %cpcm smd true
| 15> SMDsolvent "MeCN"
| 16> surfacetype gepol_ses
| 17> rsolv 2.19
| 18> end
| 19>
| 20> * xyz 1 2
| 21> C          -0.34270275561118      0.84711240516987     -0.00000461392678
| 22> C          -1.62114214149599      0.28310666085248      0.00005036258773
| 23> C          -1.76655845984461     -1.14534797316706      0.00015902441429
| 24> C          -0.64047775510568     -1.96124661886859      0.00020951229865
| 25> C           0.62711717490611     -1.39778631503778      0.00015498102973
| 26> C           0.79382657036915      0.03758278475822      0.00002872344792
| 27> C           2.09240943022637      0.64547974379403     -0.00003830185520
| 28> C           3.29430838690790     -0.01032166453559      0.00000281703843
| 29> C           4.60760132054960      0.65947907504340     -0.00004889316533
| 30> H           5.19809781171836      0.33504540056372     -0.87962451212125
| 31> H           5.19805381830583      0.33523637975460      0.87962749612829
| 32> H           4.53047503370681      1.75742824935659     -0.00016451192059
| 33> H           3.31318609028762     -1.10737767604801      0.00008430734855
| 34> H           2.10926613216247      1.74179274962735     -0.00012792598686
| 35> H           1.50121349078302     -2.05141955010833      0.00019397364887
| 36> H          -0.75915141594404     -3.04749102718735      0.00029347430122
| 37> H          -2.76100240605802     -1.59669233225998      0.00020413991672
| 38> O          -2.63949171539410      1.10870001849501     -0.00000818654028
| 39> C          -3.98618237230029      0.65565691136091      0.00006847700849
| 40> H          -4.60288239689184      1.56371892248403      0.00002378375357
| 41> H          -4.19996760244314      0.06636471722196      0.90775693220812
| 42> H          -4.20002007511970      0.06623874429631     -0.90752475328728
| 43> H          -0.25881356371464      1.93607439443420     -0.00008040632701
| 44> *
| 45>
| 46>                          ****END OF INPUT****

CARTESIAN COORDINATES (ANGSTROEM)
---------------------------------
  C     -0.342703    0.847112   -0.000005
  C     -1.621142    0.283107    0.000050
  C     -1.766558   -1.145348    0.000159
  C     -0.640478   -1.961247    0.000210
  C      0.627117   -1.397786    0.000155
  C      0.793827    0.037583    0.000029
  C      2.092409    0.645480   -0.000038
  C      3.294308   -0.010322    0.000003
  C      4.607601    0.659479   -0.000049
  H      5.198098    0.335045   -0.879625
  H      5.198054    0.335236    0.879627
  H      4.530475    1.757428   -0.000165
  H      3.313186   -1.107378    0.000084
  H      2.109266    1.741793   -0.000128
  H      1.501213   -2.051420    0.000194
  H     -0.759151   -3.047491    0.000293
  H     -2.761002   -1.596692    0.000204
  O     -2.639492    1.108700   -0.000008
  C     -3.986182    0.655657    0.000068
  H     -4.602882    1.563719    0.000024
  H     -4.199968    0.066365    0.907757
  H     -4.200020    0.066239   -0.907525
  H     -0.258814    1.936074   -0.000080

 Total Charge           Charge          ....    1
 Multiplicity           Mult            ....    2
 Number of Electrons    NEL             ....   79
 Basis Dimension        Dim             ....  782

ORBITAL ENERGIES
----------------
                 SPIN UP ORBITALS
  NO   OCC          E(Eh)            E(eV)
   0   1.0000     -19.198298      -522.4122
   1   1.0000     -10.273399      -279.5534
   2   1.0000     -10.224693      -278.2280
   3   1.0000     -10.217703      -278.0378
   4   1.0000     -10.217373      -278.0289
   5   1.0000     -10.216206      -277.9971
   6   1.0000     -10.216052      -277.9929
   7   1.0000     -10.198953      -277.5276
   8   1.0000     -10.193762      -277.3864
   9   1.0000     -10.185644      -277.1655
  10   1.0000     -10.165318      -276.6124
  11   1.0000      -1.128052       -30.6959
  12   1.0000      -0.902024       -24.5453
  13   1.0000      -0.840959       -22.8837
  14   1.0000      -0.795764       -21.6538
  15   1.0000      -0.788207       -21.4482
  16   1.0000      -0.725911       -19.7531
  17   1.0000      -0.707747       -19.2588
  18   1.0000      -0.635288       -17.2871
  19   1.0000      -0.628729       -17.1086
  20   1.0000      -0.574109       -15.6223
  21   1.0000      -0.547246       -14.8913
  22   1.0000      -0.516081       -14.0433
  23   1.0000      -0.509227       -13.8568
  24   1.0000      -0.493157       -13.4195
  25   1.0000      -0.484444       -13.1824
  26   1.0000      -0.453113       -12.3298
  27   1.0000      -0.439206       -11.9514
  28   1.0000      -0.425604       -11.5813
  29   1.0000      -0.416832       -11.3426
  30   1.0000      -0.410829       -11.1792
  31   1.0000      -0.402735       -10.9590
  32   1.0000      -0.389966       -10.6115
  33   1.0000      -0.374636       -10.1944
  34   1.0000      -0.364393        -9.9156
  35   1.0000      -0.359503        -9.7826
  36   1.0000      -0.341224        -9.2852
  37   1.0000      -0.327246        -8.9048
  38   1.0000      -0.263749        -7.1770
  39   1.0000      -0.260834        -7.0977
  40   0.0000      -0.099635        -2.7112
  41   0.0000      -0.049637        -1.3507
  42   0.0000       0.000799         0.0217
  43   0.0000       0.007370         0.2006
  44   0.0000       0.018213         0.4956

                 SPIN DOWN ORBITALS
  NO   OCC          E(Eh)            E(eV)
   0   1.0000     -19.195709      -522.3418
   1   1.0000     -10.272964      -279.5416
   2   1.0000     -10.223663      -278.2000
   3   1.0000     -10.217476      -278.0317
   4   1.0000     -10.211541      -277.8702
   5   1.0000     -10.211158      -277.8597
   6   1.0000     -10.209093      -277.8035
   7   1.0000     -10.198475      -277.5146
   8   1.0000     -10.196810      -277.4693
   9   1.0000     -10.186375      -277.1854
  10   1.0000     -10.165450      -276.6160
  11   1.0000      -1.124108       -30.5885
  12   1.0000      -0.894598       -24.3432
  13   1.0000      -0.832487       -22.6531
  14   1.0000      -0.794061       -21.6075
  15   1.0000      -0.777953       -21.1692
  16   1.0000      -0.717781       -19.5318
  17   1.0000      -0.704386       -19.1673
  18   1.0000      -0.632687       -17.2163
  19   1.0000      -0.623383       -16.9631
  20   1.0000      -0.570721       -15.5301
  21   1.0000      -0.544994       -14.8300
  22   1.0000      -0.514087       -13.9890
  23   1.0000      -0.505870       -13.7654
  24   1.0000      -0.485226       -13.2037
  25   1.0000      -0.481666       -13.1068
  26   1.0000      -0.452231       -12.3058
  27   1.0000      -0.438675       -11.9369
  28   1.0000      -0.415346       -11.3021
  29   1.0000      -0.413878       -11.2622
  30   1.0000      -0.400857       -10.9079
  31   1.0000      -0.398749       -10.8505
  32   1.0000      -0.388737       -10.5781
  33   1.0000      -0.373488       -10.1631
  34   1.0000      -0.357939        -9.7400
  35   1.0000      -0.351213        -9.5570
  36   1.0000      -0.339231        -9.2309
  37   1.0000      -0.311560        -8.4780
  38   1.0000      -0.250290        -6.8107
  39   0.0000      -0.196722        -5.3531
  40   0.0000      -0.068905        -1.8750
  41   0.0000      -0.039462        -1.0738
  42   0.0000       0.008055         0.2192
  43   0.0000       0.018914         0.5147

MULLIKEN ATOMIC CHARGES AND SPIN POPULATIONS
--------------------------------------------
   0 C :   -0.984527   -0.080243
   1 C :    0.906377    0.026510
   2 C :   -0.005794    0.388783
   3 C :   -0.870666   -0.237118
   4 C :   -0.440872    0.395718
   5 C :    1.957267    0.084403
   6 C :   -0.132101    0.009554
   7 C :   -0.170112    0.236104
   8 C :   -0.788381   -0.029015
   9 H :    0.202151    0.026093
  10 H :    0.203159    0.026071
  11 H :    0.258224   -0.004960
  12 H :    0.143641    0.015194
  13 H :   -0.023459    0.006445
  14 H :    0.260137    0.033422
  15 H :    0.497200   -0.006676
  16 H :    0.299753    0.042254
  17 O :   -0.593906    0.073831
  18 C :   -0.649674   -0.006652
  19 H :    0.239623   -0.000549
  20 H :    0.284357    0.002462
  21 H :    0.283775    0.002485
  22 H :    0.123828   -0.004115
Sum of atomic charges         :    1.0000000

LOEWDIN ATOMIC CHARGES AND SPIN POPULATIONS
-------------------------------------------
   0 C :    0.253165   -0.005044
   1 C :   -0.346928    0.072481
   2 C :    0.289406    0.182523
   3 C :    0.263713    0.029296
   4 C :    0.285439    0.191538
   5 C :   -0.097382    0.083323
   6 C :    0.272241    0.069821
   7 C :    0.278688    0.142732
   8 C :    0.603305    0.046604
   9 H :   -0.142844    0.010658
  10 H :   -0.142882    0.010657
  11 H :   -0.157761    0.000849
  12 H :   -0.158567    0.023601
  13 H :   -0.155623    0.005519
  14 H :   -0.161063    0.040245
  15 H :   -0.146842   -0.014638
  16 H :   -0.155986    0.040387
  17 O :    0.629980    0.063195
  18 C :    0.401200    0.006599
  19 H :   -0.160543   -0.000372
  20 H :   -0.150138    0.001951
  21 H :   -0.150105    0.001951
  22 H :   -0.150473   -0.003874

  Mayer bond orders larger than 0.100000
B(  0-C ,  1-C ) :   0.6060 B(  0-C ,  4-C ) :  -0.2843 B(  0-C ,  6-C ) :  -0.2587
B(  0-C ,  7-C ) :   0.1833 B(  0-C , 17-O ) :   0.3379 B(  0-C , 22-H ) :   1.2321
B(  1-C ,  2-C ) :   0.9751 B(  1-C ,  4-C ) :  -0.2606 B(  1-C , 17-O ) :   0.2013
B(  1-C , 22-H ) :  -0.1068 B(  2-C ,  3-C ) :   0.9504 B(  2-C ,  5-C ) :  -0.1669
B(  2-C ,  6-C ) :   0.1046 B(  2-C , 16-H ) :   0.9425 B(  2-C , 17-O ) :  -0.2525
B(  2-C , 18-C ) :  -0.1700 B(  3-C ,  4-C ) :   0.9319 B(  3-C ,  5-C ) :  -0.1428
B(  3-C ,  7-C ) :  -0.1046 B(  3-C , 14-H ) :  -0.1379 B(  3-C , 15-H ) :   0.4302
B(  4-C ,  5-C ) :   0.3388 B(  4-C ,  6-C ) :   0.1112 B(  4-C , 14-H ) :   1.0095
B(  5-C ,  7-C ) :  -0.1211 B(  5-C ,  8-C ) :   0.1214 B(  5-C , 12-H ) :  -0.2339
B(  5-C , 17-O ) :   0.1816 B(  5-C , 22-H ) :  -0.1064 B(  6-C ,  7-C ) :   0.7229
B(  6-C , 13-H ) :   1.3419 B(  6-C , 22-H ) :  -0.1006 B(  7-C ,  8-C ) :   0.5980
B(  7-C , 12-H ) :   1.3985 B(  7-C , 13-H ) :  -0.1574 B(  8-C ,  9-H ) :   1.0160
B(  8-C , 10-H ) :   1.0148 B(  8-C , 11-H ) :   0.9455 B(  8-C , 12-H ) :  -0.1497
B( 16-H , 18-C ) :  -0.1448 B( 17-O , 18-C ) :   0.9874 B( 18-C , 19-H ) :   0.9670
B( 18-C , 20-H ) :   0.9099 B( 18-C , 21-H ) :   0.9107

Dispersion correction           -0.007261354
FINAL SINGLE POINT ENERGY      -463.176142111134

DIPOLE MOMENT
-------------

Method             : SCF
Type of density    : Electron Density
Multiplicity       :   2
Irrep              :   0
Energy             :  -463.1688807575159785 Eh
Relativity type    :
Basis              : AO
                                X                 Y                 Z
Electronic contribution:     -4.475625385      -0.803778002      -0.000351590
Nuclear contribution   :      4.745595693      -0.067246961       0.000048364
                        -----------------------------------------
Total Dipole Moment    :      0.269970309      -0.871024963      -0.000303226
                        -----------------------------------------
Magnitude (a.u.)       :      0.911903803
Magnitude (Debye)      :      2.317875263

Rotational constants in cm-1:             0.103199             0.017039             0.014706
Rotational constants in MHz :          3093.817468           510.805508           440.883670

                             ****ORCA TERMINATED NORMALLY****
TOTAL RUN TIME: 0 days 0 hours 14 minutes 58 seconds 529 msec
