                         Program Version 6.0.0  -   RELEASE  -
|  1> !B3LYP aug-cc-pVTZ d3 TightSCF SlowConv RIJCOSX defgrid2
|  2>
|  3> %pal
|  4> nprocs 6
|  5> end
|  6>
|  7> %scf
|  8> MaxIter 1500
|  9> end
| 10>
| 11> %maxcore 3000
| 12>
| 13> !CPCM
| 14> %cpcm smd true
| 15> SMDsolvent "MeCN"
| 16> surfacetype gepol_ses
| 17> rsolv 2.19
| 18> end
| 19>
| 20> * xyz 0 1
| 21>   C          -1.14933226451234     -1.23882509190584     -0.00046672280380
| 22>   C          -2.50857813675911     -0.94988227106401     -0.00054346756040
| 23>   C          -2.93817015440872      0.37868475331297     -0.00006408928605
| 24>   C          -2.00629101009504      1.41668452923491      0.00049673263770
| 25>   C          -0.64374499246001      1.13250357756874      0.00056381244254
| 26>   C          -0.20908515748665     -0.19753416758703      0.00007645085547
| 27>   C           1.21837162790625     -0.59720306751016      0.00007667382631
| 28>   O           1.62341721296480     -1.71314820484524     -0.00012734829677
| 29>   Cl          2.38206247173385      0.76415186429790      0.00056602291059
| 30>   H           0.09169908378046      1.93929798920226      0.00098639048783
| 31>   H          -2.34320651232058      2.45698180479248      0.00087795608335
| 32>   H          -4.00834754942676      0.60618222514384     -0.00012604204670
| 33>   H          -3.23886079813446     -1.76401666244183     -0.00098417146236
| 34>   H          -0.79061102078168     -2.27094327819897     -0.00083749778771
| 35> *
| 36>
| 37>                          ****END OF INPUT****

CARTESIAN COORDINATES (ANGSTROEM)
---------------------------------
  C     -1.149332   -1.238825   -0.000467
  C     -2.508578   -0.949882   -0.000543
  C     -2.938170    0.378685   -0.000064
  C     -2.006291    1.416685    0.000497
  C     -0.643745    1.132504    0.000564
  C     -0.209085   -0.197534    0.000076
  C      1.218372   -0.597203    0.000077
  O      1.623417   -1.713148   -0.000127
  Cl     2.382062    0.764152    0.000566
  H      0.091699    1.939298    0.000986
  H     -2.343207    2.456982    0.000878
  H     -4.008348    0.606182   -0.000126
  H     -3.238861   -1.764017   -0.000984
  H     -0.790611   -2.270943   -0.000837

 Total Charge           Charge          ....    0
 Multiplicity           Mult            ....    1
 Number of Electrons    NEL             ....   72
 Basis Dimension        Dim             ....  533

ORBITAL ENERGIES
----------------

  NO   OCC          E(Eh)            E(eV)
   0   2.0000    -101.566483     -2763.7645
   1   2.0000     -19.156255      -521.2682
   2   2.0000     -10.325691      -280.9763
   3   2.0000     -10.208323      -277.7826
   4   2.0000     -10.195278      -277.4276
   5   2.0000     -10.194348      -277.4023
   6   2.0000     -10.192254      -277.3453
   7   2.0000     -10.187298      -277.2105
   8   2.0000     -10.187266      -277.2096
   9   2.0000      -9.471824      -257.7414
  10   2.0000      -7.233900      -196.8444
  11   2.0000      -7.227068      -196.6585
  12   2.0000      -7.225912      -196.6271
  13   2.0000      -1.096831       -29.8463
  14   2.0000      -0.877761       -23.8851
  15   2.0000      -0.852214       -23.1899
  16   2.0000      -0.773207       -21.0400
  17   2.0000      -0.758841       -20.6491
  18   2.0000      -0.651126       -17.7180
  19   2.0000      -0.617279       -16.7970
  20   2.0000      -0.567654       -15.4467
  21   2.0000      -0.528069       -14.3695
  22   2.0000      -0.489610       -13.3230
  23   2.0000      -0.477481       -12.9929
  24   2.0000      -0.454652       -12.3717
  25   2.0000      -0.449088       -12.2203
  26   2.0000      -0.446819       -12.1586
  27   2.0000      -0.431073       -11.7301
  28   2.0000      -0.380166       -10.3448
  29   2.0000      -0.369379       -10.0513
  30   2.0000      -0.353570        -9.6211
  31   2.0000      -0.332621        -9.0511
  32   2.0000      -0.329513        -8.9665
  33   2.0000      -0.301503        -8.2043
  34   2.0000      -0.275003        -7.4832
  35   2.0000      -0.269678        -7.3383
  36   0.0000      -0.080178        -2.1818
  37   0.0000      -0.024951        -0.6789
  38   0.0000      -0.007516        -0.2045
  39   0.0000       0.007523         0.2047
  40   0.0000       0.014306         0.3893

MULLIKEN ATOMIC CHARGES
-----------------------
   0 C :   -0.847253
   1 C :   -0.416635
   2 C :   -0.303686
   3 C :   -0.635864
   4 C :   -0.735601
   5 C :    1.373326
   6 C :    0.512981
   7 O :   -0.678900
   8 Cl:   -0.253066
   9 H :    0.338913
  10 H :    0.505201
  11 H :    0.457570
  12 H :    0.448635
  13 H :    0.234378
Sum of atomic charges:   -0.0000000

LOEWDIN ATOMIC CHARGES
----------------------
   0 C :    0.185778
   1 C :    0.210810
   2 C :    0.206894
   3 C :    0.207773
   4 C :    0.155673
   5 C :   -0.249216
   6 C :   -1.139020
   7 O :    0.414610
   8 Cl:    0.895980
   9 H :   -0.232793
  10 H :   -0.161605
  11 H :   -0.157621
  12 H :   -0.161212
  13 H :   -0.176049

  Mayer bond orders larger than 0.100000
B(  0-C ,  1-C ) :   1.2054 B(  0-C ,  4-C ) :  -0.1070 B(  0-C ,  5-C ) :   0.5237
B(  0-C ,  6-C ) :   0.1535 B(  0-C , 13-H ) :   0.8712 B(  1-C ,  2-C ) :   1.1774
B(  1-C , 12-H ) :   0.6834 B(  2-C ,  3-C ) :   1.2521 B(  2-C ,  5-C ) :  -0.1266
B(  2-C , 11-H ) :   0.6744 B(  3-C ,  4-C ) :   1.1715 B(  3-C ,  5-C ) :  -0.1203
B(  3-C , 10-H ) :   0.5838 B(  4-C ,  5-C ) :   0.3852 B(  4-C ,  6-C ) :   0.1923
B(  4-C ,  9-H ) :   1.0070 B(  5-C ,  6-C ) :   0.5163 B(  5-C ,  7-O ) :   0.2317
B(  5-C ,  8-Cl) :   0.1111 B(  6-C ,  7-O ) :   1.1006 B(  6-C ,  8-Cl) :   0.7832
B(  7-O , 13-H ) :   0.1348 B(  8-Cl,  9-H ) :  -0.1243

Dispersion correction           -0.028248897
FINAL SINGLE POINT ENERGY      -805.121024688222

DIPOLE MOMENT
-------------

Method             : SCF
Type of density    : Electron Density
Multiplicity       :   1
Irrep              :   0
Energy             :  -805.0927757914727181 Eh
Relativity type    :
Basis              : AO
                                X                 Y                 Z
Electronic contribution:     10.916084413       0.819723927       0.001152754
Nuclear contribution   :    -12.853217840      -0.143073741      -0.001309271
                        -----------------------------------------
Total Dipole Moment    :     -1.937133428       0.676650186      -0.000156517
                        -----------------------------------------
Magnitude (a.u.)       :      2.051911649
Magnitude (Debye)      :      5.215544925

Rotational constants in cm-1:             0.104386             0.031040             0.023926
Rotational constants in MHz :          3129.416204           930.567874           717.277244

                             ****ORCA TERMINATED NORMALLY****
TOTAL RUN TIME: 0 days 0 hours 2 minutes 50 seconds 722 msec
