                         Program Version 6.0.0  -   RELEASE  -
|  1> !r2SCANh freq aug-cc-pVTZ d3 TightSCF SlowConv RIJCOSX defgrid2
|  2>
|  3> %pal
|  4> nprocs 12
|  5> end
|  6>
|  7> %scf
|  8> MaxIter 1500
|  9> end
| 10>
| 11> %maxcore 5000
| 12>
| 13> !CPCM
| 14> %cpcm smd true
| 15> SMDsolvent "MeCN"
| 16> surfacetype gepol_ses
| 17> rsolv 2.19
| 18> end
| 19>
| 20> * xyz 1 2
| 21> C           1.33258331923557      0.00170141551843     -0.00159978181663
| 22> C           0.74418516530526      1.28796836578371     -0.00402286538407
| 23> C          -0.60990848192178      1.40301479673948     -0.00295532481321
| 24> C          -1.42134795453659      0.23924359742251     -0.00104561662918
| 25> C          -0.83755188797990     -1.04799168534496     -0.00334506703139
| 26> C           0.52083171367944     -1.15908868457999     -0.00301913428709
| 27> H           0.98248702332707     -2.13657732390713     -0.00338656679209
| 28> H          -1.45174384152623     -1.93368395441107     -0.00346646396592
| 29> O          -2.71297572479313      0.45750316246266      0.00277054073026
| 30> C          -3.62916484340381     -0.65559216350797      0.00282841848110
| 31> H          -4.61551501682892     -0.20882187243822      0.00558854685565
| 32> H          -3.48471113413149     -1.25181789721985     -0.89465675396484
| 33> H          -3.48140572784942     -1.25537739128628      0.89752154779495
| 34> H          -1.09282397732745      2.36919907409702     -0.00272988941936
| 35> H           1.36947790464052      2.16873906040872     -0.00702064636042
| 36> S           3.02798089429278     -0.23400518006723      0.00569180487133
| 37> H           3.38469806981809      1.06816708033014      0.01293395173092
| 38> *
| 39>
| 40>                          ****END OF INPUT****

CARTESIAN COORDINATES (ANGSTROEM)
---------------------------------
  C      1.332583    0.001701   -0.001600
  C      0.744185    1.287968   -0.004023
  C     -0.609908    1.403015   -0.002955
  C     -1.421348    0.239244   -0.001046
  C     -0.837552   -1.047992   -0.003345
  C      0.520832   -1.159089   -0.003019
  H      0.982487   -2.136577   -0.003387
  H     -1.451744   -1.933684   -0.003466
  O     -2.712976    0.457503    0.002771
  C     -3.629165   -0.655592    0.002828
  H     -4.615515   -0.208822    0.005589
  H     -3.484711   -1.251818   -0.894657
  H     -3.481406   -1.255377    0.897522
  H     -1.092824    2.369199   -0.002730
  H      1.369478    2.168739   -0.007021
  S      3.027981   -0.234005    0.005692
  H      3.384698    1.068167    0.012934

 Total Charge           Charge          ....    1
 Multiplicity           Mult            ....    2
 Number of Electrons    NEL             ....   73
 Basis Dimension        Dim             ....  602

ORBITAL ENERGIES
----------------
                 SPIN UP ORBITALS
  NO   OCC          E(Eh)            E(eV)
   0   1.0000     -88.974840     -2421.1285
   1   1.0000     -19.215906      -522.8914
   2   1.0000     -10.284187      -279.8470
   3   1.0000     -10.259377      -279.1718
   4   1.0000     -10.218243      -278.0525
   5   1.0000     -10.212636      -277.9000
   6   1.0000     -10.208022      -277.7744
   7   1.0000     -10.203307      -277.6461
   8   1.0000     -10.202862      -277.6340
   9   1.0000      -8.039493      -218.7657
  10   1.0000      -5.959915      -162.1775
  11   1.0000      -5.957541      -162.1129
  12   1.0000      -5.955856      -162.0671
  13   1.0000      -1.139961       -31.0199
  14   1.0000      -0.921023       -25.0623
  15   1.0000      -0.845058       -22.9952
  16   1.0000      -0.804661       -21.8959
  17   1.0000      -0.768333       -20.9074
  18   1.0000      -0.714087       -19.4313
  19   1.0000      -0.656144       -17.8546
  20   1.0000      -0.623072       -16.9546
  21   1.0000      -0.566413       -15.4129
  22   1.0000      -0.535193       -14.5633
  23   1.0000      -0.509509       -13.8644
  24   1.0000      -0.506185       -13.7740
  25   1.0000      -0.471924       -12.8417
  26   1.0000      -0.459604       -12.5065
  27   1.0000      -0.447441       -12.1755
  28   1.0000      -0.431693       -11.7470
  29   1.0000      -0.422592       -11.4993
  30   1.0000      -0.391354       -10.6493
  31   1.0000      -0.387293       -10.5388
  32   1.0000      -0.381579       -10.3833
  33   1.0000      -0.353915        -9.6305
  34   1.0000      -0.326880        -8.8949
  35   1.0000      -0.303814        -8.2672
  36   1.0000      -0.251694        -6.8489
  37   0.0000      -0.071366        -1.9420
  38   0.0000      -0.064333        -1.7506
  39   0.0000      -0.025093        -0.6828
  40   0.0000       0.008624         0.2347
  41   0.0000       0.013333         0.3628

                 SPIN DOWN ORBITALS
  NO   OCC          E(Eh)            E(eV)
   0   1.0000     -88.972719     -2421.0708
   1   1.0000     -19.210002      -522.7307
   2   1.0000     -10.281066      -279.7620
   3   1.0000     -10.254911      -279.0503
   4   1.0000     -10.218435      -278.0578
   5   1.0000     -10.211849      -277.8785
   6   1.0000     -10.208113      -277.7769
   7   1.0000     -10.202141      -277.6144
   8   1.0000     -10.202013      -277.6109
   9   1.0000      -8.037971      -218.7243
  10   1.0000      -5.958779      -162.1466
  11   1.0000      -5.954810      -162.0386
  12   1.0000      -5.951522      -161.9491
  13   1.0000      -1.130648       -30.7665
  14   1.0000      -0.912920       -24.8418
  15   1.0000      -0.836058       -22.7503
  16   1.0000      -0.802313       -21.8320
  17   1.0000      -0.763641       -20.7797
  18   1.0000      -0.705295       -19.1921
  19   1.0000      -0.651779       -17.7358
  20   1.0000      -0.617608       -16.8060
  21   1.0000      -0.564159       -15.3516
  22   1.0000      -0.533623       -14.5206
  23   1.0000      -0.506146       -13.7729
  24   1.0000      -0.488974       -13.3057
  25   1.0000      -0.469225       -12.7683
  26   1.0000      -0.458928       -12.4881
  27   1.0000      -0.444896       -12.1062
  28   1.0000      -0.420716       -11.4483
  29   1.0000      -0.413265       -11.2455
  30   1.0000      -0.389568       -10.6007
  31   1.0000      -0.376751       -10.2519
  32   1.0000      -0.367725       -10.0063
  33   1.0000      -0.350843        -9.5469
  34   1.0000      -0.301616        -8.2074
  35   1.0000      -0.296896        -8.0790
  36   0.0000      -0.195667        -5.3244
  37   0.0000      -0.053479        -1.4552
  38   0.0000      -0.040234        -1.0948
  39   0.0000      -0.022505        -0.6124
  40   0.0000       0.010002         0.2722

MULLIKEN ATOMIC CHARGES AND SPIN POPULATIONS
--------------------------------------------
   0 C :    0.862542    0.196052
   1 C :   -0.619173   -0.027751
   2 C :   -0.804935    0.056879
   3 C :    1.234185    0.173219
   4 C :   -0.198901    0.015839
   5 C :   -0.803321    0.051050
   6 H :    0.463207   -0.001222
   7 H :    0.456683    0.013944
   8 O :   -0.627973    0.171088
   9 C :   -0.677893   -0.016786
  10 H :    0.263849   -0.000780
  11 H :    0.304937    0.006975
  12 H :    0.304595    0.006987
  13 H :    0.587653    0.007440
  14 H :    0.327259   -0.000302
  15 S :   -0.249564    0.389762
  16 H :    0.176848   -0.042394
Sum of atomic charges         :    1.0000000

LOEWDIN ATOMIC CHARGES AND SPIN POPULATIONS
-------------------------------------------
   0 C :   -0.541840    0.167411
   1 C :    0.181167    0.041170
   2 C :    0.266075    0.065444
   3 C :   -0.343637    0.131276
   4 C :    0.267700    0.061325
   5 C :    0.166527    0.060529
   6 H :   -0.167139    0.003285
   7 H :   -0.170425    0.005973
   8 O :    0.653002    0.147740
   9 C :    0.447724    0.013580
  10 H :   -0.164987   -0.000538
  11 H :   -0.156702    0.003697
  12 H :   -0.156518    0.003690
  13 H :   -0.150471    0.007409
  14 H :   -0.169827   -0.000991
  15 S :    1.512338    0.251740
  16 H :   -0.472990    0.037258

  Mayer bond orders larger than 0.100000
B(  0-C ,  1-C ) :   0.7709 B(  0-C ,  5-C ) :   0.9525 B(  0-C , 15-S ) :   0.5034
B(  1-C ,  2-C ) :   1.4623 B(  1-C ,  3-C ) :  -0.2966 B(  1-C , 14-H ) :   0.7561
B(  2-C ,  3-C ) :   0.5702 B(  2-C ,  4-C ) :   0.1308 B(  2-C ,  8-O ) :   0.2940
B(  2-C , 13-H ) :   0.3074 B(  3-C ,  4-C ) :   0.8298 B(  3-C ,  5-C ) :  -0.2718
B(  3-C ,  8-O ) :   0.4914 B(  4-C ,  5-C ) :   1.0927 B(  4-C ,  7-H ) :   0.4612
B(  4-C ,  8-O ) :  -0.1729 B(  4-C ,  9-C ) :  -0.1232 B(  4-C , 15-S ) :   0.1201
B(  5-C ,  6-H ) :   0.6262 B(  5-C , 15-S ) :   0.1400 B(  8-O ,  9-C ) :   0.9617
B(  9-C , 10-H ) :   0.9730 B(  9-C , 11-H ) :   0.8848 B(  9-C , 12-H ) :   0.8851
B( 15-S , 16-H ) :   1.0354

Dispersion correction           -0.005733908
FINAL SINGLE POINT ENERGY      -744.683047855417

DIPOLE MOMENT
-------------

Method             : SCF
Type of density    : Electron Density
Multiplicity       :   2
Irrep              :   0
Energy             :  -744.6773139476249526 Eh
Relativity type    :
Basis              : AO
                                X                 Y                 Z
Electronic contribution:      7.628665073       0.920131802      -0.000106565
Nuclear contribution   :     -7.911451560      -1.064795381       0.000433146
                        -----------------------------------------
Total Dipole Moment    :     -0.282786487      -0.144663579       0.000326581
                        -----------------------------------------
Magnitude (a.u.)       :      0.317641079
Magnitude (Debye)      :      0.807379459

VIBRATIONAL FREQUENCIES
-----------------------

Scaling factor for frequencies =  1.000000000  (already applied!)

     0:       0.00 cm**-1
     1:       0.00 cm**-1
     2:       0.00 cm**-1
     3:       0.00 cm**-1
     4:       0.00 cm**-1
     5:       0.00 cm**-1
     6:      59.75 cm**-1
     7:     142.36 cm**-1
     8:     173.92 cm**-1
     9:     200.96 cm**-1
    10:     290.99 cm**-1
    11:     303.22 cm**-1
    12:     337.19 cm**-1
    13:     365.08 cm**-1
    14:     407.18 cm**-1
    15:     502.26 cm**-1
    16:     509.32 cm**-1
    17:     612.97 cm**-1
    18:     659.92 cm**-1
    19:     731.23 cm**-1
    20:     787.40 cm**-1
    21:     817.75 cm**-1
    22:     851.56 cm**-1
    23:     936.34 cm**-1
    24:     984.56 cm**-1
    25:     989.27 cm**-1
    26:    1004.42 cm**-1
    27:    1009.89 cm**-1
    28:    1144.23 cm**-1
    29:    1144.62 cm**-1
    30:    1169.13 cm**-1
    31:    1203.41 cm**-1
    32:    1207.93 cm**-1
    33:    1324.38 cm**-1
    34:    1356.14 cm**-1
    35:    1374.22 cm**-1
    36:    1457.76 cm**-1
    37:    1478.00 cm**-1
    38:    1480.66 cm**-1
    39:    1509.44 cm**-1
    40:    1523.70 cm**-1
    41:    1528.86 cm**-1
    42:    1663.43 cm**-1
    43:    2640.32 cm**-1
    44:    3075.27 cm**-1
    45:    3168.67 cm**-1
    46:    3208.19 cm**-1
    47:    3211.82 cm**-1
    48:    3218.61 cm**-1
    49:    3232.49 cm**-1
    50:    3252.06 cm**-1

IR SPECTRUM
-----------

 Mode   freq       eps      Int      T**2         TX        TY        TZ
       cm**-1   L/(mol*cm) km/mol    a.u.
----------------------------------------------------------------------------
  6:     59.75   0.000147    0.74  0.000768  ( 0.000833 -0.000048 -0.027703)
  7:    142.36   0.001547    7.82  0.003390  (-0.002040 -0.000395  0.058191)
  8:    173.92   0.000027    0.14  0.000048  (-0.003855  0.000928 -0.005683)
  9:    200.96   0.001614    8.16  0.002507  (-0.049435  0.007931 -0.000484)
 10:    290.99   0.001272    6.43  0.001364  ( 0.000869  0.000278  0.036922)
 11:    303.22   0.000310    1.57  0.000319  ( 0.015574 -0.008735 -0.000276)
 12:    337.19   0.003907   19.75  0.003616  ( 0.001262  0.000590 -0.060117)
 13:    365.08   0.000342    1.73  0.000292  (-0.014832 -0.008415 -0.001092)
 14:    407.18   0.002242   11.33  0.001718  (-0.000993  0.000370  0.041441)
 15:    502.26   0.005767   29.14  0.003583  (-0.000464 -0.000177  0.059856)
 16:    509.32   0.001277    6.45  0.000782  (-0.027312  0.005972  0.000720)
 17:    612.97   0.000150    0.76  0.000077  (-0.005627  0.006700  0.000099)
 18:    659.92   0.023503  118.78  0.011114  (-0.104154  0.016318  0.000063)
 19:    731.23   0.000137    0.69  0.000058  (-0.000451 -0.000287 -0.007620)
 20:    787.40   0.000033    0.17  0.000013  (-0.000491  0.000250 -0.003579)
 21:    817.75   0.001889    9.54  0.000721  (-0.023015 -0.013805 -0.000697)
 22:    851.56   0.022768  115.06  0.008344  (-0.000962  0.000121  0.091339)
 23:    936.34   0.006351   32.10  0.002117  (-0.037787 -0.026245  0.000355)
 24:    984.56   0.000003    0.02  0.000001  (-0.000900  0.000177 -0.000352)
 25:    989.27   0.000034    0.17  0.000011  ( 0.001511  0.002147  0.001955)
 26:   1004.42   0.002722   13.75  0.000846  ( 0.004976  0.028649 -0.000018)
 27:   1009.89   0.029353  148.34  0.009070  (-0.088476 -0.035246 -0.000053)
 28:   1144.23   0.010842   54.79  0.002957  ( 0.049403 -0.022721  0.000298)
 29:   1144.62   0.005335   26.96  0.001455  ( 0.029800  0.023803  0.000060)
 30:   1169.13   0.000077    0.39  0.000021  (-0.000607  0.000599 -0.004448)
 31:   1203.41   0.017841   90.16  0.004626  (-0.067755 -0.005980 -0.000150)
 32:   1207.93   0.002074   10.48  0.000536  (-0.023146  0.000228 -0.000175)
 33:   1324.38   0.001706    8.62  0.000402  ( 0.009838  0.017469 -0.000120)
 34:   1356.14   0.057542  290.79  0.013241  ( 0.114495  0.011490 -0.000099)
 35:   1374.22   0.051418  259.84  0.011676  ( 0.107991 -0.003739 -0.000039)
 36:   1457.76   0.047332  239.20  0.010132  (-0.097663  0.024381  0.000180)
 37:   1478.00   0.005125   25.90  0.001082  (-0.013775 -0.001496 -0.029833)
 38:   1480.66   0.011511   58.17  0.002426  (-0.048020 -0.006190  0.009042)
 39:   1509.44   0.013089   66.15  0.002706  ( 0.048970  0.017550  0.000102)
 40:   1523.70   0.039123  197.71  0.008013  (-0.086520  0.022958 -0.000046)
 41:   1528.86   0.079972  404.14  0.016323  ( 0.127702  0.003957 -0.000011)
 42:   1663.43   0.019412   98.10  0.003642  (-0.060335 -0.001157  0.000162)
 43:   2640.32   0.025904  130.91  0.003062  ( 0.048029  0.027471  0.000371)
 44:   3075.27   0.006183   31.25  0.000627  ( 0.022303  0.011400  0.000241)
 45:   3168.67   0.001780    9.00  0.000175  ( 0.000528  0.000421  0.013224)
 46:   3208.19   0.002925   14.78  0.000285  (-0.016596  0.003023  0.000083)
 47:   3211.82   0.000179    0.90  0.000017  ( 0.000001  0.004169 -0.000025)
 48:   3218.61   0.000017    0.08  0.000002  ( 0.001231 -0.000145  0.000273)
 49:   3232.49   0.000568    2.87  0.000055  ( 0.003045  0.006749  0.000001)
 50:   3252.06   0.000908    4.59  0.000087  (-0.000401  0.009328  0.000043)

--------------------------
THERMOCHEMISTRY AT 298.15K
--------------------------

Temperature         ...   298.15 K
Pressure            ...     1.00 atm
Total Mass          ...   140.20 AMU
Quasi RRHO          ...     True
Cut-Off Frequency   ...     1.00 cm^-1

Throughout the following assumptions are being made:
  (1) The electronic state is orbitally nondegenerate
      but the spin degeneracy is treated
  (2) There are no thermally accessible electronically excited states
  (3) Hindered rotations indicated by low frequency modes are not
      treated as such but are treated as vibrations and this may
      cause some error
  (4) All equations used are the standard statistical mechanics
      equations for an ideal gas
  (5) All vibrations are strictly harmonic

freq.      59.75  E(vib)   ...       0.51
freq.     142.36  E(vib)   ...       0.41
freq.     173.92  E(vib)   ...       0.38
freq.     200.96  E(vib)   ...       0.35
freq.     290.99  E(vib)   ...       0.27
freq.     303.22  E(vib)   ...       0.26
freq.     337.19  E(vib)   ...       0.24
freq.     365.08  E(vib)   ...       0.22
freq.     407.18  E(vib)   ...       0.19
freq.     502.26  E(vib)   ...       0.14
freq.     509.32  E(vib)   ...       0.14
freq.     612.97  E(vib)   ...       0.10
freq.     659.92  E(vib)   ...       0.08
freq.     731.23  E(vib)   ...       0.06
freq.     787.40  E(vib)   ...       0.05
freq.     817.75  E(vib)   ...       0.05
freq.     851.56  E(vib)   ...       0.04
freq.     936.34  E(vib)   ...       0.03
freq.     984.56  E(vib)   ...       0.02
freq.     989.27  E(vib)   ...       0.02
freq.    1004.42  E(vib)   ...       0.02
freq.    1009.89  E(vib)   ...       0.02
freq.    1144.23  E(vib)   ...       0.01
freq.    1144.62  E(vib)   ...       0.01
freq.    1169.13  E(vib)   ...       0.01
freq.    1203.41  E(vib)   ...       0.01
freq.    1207.93  E(vib)   ...       0.01
freq.    1324.38  E(vib)   ...       0.01
freq.    1356.14  E(vib)   ...       0.01
freq.    1374.22  E(vib)   ...       0.01
freq.    1457.76  E(vib)   ...       0.00
freq.    1478.00  E(vib)   ...       0.00
freq.    1480.66  E(vib)   ...       0.00
freq.    1509.44  E(vib)   ...       0.00
freq.    1523.70  E(vib)   ...       0.00
freq.    1528.86  E(vib)   ...       0.00
freq.    1663.43  E(vib)   ...       0.00
freq.    2640.32  E(vib)   ...       0.00
freq.    3075.27  E(vib)   ...       0.00
freq.    3168.67  E(vib)   ...       0.00
freq.    3208.19  E(vib)   ...       0.00
freq.    3211.82  E(vib)   ...       0.00
freq.    3218.61  E(vib)   ...       0.00
freq.    3232.49  E(vib)   ...       0.00
freq.    3252.06  E(vib)   ...       0.00

------------
INNER ENERGY
------------

The inner energy is: U= E(el) + E(ZPE) + E(vib) + E(rot) + E(trans)
    E(el)   - is the total energy from the electronic structure calculation
              = E(kin-el) + E(nuc-el) + E(el-el) + E(nuc-nuc)
    E(ZPE)  - the the zero temperature vibrational energy from the frequency calculation
    E(vib)  - the the finite temperature correction to E(ZPE) due to population
              of excited vibrational states
    E(rot)  - is the rotational thermal energy
    E(trans)- is the translational thermal energy

Summary of contributions to the inner energy U:
Electronic energy                ...   -744.68304786 Eh
Zero point energy                ...      0.13270536 Eh      83.27 kcal/mol
Thermal vibrational correction   ...      0.00589758 Eh       3.70 kcal/mol
Thermal rotational correction    ...      0.00141627 Eh       0.89 kcal/mol
Thermal translational correction ...      0.00141627 Eh       0.89 kcal/mol
-----------------------------------------------------------------------
Total thermal energy                   -744.54161237 Eh

Summary of corrections to the electronic energy:
(perhaps to be used in another calculation)
Total thermal correction                  0.00873012 Eh       5.48 kcal/mol
Non-thermal (ZPE) correction              0.13270536 Eh      83.27 kcal/mol
-----------------------------------------------------------------------
Total correction                          0.14143548 Eh      88.75 kcal/mol

--------
ENTHALPY
--------

The enthalpy is H = U + kB*T
                kB is Boltzmann's constant
Total thermal energy              ...   -744.54161237 Eh
Thermal Enthalpy correction       ...      0.00094421 Eh       0.59 kcal/mol
-----------------------------------------------------------------------
Total Enthalpy                    ...   -744.54066816 Eh

Note: Only C1 symmetry has been detected, increase convergence thresholds
      if your molecule has a higher symmetry. Symmetry factor of 1.0 is
      used for the rotational entropy correction.

Note: Rotational entropy computed according to Herzberg
Infrared and Raman Spectra, Chapter V,1, Van Nostrand Reinhold, 1945
Point Group:  C1, Symmetry Number:   1
Rotational constants in cm-1:     0.155229     0.023960     0.020839

Vibrational entropy computed according to the QRRHO of S. Grimme
Chem.Eur.J. 2012 18 9955 using a reference frequency of 100.0 cm-1

-------
ENTROPY
-------

The entropy contributions are T*S = T*(S(el)+S(vib)+S(rot)+S(trans))
     S(el)   - electronic entropy
     S(vib)  - vibrational entropy
     S(rot)  - rotational entropy
     S(trans)- translational entropy
The entropies will be listed as multiplied by the temperature to get
units of energy

Electronic entropy                ...      0.00065446 Eh      0.41 kcal/mol
Vibrational entropy               ...      0.00982144 Eh      6.16 kcal/mol
Rotational entropy                ...      0.01397921 Eh      8.77 kcal/mol
Translational entropy             ...      0.01934980 Eh     12.14 kcal/mol
-----------------------------------------------------------------------
Final entropy term                ...      0.04380490 Eh     27.49 kcal/mol

In case the symmetry of your molecule has not been determined correctly
or in case you have a reason to use a different symmetry number we print
out the resulting rotational entropy values for sn=1,12:

 non-linear molecules -----------------------------------
|  sn= 1 | S(rot)=       0.01397921 Eh      8.77 kcal/mol|
|  sn= 2 | S(rot)=       0.01332475 Eh      8.36 kcal/mol|
|  sn= 3 | S(rot)=       0.01294192 Eh      8.12 kcal/mol|
|  sn= 4 | S(rot)=       0.01267029 Eh      7.95 kcal/mol|
|  sn= 5 | S(rot)=       0.01245960 Eh      7.82 kcal/mol|
|  sn= 6 | S(rot)=       0.01228746 Eh      7.71 kcal/mol|
|  sn= 7 | S(rot)=       0.01214191 Eh      7.62 kcal/mol|
|  sn= 8 | S(rot)=       0.01201584 Eh      7.54 kcal/mol|
|  sn= 9 | S(rot)=       0.01190463 Eh      7.47 kcal/mol|
|  sn=10 | S(rot)=       0.01180515 Eh      7.41 kcal/mol|
|  sn=11 | S(rot)=       0.01171516 Eh      7.35 kcal/mol|
|  sn=12 | S(rot)=       0.01163300 Eh      7.30 kcal/mol|
 linear molecules ---------------------------------------
|  Dinfh | S(rot)=       0.00898064 Eh      5.64 kcal/mol|

                             ****ORCA TERMINATED NORMALLY****
TOTAL RUN TIME: 0 days 0 hours 54 minutes 21 seconds 685 msec
