                         Program Version 6.0.0  -   RELEASE  -
|  1> !PBE0 freq def2-SV(p) d3 TightSCF SlowConv RIJCOSX defgrid2
|  2>
|  3> %pal
|  4> nprocs 12
|  5> end
|  6>
|  7> %scf
|  8> MaxIter 1500
|  9> end
| 10>
| 11> %maxcore 5000
| 12>
| 13> !CPCM
| 14> %cpcm smd true
| 15> SMDsolvent "MeCN"
| 16> surfacetype gepol_ses
| 17> rsolv 2.19
| 18> end
| 19>
| 20> * xyz 0 1
| 21> C          -1.15002892563219     -1.24227030824590     -0.00068689095473
| 22> C          -2.50893584528840     -0.95127255958232     -0.00068799517813
| 23> C          -2.93695602596559      0.37878524222099      0.00005293866179
| 24> C          -2.00422035116986      1.41730394817568      0.00042503694269
| 25> C          -0.64181134294560      1.13257108472178      0.00017856368416
| 26> C          -0.20815948427233     -0.19975352643346     -0.00017748380929
| 27> C           1.21361721282608     -0.59699264690886      0.00051077693471
| 28> O           1.63326551677283     -1.70975518046604      0.00098240148350
| 29> Cl          2.38401073561210      0.76681650782737      0.00041082854364
| 30> H           0.08722821683361      1.94526780287790      0.00019615996744
| 31> H          -2.34001166188722      2.45787737703120      0.00153848377484
| 32> H          -4.00692476932789      0.60689619518630      0.00048038344998
| 33> H          -3.24003529669949     -1.76457610429712     -0.00130155082169
| 34> H          -0.80171517885605     -2.27796383210752     -0.00142695267890
| 35> *
| 36>
| 37>                          ****END OF INPUT****

CARTESIAN COORDINATES (ANGSTROEM)
---------------------------------
  C     -1.150029   -1.242270   -0.000687
  C     -2.508936   -0.951273   -0.000688
  C     -2.936956    0.378785    0.000053
  C     -2.004220    1.417304    0.000425
  C     -0.641811    1.132571    0.000179
  C     -0.208159   -0.199754   -0.000177
  C      1.213617   -0.596993    0.000511
  O      1.633266   -1.709755    0.000982
  Cl     2.384011    0.766817    0.000411
  H      0.087228    1.945268    0.000196
  H     -2.340012    2.457877    0.001538
  H     -4.006925    0.606896    0.000480
  H     -3.240035   -1.764576   -0.001302
  H     -0.801715   -2.277964   -0.001427

 Total Charge           Charge          ....    0
 Multiplicity           Mult            ....    1
 Number of Electrons    NEL             ....   72
 Basis Dimension        Dim             ....  140

ORBITAL ENERGIES
----------------

  NO   OCC          E(Eh)            E(eV)
   0   2.0000    -101.684228     -2766.9685
   1   2.0000     -19.239310      -523.5283
   2   2.0000     -10.383272      -282.5432
   3   2.0000     -10.268971      -279.4329
   4   2.0000     -10.255998      -279.0799
   5   2.0000     -10.255192      -279.0580
   6   2.0000     -10.252439      -278.9830
   7   2.0000     -10.247394      -278.8458
   8   2.0000     -10.247376      -278.8453
   9   2.0000      -9.536408      -259.4988
  10   2.0000      -7.276793      -198.0116
  11   2.0000      -7.268956      -197.7984
  12   2.0000      -7.267820      -197.7674
  13   2.0000      -1.111851       -30.2550
  14   2.0000      -0.898770       -24.4568
  15   2.0000      -0.869853       -23.6699
  16   2.0000      -0.791824       -21.5466
  17   2.0000      -0.777006       -21.1434
  18   2.0000      -0.668230       -18.1835
  19   2.0000      -0.633647       -17.2424
  20   2.0000      -0.583282       -15.8719
  21   2.0000      -0.542911       -14.7734
  22   2.0000      -0.505581       -13.7576
  23   2.0000      -0.491381       -13.3712
  24   2.0000      -0.469585       -12.7781
  25   2.0000      -0.463894       -12.6232
  26   2.0000      -0.461908       -12.5692
  27   2.0000      -0.447546       -12.1784
  28   2.0000      -0.396462       -10.7883
  29   2.0000      -0.383404       -10.4330
  30   2.0000      -0.367938       -10.0121
  31   2.0000      -0.338818        -9.2197
  32   2.0000      -0.337828        -9.1928
  33   2.0000      -0.310506        -8.4493
  34   2.0000      -0.287675        -7.8280
  35   2.0000      -0.283146        -7.7048
  36   0.0000      -0.072968        -1.9856
  37   0.0000      -0.016583        -0.4512
  38   0.0000       0.034597         0.9414
  39   0.0000       0.049617         1.3501
  40   0.0000       0.086170         2.3448

MULLIKEN ATOMIC CHARGES
-----------------------
   0 C :   -0.119784
   1 C :   -0.112426
   2 C :   -0.086114
   3 C :   -0.111060
   4 C :   -0.106479
   5 C :   -0.012106
   6 C :    0.186047
   7 O :   -0.166130
   8 Cl:   -0.156301
   9 H :    0.131903
  10 H :    0.137526
  11 H :    0.141888
  12 H :    0.139189
  13 H :    0.133847
Sum of atomic charges:    0.0000000

LOEWDIN ATOMIC CHARGES
----------------------
   0 C :   -0.088211
   1 C :   -0.127518
   2 C :   -0.098260
   3 C :   -0.127780
   4 C :   -0.102745
   5 C :   -0.116545
   6 C :   -0.003261
   7 O :   -0.126482
   8 Cl:    0.046373
   9 H :    0.142127
  10 H :    0.150199
  11 H :    0.150844
  12 H :    0.150510
  13 H :    0.150750

  Mayer bond orders larger than 0.100000
B(  0-C ,  1-C ) :   1.4012 B(  0-C ,  5-C ) :   1.3452 B(  0-C , 13-H ) :   0.9601
B(  1-C ,  2-C ) :   1.3626 B(  1-C , 12-H ) :   0.9626 B(  2-C ,  3-C ) :   1.3769
B(  2-C , 11-H ) :   0.9604 B(  3-C ,  4-C ) :   1.4047 B(  3-C , 10-H ) :   0.9613
B(  4-C ,  5-C ) :   1.3481 B(  4-C ,  9-H ) :   0.9415 B(  5-C ,  6-C ) :   0.9653
B(  6-C ,  7-O ) :   2.1599 B(  6-C ,  8-Cl) :   1.0013 B(  7-O ,  8-Cl) :   0.1137

Dispersion correction           -0.014176533
FINAL SINGLE POINT ENERGY      -804.260614721824

DIPOLE MOMENT
-------------

Method             : SCF
Type of density    : Electron Density
Multiplicity       :   1
Irrep              :   0
Energy             :  -804.2464381887947411 Eh
Relativity type    :
Basis              : AO
                                X                 Y                 Z
Electronic contribution:     11.083458324       0.746825445       0.001166166
Nuclear contribution   :    -12.872295586      -0.148419226      -0.001620159
                        -----------------------------------------
Total Dipole Moment    :     -1.788837262       0.598406219      -0.000453992
                        -----------------------------------------
Magnitude (a.u.)       :      1.886273830
Magnitude (Debye)      :      4.794527048

VIBRATIONAL FREQUENCIES
-----------------------

Scaling factor for frequencies =  1.000000000  (already applied!)

     0:       0.00 cm**-1
     1:       0.00 cm**-1
     2:       0.00 cm**-1
     3:       0.00 cm**-1
     4:       0.00 cm**-1
     5:       0.00 cm**-1
     6:      34.16 cm**-1
     7:     150.17 cm**-1
     8:     192.73 cm**-1
     9:     324.17 cm**-1
    10:     414.19 cm**-1
    11:     428.12 cm**-1
    12:     436.42 cm**-1
    13:     516.51 cm**-1
    14:     624.20 cm**-1
    15:     671.74 cm**-1
    16:     687.88 cm**-1
    17:     706.21 cm**-1
    18:     805.19 cm**-1
    19:     864.37 cm**-1
    20:     895.12 cm**-1
    21:     974.40 cm**-1
    22:    1015.77 cm**-1
    23:    1017.61 cm**-1
    24:    1043.58 cm**-1
    25:    1056.33 cm**-1
    26:    1106.76 cm**-1
    27:    1154.17 cm**-1
    28:    1171.74 cm**-1
    29:    1247.46 cm**-1
    30:    1324.90 cm**-1
    31:    1412.15 cm**-1
    32:    1487.90 cm**-1
    33:    1528.28 cm**-1
    34:    1664.11 cm**-1
    35:    1681.92 cm**-1
    36:    1884.94 cm**-1
    37:    3209.11 cm**-1
    38:    3218.92 cm**-1
    39:    3226.51 cm**-1
    40:    3234.08 cm**-1
    41:    3242.25 cm**-1

IR SPECTRUM
-----------

 Mode   freq       eps      Int      T**2         TX        TY        TZ
       cm**-1   L/(mol*cm) km/mol    a.u.
----------------------------------------------------------------------------
  6:     34.16   0.000077    0.39  0.000700  ( 0.000520  0.000683  0.026440)
  7:    150.17   0.000038    0.19  0.000078  ( 0.000165  0.000321 -0.008852)
  8:    192.73   0.000272    1.38  0.000441  (-0.017755 -0.011203 -0.000047)
  9:    324.17   0.003684   18.62  0.003547  (-0.048664 -0.034332 -0.000007)
 10:    414.19   0.000001    0.00  0.000001  (-0.000027 -0.000431  0.000696)
 11:    428.12   0.002483   12.55  0.001810  (-0.018474 -0.038318  0.000141)
 12:    436.42   0.000045    0.23  0.000032  ( 0.000185  0.000577  0.005655)
 13:    516.51   0.001617    8.17  0.000977  ( 0.015822  0.026953 -0.000024)
 14:    624.20   0.000434    2.19  0.000217  ( 0.013380  0.006139  0.000366)
 15:    671.74   0.010797   54.56  0.005016  ( 0.000297  0.000066  0.070822)
 16:    687.88   0.029865  150.92  0.013548  ( 0.105362  0.049470  0.000030)
 17:    706.21   0.013749   69.48  0.006075  ( 0.000536  0.000293 -0.077942)
 18:    805.19   0.003013   15.23  0.001168  (-0.000161  0.000141  0.034170)
 19:    864.37   0.000013    0.07  0.000005  ( 0.000275  0.000275  0.002159)
 20:    895.12   0.068082  344.06  0.023735  (-0.136548 -0.071344 -0.000050)
 21:    974.40   0.000259    1.31  0.000083  ( 0.000140  0.000129 -0.009113)
 22:   1015.77   0.000009    0.05  0.000003  (-0.000028 -0.001155 -0.001218)
 23:   1017.61   0.000284    1.43  0.000087  ( 0.000622 -0.009306 -0.000000)
 24:   1043.58   0.000011    0.05  0.000003  (-0.000178 -0.000122 -0.001778)
 25:   1056.33   0.001364    6.89  0.000403  (-0.017953  0.008986  0.000065)
 26:   1106.76   0.003330   16.83  0.000939  ( 0.003859 -0.030398  0.000021)
 27:   1154.17   0.000124    0.63  0.000033  ( 0.000106  0.005783  0.000017)
 28:   1171.74   0.007411   37.45  0.001974  (-0.044420 -0.000791 -0.000006)
 29:   1247.46   0.068548  346.41  0.017148  (-0.129057 -0.022186  0.000004)
 30:   1324.90   0.001063    5.37  0.000250  (-0.008661 -0.013246  0.000053)
 31:   1412.15   0.003097   15.65  0.000684  (-0.003176  0.025967  0.000001)
 32:   1487.90   0.008240   41.64  0.001728  (-0.023956 -0.033976 -0.000011)
 33:   1528.28   0.000438    2.21  0.000089  (-0.005665 -0.007575 -0.000007)
 34:   1664.11   0.003283   16.59  0.000616  (-0.022967  0.009385  0.000002)
 35:   1681.92   0.013460   68.02  0.002497  ( 0.048081 -0.013622 -0.000005)
 36:   1884.94   0.113151  571.82  0.018733  ( 0.054899 -0.125375  0.000049)
 37:   3209.11   0.000095    0.48  0.000009  ( 0.002772 -0.001237 -0.000028)
 38:   3218.92   0.001217    6.15  0.000118  ( 0.003142  0.010397 -0.000029)
 39:   3226.51   0.001213    6.13  0.000117  (-0.009015  0.006005 -0.000061)
 40:   3234.08   0.001200    6.06  0.000116  ( 0.010046  0.003853 -0.000018)
 41:   3242.25   0.000264    1.33  0.000025  (-0.004453  0.002353  0.000038)

--------------------------
THERMOCHEMISTRY AT 298.15K
--------------------------

Temperature         ...   298.15 K
Pressure            ...     1.00 atm
Total Mass          ...   140.57 AMU
Quasi RRHO          ...     True
Cut-Off Frequency   ...     1.00 cm^-1

Throughout the following assumptions are being made:
  (1) The electronic state is orbitally nondegenerate
  (2) There are no thermally accessible electronically excited states
  (3) Hindered rotations indicated by low frequency modes are not
      treated as such but are treated as vibrations and this may
      cause some error
  (4) All equations used are the standard statistical mechanics
      equations for an ideal gas
  (5) All vibrations are strictly harmonic

freq.      34.16  E(vib)   ...       0.55
freq.     150.17  E(vib)   ...       0.40
freq.     192.73  E(vib)   ...       0.36
freq.     324.17  E(vib)   ...       0.25
freq.     414.19  E(vib)   ...       0.19
freq.     428.12  E(vib)   ...       0.18
freq.     436.42  E(vib)   ...       0.17
freq.     516.51  E(vib)   ...       0.13
freq.     624.20  E(vib)   ...       0.09
freq.     671.74  E(vib)   ...       0.08
freq.     687.88  E(vib)   ...       0.07
freq.     706.21  E(vib)   ...       0.07
freq.     805.19  E(vib)   ...       0.05
freq.     864.37  E(vib)   ...       0.04
freq.     895.12  E(vib)   ...       0.03
freq.     974.40  E(vib)   ...       0.03
freq.    1015.77  E(vib)   ...       0.02
freq.    1017.61  E(vib)   ...       0.02
freq.    1043.58  E(vib)   ...       0.02
freq.    1056.33  E(vib)   ...       0.02
freq.    1106.76  E(vib)   ...       0.02
freq.    1154.17  E(vib)   ...       0.01
freq.    1171.74  E(vib)   ...       0.01
freq.    1247.46  E(vib)   ...       0.01
freq.    1324.90  E(vib)   ...       0.01
freq.    1412.15  E(vib)   ...       0.00
freq.    1487.90  E(vib)   ...       0.00
freq.    1528.28  E(vib)   ...       0.00
freq.    1664.11  E(vib)   ...       0.00
freq.    1681.92  E(vib)   ...       0.00
freq.    1884.94  E(vib)   ...       0.00
freq.    3209.11  E(vib)   ...       0.00
freq.    3218.92  E(vib)   ...       0.00
freq.    3226.51  E(vib)   ...       0.00
freq.    3234.08  E(vib)   ...       0.00
freq.    3242.25  E(vib)   ...       0.00

------------
INNER ENERGY
------------

The inner energy is: U= E(el) + E(ZPE) + E(vib) + E(rot) + E(trans)
    E(el)   - is the total energy from the electronic structure calculation
              = E(kin-el) + E(nuc-el) + E(el-el) + E(nuc-nuc)
    E(ZPE)  - the the zero temperature vibrational energy from the frequency calculation
    E(vib)  - the the finite temperature correction to E(ZPE) due to population
              of excited vibrational states
    E(rot)  - is the rotational thermal energy
    E(trans)- is the translational thermal energy

Summary of contributions to the inner energy U:
Electronic energy                ...   -804.26061472 Eh
Zero point energy                ...      0.10172952 Eh      63.84 kcal/mol
Thermal vibrational correction   ...      0.00451438 Eh       2.83 kcal/mol
Thermal rotational correction    ...      0.00141627 Eh       0.89 kcal/mol
Thermal translational correction ...      0.00141627 Eh       0.89 kcal/mol
-----------------------------------------------------------------------
Total thermal energy                   -804.15153828 Eh

Summary of corrections to the electronic energy:
(perhaps to be used in another calculation)
Total thermal correction                  0.00734692 Eh       4.61 kcal/mol
Non-thermal (ZPE) correction              0.10172952 Eh      63.84 kcal/mol
-----------------------------------------------------------------------
Total correction                          0.10907644 Eh      68.45 kcal/mol

--------
ENTHALPY
--------

The enthalpy is H = U + kB*T
                kB is Boltzmann's constant
Total thermal energy              ...   -804.15153828 Eh
Thermal Enthalpy correction       ...      0.00094421 Eh       0.59 kcal/mol
-----------------------------------------------------------------------
Total Enthalpy                    ...   -804.15059407 Eh

Note: Only C1 symmetry has been detected, increase convergence thresholds
      if your molecule has a higher symmetry. Symmetry factor of 1.0 is
      used for the rotational entropy correction.

Note: Rotational entropy computed according to Herzberg
Infrared and Raman Spectra, Chapter V,1, Van Nostrand Reinhold, 1945
Point Group:  C1, Symmetry Number:   1
Rotational constants in cm-1:     0.104266     0.031011     0.023902

Vibrational entropy computed according to the QRRHO of S. Grimme
Chem.Eur.J. 2012 18 9955 using a reference frequency of 100.0 cm-1

-------
ENTROPY
-------

The entropy contributions are T*S = T*(S(el)+S(vib)+S(rot)+S(trans))
     S(el)   - electronic entropy
     S(vib)  - vibrational entropy
     S(rot)  - rotational entropy
     S(trans)- translational entropy
The entropies will be listed as multiplied by the temperature to get
units of energy

Electronic entropy                ...      0.00000000 Eh      0.00 kcal/mol
Vibrational entropy               ...      0.00754997 Eh      4.74 kcal/mol
Rotational entropy                ...      0.01398058 Eh      8.77 kcal/mol
Translational entropy             ...      0.01935352 Eh     12.14 kcal/mol
-----------------------------------------------------------------------
Final entropy term                ...      0.04088407 Eh     25.66 kcal/mol

In case the symmetry of your molecule has not been determined correctly
or in case you have a reason to use a different symmetry number we print
out the resulting rotational entropy values for sn=1,12:

 non-linear molecules -----------------------------------
|  sn= 1 | S(rot)=       0.01398058 Eh      8.77 kcal/mol|
|  sn= 2 | S(rot)=       0.01332612 Eh      8.36 kcal/mol|
|  sn= 3 | S(rot)=       0.01294329 Eh      8.12 kcal/mol|
|  sn= 4 | S(rot)=       0.01267167 Eh      7.95 kcal/mol|
|  sn= 5 | S(rot)=       0.01246098 Eh      7.82 kcal/mol|
|  sn= 6 | S(rot)=       0.01228883 Eh      7.71 kcal/mol|
|  sn= 7 | S(rot)=       0.01214329 Eh      7.62 kcal/mol|
|  sn= 8 | S(rot)=       0.01201721 Eh      7.54 kcal/mol|
|  sn= 9 | S(rot)=       0.01190600 Eh      7.47 kcal/mol|
|  sn=10 | S(rot)=       0.01180652 Eh      7.41 kcal/mol|
|  sn=11 | S(rot)=       0.01171653 Eh      7.35 kcal/mol|
|  sn=12 | S(rot)=       0.01163438 Eh      7.30 kcal/mol|
 linear molecules ---------------------------------------
|  Dinfh | S(rot)=       0.00885119 Eh      5.55 kcal/mol|
|  Cinfv | S(rot)=       0.00950565 Eh      5.96 kcal/mol|
 --------------------------------------------------------

-------------------
GIBBS FREE ENERGY
-------------------

The Gibbs free energy is G = H - T*S

                             ****ORCA TERMINATED NORMALLY****
TOTAL RUN TIME: 0 days 0 hours 22 minutes 55 seconds 76 msec
