                         Program Version 6.0.0  -   RELEASE  -
|  1> !r2SCANh aug-cc-pVTZ d3 TightSCF SlowConv RIJCOSX defgrid2
|  2>
|  3> %pal
|  4> nprocs 4
|  5> end
|  6>
|  7> %scf
|  8> MaxIter 1500
|  9> end
| 10>
| 11> %maxcore 3000
| 12>
| 13> !CPCM
| 14> %cpcm smd true
| 15> SMDsolvent "MeCN"
| 16> surfacetype gepol_ses
| 17> rsolv 2.19
| 18> end
| 19>
| 20> * xyz 0 1
| 21> C          -1.20884186796781     -0.02278058914418      0.00003742233159
| 22> C          -1.20709913160620      1.38045218788773      0.00016703364523
| 23> C           0.00003556987027      2.07238258705511      0.00002257197541
| 24> C           1.20714414585697      1.38040506278913     -0.00023783478174
| 25> C           1.20883517896309     -0.02282737272555     -0.00031075934043
| 26> C          -0.00001674938231     -0.72722788932514     -0.00021243594479
| 27> H          -0.00003875372447     -1.81890955720448     -0.00030359455707
| 28> C           2.45039282749013     -0.73822162648839     -0.00031862016213
| 29> N           3.45665781045797     -1.31294485312421      0.00119491286029
| 30> H           2.15765649045058      1.91893621365633     -0.00034701835738
| 31> H           0.00005970442079      3.16546819660540      0.00011390445176
| 32> H          -2.15759482922730      1.91901494079977      0.00036663554396
| 33> C          -2.45042247590246     -0.73813543850926      0.00010406543100
| 34> N          -3.45670371969924     -1.31283236227226     -0.00021618309569
| 35> *
| 36>
| 37>                          ****END OF INPUT****

CARTESIAN COORDINATES (ANGSTROEM)
---------------------------------
  C     -1.208842   -0.022781    0.000037
  C     -1.207099    1.380452    0.000167
  C      0.000036    2.072383    0.000023
  C      1.207144    1.380405   -0.000238
  C      1.208835   -0.022827   -0.000311
  C     -0.000017   -0.727228   -0.000212
  H     -0.000039   -1.818910   -0.000304
  C      2.450393   -0.738222   -0.000319
  N      3.456658   -1.312945    0.001195
  H      2.157656    1.918936   -0.000347
  H      0.000060    3.165468    0.000114
  H     -2.157595    1.919015    0.000367
  C     -2.450422   -0.738135    0.000104
  N     -3.456704   -1.312832   -0.000216

 Total Charge           Charge          ....    0
 Multiplicity           Mult            ....    1
 Number of Electrons    NEL             ....   66
 Basis Dimension        Dim             ....  552

ORBITAL ENERGIES
----------------

  NO   OCC          E(Eh)            E(eV)
   0   2.0000     -14.320515      -389.6810
   1   2.0000     -14.320513      -389.6810
   2   2.0000     -10.224917      -278.2341
   3   2.0000     -10.224905      -278.2338
   4   2.0000     -10.218508      -278.0598
   5   2.0000     -10.218503      -278.0596
   6   2.0000     -10.207627      -277.7636
   7   2.0000     -10.199616      -277.5457
   8   2.0000     -10.199597      -277.5451
   9   2.0000     -10.187877      -277.2262
  10   2.0000      -0.933008       -25.3884
  11   2.0000      -0.928059       -25.2538
  12   2.0000      -0.895094       -24.3567
  13   2.0000      -0.807985       -21.9864
  14   2.0000      -0.788491       -21.4559
  15   2.0000      -0.667113       -18.1531
  16   2.0000      -0.662494       -18.0274
  17   2.0000      -0.592140       -16.1130
  18   2.0000      -0.505172       -13.7464
  19   2.0000      -0.502412       -13.6713
  20   2.0000      -0.488813       -13.3013
  21   2.0000      -0.443087       -12.0570
  22   2.0000      -0.424000       -11.5376
  23   2.0000      -0.392525       -10.6812
  24   2.0000      -0.388371       -10.5681
  25   2.0000      -0.384973       -10.4757
  26   2.0000      -0.376275       -10.2390
  27   2.0000      -0.372013       -10.1230
  28   2.0000      -0.348616        -9.4863
  29   2.0000      -0.346229        -9.4214
  30   2.0000      -0.345892        -9.4122
  31   2.0000      -0.281119        -7.6496
  32   2.0000      -0.277529        -7.5520
  33   0.0000      -0.088435        -2.4064
  34   0.0000      -0.073044        -1.9876
  35   0.0000      -0.007275        -0.1980
  36   0.0000       0.005990         0.1630
  37   0.0000       0.008224         0.2238

MULLIKEN ATOMIC CHARGES
-----------------------
   0 C :    1.451815
   1 C :   -0.759634
   2 C :   -0.518244
   3 C :   -0.759535
   4 C :    1.451321
   5 C :   -0.943159
   6 H :   -0.023573
   7 C :    0.486832
   8 N :   -0.840739
   9 H :    0.126286
  10 H :    0.556186
  11 H :    0.126550
  12 C :    0.486822
  13 N :   -0.840928
Sum of atomic charges:    0.0000000

LOEWDIN ATOMIC CHARGES
----------------------
   0 C :   -0.181137
   1 C :    0.229649
   2 C :    0.242494
   3 C :    0.229650
   4 C :   -0.181139
   5 C :    0.220696
   6 H :   -0.141609
   7 C :   -0.233066
   8 N :    0.244826
   9 H :   -0.145297
  10 H :   -0.151530
  11 H :   -0.145296
  12 C :   -0.233066
  13 N :    0.244824

  Mayer bond orders larger than 0.100000
B(  0-C ,  1-C ) :   0.2553 B(  0-C ,  2-C ) :   0.1351 B(  0-C ,  4-C ) :   0.3699
B(  0-C ,  5-C ) :   0.3887 B(  0-C ,  6-H ) :  -0.1775 B(  0-C , 11-H ) :  -0.1474
B(  0-C , 12-C ) :   0.6004 B(  1-C ,  2-C ) :   1.1474 B(  1-C ,  3-C ) :  -0.1915
B(  1-C ,  5-C ) :  -0.2085 B(  1-C , 11-H ) :   1.2288 B(  1-C , 12-C ) :   0.3444
B(  1-C , 13-N ) :   0.1264 B(  2-C ,  3-C ) :   1.1486 B(  2-C ,  4-C ) :   0.1356
B(  2-C , 10-H ) :   0.5131 B(  3-C ,  4-C ) :   0.2542 B(  3-C ,  5-C ) :  -0.2084
B(  3-C ,  7-C ) :   0.3442 B(  3-C ,  8-N ) :   0.1258 B(  3-C ,  9-H ) :   1.2290
B(  4-C ,  5-C ) :   0.3892 B(  4-C ,  6-H ) :  -0.1774 B(  4-C ,  7-C ) :   0.6010
B(  4-C ,  9-H ) :  -0.1475 B(  5-C ,  6-H ) :   1.3984 B(  5-C ,  7-C ) :   0.1259
B(  5-C , 12-C ) :   0.1267 B(  7-C ,  8-N ) :   1.7367 B(  7-C , 12-C ) :   0.2276
B( 12-C , 13-N ) :   1.7364

Dispersion correction           -0.005034682
FINAL SINGLE POINT ENERGY      -416.636373539168

DIPOLE MOMENT
-------------

Method             : SCF
Type of density    : Electron Density
Multiplicity       :   1
Irrep              :   0
Energy             :  -416.6313388570245593 Eh
Relativity type    :
Basis              : AO
                                X                 Y                 Z
Electronic contribution:     -0.000042402      -2.436105876      -0.000662238
Nuclear contribution   :      0.000083993       4.864690658      -0.000287721
                        -----------------------------------------
Total Dipole Moment    :      0.000041591       2.428584782      -0.000949959
                        -----------------------------------------
Magnitude (a.u.)       :      2.428584968
Magnitude (Debye)      :      6.172972416

Rotational constants in cm-1:             0.090653             0.030186             0.022645
Rotational constants in MHz :          2717.694225           904.950181           678.890264

                             ****ORCA TERMINATED NORMALLY****
TOTAL RUN TIME: 0 days 0 hours 3 minutes 32 seconds 108 msec
