                         Program Version 6.0.0  -   RELEASE  -
|  1> !TPSSh freq aug-cc-pVTZ d3 TightSCF SlowConv RIJCOSX defgrid2
|  2>
|  3> %pal
|  4> nprocs 12
|  5> end
|  6>
|  7> %scf
|  8> MaxIter 1500
|  9> end
| 10>
| 11> %maxcore 5000
| 12>
| 13> !CPCM
| 14> %cpcm smd true
| 15> SMDsolvent "MeCN"
| 16> surfacetype gepol_ses
| 17> rsolv 2.19
| 18> end
| 19>
| 20> * xyz 1 2
| 21> C           0.87934177719241     -1.21067540660195     -0.00127873260104
| 22> C           1.22966791062708      0.17589003644793     -0.00125005722435
| 23> C           0.19352686925839      1.14394656984736     -0.00149111275385
| 24> C          -1.13231520397495      0.78669329491317     -0.00080306214070
| 25> C          -1.46510504021522     -0.60862399997749     -0.00045500870784
| 26> C          -0.43665639825098     -1.57759018274227     -0.00099349821475
| 27> H          -0.70917370093293     -2.62489490442543     -0.00073797390594
| 28> C          -2.88479791521646     -1.03557146730207      0.00080899159998
| 29> H          -2.97980028341228     -2.11915960591924     -0.00182011474649
| 30> H          -3.40673479059727     -0.62649482246360     -0.87115912381210
| 31> H          -3.40296145288668     -0.63162433998259      0.87752191630673
| 32> C          -2.21247122678077      1.81955994873864     -0.00029432696288
| 33> H          -2.85324170622999      1.71349474221483      0.87950825273153
| 34> H          -2.85540680542070      1.71180541522823     -0.87828832533143
| 35> H          -1.78822029274995      2.82234871748346     -0.00184938620887
| 36> H           0.47021734271422      2.19118748703079     -0.00206712775511
| 37> C           2.57817781960178      0.62528629337631      0.00008691264437
| 38> C           3.67640956189093     -0.18720388000109      0.00158255559163
| 39> H           3.60637790042259     -1.26715194135535      0.00094270566920
| 40> H           4.66908776941111      0.24379950163999      0.00343851393053
| 41> H           2.73036007583250      1.69884477458196     -0.00006108912333
| 42> H           1.65095458971720     -1.96729503073156     -0.00180740898531
| 43> *
| 44>
| 45>                          ****END OF INPUT****

CARTESIAN COORDINATES (ANGSTROEM)
---------------------------------
  C      0.879342   -1.210675   -0.001279
  C      1.229668    0.175890   -0.001250
  C      0.193527    1.143947   -0.001491
  C     -1.132315    0.786693   -0.000803
  C     -1.465105   -0.608624   -0.000455
  C     -0.436656   -1.577590   -0.000993
  H     -0.709174   -2.624895   -0.000738
  C     -2.884798   -1.035571    0.000809
  H     -2.979800   -2.119160   -0.001820
  H     -3.406735   -0.626495   -0.871159
  H     -3.402961   -0.631624    0.877522
  C     -2.212471    1.819560   -0.000294
  H     -2.853242    1.713495    0.879508
  H     -2.855407    1.711805   -0.878288
  H     -1.788220    2.822349   -0.001849
  H      0.470217    2.191187   -0.002067
  C      2.578178    0.625286    0.000087
  C      3.676410   -0.187204    0.001583
  H      3.606378   -1.267152    0.000943
  H      4.669088    0.243800    0.003439
  H      2.730360    1.698845   -0.000061
  H      1.650955   -1.967295   -0.001807

 Total Charge           Charge          ....    1
 Multiplicity           Mult            ....    2
 Number of Electrons    NEL             ....   71
 Basis Dimension        Dim             ....  736

ORBITAL ENERGIES
----------------
                 SPIN UP ORBITALS
  NO   OCC          E(Eh)            E(eV)
   0   1.0000     -10.183745      -277.1138
   1   1.0000     -10.180036      -277.0128
   2   1.0000     -10.169182      -276.7175
   3   1.0000     -10.164178      -276.5813
   4   1.0000     -10.161560      -276.5101
   5   1.0000     -10.160080      -276.4698
   6   1.0000     -10.148858      -276.1645
   7   1.0000     -10.145689      -276.0782
   8   1.0000     -10.123801      -275.4826
   9   1.0000     -10.118613      -275.3414
  10   1.0000      -0.887500       -24.1501
  11   1.0000      -0.828338       -22.5402
  12   1.0000      -0.782491       -21.2927
  13   1.0000      -0.767903       -20.8957
  14   1.0000      -0.710526       -19.3344
  15   1.0000      -0.681149       -18.5350
  16   1.0000      -0.624856       -17.0032
  17   1.0000      -0.612501       -16.6670
  18   1.0000      -0.558614       -15.2007
  19   1.0000      -0.516532       -14.0555
  20   1.0000      -0.497690       -13.5428
  21   1.0000      -0.466146       -12.6845
  22   1.0000      -0.444306       -12.0902
  23   1.0000      -0.443247       -12.0614
  24   1.0000      -0.430105       -11.7037
  25   1.0000      -0.423666       -11.5285
  26   1.0000      -0.398543       -10.8449
  27   1.0000      -0.391209       -10.6453
  28   1.0000      -0.390326       -10.6213
  29   1.0000      -0.386579       -10.5194
  30   1.0000      -0.377330       -10.2677
  31   1.0000      -0.352898        -9.6028
  32   1.0000      -0.344187        -9.3658
  33   1.0000      -0.325812        -8.8658
  34   1.0000      -0.276446        -7.5225
  35   1.0000      -0.258452        -7.0328
  36   0.0000      -0.106343        -2.8937
  37   0.0000      -0.049708        -1.3526
  38   0.0000      -0.010061        -0.2738
  39   0.0000      -0.006827        -0.1858
  40   0.0000       0.002733         0.0744

                 SPIN DOWN ORBITALS
  NO   OCC          E(Eh)            E(eV)
   0   1.0000     -10.178983      -276.9842
   1   1.0000     -10.176766      -276.9239
   2   1.0000     -10.165013      -276.6041
   3   1.0000     -10.162385      -276.5326
   4   1.0000     -10.161100      -276.4976
   5   1.0000     -10.158082      -276.4155
   6   1.0000     -10.148845      -276.1641
   7   1.0000     -10.146426      -276.0983
   8   1.0000     -10.123964      -275.4871
   9   1.0000     -10.118635      -275.3420
  10   1.0000      -0.881471       -23.9861
  11   1.0000      -0.820914       -22.3382
  12   1.0000      -0.781165       -21.2566
  13   1.0000      -0.758816       -20.6484
  14   1.0000      -0.706842       -19.2341
  15   1.0000      -0.676175       -18.3997
  16   1.0000      -0.620556       -16.8862
  17   1.0000      -0.608947       -16.5703
  18   1.0000      -0.554587       -15.0911
  19   1.0000      -0.514627       -14.0037
  20   1.0000      -0.495369       -13.4797
  21   1.0000      -0.463391       -12.6095
  22   1.0000      -0.440883       -11.9970
  23   1.0000      -0.434776       -11.8309
  24   1.0000      -0.427867       -11.6429
  25   1.0000      -0.422792       -11.5047
  26   1.0000      -0.394602       -10.7377
  27   1.0000      -0.388371       -10.5681
  28   1.0000      -0.386234       -10.5100
  29   1.0000      -0.376486       -10.2447
  30   1.0000      -0.375935       -10.2297
  31   1.0000      -0.352067        -9.5802
  32   1.0000      -0.342442        -9.3183
  33   1.0000      -0.303789        -8.2665
  34   1.0000      -0.271356        -7.3840
  35   0.0000      -0.202246        -5.5034
  36   0.0000      -0.078414        -2.1338
  37   0.0000      -0.040912        -1.1133
  38   0.0000      -0.006108        -0.1662
  39   0.0000       0.004050         0.1102

MULLIKEN ATOMIC CHARGES AND SPIN POPULATIONS
--------------------------------------------
   0 C :   -0.110889    0.102044
   1 C :    1.514486    0.222807
   2 C :   -0.588456    0.002741
   3 C :    0.165631    0.013913
   4 C :    0.434358    0.363353
   5 C :   -0.823924   -0.086525
   6 H :    0.099450    0.001023
   7 C :   -0.164258   -0.042157
   8 H :   -0.095270   -0.006721
   9 H :    0.169966    0.025344
  10 H :    0.169606    0.025572
  11 C :   -0.169326   -0.008137
  12 H :    0.163259    0.004025
  13 H :    0.163112    0.004024
  14 H :   -0.092929   -0.000562
  15 H :   -0.256673    0.008715
  16 C :    0.204384   -0.001903
  17 C :   -0.572525    0.384847
  18 H :    0.304462    0.007395
  19 H :    0.040326   -0.020134
  20 H :    0.175660    0.006260
  21 H :    0.269550   -0.005924
Sum of atomic charges         :    1.0000000

LOEWDIN ATOMIC CHARGES AND SPIN POPULATIONS
-------------------------------------------
   0 C :    0.285728    0.085331
   1 C :   -0.074799    0.122288
   2 C :    0.286199    0.036108
   3 C :   -0.042817    0.057319
   4 C :   -0.026701    0.156418
   5 C :    0.292284    0.041705
   6 H :   -0.153505   -0.002854
   7 C :    0.631177    0.049773
   8 H :   -0.155569    0.001300
   9 H :   -0.140721    0.012105
  10 H :   -0.140285    0.012197
  11 C :    0.616507    0.006281
  12 H :   -0.149158    0.002001
  13 H :   -0.149391    0.002000
  14 H :   -0.159542    0.000003
  15 H :   -0.150977    0.001218
  16 C :    0.265270    0.084353
  17 C :    0.655238    0.225301
  18 H :   -0.189818    0.044931
  19 H :   -0.169672    0.050075
  20 H :   -0.161565    0.000132
  21 H :   -0.167881    0.012016

  Mayer bond orders larger than 0.100000
B(  0-C ,  1-C ) :   0.5836 B(  0-C ,  2-C ) :  -0.5939 B(  0-C ,  3-C ) :  -0.1653
B(  0-C ,  5-C ) :   1.2541 B(  0-C , 16-C ) :   0.1607 B(  0-C , 21-H ) :   1.0572
B(  1-C ,  3-C ) :   0.1972 B(  1-C ,  4-C ) :  -0.4292 B(  1-C ,  7-C ) :   0.1119
B(  1-C , 15-H ) :  -0.2260 B(  1-C , 16-C ) :   0.4493 B(  1-C , 17-C ) :  -0.2288
B(  1-C , 20-H ) :   0.1536 B(  1-C , 21-H ) :   0.1914 B(  2-C ,  3-C ) :   0.9841
B(  2-C ,  4-C ) :  -0.1229 B(  2-C ,  5-C ) :   0.1554 B(  2-C , 11-C ) :  -0.2779
B(  2-C , 15-H ) :   1.8339 B(  2-C , 20-H ) :  -0.1660 B(  3-C ,  4-C ) :   1.3702
B(  3-C ,  5-C ) :   0.2034 B(  3-C ,  7-C ) :   0.1584 B(  3-C , 11-C ) :   0.4813
B(  3-C , 16-C ) :   0.1174 B(  3-C , 20-H ) :   0.1558 B(  3-C , 21-H ) :  -0.1227
B(  4-C ,  5-C ) :   0.8172 B(  4-C ,  6-H ) :   0.2240 B(  4-C ,  7-C ) :   0.6892
B(  4-C , 11-C ) :   0.3781 B(  4-C , 16-C ) :   0.1639 B(  5-C ,  6-H ) :   0.9446
B(  5-C ,  7-C ) :  -0.1880 B(  5-C , 21-H ) :  -0.1744 B(  7-C ,  8-H ) :   1.0381
B(  7-C ,  9-H ) :   0.9578 B(  7-C , 10-H ) :   0.9583 B( 11-C , 12-H ) :   0.9735
B( 11-C , 13-H ) :   0.9732 B( 11-C , 14-H ) :   1.0142 B( 15-H , 16-C ) :  -0.1314
B( 16-C , 17-C ) :   1.0590 B( 16-C , 20-H ) :   0.8691 B( 17-C , 18-H ) :   0.9489
B( 17-C , 19-H ) :   1.0878 B( 17-C , 20-H ) :  -0.1898

Dispersion correction           -0.027118964
FINAL SINGLE POINT ENERGY      -388.275393039689

DIPOLE MOMENT
-------------

Method             : SCF
Type of density    : Electron Density
Multiplicity       :   2
Irrep              :   0
Energy             :  -388.2482740754463748 Eh
Relativity type    :
Basis              : AO
                                X                 Y                 Z
Electronic contribution:      5.477483875      -1.206342316      -0.005972716
Nuclear contribution   :     -4.585138069       1.045655431       0.007266743
                        -----------------------------------------
Total Dipole Moment    :      0.892345806      -0.160686885       0.001294026
                        -----------------------------------------
Magnitude (a.u.)       :      0.906698950
Magnitude (Debye)      :      2.304645579

VIBRATIONAL FREQUENCIES
-----------------------

Scaling factor for frequencies =  1.000000000  (already applied!)

     0:       0.00 cm**-1
     1:       0.00 cm**-1
     2:       0.00 cm**-1
     3:       0.00 cm**-1
     4:       0.00 cm**-1
     5:       0.00 cm**-1
     6:      13.99 cm**-1
     7:      50.91 cm**-1
     8:     100.49 cm**-1
     9:     138.73 cm**-1
    10:     196.10 cm**-1
    11:     199.01 cm**-1
    12:     260.41 cm**-1
    13:     291.56 cm**-1
    14:     369.03 cm**-1
    15:     406.06 cm**-1
    16:     412.02 cm**-1
    17:     448.55 cm**-1
    18:     510.71 cm**-1
    19:     547.84 cm**-1
    20:     595.93 cm**-1
    21:     705.69 cm**-1
    22:     705.87 cm**-1
    23:     739.65 cm**-1
    24:     815.72 cm**-1
    25:     895.58 cm**-1
    26:     920.73 cm**-1
    27:     960.85 cm**-1
    28:     990.08 cm**-1
    29:     999.92 cm**-1
    30:    1004.85 cm**-1
    31:    1013.47 cm**-1
    32:    1016.25 cm**-1
    33:    1025.28 cm**-1
    34:    1053.81 cm**-1
    35:    1142.73 cm**-1
    36:    1194.02 cm**-1
    37:    1238.08 cm**-1
    38:    1259.10 cm**-1
    39:    1292.21 cm**-1
    40:    1319.76 cm**-1
    41:    1358.93 cm**-1
    42:    1376.43 cm**-1
    43:    1396.60 cm**-1
    44:    1419.38 cm**-1
    45:    1444.68 cm**-1
    46:    1450.86 cm**-1
    47:    1465.18 cm**-1
    48:    1466.42 cm**-1
    49:    1480.27 cm**-1
    50:    1492.87 cm**-1
    51:    1513.16 cm**-1
    52:    1563.18 cm**-1
    53:    1650.04 cm**-1
    54:    3013.20 cm**-1
    55:    3026.94 cm**-1
    56:    3054.80 cm**-1
    57:    3076.83 cm**-1
    58:    3124.50 cm**-1
    59:    3135.95 cm**-1
    60:    3155.35 cm**-1
    61:    3170.77 cm**-1
    62:    3179.93 cm**-1
    63:    3190.20 cm**-1
    64:    3212.11 cm**-1
    65:    3252.38 cm**-1

IR SPECTRUM
-----------

 Mode   freq       eps      Int      T**2         TX        TY        TZ
       cm**-1   L/(mol*cm) km/mol    a.u.
----------------------------------------------------------------------------
  6:     13.99   0.000398    2.01  0.008888  ( 0.004176  0.000218 -0.094181)
  7:     50.91   0.000251    1.27  0.001538  (-0.001588 -0.000356 -0.039180)
  8:    100.49   0.000001    0.00  0.000003  (-0.000072 -0.000239 -0.001670)
  9:    138.73   0.000486    2.46  0.001093  ( 0.000261 -0.000568 -0.033060)
 10:    196.10   0.000160    0.81  0.000255  ( 0.000067  0.015552  0.003637)
 11:    199.01   0.000390    1.97  0.000611  ( 0.000158 -0.002670  0.024569)
 12:    260.41   0.000143    0.72  0.000172  (-0.000364  0.000183  0.013096)
 13:    291.56   0.000042    0.21  0.000045  (-0.004532  0.004977  0.000004)
 14:    369.03   0.000382    1.93  0.000323  ( 0.016296 -0.007575 -0.000003)
 15:    406.06   0.002645   13.36  0.002032  (-0.000164 -0.000530  0.045078)
 16:    412.02   0.000097    0.49  0.000073  ( 0.007637 -0.003845 -0.000509)
 17:    448.55   0.000682    3.44  0.000474  ( 0.000621 -0.000018  0.021767)
 18:    510.71   0.000694    3.51  0.000424  ( 0.019679  0.006082  0.000037)
 19:    547.84   0.000905    4.57  0.000515  (-0.021793 -0.006356 -0.000008)
 20:    595.93   0.000237    1.20  0.000124  ( 0.000808  0.000128 -0.011117)
 21:    705.69   0.007077   35.77  0.003130  ( 0.053657  0.009465  0.012687)
 22:    705.87   0.003301   16.68  0.001459  (-0.021561 -0.003955  0.031286)
 23:    739.65   0.001327    6.71  0.000560  ( 0.023171  0.004812  0.000100)
 24:    815.72   0.004055   20.49  0.001551  (-0.000407 -0.000086 -0.039385)
 25:    895.58   0.001003    5.07  0.000349  ( 0.000178  0.000018  0.018693)
 26:    920.73   0.001821    9.20  0.000617  ( 0.021871  0.011776 -0.000355)
 27:    960.85   0.014074   71.13  0.004571  ( 0.000448  0.000097 -0.067608)
 28:    990.08   0.003329   16.82  0.001049  ( 0.003133  0.000257 -0.032240)
 29:    999.92   0.010474   52.93  0.003269  (-0.056634 -0.007846 -0.000130)
 30:   1004.85   0.000120    0.61  0.000037  (-0.000156  0.000300  0.006094)
 31:   1013.47   0.019947  100.81  0.006142  ( 0.078365 -0.000622 -0.000798)
 32:   1016.25   0.005451   27.55  0.001674  ( 0.002017 -0.000122  0.040863)
 33:   1025.28   0.004373   22.10  0.001331  ( 0.035998 -0.005908  0.000585)
 34:   1053.81   0.000409    2.07  0.000121  ( 0.000635  0.000049 -0.010992)
 35:   1142.73   0.003332   16.84  0.000910  (-0.019422  0.023081  0.000154)
 36:   1194.02   0.023359  118.05  0.006105  ( 0.077479  0.010101  0.000062)
 37:   1238.08   0.029075  146.93  0.007329  ( 0.085449  0.005198 -0.000077)
 38:   1259.10   0.043859  221.65  0.010870  (-0.104261 -0.000119 -0.000027)
 39:   1292.21   0.041578  210.12  0.010041  ( 0.100204  0.000225  0.000011)
 40:   1319.76   0.000783    3.96  0.000185  (-0.001977  0.013459 -0.000009)
 41:   1358.93   0.012727   64.32  0.002923  (-0.050475  0.019361  0.000168)
 42:   1376.43   0.000798    4.03  0.000181  ( 0.009645  0.009370 -0.000245)
 43:   1396.60   0.001852    9.36  0.000414  (-0.003370  0.020062 -0.000208)
 44:   1419.38   0.008941   45.18  0.001966  (-0.036053 -0.025805  0.000263)
 45:   1444.68   0.001941    9.81  0.000419  (-0.000053  0.000251 -0.020474)
 46:   1450.86   0.000639    3.23  0.000137  ( 0.004437  0.010819  0.000776)
 47:   1465.18   0.005051   25.53  0.001076  (-0.007672  0.000827  0.031880)
 48:   1466.42   0.061058  308.56  0.012994  (-0.113488  0.010389 -0.002485)
 49:   1480.27   0.043766  221.17  0.009226  ( 0.095696  0.008281 -0.000413)
 50:   1492.87   0.084150  425.26  0.017590  ( 0.132625  0.000948  0.000082)
 51:   1513.16   0.044057  222.65  0.009086  ( 0.092306 -0.023782  0.000149)
 52:   1563.18   0.054984  277.86  0.010977  ( 0.092972  0.048299  0.000051)
 53:   1650.04   0.009969   50.38  0.001885  ( 0.036047  0.024206 -0.000047)
 54:   3013.20   0.003128   15.81  0.000324  (-0.017340 -0.004816  0.000171)
 55:   3026.94   0.001102    5.57  0.000114  (-0.008979  0.005741  0.000127)
 56:   3054.80   0.000465    2.35  0.000048  ( 0.000513  0.000092  0.006875)
 57:   3076.83   0.002236   11.30  0.000227  ( 0.000044 -0.000045  0.015060)
 58:   3124.50   0.004434   22.41  0.000443  ( 0.000247 -0.021044 -0.000040)
 59:   3135.95   0.008787   44.41  0.000874  ( 0.021723  0.020063 -0.000012)
 60:   3155.35   0.002814   14.22  0.000278  (-0.016637  0.001241 -0.000015)
 61:   3170.77   0.002217   11.21  0.000218  ( 0.013868  0.005089  0.000073)
 62:   3179.93   0.001133    5.73  0.000111  ( 0.001137  0.010484  0.000101)
 63:   3190.20   0.001992   10.06  0.000195  ( 0.011603  0.007758  0.000073)
 64:   3212.11   0.000216    1.09  0.000021  (-0.000738  0.004522  0.000016)
 65:   3252.38   0.000028    0.14  0.000003  (-0.000540 -0.001551  0.000035)

--------------------------
THERMOCHEMISTRY AT 298.15K
--------------------------

Temperature         ...   298.15 K
Pressure            ...     1.00 atm
Total Mass          ...   132.21 AMU
Quasi RRHO          ...     True
Cut-Off Frequency   ...     1.00 cm^-1

Throughout the following assumptions are being made:
  (1) The electronic state is orbitally nondegenerate
      but the spin degeneracy is treated
  (2) There are no thermally accessible electronically excited states
  (3) Hindered rotations indicated by low frequency modes are not
      treated as such but are treated as vibrations and this may
      cause some error
  (4) All equations used are the standard statistical mechanics
      equations for an ideal gas
  (5) All vibrations are strictly harmonic

freq.      13.99  E(vib)   ...       0.57
freq.      50.91  E(vib)   ...       0.52
freq.     100.49  E(vib)   ...       0.46
freq.     138.73  E(vib)   ...       0.42
freq.     196.10  E(vib)   ...       0.36
freq.     199.01  E(vib)   ...       0.35
freq.     260.41  E(vib)   ...       0.30
freq.     291.56  E(vib)   ...       0.27
freq.     369.03  E(vib)   ...       0.21
freq.     406.06  E(vib)   ...       0.19
freq.     412.02  E(vib)   ...       0.19
freq.     448.55  E(vib)   ...       0.17
freq.     510.71  E(vib)   ...       0.14
freq.     547.84  E(vib)   ...       0.12
freq.     595.93  E(vib)   ...       0.10
freq.     705.69  E(vib)   ...       0.07
freq.     705.87  E(vib)   ...       0.07
freq.     739.65  E(vib)   ...       0.06
freq.     815.72  E(vib)   ...       0.05
freq.     895.58  E(vib)   ...       0.03
freq.     920.73  E(vib)   ...       0.03
freq.     960.85  E(vib)   ...       0.03
freq.     990.08  E(vib)   ...       0.02
freq.     999.92  E(vib)   ...       0.02
freq.    1004.85  E(vib)   ...       0.02
freq.    1013.47  E(vib)   ...       0.02
freq.    1016.25  E(vib)   ...       0.02
freq.    1025.28  E(vib)   ...       0.02
freq.    1053.81  E(vib)   ...       0.02
freq.    1142.73  E(vib)   ...       0.01
freq.    1194.02  E(vib)   ...       0.01
freq.    1238.08  E(vib)   ...       0.01
freq.    1259.10  E(vib)   ...       0.01
freq.    1292.21  E(vib)   ...       0.01
freq.    1319.76  E(vib)   ...       0.01
freq.    1358.93  E(vib)   ...       0.01
freq.    1376.43  E(vib)   ...       0.01
freq.    1396.60  E(vib)   ...       0.00
freq.    1419.38  E(vib)   ...       0.00
freq.    1444.68  E(vib)   ...       0.00
freq.    1450.86  E(vib)   ...       0.00
freq.    1465.18  E(vib)   ...       0.00
freq.    1466.42  E(vib)   ...       0.00
freq.    1480.27  E(vib)   ...       0.00
freq.    1492.87  E(vib)   ...       0.00
freq.    1513.16  E(vib)   ...       0.00
freq.    1563.18  E(vib)   ...       0.00
freq.    1650.04  E(vib)   ...       0.00
freq.    3013.20  E(vib)   ...       0.00
freq.    3026.94  E(vib)   ...       0.00
freq.    3054.80  E(vib)   ...       0.00
freq.    3076.83  E(vib)   ...       0.00
freq.    3124.50  E(vib)   ...       0.00
freq.    3135.95  E(vib)   ...       0.00
freq.    3155.35  E(vib)   ...       0.00
freq.    3170.77  E(vib)   ...       0.00
freq.    3179.93  E(vib)   ...       0.00
freq.    3190.20  E(vib)   ...       0.00
freq.    3212.11  E(vib)   ...       0.00
freq.    3252.38  E(vib)   ...       0.00

------------
INNER ENERGY
------------

The inner energy is: U= E(el) + E(ZPE) + E(vib) + E(rot) + E(trans)
    E(el)   - is the total energy from the electronic structure calculation
              = E(kin-el) + E(nuc-el) + E(el-el) + E(nuc-nuc)
    E(ZPE)  - the the zero temperature vibrational energy from the frequency calculation
    E(vib)  - the the finite temperature correction to E(ZPE) due to population
              of excited vibrational states
    E(rot)  - is the rotational thermal energy
    E(trans)- is the translational thermal energy

Summary of contributions to the inner energy U:
Electronic energy                ...   -388.27539304 Eh
Zero point energy                ...      0.18568423 Eh     116.52 kcal/mol
Thermal vibrational correction   ...      0.00789984 Eh       4.96 kcal/mol
Thermal rotational correction    ...      0.00141627 Eh       0.89 kcal/mol
Thermal translational correction ...      0.00141627 Eh       0.89 kcal/mol
-----------------------------------------------------------------------
Total thermal energy                   -388.07897643 Eh

Summary of corrections to the electronic energy:
(perhaps to be used in another calculation)
Total thermal correction                  0.01073239 Eh       6.73 kcal/mol
Non-thermal (ZPE) correction              0.18568423 Eh     116.52 kcal/mol
-----------------------------------------------------------------------
Total correction                          0.19641661 Eh     123.25 kcal/mol

--------
ENTHALPY
--------

The enthalpy is H = U + kB*T
                kB is Boltzmann's constant
Total thermal energy              ...   -388.07897643 Eh
Thermal Enthalpy correction       ...      0.00094421 Eh       0.59 kcal/mol
-----------------------------------------------------------------------
Total Enthalpy                    ...   -388.07803222 Eh

Note: Only C1 symmetry has been detected, increase convergence thresholds
      if your molecule has a higher symmetry. Symmetry factor of 1.0 is
      used for the rotational entropy correction.

Note: Rotational entropy computed according to Herzberg
Infrared and Raman Spectra, Chapter V,1, Van Nostrand Reinhold, 1945
Point Group:  C1, Symmetry Number:   1
Rotational constants in cm-1:     0.095874     0.029395     0.022685

Vibrational entropy computed according to the QRRHO of S. Grimme
Chem.Eur.J. 2012 18 9955 using a reference frequency of 100.0 cm-1

-------
ENTROPY
-------

The entropy contributions are T*S = T*(S(el)+S(vib)+S(rot)+S(trans))
     S(el)   - electronic entropy
     S(vib)  - vibrational entropy
     S(rot)  - rotational entropy
     S(trans)- translational entropy
The entropies will be listed as multiplied by the temperature to get
units of energy

Electronic entropy                ...      0.00065446 Eh      0.41 kcal/mol
Vibrational entropy               ...      0.01407225 Eh      8.83 kcal/mol
Rotational entropy                ...      0.01407012 Eh      8.83 kcal/mol
Translational entropy             ...      0.01926665 Eh     12.09 kcal/mol
-----------------------------------------------------------------------
Final entropy term                ...      0.04806348 Eh     30.16 kcal/mol

In case the symmetry of your molecule has not been determined correctly
or in case you have a reason to use a different symmetry number we print
out the resulting rotational entropy values for sn=1,12:

                             ****ORCA TERMINATED NORMALLY****
TOTAL RUN TIME: 0 days 2 hours 6 minutes 53 seconds 66 msec
