                         Program Version 6.0.0  -   RELEASE  -
|  1> !PBE0 def2-SV(p) Opt Freq d3 TightSCF SlowConv RIJCOSX defgrid2
|  2>
|  3> %pal
|  4> nprocs 4
|  5> end
|  6>
|  7> %scf
|  8> MaxIter 1500
|  9> end
| 10>
| 11> %maxcore 3000
| 12>
| 13>
| 14>
| 15> * xyz 1 2
| 16> C     2.4075733   -0.8986009    0.6096982
| 17> C     1.2460840   -0.4385363   -0.0362764
| 18> C     1.2955827    0.7854846   -0.7368399
| 19> C     2.4566385    1.5256573   -0.7728106
| 20> C     3.5954887    1.0631331   -0.1190016
| 21> C     3.5604870   -0.1460701    0.5775222
| 22> H     4.4399977   -0.4858904    1.1021962
| 23> H     4.5108528    1.6327448   -0.1621646
| 24> H     2.4909801    2.4515101   -1.3251413
| 25> H     0.4269640    1.1116772   -1.2895314
| 26> C    -0.0000260   -1.1928574   -0.0000180
| 27> C    -0.0000280   -2.5547578   -0.0000520
| 28> H    -0.9194831   -3.1168483   -0.0073010
| 29> H     0.9194348   -3.1168530    0.0071957
| 30> C    -1.2461133   -0.4385191    0.0362617
| 31> C    -2.4076103   -0.8985585   -0.6097241
| 32> C    -3.5605072   -0.1460085   -0.5775422
| 33> C    -3.5954871    1.0631955    0.1189925
| 34> C    -2.4566315    1.5256852    0.7728200
| 35> C    -1.2955889    0.7855029    0.7368381
| 36> H    -0.4269758    1.1116608    1.2895570
| 37> H    -2.4909638    2.4515168    1.3251755
| 38> H    -4.5108411    1.6328238    0.1621570
| 39> H    -4.4400139   -0.4857903   -1.1022410
| 40> H    -2.3784505   -1.8120173   -1.1821558
| 41> H     2.3784043   -1.8120782    1.1821099
| 42> *
| 43>
| 44>                          ****END OF INPUT****
 Total Charge           Charge          ....    1
 Multiplicity           Mult            ....    2
 Number of Electrons    NEL             ....   95
Dispersion correction           -0.029384655
FINAL SINGLE POINT ENERGY      -539.384834437717
Dispersion correction             ... done (  0.1 sec)
Dispersion correction           -0.029140483
FINAL SINGLE POINT ENERGY      -539.388247568632
Dispersion correction             ... done (  0.1 sec)
Dispersion correction           -0.029149228
FINAL SINGLE POINT ENERGY      -539.388441996538
Dispersion correction             ... done (  0.0 sec)
Dispersion correction           -0.029068019
FINAL SINGLE POINT ENERGY      -539.388540874906
Dispersion correction             ... done (  0.1 sec)
Dispersion correction           -0.029088479
FINAL SINGLE POINT ENERGY      -539.388555214294
Dispersion correction             ... done (  0.0 sec)
                    ***********************HURRAY********************

CARTESIAN COORDINATES (ANGSTROEM)
---------------------------------
  C      2.423485   -0.917459    0.592452
  C      1.259959   -0.392027   -0.023331
  C      1.348455    0.850312   -0.703543
  C      2.549018    1.538893   -0.755890
  C      3.680788    1.013472   -0.122497
  C      3.612935   -0.213176    0.555120
  H      4.499638   -0.610518    1.055729
  H      4.629171    1.556974   -0.164962
  H      2.615926    2.481379   -1.305326
  H      0.473935    1.235806   -1.234119
  C     -0.000017   -1.114390   -0.000027
  C     -0.000026   -2.506793   -0.000055
  H     -0.934801   -3.075850   -0.003426
  H      0.934745   -3.075857    0.003292
  C     -1.259982   -0.392005    0.023293
  C     -2.423527   -0.917415   -0.592478
  C     -3.612964   -0.213110   -0.555127
  C     -3.680792    1.013530    0.122510
  C     -2.549004    1.538926    0.755896
  C     -1.348452    0.850325    0.703525
  H     -0.473920    1.235787    1.234104
  H     -2.615894    2.481401    1.305347
  H     -4.629167    1.557043    0.164995
  H     -4.499680   -0.610434   -1.055728
  H     -2.373202   -1.858782   -1.145477
  H      2.373139   -1.858827    1.145449

 Multiplicity           Mult            ....    2
 Number of Electrons    NEL             ....   95
 Basis Dimension        Dim             ....  220

ORBITAL ENERGIES
----------------
                 SPIN UP ORBITALS
  NO   OCC          E(Eh)            E(eV)
   0   1.0000     -10.450839      -284.3818
   1   1.0000     -10.440841      -284.1097
   2   1.0000     -10.423128      -283.6277
   3   1.0000     -10.423098      -283.6269
   4   1.0000     -10.403097      -283.0827
   5   1.0000     -10.403090      -283.0825
   6   1.0000     -10.401905      -283.0502
   7   1.0000     -10.401901      -283.0501
   8   1.0000     -10.400921      -283.0235
   9   1.0000     -10.400920      -283.0234
  10   1.0000     -10.389325      -282.7079
  11   1.0000     -10.389324      -282.7079
  12   1.0000     -10.388164      -282.6763
  13   1.0000     -10.388154      -282.6760
  14   1.0000      -1.063656       -28.9436
  15   1.0000      -1.034953       -28.1625
  16   1.0000      -0.997852       -27.1529
  17   1.0000      -0.928589       -25.2682
  18   1.0000      -0.927057       -25.2265
  19   1.0000      -0.918010       -24.9803
  20   1.0000      -0.906030       -24.6543
  21   1.0000      -0.822531       -22.3822
  22   1.0000      -0.787056       -21.4169
  23   1.0000      -0.775877       -21.1127
  24   1.0000      -0.769580       -20.9413
  25   1.0000      -0.729951       -19.8630
  26   1.0000      -0.702318       -19.1110
  27   1.0000      -0.680191       -18.5089
  28   1.0000      -0.644982       -17.5508
  29   1.0000      -0.644634       -17.5414
  30   1.0000      -0.624649       -16.9976
  31   1.0000      -0.616336       -16.7714
  32   1.0000      -0.612414       -16.6646
  33   1.0000      -0.594865       -16.1871
  34   1.0000      -0.593534       -16.1509
  35   1.0000      -0.592111       -16.1122
  36   1.0000      -0.568264       -15.4632
  37   1.0000      -0.555175       -15.1071
  38   1.0000      -0.545117       -14.8334
  39   1.0000      -0.526882       -14.3372
  40   1.0000      -0.517772       -14.0893
  41   1.0000      -0.511832       -13.9277
  42   1.0000      -0.507954       -13.8221
  43   1.0000      -0.495493       -13.4831
  44   1.0000      -0.431302       -11.7363
  45   1.0000      -0.428044       -11.6477
  46   1.0000      -0.422198       -11.4886
  47   1.0000      -0.414455       -11.2779
  48   0.0000      -0.231164        -6.2903
  49   0.0000      -0.176186        -4.7943
  50   0.0000      -0.163651        -4.4532
  51   0.0000      -0.149647        -4.0721
  52   0.0000      -0.109277        -2.9736

                 SPIN DOWN ORBITALS
  NO   OCC          E(Eh)            E(eV)
   0   1.0000     -10.451987      -284.4130
   1   1.0000     -10.431380      -283.8523
   2   1.0000     -10.421696      -283.5888
   3   1.0000     -10.421666      -283.5879
   4   1.0000     -10.402101      -283.0556
   5   1.0000     -10.402094      -283.0554
   6   1.0000     -10.401212      -283.0314
   7   1.0000     -10.401209      -283.0313
   8   1.0000     -10.398774      -282.9650
   9   1.0000     -10.398773      -282.9650
  10   1.0000     -10.389699      -282.7181
  11   1.0000     -10.389697      -282.7180
  12   1.0000     -10.388749      -282.6922
  13   1.0000     -10.388739      -282.6920
  14   1.0000      -1.059476       -28.8298
  15   1.0000      -1.031846       -28.0780
  16   1.0000      -0.991737       -26.9865
  17   1.0000      -0.925718       -25.1901
  18   1.0000      -0.924049       -25.1447
  19   1.0000      -0.915332       -24.9074
  20   1.0000      -0.893371       -24.3099
  21   1.0000      -0.816575       -22.2201
  22   1.0000      -0.784999       -21.3609
  23   1.0000      -0.772543       -21.0220
  24   1.0000      -0.767826       -20.8936
  25   1.0000      -0.727159       -19.7870
  26   1.0000      -0.701030       -19.0760
  27   1.0000      -0.677263       -18.4293
  28   1.0000      -0.642972       -17.4962
  29   1.0000      -0.642385       -17.4802
  30   1.0000      -0.622169       -16.9301
  31   1.0000      -0.613682       -16.6991
  32   1.0000      -0.610363       -16.6088
  33   1.0000      -0.592793       -16.1307
  34   1.0000      -0.592528       -16.1235
  35   1.0000      -0.591007       -16.0821
  36   1.0000      -0.565572       -15.3900
  37   1.0000      -0.545558       -14.8454
  38   1.0000      -0.536542       -14.6000
  39   1.0000      -0.526234       -14.3196
  40   1.0000      -0.517272       -14.0757
  41   1.0000      -0.508690       -13.8422
  42   1.0000      -0.506665       -13.7871
  43   1.0000      -0.473173       -12.8757
  44   1.0000      -0.426759       -11.6127
  45   1.0000      -0.420086       -11.4311
  46   1.0000      -0.410851       -11.1798
  47   0.0000      -0.330122        -8.9831
  48   0.0000      -0.198410        -5.3990
  49   0.0000      -0.166677        -4.5355
  50   0.0000      -0.159357        -4.3363
  51   0.0000      -0.144308        -3.9268

MULLIKEN ATOMIC CHARGES AND SPIN POPULATIONS
--------------------------------------------
   0 C :   -0.106141    0.043639
   1 C :    0.025962    0.095387
   2 C :   -0.105279    0.063869
   3 C :   -0.077208   -0.048774
   4 C :   -0.045001    0.151924
   5 C :   -0.077332   -0.033434
   6 H :    0.149604    0.000917
   7 H :    0.157693   -0.007203
   8 H :    0.148498    0.001781
   9 H :    0.154010   -0.003151
  10 C :    0.024282   -0.087982
  11 C :   -0.139439    0.625220
  12 H :    0.199475   -0.031139
  13 H :    0.199476   -0.031139
  14 C :    0.025964    0.095389
  15 C :   -0.106139    0.043640
  16 C :   -0.077335   -0.033436
  17 C :   -0.045000    0.151925
  18 C :   -0.077206   -0.048774
  19 C :   -0.105280    0.063869
  20 H :    0.154011   -0.003151
  21 H :    0.148497    0.001781
  22 H :    0.157694   -0.007203
  23 H :    0.149604    0.000917
  24 H :    0.133294   -0.002437
  25 H :    0.133295   -0.002437
Sum of atomic charges         :    1.0000000

LOEWDIN ATOMIC CHARGES AND SPIN POPULATIONS
-------------------------------------------
   0 C :   -0.080330    0.041805
   1 C :   -0.023521    0.076791
   2 C :   -0.074749    0.057910
   3 C :   -0.104328   -0.025208
   4 C :   -0.042377    0.120622
   5 C :   -0.097592   -0.014431
   6 H :    0.157477    0.000404
   7 H :    0.159065   -0.003502
   8 H :    0.156884    0.000929
   9 H :    0.153761   -0.001277
  10 C :    0.033657   -0.029477
  11 C :   -0.063647    0.553385
  12 H :    0.161889   -0.014848
  13 H :    0.161890   -0.014848
  14 C :   -0.023520    0.076792
  15 C :   -0.080330    0.041805
  16 C :   -0.097592   -0.014432
  17 C :   -0.042376    0.120623
  18 C :   -0.104328   -0.025208
  19 C :   -0.074748    0.057910
  20 H :    0.153761   -0.001277
  21 H :    0.156884    0.000929
  22 H :    0.159066   -0.003502
  23 H :    0.157477    0.000404
  24 H :    0.148813   -0.001149
  25 H :    0.148813   -0.001149

  Mayer bond orders larger than 0.100000
B(  0-C ,  1-C ) :   1.2681 B(  0-C ,  5-C ) :   1.4631 B(  0-C , 25-H ) :   0.9494
B(  1-C ,  2-C ) :   1.2774 B(  1-C , 10-C ) :   1.1351 B(  2-C ,  3-C ) :   1.4363
B(  2-C ,  9-H ) :   0.9436 B(  3-C ,  4-C ) :   1.3522 B(  3-C ,  8-H ) :   0.9547
B(  4-C ,  5-C ) :   1.3309 B(  4-C ,  7-H ) :   0.9527 B(  5-C ,  6-H ) :   0.9531
B( 10-C , 11-C ) :   1.5604 B( 10-C , 14-C ) :   1.1351 B( 11-C , 12-H ) :   0.8979
B( 11-C , 13-H ) :   0.8979 B( 14-C , 15-C ) :   1.2681 B( 14-C , 19-C ) :   1.2774
B( 15-C , 16-C ) :   1.4631 B( 15-C , 24-H ) :   0.9494 B( 16-C , 17-C ) :   1.3309
B( 16-C , 23-H ) :   0.9531 B( 17-C , 18-C ) :   1.3522 B( 17-C , 22-H ) :   0.9527
B( 18-C , 19-C ) :   1.4363 B( 18-C , 21-H ) :   0.9547 B( 19-C , 20-H ) :   0.9436

Dispersion correction           -0.029090467
FINAL SINGLE POINT ENERGY      -539.388556006336

DIPOLE MOMENT
-------------

Method             : SCF
Type of density    : Electron Density
Multiplicity       :   2
Irrep              :   0
Energy             :  -539.3594655396761937 Eh
Relativity type    :
Basis              : AO
                                X                 Y                 Z
Electronic contribution:     -0.000013525       0.120222682      -0.000008345
Nuclear contribution   :     -0.000002786      -0.578596445       0.000006465
                        -----------------------------------------
Total Dipole Moment    :     -0.000016311      -0.458373762      -0.000001880
                        -----------------------------------------
Magnitude (a.u.)       :      0.458373763
Magnitude (Debye)      :      1.165093513

VIBRATIONAL FREQUENCIES
-----------------------

Scaling factor for frequencies =  1.000000000  (already applied!)

     0:       0.00 cm**-1
     1:       0.00 cm**-1
     2:       0.00 cm**-1
     3:       0.00 cm**-1
     4:       0.00 cm**-1
     5:       0.00 cm**-1
     6:      60.09 cm**-1
     7:      74.58 cm**-1
     8:      86.40 cm**-1
     9:     131.80 cm**-1
    10:     219.25 cm**-1
    11:     253.11 cm**-1
    12:     306.20 cm**-1
    13:     345.21 cm**-1
    14:     402.05 cm**-1
    15:     412.89 cm**-1
    16:     436.24 cm**-1
    17:     437.20 cm**-1
    18:     519.56 cm**-1
    19:     564.94 cm**-1
    20:     594.41 cm**-1
    21:     612.50 cm**-1
    22:     613.34 cm**-1
    23:     626.43 cm**-1
    24:     697.03 cm**-1
    25:     704.29 cm**-1
    26:     740.54 cm**-1
    27:     804.78 cm**-1
    28:     812.91 cm**-1
    29:     853.83 cm**-1
    30:     855.30 cm**-1
    31:     855.82 cm**-1
    32:     942.17 cm**-1
    33:     975.75 cm**-1
    34:     976.90 cm**-1
    35:    1008.17 cm**-1
    36:    1011.29 cm**-1
    37:    1016.11 cm**-1
    38:    1016.31 cm**-1
    39:    1044.19 cm**-1
    40:    1044.71 cm**-1
    41:    1045.62 cm**-1
    42:    1053.53 cm**-1
    43:    1073.90 cm**-1
    44:    1125.68 cm**-1
    45:    1128.95 cm**-1
    46:    1181.29 cm**-1
    47:    1183.89 cm**-1
    48:    1186.82 cm**-1
    49:    1205.12 cm**-1
    50:    1214.30 cm**-1
    51:    1328.08 cm**-1
    52:    1332.19 cm**-1
    53:    1394.02 cm**-1
    54:    1410.27 cm**-1
    55:    1429.52 cm**-1
    56:    1432.95 cm**-1
    57:    1487.79 cm**-1
    58:    1493.67 cm**-1
    59:    1519.48 cm**-1
    60:    1540.17 cm**-1
    61:    1544.94 cm**-1
    62:    1610.54 cm**-1
    63:    1611.09 cm**-1
    64:    1652.52 cm**-1
    65:    1694.06 cm**-1
    66:    3188.26 cm**-1
    67:    3215.31 cm**-1
    68:    3215.86 cm**-1
    69:    3218.86 cm**-1
    70:    3219.84 cm**-1
    71:    3224.71 cm**-1
    72:    3225.42 cm**-1
    73:    3233.92 cm**-1
    74:    3234.13 cm**-1
    75:    3239.21 cm**-1
    76:    3239.40 cm**-1
    77:    3290.74 cm**-1

IR SPECTRUM
-----------

 Mode   freq       eps      Int      T**2         TX        TY        TZ
       cm**-1   L/(mol*cm) km/mol    a.u.
----------------------------------------------------------------------------
  6:     60.09   0.000587    2.96  0.003046  ( 0.054798  0.000001 -0.006579)
  7:     74.58   0.000010    0.05  0.000042  (-0.000047  0.006503  0.000002)
  8:     86.40   0.000003    0.02  0.000012  (-0.000042 -0.003458  0.000013)
  9:    131.80   0.001212    6.13  0.002871  ( 0.032604  0.000002  0.042519)
 10:    219.25   0.000090    0.45  0.000128  (-0.000005 -0.011300  0.000000)
 11:    253.11   0.000139    0.70  0.000172  ( 0.010370 -0.000003  0.008010)
 12:    306.20   0.000003    0.02  0.000003  ( 0.000004  0.001815 -0.000002)
 13:    345.21   0.004436   22.42  0.004010  (-0.063230 -0.000005  0.003424)
 14:    402.05   0.004007   20.25  0.003110  ( 0.055743 -0.000000 -0.001742)
 15:    412.89   0.000054    0.27  0.000041  (-0.000007 -0.006387  0.000001)
 16:    436.24   0.002679   13.54  0.001917  ( 0.040774 -0.000034  0.015940)
 17:    437.20   0.000028    0.14  0.000020  ( 0.000348  0.004447  0.000136)
 18:    519.56   0.000052    0.26  0.000031  (-0.000014  0.005590  0.000001)
 19:    564.94   0.001200    6.06  0.000663  ( 0.000064 -0.025742 -0.000008)
 20:    594.41   0.006281   31.74  0.003297  ( 0.056576  0.000022 -0.009819)
 21:    612.50   0.000113    0.57  0.000057  ( 0.001496  0.000038 -0.007423)
 22:    613.34   0.000116    0.59  0.000059  ( 0.000004  0.007695  0.000034)
 23:    626.43   0.004220   21.33  0.002102  (-0.044262 -0.000001  0.011960)
 24:    697.03   0.002752   13.91  0.001232  ( 0.000008  0.035101 -0.000047)
 25:    704.29   0.011897   60.12  0.005271  ( 0.007795 -0.000020 -0.072184)
 26:    740.54   0.000092    0.46  0.000039  (-0.000006 -0.006224  0.000009)
 27:    804.78   0.002002   10.12  0.000776  ( 0.000004  0.027862  0.000002)
 28:    812.91   0.012472   63.03  0.004788  (-0.046750  0.000004  0.051013)
 29:    853.83   0.000432    2.18  0.000158  (-0.012470 -0.000010  0.001514)
 30:    855.30   0.008272   41.80  0.003018  ( 0.054922 -0.000068 -0.001301)
 31:    855.82   0.000141    0.71  0.000051  (-0.000500 -0.007151  0.000013)
 32:    942.17   0.008437   42.64  0.002795  ( 0.039273  0.000002 -0.035385)
 33:    975.75   0.000007    0.03  0.000002  ( 0.000001 -0.001450 -0.000002)
 34:    976.90   0.000038    0.19  0.000012  (-0.000719  0.000002 -0.003411)
 35:   1008.17   0.014430   72.93  0.004467  ( 0.066820  0.000007 -0.001314)
 36:   1011.29   0.000170    0.86  0.000052  (-0.000058  0.007235  0.000004)
 37:   1016.11   0.000186    0.94  0.000057  (-0.007320 -0.000004 -0.001853)
 38:   1016.31   0.000014    0.07  0.000004  (-0.000002  0.002066 -0.000012)
 39:   1044.19   0.019023   96.13  0.005685  ( 0.075399 -0.000025  0.000247)
 40:   1044.71   0.000164    0.83  0.000049  ( 0.000379  0.006998 -0.000025)
 41:   1045.62   0.001911    9.66  0.000570  (-0.023480  0.000043  0.004370)
 42:   1053.53   0.000238    1.20  0.000070  ( 0.000063  0.008389 -0.000005)
 43:   1073.90   0.011170   56.45  0.003246  (-0.056874  0.000010  0.003363)
 44:   1125.68   0.000673    3.40  0.000187  (-0.000168 -0.013660 -0.000078)
 45:   1128.95   0.004930   24.92  0.001363  ( 0.034134 -0.000071  0.014061)
 46:   1181.29   0.002398   12.12  0.000634  (-0.000020 -0.025171  0.000010)
 47:   1183.89   0.000163    0.82  0.000043  ( 0.003614  0.000038  0.005463)
 48:   1186.82   0.002839   14.35  0.000747  (-0.000049  0.027324  0.000004)
 49:   1205.12   0.020617  104.19  0.005339  (-0.072972 -0.000027  0.003729)
 50:   1214.30   0.000419    2.12  0.000108  ( 0.000113 -0.010380 -0.000004)
 51:   1328.08   0.002502   12.64  0.000588  (-0.022709  0.000039  0.008498)
 52:   1332.19   0.001151    5.82  0.000270  ( 0.000063  0.016423 -0.000022)
 53:   1394.02   0.001431    7.23  0.000320  (-0.000065 -0.017900 -0.000001)
 54:   1410.27   0.020826  105.25  0.004608  ( 0.067852 -0.000008  0.002094)
 55:   1429.52   0.004328   21.87  0.000945  (-0.000009 -0.030739  0.000002)
 56:   1432.95   0.015035   75.98  0.003274  ( 0.055461 -0.000015 -0.014084)
 57:   1487.79   0.001391    7.03  0.000292  (-0.000020  0.017081  0.000011)
 58:   1493.67   0.005767   29.15  0.001205  (-0.024755  0.000014 -0.024333)
 59:   1519.48   0.003893   19.67  0.000800  ( 0.000088  0.028276  0.000000)
 60:   1540.17   0.029406  148.61  0.005958  ( 0.077188 -0.000007  0.000473)
 61:   1544.94   0.000035    0.17  0.000007  ( 0.000369 -0.002618  0.000001)
 62:   1610.54   0.002501   12.64  0.000485  ( 0.021841 -0.000018  0.002744)
 63:   1611.09   0.000218    1.10  0.000042  ( 0.000056  0.006500  0.000006)
 64:   1652.52   0.217934  1101.35  0.041155  (-0.202693  0.000007  0.008392)
 65:   1694.06   0.005428   27.43  0.001000  ( 0.000022  0.031620  0.000000)
 66:   3188.26   0.000921    4.65  0.000090  ( 0.000015  0.009493  0.000001)
 67:   3215.31   0.000483    2.44  0.000047  ( 0.006846 -0.000023 -0.000134)
 68:   3215.86   0.000011    0.06  0.000001  ( 0.000070  0.001050 -0.000002)
 69:   3218.86   0.000029    0.15  0.000003  (-0.001478  0.000021 -0.000813)
 70:   3219.84   0.000048    0.24  0.000005  (-0.000018 -0.002154 -0.000005)
 71:   3224.71   0.001052    5.32  0.000102  ( 0.010080 -0.000011 -0.000486)
 72:   3225.42   0.000005    0.03  0.000001  ( 0.000053  0.000718 -0.000003)
 73:   3233.92   0.000154    0.78  0.000015  (-0.002743  0.000195 -0.002701)
 74:   3234.13   0.000153    0.77  0.000015  (-0.000131 -0.003840 -0.000134)
 75:   3239.21   0.000287    1.45  0.000028  ( 0.005238 -0.000018 -0.000424)
 76:   3239.40   0.000026    0.13  0.000002  ( 0.000073  0.001569 -0.000002)
 77:   3290.74   0.000102    0.51  0.000010  (-0.002952  0.000004  0.000973)

--------------------------
THERMOCHEMISTRY AT 298.15K
--------------------------

Temperature         ...   298.15 K
Pressure            ...     1.00 atm
Total Mass          ...   180.25 AMU
Quasi RRHO          ...     True
Cut-Off Frequency   ...     1.00 cm^-1

Throughout the following assumptions are being made:
  (1) The electronic state is orbitally nondegenerate
      but the spin degeneracy is treated
  (2) There are no thermally accessible electronically excited states
  (3) Hindered rotations indicated by low frequency modes are not
      treated as such but are treated as vibrations and this may
      cause some error
  (4) All equations used are the standard statistical mechanics
      equations for an ideal gas
  (5) All vibrations are strictly harmonic

freq.      60.09  E(vib)   ...       0.51
freq.      74.58  E(vib)   ...       0.49
freq.      86.40  E(vib)   ...       0.48
freq.     131.80  E(vib)   ...       0.42
freq.     219.25  E(vib)   ...       0.33
freq.     253.11  E(vib)   ...       0.30
freq.     306.20  E(vib)   ...       0.26
freq.     345.21  E(vib)   ...       0.23
freq.     402.05  E(vib)   ...       0.19
freq.     412.89  E(vib)   ...       0.19
freq.     436.24  E(vib)   ...       0.17
freq.     437.20  E(vib)   ...       0.17
freq.     519.56  E(vib)   ...       0.13
freq.     564.94  E(vib)   ...       0.11
freq.     594.41  E(vib)   ...       0.10
freq.     612.50  E(vib)   ...       0.10
freq.     613.34  E(vib)   ...       0.10
freq.     626.43  E(vib)   ...       0.09
freq.     697.03  E(vib)   ...       0.07
freq.     704.29  E(vib)   ...       0.07
freq.     740.54  E(vib)   ...       0.06
freq.     804.78  E(vib)   ...       0.05
freq.     812.91  E(vib)   ...       0.05
freq.     853.83  E(vib)   ...       0.04
freq.     855.30  E(vib)   ...       0.04
freq.     855.82  E(vib)   ...       0.04
freq.     942.17  E(vib)   ...       0.03
freq.     975.75  E(vib)   ...       0.03
freq.     976.90  E(vib)   ...       0.03
freq.    1008.17  E(vib)   ...       0.02
freq.    1011.29  E(vib)   ...       0.02
freq.    1016.11  E(vib)   ...       0.02
freq.    1016.31  E(vib)   ...       0.02
freq.    1044.19  E(vib)   ...       0.02
freq.    1044.71  E(vib)   ...       0.02
freq.    1045.62  E(vib)   ...       0.02
freq.    1053.53  E(vib)   ...       0.02
freq.    1073.90  E(vib)   ...       0.02
freq.    1125.68  E(vib)   ...       0.01
freq.    1128.95  E(vib)   ...       0.01
freq.    1181.29  E(vib)   ...       0.01
freq.    1183.89  E(vib)   ...       0.01
freq.    1186.82  E(vib)   ...       0.01
freq.    1205.12  E(vib)   ...       0.01
freq.    1214.30  E(vib)   ...       0.01
freq.    1328.08  E(vib)   ...       0.01
freq.    1332.19  E(vib)   ...       0.01
freq.    1394.02  E(vib)   ...       0.00
freq.    1410.27  E(vib)   ...       0.00
freq.    1429.52  E(vib)   ...       0.00
freq.    1432.95  E(vib)   ...       0.00
freq.    1487.79  E(vib)   ...       0.00
freq.    1493.67  E(vib)   ...       0.00
freq.    1519.48  E(vib)   ...       0.00
freq.    1540.17  E(vib)   ...       0.00
freq.    1544.94  E(vib)   ...       0.00
freq.    1610.54  E(vib)   ...       0.00
freq.    1611.09  E(vib)   ...       0.00
freq.    1652.52  E(vib)   ...       0.00
freq.    1694.06  E(vib)   ...       0.00
freq.    3188.26  E(vib)   ...       0.00
freq.    3215.31  E(vib)   ...       0.00
freq.    3215.86  E(vib)   ...       0.00
freq.    3218.86  E(vib)   ...       0.00
freq.    3219.84  E(vib)   ...       0.00
freq.    3224.71  E(vib)   ...       0.00
freq.    3225.42  E(vib)   ...       0.00
freq.    3233.92  E(vib)   ...       0.00
freq.    3234.13  E(vib)   ...       0.00
freq.    3239.21  E(vib)   ...       0.00
freq.    3239.40  E(vib)   ...       0.00
freq.    3290.74  E(vib)   ...       0.00

------------
INNER ENERGY
------------

The inner energy is: U= E(el) + E(ZPE) + E(vib) + E(rot) + E(trans)
    E(el)   - is the total energy from the electronic structure calculation
              = E(kin-el) + E(nuc-el) + E(el-el) + E(nuc-nuc)
    E(ZPE)  - the the zero temperature vibrational energy from the frequency calculation
    E(vib)  - the the finite temperature correction to E(ZPE) due to population
              of excited vibrational states
    E(rot)  - is the rotational thermal energy
    E(trans)- is the translational thermal energy

Summary of contributions to the inner energy U:
Electronic energy                ...   -539.38855601 Eh
Zero point energy                ...      0.21570225 Eh     135.35 kcal/mol
Thermal vibrational correction   ...      0.00828343 Eh       5.20 kcal/mol
Thermal rotational correction    ...      0.00141627 Eh       0.89 kcal/mol
Thermal translational correction ...      0.00141627 Eh       0.89 kcal/mol
-----------------------------------------------------------------------
Total thermal energy                   -539.16173779 Eh

Summary of corrections to the electronic energy:
(perhaps to be used in another calculation)
Total thermal correction                  0.01111597 Eh       6.98 kcal/mol
Non-thermal (ZPE) correction              0.21570225 Eh     135.35 kcal/mol
-----------------------------------------------------------------------
Total correction                          0.22681822 Eh     142.33 kcal/mol

--------
ENTHALPY
--------

The enthalpy is H = U + kB*T
                kB is Boltzmann's constant
Total thermal energy              ...   -539.16173779 Eh
Thermal Enthalpy correction       ...      0.00094421 Eh       0.59 kcal/mol
-----------------------------------------------------------------------
Total Enthalpy                    ...   -539.16079358 Eh

Note: Rotational entropy computed according to Herzberg
Infrared and Raman Spectra, Chapter V,1, Van Nostrand Reinhold, 1945
Point Group:  C2, Symmetry Number:   2
Rotational constants in cm-1:     0.053565     0.014254     0.012120

Vibrational entropy computed according to the QRRHO of S. Grimme
Chem.Eur.J. 2012 18 9955 using a reference frequency of 100.0 cm-1

-------
ENTROPY
-------

The entropy contributions are T*S = T*(S(el)+S(vib)+S(rot)+S(trans))
     S(el)   - electronic entropy
     S(vib)  - vibrational entropy
     S(rot)  - rotational entropy
     S(trans)- translational entropy
The entropies will be listed as multiplied by the temperature to get
units of energy

Electronic entropy                ...      0.00065446 Eh      0.41 kcal/mol
Vibrational entropy               ...      0.01375984 Eh      8.63 kcal/mol
Rotational entropy                ...      0.01432813 Eh      8.99 kcal/mol
Translational entropy             ...      0.01970567 Eh     12.37 kcal/mol

                             ****ORCA TERMINATED NORMALLY****
TOTAL RUN TIME: 0 days 0 hours 16 minutes 11 seconds 178 msec
